Membrane in water
40344
    1TMC1    C1    1   4.663   0.382  11.219  0.6485  0.6092  0.4248
    1TMC1    C2    2   4.581   0.488  11.209  0.4847  0.1992 -0.4725
    1TMC1    C3    3   4.612   0.586  11.122 -0.7655 -0.1307 -0.1561
    1TMC1    C4    4   0.038   0.367  11.137  0.3787  0.0380  0.7166
    1TMC1    C5    5   0.054   0.463  11.043 -0.3152  0.0149 -0.0030
    1TMC1    C6    6   4.715   0.572  11.039  0.1872 -0.1944 -0.1242
    1TMC1     C    7   4.621   0.278  11.311  0.0888  0.9642  0.3856
    1TMC1     O    8   4.521   0.296  11.380  0.0166  0.7118 -0.8118
    1TMC1     H    9   4.503   0.505  11.282 -1.9160  1.7294 -3.3941
    1TMC1    H1   10   0.104   0.281  11.140  0.1528 -0.1774 -0.3810
    1TMC1    H2   11   0.003   0.643  10.961  0.7288 -1.7789 -1.3766
    1TMC1    C7   12   0.180   0.466  10.974 -0.6206  0.4579  0.2653
    1TMC1    C8   13   4.521   0.699  11.110 -0.0902  0.2232  0.0379
    1TMC1    O1   14   0.227   0.572  10.930  0.0247 -0.0934 -0.1520
    1TMC1    O2   15   4.409   0.693  11.158  0.0430 -0.1238  0.1214
    1TMC1    O3   16   0.246   0.355  10.966  0.0132  0.3114  0.2977
    1TMC1    H3   17   0.203   0.267  10.975  1.7253 -0.4889  0.6867
    1TMC1    O5   18   4.572   0.789  11.018  0.7747  0.3004  0.0006
    1TMC1    H5   19   4.667   0.811  11.024  0.4344  1.7724 -0.0846
    2MPD2     C   20   4.634   4.523  11.470  0.5054  0.6935  0.0194
    2MPD2    C1   21   4.570   4.630  11.529  0.3773 -0.3293  0.6199
    2MPD2    C2   22   4.583   0.019  11.471  0.3399  0.3663 -0.2371
    2MPD2    C3   23   4.668   0.042  11.357  0.6299  0.4500 -0.1498
    2MPD2    C4   24   4.727   4.667  11.305 -0.1341  0.3089 -0.5072
    2MPD2    C5   25   4.703   4.541  11.355 -0.3566  0.2447 -0.2661
    2MPD2     H   26   4.539   0.103  11.524  0.7064  0.3132  0.1536
    2MPD2    H1   27   0.062   4.676  11.225  2.4569 -1.5496  1.6298
    2MPD2    H2   28   4.619   4.423  11.509  0.0795  0.6041 -0.3711
    2MPD2    H3   29   0.009   4.453  11.309  1.5563  1.0774 -0.0435
    2MPD2     N   30   4.689   0.165  11.289  0.0781 -0.3732  0.2395
    2MPD2    H5   31   0.009   0.161  11.206  0.9387  1.5742  0.7592
    2MPD2    N1   32   4.481   4.614  11.640  0.1056 -0.2847  0.0592
    2MPD2    H7   33   4.434   4.697  11.672  0.6714  0.4809 -1.0707
    3TMC1    C1   34   3.220   4.610  11.061  0.1214  0.2627  0.3128
    3TMC1    C2   35   3.218   4.479  11.018  0.0026  0.3218  0.9836
    3TMC1    C3   36   3.331   4.416  11.003  0.5137 -0.0060 -0.4970
    3TMC1    C4   37   3.342   4.668  11.094  1.0035 -0.3342  0.3164
    3TMC1    C5   38   3.460   4.590  11.089 -0.0161 -0.1369  0.7378
    3TMC1    C6   39   3.457   4.455  11.053  0.5146 -0.1737 -0.6720
    3TMC1     C   40   3.098   4.663  11.119 -0.5228 -0.0794  0.4438
    3TMC1     O   41   3.008   4.591  11.154 -0.8843 -0.1321  0.1950
    3TMC1     H   42   3.123   4.428  11.010  1.3527 -2.1439  0.6855
    3TMC1    H1   43   3.348   0.035  11.123  0.8871 -0.1720 -0.2538
    3TMC1    H2   44   3.540   4.385  11.049  1.1569  0.5809 -0.4710
    3TMC1    C7   45   3.579   4.649  11.139  0.4746 -0.2064  0.2082
    3TMC1    C8   46   3.327   4.288  10.950  0.6660  0.6447 -0.5989
    3TMC1    O1   47   3.595   0.032  11.155 -0.6302 -0.1863 -0.2403
    3TMC1    O2   48   3.236   4.208  10.964 -0.1394  0.0716  0.4245
    3TMC1    O3   49   3.646   4.557  11.203 -0.8010 -0.0807  0.3180
    3TMC1    H3   50   3.614   4.466  11.186  3.0401 -1.4514  0.4775
    3TMC1    O5   51   3.418   4.284  10.846  0.1647  0.4559 -0.2860
    3TMC1    H5   52   3.446   4.374  10.821 -0.7554  1.3679  2.0198
    4MPD2     C   53   2.816   0.311  11.301  0.1468  0.3157 -0.8565
    4MPD2    C1   54   2.930   0.366  11.246  0.2938 -0.0211 -0.1994
    4MPD2    C2   55   3.017   0.282  11.196 -0.8507 -0.4208  0.1909
    4MPD2    C3   56   3.007   0.143  11.195 -0.0990 -0.6784 -0.8529
    4MPD2    C4   57   2.892   0.093  11.261  0.1843 -0.1978 -0.4181
    4MPD2    C5   58   2.798   0.178  11.315 -0.3261 -0.2523  0.1245
    4MPD2     H   59   3.102   0.326  11.146 -2.6866  3.6205  0.5398
    4MPD2    H1   60   2.869   4.725  11.262 -0.1741 -0.1047  0.7255
    4MPD2    H2   61   2.737   0.374  11.340 -1.8718 -1.4400 -2.1639
    4MPD2    H3   62   2.706   0.141  11.358 -0.1158  0.9048  1.5732
    4MPD2     N   63   3.100   0.060  11.126  0.3874 -0.3970 -0.5125
    4MPD2    H5   64   3.185   0.096  11.083 -0.4129  1.1281 -0.8287
    4MPD2    N1   65   2.955   0.505  11.229  0.1907  0.0641  0.7389
    4MPD2    H7   66   3.051   0.532  11.207  0.1425  0.3178  0.8322
    5TCq1    O1   67   3.902   2.950  11.496 -0.2609  0.2314 -0.4882
    5TCq1    C1   68   3.833   2.987  11.605 -0.2166 -0.2167 -0.2620
    5TCq1    O2   69   3.859   3.103  11.650  0.4377  0.3556 -0.5420
    5TCq1    C2   70   3.705   2.914  11.624 -0.0466  0.0450  0.3047
    5TCq1    C3   71   3.633   2.938  11.736 -0.1442  0.6039 -0.3098
    5TCq1    C4   72   3.503   2.903  11.743 -0.2895  0.1483 -0.2061
    5TCq1    C5   73   3.442   2.848  11.633 -0.0430 -0.2011  0.3404
    5TCq1    C6   74   3.515   2.834  11.516 -0.6391 -0.1948 -0.8833
    5TCq1    C7   75   3.656   2.859  11.519 -0.0811 -0.2804  0.0338
    5TCq1    C8   76   3.469   2.742  11.416  0.1349  0.1465 -0.3495
    5TCq1    O4   77   3.562   2.673  11.370  0.6707 -0.1533  0.2946
    5TCq1    C9   78   3.426   2.931  11.860 -0.1226  0.2431 -0.5884
    5TCq1    O5   79   3.303   2.917  11.860  0.3106  0.2199 -0.0545
    5TCq1    O6   80   3.492   2.962  11.966 -0.7203 -0.6529 -0.3091
    5TCq1    H1   81   3.891   2.854  11.481 -1.1315  0.9670 -4.5033
    5TCq1    H2   82   3.676   2.994  11.818 -0.6685 -2.3213  1.9341
    5TCq1    H3   83   3.337   2.820  11.631  0.3031 -1.3124 -2.7026
    5TCq1    H4   84   3.710   2.849  11.426 -0.9322 -2.6677 -0.1981
    6MPD2     C   85   3.121   2.709  11.296  0.1305  0.4143 -0.0688
    6MPD2    C1   86   3.254   2.683  11.308 -0.2969 -0.3154 -0.6164
    6MPD2    C2   87   3.311   2.587  11.221 -0.1420  0.1530 -0.0176
    6MPD2    C3   88   3.224   2.514  11.140  0.2172 -0.2203 -0.4136
    6MPD2    C4   89   3.091   2.533  11.146 -0.3355 -0.6250  0.2473
    6MPD2    C5   90   3.042   2.637  11.216 -0.1575  0.1898  0.3274
    6MPD2     H   91   3.418   2.572  11.214 -0.2614 -0.2059 -1.0760
    6MPD2    H1   92   3.019   2.483  11.083  1.5767 -0.0571 -2.4147
    6MPD2    H2   93   3.073   2.780  11.363  1.3800 -0.7953  2.1478
    6MPD2    H3   94   2.933   2.641  11.224 -0.1940 -2.8621  1.5926
    6MPD2     N   95   3.288   2.417  11.052 -0.3159 -0.4780 -0.1682
    6MPD2    H5   96   3.389   2.412  11.042 -0.0190  1.0443  2.0282
    6MPD2    N1   97   3.333   2.756  11.399 -0.3088  0.1720 -0.4613
    6MPD2    H7   98   3.292   2.829  11.457  1.7854  1.6443 -0.7872
    7TCq1    O1   99   2.113   2.347  13.783 -0.7041  1.0390  0.1836
    7TCq1    C1  100   2.188   2.396  13.683  0.5702 -0.0397  0.2357
    7TCq1    O2  101   2.271   2.483  13.701 -0.0105  0.3759  0.1250
    7TCq1    C2  102   2.106   2.384  13.565  0.6664 -0.6594  0.7620
    7TCq1    C3  103   2.097   2.482  13.467 -0.1662  0.1589  0.2124
    7TCq1    C4  104   2.007   2.462  13.366  0.1383  0.5361  0.4108
    7TCq1    C5  105   1.925   2.347  13.355 -0.0845  0.6344  0.5341
    7TCq1    C6  106   1.935   2.254  13.450  0.0207  0.0085 -0.3134
    7TCq1    C7  107   2.025   2.266  13.554  0.3098  0.0623 -0.1565
    7TCq1    C8  108   1.888   2.115  13.427  0.7131  0.3668  0.6178
    7TCq1    O4  109   1.933   2.023  13.495  0.4190 -1.1944 -0.0929
    7TCq1    C9  110   1.985   2.573  13.275 -0.1227  0.0804  1.3345
    7TCq1    O5  111   1.877   2.566  13.210  0.3335  0.5936  0.6254
    7TCq1    O6  112   2.082   2.661  13.265 -0.0916 -0.3035 -0.4835
    7TCq1    H1  113   2.027   2.305  13.761  0.1683 -1.5010  1.5956
    7TCq1    H2  114   2.159   2.571  13.469 -0.5639  0.4369  0.2303
    7TCq1    H3  115   1.858   2.346  13.270  2.1564  0.4975 -1.2145
    7TCq1    H4  116   2.047   2.182  13.618  3.5911  1.4097  0.4999
    8MPD2     C  117   1.614   1.801  13.136  0.7724 -0.3109  0.9571
    8MPD2    C1  118   1.701   1.770  13.236  1.1515  0.1547  0.4184
    8MPD2    C2  119   1.753   1.874  13.311 -0.7626  0.9488  0.1473
    8MPD2    C3  120   1.728   2.006  13.271  0.2687 -0.6606  0.6085
    8MPD2    C4  121   1.651   2.033  13.163  0.2241 -0.2056  0.3476
    8MPD2    C5  122   1.584   1.926  13.097 -0.5119 -0.3541 -0.3248
    8MPD2     H  123   1.822   1.856  13.393 -0.1265 -0.4246 -0.6912
    8MPD2    H1  124   1.618   2.134  13.140 -1.1561 -0.2624  2.0845
    8MPD2    H2  125   1.552   1.724  13.092 -1.1684  2.0488 -0.4425
    8MPD2    H3  126   1.518   1.944  13.012 -1.2139  1.1475  0.5336
    8MPD2     N  127   1.800   2.112  13.329  0.5658  0.3255  0.1359
    8MPD2    H5  128   1.784   2.203  13.286 -1.4412  0.2419  0.6817
    8MPD2    N1  129   1.721   1.631  13.261 -0.1959  0.3607 -0.5081
    8MPD2    H7  130   1.689   1.579  13.180 -1.4432 -1.0223  0.8583
    9TMC1    C1  131   4.241   0.960  10.990  0.0419 -0.1588  0.1051
    9TMC1    C2  132   4.208   0.839  11.029  0.7522 -0.1823  0.1915
    9TMC1    C3  133   4.205   0.739  10.937  0.8212  0.1257  0.5931
    9TMC1    C4  134   4.302   0.980  10.869  0.4502 -0.1524  0.5798
    9TMC1    C5  135   4.302   0.871  10.784 -0.0819 -0.6935  0.3548
    9TMC1    C6  136   4.247   0.747  10.809 -0.5267  0.2164 -0.0067
    9TMC1     C  137   4.246   1.069  11.081  0.6197  0.2451 -0.3428
    9TMC1     O  138   4.259   1.176  11.027  0.5365 -0.2349 -0.0677
    9TMC1     H  139   4.160   0.816  11.123  0.3938 -0.5732 -0.0865
    9TMC1    H1  140   4.333   1.081  10.843  3.8843 -1.6371 -1.2299
    9TMC1    H2  141   4.244   0.662  10.742 -1.6825  1.1027 -1.0932
    9TMC1    C7  142   4.327   0.903  10.648  0.6324 -0.4362 -0.2663
    9TMC1    C8  143   4.157   0.604  10.973  0.0896 -0.2792 -0.6725
    9TMC1    O1  144   4.264   0.852  10.559 -0.4626 -0.2084  0.2950
    9TMC1    O2  145   4.061   0.551  10.923 -0.4045 -0.0750  0.0211
    9TMC1    O3  146   4.456   0.964  10.642 -0.0707 -0.2262 -0.4990
    9TMC1    H3  147   4.474   1.002  10.731 -0.8669  1.9901 -1.2891
    9TMC1    O5  148   4.197   0.584  11.097  0.4412  0.1430 -0.0888
    9TMC1    H5  149   4.271   0.638  11.133  0.7113 -2.2433  2.8915
   10MPD2     C  150   4.311   1.244  11.311 -0.1570 -0.0479  0.6726
   10MPD2    C1  151   4.255   1.116  11.320 -0.1730  0.5053  0.1747
   10MPD2    C2  152   4.231   1.066  11.449  1.0248  0.0114  0.2675
   10MPD2    C3  153   4.245   1.148  11.564  0.3399  0.5715 -0.2617
   10MPD2    C4  154   4.297   1.274  11.543 -0.0333 -0.2936  0.4327
   10MPD2    C5  155   4.331   1.319  11.419 -0.2359  0.1303  0.1436
   10MPD2     H  156   4.193   0.966  11.465  0.1368  0.2398 -0.4350
   10MPD2    H1  157   4.306   1.342  11.626  2.6429 -0.2681  0.1022
   10MPD2    H2  158   4.349   1.291  11.221 -1.7813 -1.5070 -0.7828
   10MPD2    H3  159   4.363   1.422  11.419 -0.0081  0.0613  0.6774
   10MPD2     N  160   4.214   1.100  11.696  0.5797 -0.6116 -0.1652
   10MPD2    H5  161   4.253   1.149  11.775  0.6537  1.2901 -1.3655
   10MPD2    N1  162   4.239   1.029  11.211  0.4074  0.4210 -0.0783
   10MPD2    H7  163   4.233   0.932  11.238  3.0187  0.2051 -0.2823
   11TCq1    O1  164   3.838   0.722  14.690 -0.2501 -1.2340 -0.5990
   11TCq1    C1  165   3.774   0.622  14.626 -0.3523 -0.1495  0.0348
   11TCq1    O2  166   3.659   0.616  14.592 -0.2549 -0.6790 -0.2909
   11TCq1    C2  167   3.875   0.550  14.556 -0.5366  0.3495  0.4438
   11TCq1    C3  168   3.983   0.506  14.628 -0.7069 -0.4134  0.6095
   11TCq1    C4  169   4.065   0.420  14.559 -0.5915 -0.4104  0.0671
   11TCq1    C5  170   4.056   0.393  14.426  0.1239 -0.4119  0.1519
   11TCq1    C6  171   3.956   0.451  14.358  0.3240 -0.5826  0.3533
   11TCq1    C7  172   3.861   0.521  14.425  0.0251  0.2998  0.2352
   11TCq1    C8  173   3.961   0.415  14.220 -0.2441 -0.0096 -0.3903
   11TCq1    O4  174   4.061   0.369  14.169  0.7135  0.0623 -0.3674
   11TCq1    C9  175   4.161   0.349  14.636 -0.4198 -0.3322  0.6921
   11TCq1    O5  176   4.231   0.259  14.577  0.4586 -0.2573 -0.7543
   11TCq1    O6  177   4.167   0.362  14.759 -0.1740 -0.4405 -0.1376
   11TCq1    H1  178   3.934   0.720  14.672 -0.4282 -1.3423 -1.5148
   11TCq1    H2  179   3.992   0.521  14.735  0.4717 -1.3018  0.6378
   11TCq1    H3  180   4.113   0.310  14.386 -0.5359  0.0445 -1.7185
   11TCq1    H4  181   3.777   0.565  14.373  2.7582  1.3438 -3.2790
   12MPD2     C  182   3.677   0.494  13.987  0.2359 -0.9036  0.5359
   12MPD2    C1  183   3.803   0.451  14.023  0.0150 -0.2910 -0.0626
   12MPD2    C2  184   3.880   0.381  13.929 -0.4210 -0.0939 -0.3197
   12MPD2    C3  185   3.829   0.368  13.797  0.2364  0.6555  0.2409
   12MPD2    C4  186   3.706   0.418  13.767 -0.2785 -0.0266  0.7034
   12MPD2    C5  187   3.627   0.487  13.857  0.1676 -0.2258 -0.0609
   12MPD2     H  188   3.978   0.344  13.954 -0.4134  0.6856  0.8319
   12MPD2    H1  189   3.675   0.413  13.664  2.6151  1.9794 -0.2771
   12MPD2    H2  190   3.612   0.544  14.057  0.9288 -0.3170  0.7631
   12MPD2    H3  191   3.531   0.530  13.831 -0.3682 -1.2026  0.2985
   12MPD2     N  192   3.894   0.298  13.697  0.8291 -0.0598 -0.3007
   12MPD2    H5  193   3.849   0.299  13.606 -0.8214  0.2342  0.5239
   12MPD2    N1  194   3.844   0.461  14.158  0.3773 -0.2836  0.8842
   12MPD2    H7  195   3.772   0.496  14.219 -1.7741 -2.1836 -0.5654
   13TCq1    O1  196   4.248   0.856  10.303  0.0682 -0.0317  0.2178
   13TCq1    C1  197   4.170   0.821  10.197 -0.4670  0.0801  0.3138
   13TCq1    O2  198   4.184   0.865  10.084  0.4632 -1.1436 -0.0764
   13TCq1    C2  199   4.136   0.679  10.212 -0.3955  0.2249  0.4957
   13TCq1    C3  200   4.135   0.588  10.108 -0.0423  0.4077  0.8750
   13TCq1    C4  201   4.147   0.457  10.114 -0.1651  0.2295  0.5994
   13TCq1    C5  202   4.158   0.402  10.240 -0.1745 -0.2121  0.2999
   13TCq1    C6  203   4.158   0.487  10.345 -0.0499 -0.3171 -0.2128
   13TCq1    C7  204   4.146   0.622  10.338  0.0509 -0.6357  0.2345
   13TCq1    C8  205   4.138   0.446  10.487 -0.1033  0.2074 -0.2177
   13TCq1    O4  206   4.087   0.525  10.566 -0.4005  0.5396  0.2683
   13TCq1    C9  207   4.131   0.374   9.992  0.3639  0.5820 -0.8413
   13TCq1    O5  208   4.090   0.431   9.889 -0.1056  0.0451  0.0610
   13TCq1    O6  209   4.135   0.247  10.011 -0.4360  0.0713 -0.2347
   13TCq1    H1  210   4.235   0.824  10.395 -1.5140 -2.0165 -0.6885
   13TCq1    H2  211   4.116   0.629  10.010 -0.7383  0.3449  0.9803
   13TCq1    H3  212   4.155   0.295  10.257 -1.1107 -0.0751  1.0436
   13TCq1    H4  213   4.147   0.682  10.429 -3.0497 -0.7385  0.3418
   14MPD2     C  214   4.212   0.114  10.614  0.3845  0.0887  0.9820
   14MPD2    C1  215   4.168   0.238  10.625  0.0301 -0.2098  0.0036
   14MPD2    C2  216   4.115   0.286  10.748  0.0740 -0.0191 -0.7600
   14MPD2    C3  217   4.087   0.201  10.847  0.3445 -0.1512 -0.4690
   14MPD2    C4  218   4.138   0.075  10.840  0.9781  0.1392  0.1524
   14MPD2    C5  219   4.190   0.026  10.720  0.0940 -0.2238  1.0119
   14MPD2     H  220   4.074   0.386  10.749  1.4989  0.5485  0.2140
   14MPD2    H1  221   4.130   0.007  10.924  0.1518 -0.8289 -0.7149
   14MPD2    H2  222   4.253   0.077  10.521 -1.7715 -0.4742  0.2708
   14MPD2    H3  223   4.198   4.656  10.711 -0.2866 -0.0875 -0.8182
   14MPD2     N  224   4.028   0.251  10.966 -0.1775 -0.9895 -0.4764
   14MPD2    H5  225   4.024   0.352  10.970  3.6049 -0.8395 -1.0682
   14MPD2    N1  226   4.182   0.317  10.511 -0.8060  0.0081  0.4644
   14MPD2    H7  227   4.237   0.287  10.431  0.7049 -2.6983  2.5152
   15TCq1    O1  228   0.976   4.503   1.852 -0.6206 -0.6082 -0.3519
   15TCq1    C1  229   1.104   4.542   1.827 -0.5273  0.0770 -0.0005
   15TCq1    O2  230   1.201   4.499   1.886  0.3191 -0.1490  0.5182
   15TCq1    C2  231   1.101   4.584   1.687 -0.0975  0.4626 -0.2851
   15TCq1    C3  232   0.988   4.641   1.643 -0.2456  0.0417  0.2443
   15TCq1    C4  233   0.979   4.656   1.507 -0.3924 -0.0623  0.0393
   15TCq1    C5  234   1.081   4.621   1.425  0.4219 -0.3052 -0.0099
   15TCq1    C6  235   1.194   4.572   1.476 -0.4530 -0.8731  0.5815
   15TCq1    C7  236   1.209   4.556   1.611  0.0757  0.2334  0.3795
   15TCq1    C8  237   1.310   4.531   1.395  0.6492 -0.3292  0.1962
   15TCq1    O4  238   1.400   4.456   1.437 -0.3163 -0.0598 -0.3423
   15TCq1    C9  239   0.857   4.709   1.447  0.2450  0.0237 -1.1567
   15TCq1    O5  240   0.865   4.734   1.326 -0.3223  0.5375  0.3399
   15TCq1    O6  241   0.764   0.007   1.526 -0.2479  0.2103 -0.2367
   15TCq1    H1  242   0.926   4.490   1.768 -0.8598 -2.0577  0.0016
   15TCq1    H2  243   0.912   4.678   1.711 -2.3931  0.1290 -2.1880
   15TCq1    H3  244   1.071   4.632   1.317  2.1258  0.0750 -0.1268
   15TCq1    H4  245   1.294   4.510   1.660  1.8915 -0.7239 -3.7338
   16MPD2     C  246   1.423   4.681   1.071  0.3086 -0.1726 -0.4654
   16MPD2    C1  247   1.407   4.584   1.171 -0.4050  0.0132  0.3270
   16MPD2    C2  248   1.478   4.465   1.165 -0.1435 -0.4066  0.0047
   16MPD2    C3  249   1.569   4.439   1.061  0.5247  0.8582 -0.0810
   16MPD2    C4  250   1.605   4.545   0.990  0.1604  0.3524  0.3530
   16MPD2    C5  251   1.538   4.667   1.000 -0.0451 -0.2465  0.3026
   16MPD2     H  252   1.468   4.382   1.235  0.6751  2.2128  3.2001
   16MPD2    H1  253   1.683   4.544   0.915 -0.6792 -1.0599 -0.4867
   16MPD2    H2  254   1.362   0.032   1.079  1.7772  0.8087 -0.1738
   16MPD2    H3  255   1.564   0.005   0.926  2.7645 -0.5482  0.9995
   16MPD2     N  256   1.619   4.304   1.038 -0.1190  0.3151 -0.0037
   16MPD2    H5  257   1.590   4.231   1.102  3.8330 -0.4181  0.9653
   16MPD2    N1  258   1.316   4.608   1.280  0.1561  0.2255 -0.2206
   16MPD2    H7  259   1.258   4.691   1.275  1.2309  1.0825  1.5537
   17TMC1    C1  260   3.885   4.368  11.789  0.0719 -0.0754 -0.4569
   17TMC1    C2  261   3.973   4.278  11.728 -0.1451 -0.2721  0.3325
   17TMC1    C3  262   3.952   4.143  11.758  0.0217  0.6130 -0.1034
   17TMC1    C4  263   3.780   4.334  11.869  0.2356  0.0391  0.2776
   17TMC1    C5  264   3.764   4.203  11.886 -0.4470  0.3658  0.6574
   17TMC1    C6  265   3.854   4.104  11.840 -0.4006 -0.4477  0.6459
   17TMC1     C  266   3.905   4.512  11.775 -0.0749  0.0753 -0.0441
   17TMC1     O  267   3.868   4.583  11.866  0.4783  0.3095  0.3135
   17TMC1     H  268   4.063   4.318  11.682  0.6450 -0.2863  1.8900
   17TMC1    H1  269   3.707   4.402  11.913  1.1026  0.9487  0.3033
   17TMC1    H2  270   3.839   4.002  11.872 -0.1005 -0.7586 -0.2138
   17TMC1    C7  271   3.654   4.145  11.957  0.4838 -0.2279 -0.0483
   17TMC1    C8  272   4.067   4.065  11.750  0.0695 -1.0004 -0.0501
   17TMC1    O1  273   3.669   4.054  12.037 -0.0373  0.4933  0.3647
   17TMC1    O2  274   4.167   4.125  11.724  0.2843  0.4291 -0.1812
   17TMC1    O3  275   3.543   4.163  11.878  0.5171  0.2459  0.3403
   17TMC1    H3  276   3.554   4.236  11.813  1.3432  0.3766  0.6310
   17TMC1    O5  277   4.042   3.940  11.704  0.0873  0.2749 -0.0540
   17TMC1    H5  278   3.946   3.920  11.699 -0.1626  1.6563 -0.7317
   18MPD2     C  279   4.018   0.038  11.695 -0.3797 -0.3519 -0.5165
   18MPD2    C1  280   4.040   4.658  11.623 -0.2412  0.1343 -0.5446
   18MPD2    C2  281   4.119   4.664  11.504 -0.3402 -0.7914  0.4024
   18MPD2    C3  282   4.172   0.037  11.451  0.1404  0.3018  0.5592
   18MPD2    C4  283   4.149   0.151  11.519 -0.3335  0.1657 -0.2558
   18MPD2    C5  284   4.078   0.147  11.637  0.1733  0.2006  0.0041
   18MPD2     H  285   4.129   4.573  11.446  1.4161  2.1476 -3.9585
   18MPD2    H1  286   4.178   0.244  11.471  2.1945 -0.2766  0.4400
   18MPD2    H2  287   3.954   0.052  11.781  0.7917  1.4938  0.0582
   18MPD2    H3  288   4.071   0.244  11.684  1.1631 -0.6162  1.8311
   18MPD2     N  289   4.241   0.042  11.327  0.9343  0.5320 -0.4379
   18MPD2    H5  290   4.263   0.136  11.295  0.9009  1.1015  1.2104
   18MPD2    N1  291   3.982   4.535  11.661 -0.1285 -0.2198  0.7690
   18MPD2    H7  292   3.993   4.454  11.601  1.9161 -0.5992  1.6746
   19TMC2    C1  293   0.717   0.692  13.919  0.8600  0.3483  0.1722
   19TMC2    C2  294   0.644   0.776  13.838  0.5850  0.2274  0.3232
   19TMC2    C3  295   0.548   0.719  13.761  0.3771 -0.9945  0.1388
   19TMC2    C4  296   0.700   0.555  13.928 -0.2166 -0.0763 -0.9801
   19TMC2    C5  297   0.592   0.511  13.856  0.1172  0.5590  0.0164
   19TMC2    C6  298   0.516   0.589  13.772  0.7666  0.2658  0.5475
   19TMC2     C  299   0.826   0.762  13.987 -0.1219  0.0962 -0.1822
   19TMC2     O  300   0.818   0.882  13.997  0.1125 -0.1013  0.2092
   19TMC2     H  301   0.675   0.880  13.826 -2.8221  1.2199  0.0233
   19TMC2    H1  302   0.750   0.492  14.001 -0.2474  0.3317 -0.6081
   19TMC2    H2  303   0.421   0.566  13.725  1.8362 -1.7450 -0.6127
   19TMC2    C7  304   0.541   0.388  13.881 -0.4229  1.1881  0.0339
   19TMC2    C8  305   0.462   0.798  13.676 -0.0582  0.2132  0.4003
   19TMC2    O1  306   0.627   0.301  13.888  0.4721  0.2762 -0.4267
   19TMC2    O2  307   0.434   0.912  13.714 -0.4578 -0.3956 -0.2637
   19TMC2    O5  308   0.443   0.734  13.557  0.5133  0.3409 -0.3340
   19TMC2    H5  309   0.472   0.641  13.558  0.8479  0.4937  2.4731
   20MPD2     C  310   1.089   0.851  14.107 -0.1354 -0.0945 -0.8676
   20MPD2    C1  311   1.061   0.725  14.054  0.7480 -0.5957  0.8601
   20MPD2    C2  312   1.167   0.635  14.049  0.4933  0.0673  0.7770
   20MPD2    C3  313   1.293   0.671  14.099  0.4622  0.0517  0.3879
   20MPD2    C4  314   1.319   0.800  14.145 -0.3547  0.3032 -0.2864
   20MPD2    C5  315   1.212   0.890  14.148 -0.0941 -0.1752 -0.5400
   20MPD2     H  316   1.145   0.538  14.006  3.0807  0.0648 -0.5592
   20MPD2    H1  317   1.420   0.834  14.161 -0.3690  1.3014 -2.2940
   20MPD2    H2  318   1.010   0.924  14.123 -0.3055 -0.0495 -1.9012
   20MPD2    H3  319   1.235   0.989  14.186  0.3639  0.1707 -1.6928
   20MPD2     N  320   1.394   0.582  14.112 -0.1949 -0.0482  0.5419
   20MPD2    H5  321   1.479   0.618  14.154  0.4045 -0.8489  0.0195
   20MPD2    N1  322   0.939   0.688  13.995 -0.2628  0.3037 -0.4750
   20MPD2    H7  323   0.934   0.591  13.963  0.0547  0.2882 -0.4743
   21TMC2    C1  324   3.796   0.871  14.118 -0.0833 -0.3675 -0.3918
   21TMC2    C2  325   3.918   0.830  14.069  0.5820  0.0337  0.6268
   21TMC2    C3  326   3.916   0.751  13.958 -0.2770  0.7201 -0.3436
   21TMC2    C4  327   3.685   0.862  14.041 -0.4721  0.5899  1.0284
   21TMC2    C5  328   3.699   0.813  13.909  0.4289 -0.7133 -0.2947
   21TMC2    C6  329   3.817   0.759  13.864  0.6435  0.2531 -0.6902
   21TMC2     C  330   3.773   0.900  14.260 -0.1117 -0.2956 -0.2954
   21TMC2     O  331   3.850   0.846  14.342 -0.0978 -0.3274 -0.1035
   21TMC2     H  332   3.999   0.828  14.140  0.8270  1.0450  0.3829
   21TMC2    H1  333   3.591   0.907  14.069 -1.0934 -0.8295  1.2387
   21TMC2    H2  334   3.823   0.697  13.775 -0.2528 -2.0667  0.8494
   21TMC2    C7  335   3.582   0.800  13.813 -0.2809  0.4402 -0.1724
   21TMC2    C8  336   4.054   0.718  13.917  0.3175  0.1961  0.4588
   21TMC2    O1  337   3.601   0.738  13.707  0.1817 -0.3916  0.0929
   21TMC2    O2  338   4.138   0.690  14.003  0.8134  0.6607 -0.0797
   21TMC2    O5  339   4.073   0.797  13.810 -0.0168 -0.7459  0.9203
   21TMC2    H5  340   3.995   0.824  13.757 -0.3632 -1.3167  1.1428
   22MPD2     C  341   3.618   1.192  14.638  0.9036  0.0381 -0.2380
   22MPD2    C1  342   3.690   1.081  14.634  0.2050 -0.8447  0.3599
   22MPD2    C2  343   3.710   1.019  14.514 -0.6321 -0.0527  0.7350
   22MPD2    C3  344   3.663   1.070  14.396 -0.3854  0.0932  0.1187
   22MPD2    C4  345   3.591   1.185  14.396  0.0646 -0.0072  0.8465
   22MPD2    C5  346   3.565   1.244  14.517  0.1945  0.0985  0.3984
   22MPD2     H  347   3.764   0.925  14.524  1.1658  0.7516 -1.2297
   22MPD2    H1  348   3.553   1.233  14.307  1.8543 -0.4752 -0.1795
   22MPD2    H2  349   3.603   1.251  14.729  1.1864 -0.1131 -0.0926
   22MPD2    H3  350   3.513   1.339  14.521  1.2620  0.7127 -0.4131
   22MPD2     N  351   3.690   1.004  14.270 -0.4113  0.2318  0.4583
   22MPD2    H5  352   3.649   1.043  14.186  0.8596 -0.6494 -0.5633
   22MPD2    N1  353   3.748   1.025  14.750 -0.2879 -0.8732  0.3550
   22MPD2    H7  354   3.781   0.929  14.746  0.1514 -0.7102  0.1006
   23TMC2    C1  355   4.558   1.813  14.215  0.3221  0.1037  0.0027
   23TMC2    C2  356   4.578   1.837  14.076 -0.0187  0.2318  0.1379
   23TMC2    C3  357   4.483   1.789  13.993 -0.2359  0.4379 -0.3774
   23TMC2    C4  358   4.451   1.751  14.264  0.3252 -0.0130 -0.4206
   23TMC2    C5  359   4.363   1.704  14.169  0.3909 -0.5396  0.1336
   23TMC2    C6  360   4.378   1.722  14.032 -0.0664  0.4320 -0.7289
   23TMC2     C  361   4.664   1.840  14.297 -0.2043 -0.9046 -0.0340
   23TMC2     O  362   4.683   1.754  14.381  0.2471  0.6011 -0.4512
   23TMC2     H  363   4.668   1.887  14.042 -0.8751  0.5455 -1.6567
   23TMC2    H1  364   4.438   1.747  14.371  1.7039 -0.1467 -0.2519
   23TMC2    H2  365   4.305   1.690  13.958  0.2557 -2.0067  0.0234
   23TMC2    C7  366   4.262   1.615  14.215  0.2956  0.0704 -0.1791
   23TMC2    C8  367   4.506   1.798  13.853 -0.6083  0.3800  0.4231
   23TMC2    O1  368   4.279   1.562  14.324  0.2923  0.5182 -0.2481
   23TMC2    O2  369   4.410   1.842  13.788 -0.0392  0.1928 -0.0826
   23TMC2    O5  370   4.643   1.809  13.826  0.7778 -0.1358  0.0036
   23TMC2    H5  371   4.705   1.780  13.897  1.5466  0.8295 -0.2792
   24MPD2     C  372   0.349   2.093  14.423 -0.5741 -0.4189 -0.1073
   24MPD2    C1  373   0.286   1.993  14.492  0.0550 -0.0737 -0.2176
   24MPD2    C2  374   0.175   1.946  14.433 -0.1767 -1.0591 -0.2841
   24MPD2    C3  375   0.126   1.988  14.315  0.0730 -0.7243 -0.6490
   24MPD2    C4  376   0.187   2.094  14.254 -0.0645 -0.1935 -0.5428
   24MPD2    C5  377   0.299   2.147  14.309 -0.0209  0.3407  0.5518
   24MPD2     H  378   0.114   1.878  14.490  2.6221 -2.4832  0.9834
   24MPD2    H1  379   0.168   2.137  14.157  1.1261 -0.1972 -0.7791
   24MPD2    H2  380   0.443   2.133  14.458 -0.5759  0.2146 -0.8165
   24MPD2    H3  381   0.352   2.228  14.261 -0.4554 -0.8304 -1.8838
   24MPD2     N  382   0.002   1.945  14.254 -0.3429  0.2328 -0.2771
   24MPD2    H5  383   4.707   2.008  14.182  1.7734  2.0586  0.3651
   24MPD2    N1  384   0.322   1.937  14.614 -0.4855  0.1272  0.5963
   24MPD2    H7  385   0.266   1.863  14.654  1.1167  0.1390  2.8621
   25TMC2    C1  386   4.082   3.120  11.263  0.3491  0.4201  0.2953
   25TMC2    C2  387   4.211   3.168  11.248 -0.0428  1.1391  0.9718
   25TMC2    C3  388   4.228   3.292  11.289  0.3763  0.0855  0.8907
   25TMC2    C4  389   3.982   3.200  11.315  0.0999  1.0038 -0.6172
   25TMC2    C5  390   4.011   3.323  11.367 -0.1450 -0.8050 -0.0682
   25TMC2    C6  391   4.134   3.379  11.342 -0.3699  0.0561 -0.3610
   25TMC2     C  392   4.057   2.989  11.206 -0.2014  0.1894 -0.3279
   25TMC2     O  393   4.153   2.927  11.166  0.2649 -0.7569 -0.0524
   25TMC2     H  394   4.292   3.118  11.196 -1.5145  0.4715 -0.7100
   25TMC2    H1  395   3.886   3.168  11.353  1.0192 -0.8351  0.1383
   25TMC2    H2  396   4.160   3.475  11.387 -0.5307  0.0503 -0.2567
   25TMC2    C7  397   3.892   3.407  11.401 -0.2541 -0.2382  0.3508
   25TMC2    C8  398   4.367   3.348  11.290  0.6307 -0.6992  0.1296
   25TMC2    O1  399   3.891   3.514  11.341 -0.7581  0.3673 -0.0499
   25TMC2    O2  400   4.459   3.277  11.326 -0.2702  0.3922 -0.6415
   25TMC2    O5  401   4.359   3.480  11.293 -0.1654  0.4394  0.5289
   25TMC2    H5  402   4.281   3.521  11.249  1.2053  1.0261 -1.3509
   26MPD2     C  403   3.753   2.693  10.927 -0.4180  0.5681 -0.7330
   26MPD2    C1  404   3.678   2.776  11.009  0.3283  0.2436  0.2522
   26MPD2    C2  405   3.740   2.861  11.101  0.5738 -0.6308  0.4040
   26MPD2    C3  406   3.874   2.861  11.114 -0.2165 -0.2354  0.0404
   26MPD2    C4  407   3.952   2.773  11.045 -0.1771  0.0090  0.1396
   26MPD2    C5  408   3.888   2.681  10.957 -0.4020  0.1966 -0.1730
   26MPD2     H  409   3.685   2.929  11.165 -1.2880 -0.9343 -0.8821
   26MPD2    H1  410   4.058   2.753  11.042 -0.2356 -0.4659  1.0529
   26MPD2    H2  411   3.717   2.632  10.846  2.1416 -1.0048 -0.6895
   26MPD2    H3  412   3.944   2.616  10.892 -1.4047 -1.3264  0.4942
   26MPD2     N  413   3.924   2.975  11.187  0.8210 -0.0991  0.3068
   26MPD2    H5  414   3.859   3.050  11.209 -1.4855 -1.7159 -0.9691
   26MPD2    N1  415   3.540   2.778  10.971 -0.1935  0.0170 -0.0383
   26MPD2    H7  416   3.517   2.735  10.882  0.7892 -1.3390  0.3653
   27TMC2    C1  417   2.621   1.024  11.816  0.1342 -0.6441 -0.0551
   27TMC2    C2  418   2.551   1.126  11.762  0.9552 -0.1089  0.6918
   27TMC2    C3  419   2.592   1.256  11.783  0.8513  0.2281  0.8394
   27TMC2    C4  420   2.731   1.055  11.893  0.3898 -0.7165 -0.1624
   27TMC2    C5  421   2.760   1.188  11.916 -0.4879  0.4836 -0.4275
   27TMC2    C6  422   2.691   1.295  11.864  0.1627 -0.1127 -0.2451
   27TMC2     C  423   2.550   0.903  11.848  1.0710  0.6801 -0.0288
   27TMC2     O  424   2.617   0.800  11.841  0.1454  0.1767  0.2034
   27TMC2     H  425   2.462   1.104  11.704  0.0314  0.0102  2.0614
   27TMC2    H1  426   2.780   0.975  11.948 -0.9443 -1.8439 -0.6291
   27TMC2    H2  427   2.713   1.400  11.877  0.5117  0.1275 -2.8795
   27TMC2    C7  428   2.827   1.213  12.040 -1.0401 -0.3236 -0.5958
   27TMC2    C8  429   2.508   1.355  11.727 -0.7419 -0.5455  0.1211
   27TMC2    O1  430   2.863   1.113  12.107 -0.6787  0.1897  0.3050
   27TMC2    O2  431   2.392   1.335  11.690  0.3337  0.3984 -0.4510
   27TMC2    O5  432   2.591   1.456  11.678  0.1491 -0.2834  0.3358
   27TMC2    H5  433   2.687   1.438  11.686 -0.4459 -3.1041  1.0231
   28MPD2     C  434   2.158   0.617  11.982 -0.2891 -0.6179  0.5376
   28MPD2    C1  435   2.135   0.743  12.024 -0.3088  0.5074 -0.0854
   28MPD2    C2  436   2.211   0.840  11.971  0.1718 -0.3980  0.5289
   28MPD2    C3  437   2.331   0.815  11.897 -0.2521 -0.3838 -0.7162
   28MPD2    C4  438   2.354   0.687  11.863 -0.0712 -0.5505 -0.2672
   28MPD2    C5  439   2.271   0.587  11.903 -0.3384 -0.2997  0.0774
   28MPD2     H  440   2.194   0.943  12.002 -0.6418 -0.7619  1.2845
   28MPD2    H1  441   2.437   0.652  11.802  1.1409 -0.6923  1.4579
   28MPD2    H2  442   2.108   0.528  12.016 -0.6818  0.2317  2.1905
   28MPD2    H3  443   2.298   0.484  11.885 -2.5988 -1.0052  0.6152
   28MPD2     N  444   2.417   0.917  11.868  0.7993  0.1322  0.7587
   28MPD2    H5  445   2.389   1.008  11.902 -2.4884 -1.5926  2.6806
   28MPD2    N1  446   2.033   0.765  12.125  0.0421  0.0303 -0.1320
   28MPD2    H7  447   1.976   0.685  12.152 -2.3689  1.8981  0.3703
   29TMC2    C1  448   2.023   3.746  14.096  0.5532 -0.3849  0.9437
   29TMC2    C2  449   2.055   3.753  14.229  0.2616  0.2253  0.0832
   29TMC2    C3  450   2.094   3.875  14.274 -0.2340 -0.0708 -0.4470
   29TMC2    C4  451   2.008   3.850  14.009  0.3605  0.0083 -0.2338
   29TMC2    C5  452   2.061   3.973  14.059  0.1840 -0.0680  0.0992
   29TMC2    C6  453   2.114   3.981  14.185 -0.5096 -0.1672  0.6133
   29TMC2     C  454   2.011   3.612  14.041 -0.5827  0.8465  0.5066
   29TMC2     O  455   2.097   3.526  14.065  0.2165  0.3077  0.4548
   29TMC2     H  456   2.060   3.662  14.289  0.9812 -1.5283 -2.6148
   29TMC2    H1  457   1.979   3.835  13.905 -2.1860 -0.1232  0.4987
   29TMC2    H2  458   2.138   4.079  14.226  0.8473  0.6653 -2.1794
   29TMC2    C7  459   2.095   4.070  13.957  0.1549  0.1078 -0.1470
   29TMC2    C8  460   2.077   3.898  14.419  0.0342  0.7171  0.1915
   29TMC2    O1  461   2.033   4.074  13.853  0.2518 -0.1704  0.1281
   29TMC2    O2  462   1.976   3.871  14.476 -0.1325 -0.4178 -0.0722
   29TMC2    O5  463   2.159   3.998  14.450  0.0432 -0.0779 -0.0233
   29TMC2    H5  464   2.232   3.999  14.385 -0.9192  0.2627 -1.0797
   30MPD2     C  465   1.714   3.242  13.851  0.3173  0.8133 -0.7249
   30MPD2    C1  466   1.846   3.233  13.883 -0.1341 -0.4991 -0.4173
   30MPD2    C2  467   1.910   3.347  13.929  0.0502  0.2309 -0.1671
   30MPD2    C3  468   1.837   3.466  13.936  0.1845  0.1967 -0.8738
   30MPD2    C4  469   1.702   3.472  13.903  0.9936 -0.1137  0.0929
   30MPD2    C5  470   1.646   3.356  13.859 -0.1934  0.3223 -0.5906
   30MPD2     H  471   2.013   3.336  13.963 -0.2518  0.4245  0.8101
   30MPD2    H1  472   1.645   3.563  13.891  1.9741 -0.1578 -4.8884
   30MPD2    H2  473   1.645   3.160  13.836  1.3688 -0.5109  1.6601
   30MPD2    H3  474   1.541   3.354  13.834 -0.6368  0.4147  1.2130
   30MPD2     N  475   1.887   3.596  13.983  0.1985  0.2404  0.3170
   30MPD2    H5  476   1.819   3.670  13.994  3.5707  3.3519  0.0777
   30MPD2    N1  477   1.921   3.112  13.871  0.3765 -0.2288  0.0018
   30MPD2    H7  478   2.021   3.107  13.891  0.5395  2.1006 -0.2630
   31TMC2    C1  479   4.589   2.680  15.272  0.0783  0.2807 -0.0667
   31TMC2    C2  480   4.479   2.744  15.318 -0.4060 -0.1166  0.4835
   31TMC2    C3  481   4.479   2.772  15.452  0.7022  0.5941 -0.1291
   31TMC2    C4  482   4.696   2.649  15.348 -0.0089 -0.1087 -0.1594
   31TMC2    C5  483   4.685   2.678  15.484 -0.1795 -0.3376  0.0773
   31TMC2    C6  484   4.578   2.743  15.537 -0.5375 -1.2493 -0.1672
   31TMC2     C  485   4.603   2.681  15.129 -0.3647  0.5016  0.9774
   31TMC2     O  486   4.515   2.738  15.065 -0.0908 -0.5697 -0.3203
   31TMC2     H  487   4.396   2.767  15.253 -0.8242  0.6550  1.2899
   31TMC2    H1  488   0.054   2.610  15.314 -0.2427 -1.1214  0.3508
   31TMC2    H2  489   4.558   2.760  15.642  1.3033  1.8330 -0.3195
   31TMC2    C7  490   0.049   2.621  15.573 -1.3402 -0.2459  0.9801
   31TMC2    C8  491   4.353   2.805  15.523  0.6088  0.3610 -0.2306
   31TMC2    O1  492   0.100   2.511  15.552 -0.0908  0.3371  0.3528
   31TMC2    O2  493   4.325   2.748  15.629 -0.4461  0.3238  0.1573
   31TMC2    O5  494   4.260   2.833  15.432  0.3150  0.0167 -0.3763
   31TMC2    H5  495   4.279   2.895  15.359  1.4708  1.9537  1.5506
   32MPD2     C  496   0.200   2.649  14.732 -1.1670  0.2468  0.0118
   32MPD2    C1  497   0.075   2.715  14.732  0.5378 -1.1675  0.0066
   32MPD2    C2  498   4.731   2.710  14.845  0.3251  0.1019 -0.4613
   32MPD2    C3  499   0.039   2.642  14.959  0.7010  0.2908  0.1220
   32MPD2    C4  500   0.164   2.585  14.959 -0.8407  0.0890  0.0390
   32MPD2    C5  501   0.242   2.591  14.847  0.5761 -0.1192 -0.2215
   32MPD2     H  502   4.632   2.755  14.845  0.8714  1.2985 -0.2591
   32MPD2    H1  503   0.209   2.536  15.044 -0.2949  0.6442  0.0614
   32MPD2    H2  504   0.253   2.650  14.638 -1.2183  0.0301 -0.0179
   32MPD2    H3  505   0.337   2.540  14.851  0.6924  0.1765  0.6590
   32MPD2     N  506   4.720   2.627  15.080 -0.2732 -0.0696 -0.5722
   32MPD2    H5  507   0.044   2.577  15.142 -3.1010 -0.3280  2.0105
   32MPD2    N1  508   0.045   2.783  14.612  0.4884 -0.6970 -0.2646
   32MPD2    H7  509   0.125   2.810  14.555 -1.4014  1.6861 -1.7623
   33TMC2    C1  510   4.486   0.299  10.145 -0.0003  0.4154 -0.5545
   33TMC2    C2  511   4.420   0.194  10.089  0.3804  0.4157  0.2986
   33TMC2    C3  512   4.435   0.183   9.956  0.5653 -0.0256 -0.2872
   33TMC2    C4  513   4.573   0.384  10.076  0.0181 -0.0205  0.6945
   33TMC2    C5  514   4.568   0.377   9.941  0.1184 -0.2967 -0.0602
   33TMC2    C6  515   4.503   0.273   9.875 -0.0416 -0.5135 -0.1503
   33TMC2     C  516   4.466   0.320  10.284 -0.9789 -0.2150  0.6714
   33TMC2     O  517   4.391   0.236  10.333 -0.1770 -0.3700 -0.0667
   33TMC2     H  518   4.351   0.132  10.144  0.9449 -0.9258 -0.4860
   33TMC2    H1  519   4.636   0.459  10.121 -0.1569  0.5141  0.0391
   33TMC2    H2  520   4.509   0.254   9.768 -1.3696 -0.7097 -0.1838
   33TMC2    C7  521   4.619   0.495   9.870 -0.1801  0.6889  0.7418
   33TMC2    C8  522   4.384   0.064   9.894 -0.0304  0.3760 -0.0975
   33TMC2    O1  523   4.697   0.576   9.930 -0.2859  0.2774  0.0718
   33TMC2    O2  524   4.441   4.704   9.846  0.0623 -0.2956 -0.0476
   33TMC2    O5  525   4.264   0.042   9.951 -0.1993 -0.3543  0.1724
   33TMC2    H5  526   4.219   0.128   9.968 -1.6155 -0.5816 -2.4400
   34MPD2     C  527   4.510   0.491  10.761 -0.1010 -0.9006 -0.4209
   34MPD2    C1  528   4.501   0.363  10.712  0.1606 -0.4480 -0.1562
   34MPD2    C2  529   4.512   0.337  10.576  0.1461  0.1004  0.2747
   34MPD2    C3  530   4.515   0.446  10.491  0.0067  0.3179 -0.6480
   34MPD2    C4  531   4.521   0.580  10.545 -0.6693  0.6472 -0.2920
   34MPD2    C5  532   4.522   0.604  10.681 -0.0954  0.6678 -0.0901
   34MPD2     H  533   4.488   0.234  10.552 -2.6124  0.7499  0.2502
   34MPD2    H1  534   4.513   0.667  10.482  1.9926  2.2239  1.5716
   34MPD2    H2  535   4.510   0.505  10.869 -2.4393  0.7693 -0.6342
   34MPD2    H3  536   4.531   0.703  10.723  0.3566 -0.0421  1.5109
   34MPD2     N  537   4.507   0.436  10.350  0.5197  0.4994  0.4761
   34MPD2    H5  538   4.520   0.525  10.302  1.2500  0.7927  1.2227
   34MPD2    N1  539   4.489   0.252  10.801  0.1315  0.2344  0.6497
   34MPD2    H7  540   4.480   0.164  10.752  0.6719  0.0056  0.9605
   35TMC2    C1  541   0.967   1.140  11.110  0.0551  0.0057 -0.9124
   35TMC2    C2  542   0.931   1.145  10.982 -0.6785  0.1728  0.2581
   35TMC2    C3  543   0.803   1.176  10.957  0.2403  0.8012 -0.6516
   35TMC2    C4  544   0.882   1.173  11.215  0.4185  0.2463 -0.5147
   35TMC2    C5  545   0.751   1.200  11.190 -0.3309 -1.3266  0.7274
   35TMC2    C6  546   0.711   1.205  11.055 -0.0144  0.4816  0.4222
   35TMC2     C  547   1.108   1.104  11.127 -0.4246  0.6512 -0.6781
   35TMC2     O  548   1.184   1.113  11.025 -0.0785 -0.4298  0.3837
   35TMC2     H  549   0.993   1.126  10.895 -0.4930 -2.0698  0.8889
   35TMC2    H1  550   0.914   1.158  11.318 -2.1967 -0.8011  0.1597
   35TMC2    H2  551   0.609   1.216  11.020 -0.4107 -2.8396  0.4707
   35TMC2    C7  552   0.654   1.160  11.287 -0.1085 -0.5878 -0.7131
   35TMC2    C8  553   0.750   1.177  10.819 -0.3442  0.4045 -0.3667
   35TMC2    O1  554   0.700   1.091  11.374 -0.1786  0.4474  0.9783
   35TMC2    O2  555   0.633   1.162  10.792 -0.0830  0.4207  0.0742
   35TMC2    O5  556   0.841   1.211  10.731  0.5101 -0.0260  0.2342
   35TMC2    H5  557   0.918   1.249  10.779  0.3616  0.5744 -0.0020
   36MPD2     C  558   1.451   0.844  11.406  0.0721  0.4639 -0.8456
   36MPD2    C1  559   1.346   0.883  11.485 -0.2185 -0.1748  0.2760
   36MPD2    C2  560   1.245   0.957  11.437 -0.6269  0.2720 -1.5056
   36MPD2    C3  561   1.249   0.996  11.304 -0.0392  0.3315 -0.6685
   36MPD2    C4  562   1.357   0.962  11.225  0.1960 -0.7456 -0.8622
   36MPD2    C5  563   1.458   0.883  11.274 -0.5314 -0.2455 -0.3259
   36MPD2     H  564   1.158   0.999  11.486 -1.4085 -2.4138 -0.6386
   36MPD2    H1  565   1.357   0.976  11.117  2.6128  0.7523 -0.6646
   36MPD2    H2  566   1.534   0.792  11.453 -1.9796  1.3253  3.7330
   36MPD2    H3  567   1.541   0.845  11.215  1.0305  1.0719  1.0314
   36MPD2     N  568   1.132   1.055  11.251 -0.0712  0.3450  0.0419
   36MPD2    H5  569   1.060   1.063  11.322 -0.2834 -0.6090 -0.0664
   36MPD2    N1  570   1.363   0.858  11.622 -0.1629 -0.4832  0.2467
   36MPD2    H7  571   1.448   0.805  11.641  0.6072  1.6737  2.8257
   37TMC2    C1  572   3.577   1.446  11.781 -0.3962 -0.9098  0.3898
   37TMC2    C2  573   3.454   1.387  11.764  0.3027 -0.2377  0.1962
   37TMC2    C3  574   3.379   1.431  11.657 -0.3680 -0.5613 -0.5731
   37TMC2    C4  575   3.621   1.554  11.707  0.0678 -0.4899  0.1463
   37TMC2    C5  576   3.536   1.615  11.622 -0.9110  0.4543 -0.1388
   37TMC2    C6  577   3.418   1.549  11.588  0.4629 -0.0303  0.5364
   37TMC2     C  578   3.649   1.412  11.905 -0.3708  0.1024  0.6655
   37TMC2     O  579   3.574   1.373  11.993  0.2069 -0.1704 -0.3919
   37TMC2     H  580   3.431   1.295  11.816  1.9126 -2.3536 -2.8028
   37TMC2    H1  581   3.722   1.594  11.717 -0.7784  1.2716  1.5893
   37TMC2    H2  582   3.360   1.578  11.501 -1.8991 -1.1345  1.7503
   37TMC2    C7  583   3.592   1.709  11.524  0.0886 -0.4685 -0.7861
   37TMC2    C8  584   3.264   1.361  11.610 -0.3649  0.1270  0.3715
   37TMC2    O1  585   3.712   1.727  11.528  0.0458 -0.1513  0.6415
   37TMC2    O2  586   3.223   1.370  11.496 -0.2069  0.2077 -0.2658
   37TMC2    O5  587   3.241   1.255  11.691  0.4654  0.2471 -0.0755
   37TMC2    H5  588   3.256   1.269  11.787  0.7694  1.6640 -0.3178
   38MPD2     C  589   3.992   1.561  12.250  0.6609  0.2804 -0.3017
   38MPD2    C1  590   4.042   1.602  12.124  0.3491 -0.9085 -0.0384
   38MPD2    C2  591   3.969   1.569  12.013  0.0022  0.1537  0.7473
   38MPD2    C3  592   3.854   1.490  12.029 -0.2293  0.0484  0.2913
   38MPD2    C4  593   3.809   1.441  12.152  0.7295 -0.1392  0.1608
   38MPD2    C5  594   3.882   1.484  12.259  0.1562  0.2315  0.6418
   38MPD2     H  595   3.995   1.599  11.912  0.7455 -0.1164  0.8549
   38MPD2    H1  596   3.714   1.400  12.183  0.9545  0.5819  1.7796
   38MPD2    H2  597   4.040   1.598  12.340 -1.5061  0.5397  0.7370
   38MPD2    H3  598   3.849   1.460  12.359 -1.3747 -1.3838 -0.2401
   38MPD2     N  599   3.773   1.466  11.915 -0.0107 -0.2215  0.4048
   38MPD2    H5  600   3.804   1.491  11.821 -1.2834 -0.2600 -0.0272
   38MPD2    N1  601   4.154   1.690  12.112 -0.1791 -0.1527  0.6122
   38MPD2    H7  602   4.175   1.720  12.018 -2.0680 -1.7388 -0.2989
   39TMC2    C1  603   2.274   3.249   1.577 -0.1964 -0.8536  0.0996
   39TMC2    C2  604   2.274   3.275   1.709  0.0110  1.1509 -0.3076
   39TMC2    C3  605   2.390   3.273   1.772 -0.4633 -0.1179 -0.8081
   39TMC2    C4  606   2.392   3.239   1.509  0.3308  1.2693 -0.1575
   39TMC2    C5  607   2.509   3.250   1.576 -0.6943 -0.2312  0.0803
   39TMC2    C6  608   2.515   3.259   1.712 -0.5429  0.2998 -0.0190
   39TMC2     C  609   2.151   3.279   1.499  0.2227  0.2608  0.1501
   39TMC2     O  610   2.067   3.351   1.557 -0.0048 -0.3005 -0.2078
   39TMC2     H  611   2.178   3.281   1.760 -1.1969  0.8553 -2.5515
   39TMC2    H1  612   2.407   3.187   1.415 -0.8168 -2.0110  1.4732
   39TMC2    H2  613   2.605   3.243   1.772 -1.1287 -1.3537  0.4189
   39TMC2    C7  614   2.632   3.270   1.502  0.0204 -0.5994 -0.0701
   39TMC2    C8  615   2.380   3.259   1.914  0.8045  0.1376  0.1208
   39TMC2    O1  616   2.734   3.245   1.560  0.0428  0.4867  0.3733
   39TMC2    O2  617   2.293   3.188   1.962 -0.6297  0.0961 -0.5761
   39TMC2    O5  618   2.502   3.250   1.962  0.0128 -0.3350 -0.1072
   39TMC2    H5  619   2.560   3.323   1.929 -0.1022 -0.6033 -0.9155
   40MPD2     C  620   2.109   3.173   1.150 -0.5055 -0.6314 -0.0551
   40MPD2    C1  621   2.070   3.242   1.265 -0.0016  0.8418 -0.6673
   40MPD2    C2  622   1.957   3.321   1.270 -0.1733 -0.0623 -0.3593
   40MPD2    C3  623   1.886   3.343   1.153  0.3238 -0.5616 -0.1220
   40MPD2    C4  624   1.926   3.274   1.034 -0.0948 -0.2389  0.1928
   40MPD2    C5  625   2.029   3.183   1.039  0.0872  0.2585  0.4759
   40MPD2     H  626   1.936   3.370   1.363 -0.5002 -1.0162  0.0687
   40MPD2    H1  627   1.870   3.278   0.941 -0.0714 -1.5704  0.1240
   40MPD2    H2  628   2.185   3.095   1.147  0.4287  0.3862 -2.9903
   40MPD2    H3  629   2.052   3.135   0.944 -2.0670 -0.1587  0.1613
   40MPD2     N  630   1.779   3.432   1.139  0.2291  0.0676  0.1431
   40MPD2    H5  631   1.748   3.443   1.043  0.2592  1.0245  0.2514
   40MPD2    N1  632   2.154   3.223   1.372  0.0766  0.3429  0.4482
   40MPD2    H7  633   2.229   3.157   1.358  0.2912  0.8325 -0.7105
   41TMC2    C1  634   0.712   1.301  13.182  0.8547  0.5126 -0.1665
   41TMC2    C2  635   0.684   1.221  13.080 -0.6972 -0.5850 -1.3969
   41TMC2    C3  636   0.687   1.279  12.953 -0.1785 -0.1216 -0.4858
   41TMC2    C4  637   0.741   1.435  13.168  0.2701 -0.2643 -0.7459
   41TMC2    C5  638   0.750   1.486  13.040  0.1248  0.0993  0.1471
   41TMC2    C6  639   0.717   1.410  12.930 -0.2701 -0.3439 -0.0565
   41TMC2     C  640   0.689   1.254  13.316 -0.0574  0.0713  1.1569
   41TMC2     O  641   0.603   1.167  13.318  0.1958  0.2520 -0.4425
   41TMC2     H  642   0.650   1.120  13.096  0.6844 -1.1359 -1.9229
   41TMC2    H1  643   0.768   1.500  13.251  1.3778 -1.4231 -0.1834
   41TMC2    H2  644   0.734   1.442  12.828  0.0523  0.6279  0.3048
   41TMC2    C7  645   0.832   1.615  13.032 -0.2849 -0.3260 -0.0921
   41TMC2    C8  646   0.624   1.204  12.848 -0.0649  0.2358 -0.7775
   41TMC2    O1  647   0.889   1.645  13.134  0.0564  0.3710  0.3292
   41TMC2    O2  648   0.603   1.086  12.851  0.4449  0.4584  0.2339
   41TMC2    O5  649   0.537   1.302  12.803 -0.1756  0.2098  0.3289
   41TMC2    H5  650   0.567   1.395  12.812  3.8713 -1.1045  0.4764
   42MPD2     C  651   0.668   1.192  13.600 -0.2221  0.1900  0.1798
   42MPD2    C1  652   0.765   1.273  13.541  0.5082  0.1610  0.4286
   42MPD2    C2  653   0.861   1.328  13.608 -0.3276  0.9927  0.3743
   42MPD2    C3  654   0.866   1.312  13.746 -0.9370 -0.5859 -0.1745
   42MPD2    C4  655   0.772   1.229  13.808  0.0748 -0.3459 -1.1095
   42MPD2    C5  656   0.674   1.168  13.735  0.5539  0.2612 -0.3163
   42MPD2     H  657   0.922   1.406  13.564  2.4545 -1.3383  0.0770
   42MPD2    H1  658   0.773   1.209  13.915  0.9801 -1.3475 -1.3103
   42MPD2    H2  659   0.585   1.142  13.551 -2.1362  0.8411  2.7362
   42MPD2    H3  660   0.597   1.119  13.793  1.4852 -1.3303 -0.4315
   42MPD2     N  661   0.944   1.392  13.836 -0.3701 -0.4028 -0.1595
   42MPD2    H5  662   0.928   1.399  13.936 -0.8729 -2.9233 -0.0616
   42MPD2    N1  663   0.769   1.308  13.408  0.0171  0.1492 -0.1976
   42MPD2    H7  664   0.833   1.380  13.376 -0.0964  0.6900  0.8155
   43TMC2    C1  665   2.318   4.435   0.818  0.0180  0.5020  0.0791
   43TMC2    C2  666   2.313   4.572   0.838 -0.4272 -0.0301  0.3771
   43TMC2    C3  667   2.369   4.614   0.957 -0.7065 -0.0623  0.4376
   43TMC2    C4  668   2.362   4.342   0.907  0.0545 -0.4633  0.1143
   43TMC2    C5  669   2.410   4.393   1.025  0.0889  0.1906 -0.0947
   43TMC2    C6  670   2.420   4.529   1.053  0.0324  0.1117 -0.3955
   43TMC2     C  671   2.292   4.378   0.683 -0.7011  0.0666 -0.0044
   43TMC2     O  672   2.360   4.279   0.655  0.3393 -0.4689 -0.3640
   43TMC2     H  673   2.308   4.645   0.759  1.4624  2.5861  2.6920
   43TMC2    H1  674   2.368   4.236   0.887  3.1628 -0.5978  1.8491
   43TMC2    H2  675   2.475   4.559   1.141 -0.5433  0.0142 -0.0048
   43TMC2    C7  676   2.439   4.291   1.130 -0.5529  0.0571 -0.0413
   43TMC2    C8  677   2.435   4.737   0.932  0.1624  0.0583 -0.4256
   43TMC2    O1  678   2.468   4.179   1.090 -0.3171  0.1162 -0.2249
   43TMC2    O2  679   2.379   0.096   0.880  0.2243  0.2050 -0.0973
   43TMC2    O5  680   2.569   4.723   0.961 -0.3725  0.3568 -0.1329
   43TMC2    H5  681   2.593   4.639   1.006  2.5946 -0.1576 -2.6055
   44MPD2     C  682   2.147   4.432   0.196  0.1061  0.3036 -0.3853
   44MPD2    C1  683   2.209   4.330   0.264 -0.2717  0.3939 -0.0209
   44MPD2    C2  684   2.231   4.338   0.400 -0.0847  0.2260 -0.6661
   44MPD2    C3  685   2.187   4.448   0.471  0.4030  0.3862 -0.3276
   44MPD2    C4  686   2.114   4.544   0.402  0.0408  0.2101 -0.1670
   44MPD2    C5  687   2.096   4.536   0.270 -0.0236 -0.3594  0.0999
   44MPD2     H  688   2.280   4.257   0.452 -1.4483 -0.0865  0.1393
   44MPD2    H1  689   2.096   4.640   0.450 -0.8191 -1.0254  1.9442
   44MPD2    H2  690   2.145   4.442   0.088  1.0338  2.0158 -0.2543
   44MPD2    H3  691   2.055   4.615   0.209  1.8466  1.2992  1.0251
   44MPD2     N  692   2.214   4.460   0.607  0.0279 -0.1163 -0.1831
   44MPD2    H5  693   2.166   4.538   0.651 -1.1990 -0.9493 -0.0557
   44MPD2    N1  694   2.248   4.222   0.183 -0.1968  0.4657  0.3895
   44MPD2    H7  695   2.220   4.228   0.086 -1.2188  0.3464  0.6812
   45TMC2    C1  696   2.583   1.793   9.008  0.5126 -0.4652 -0.3522
   45TMC2    C2  697   2.689   1.787   8.920  0.1118  0.1361 -0.5807
   45TMC2    C3  698   2.768   1.901   8.908  0.2434 -0.0675 -0.5223
   45TMC2    C4  699   2.553   1.908   9.082 -0.1009  0.0295 -0.2761
   45TMC2    C5  700   2.634   2.016   9.069  0.7598 -0.5666  0.1982
   45TMC2    C6  701   2.751   2.018   8.985 -0.0535  0.1676 -0.1109
   45TMC2     C  702   2.487   1.682   9.003  0.1135 -0.7580 -0.0075
   45TMC2     O  703   2.523   1.583   8.948 -0.5275 -0.0672 -0.0152
   45TMC2     H  704   2.708   1.702   8.856  1.6000  0.1435 -0.1281
   45TMC2    H1  705   2.470   1.912   9.152  2.0129 -0.2812  2.2085
   45TMC2    H2  706   2.820   2.102   8.982 -0.2865  0.4015  1.1797
   45TMC2    C7  707   2.633   2.122   9.171 -0.1293  0.4164  0.2911
   45TMC2    C8  708   2.902   1.861   8.877 -0.8548  0.1832 -0.0707
   45TMC2    O1  709   2.732   2.190   9.183  0.2392 -0.4042 -0.1837
   45TMC2    O2  710   2.944   1.748   8.904  0.1364 -0.4298 -0.1115
   45TMC2    O5  711   2.965   1.947   8.801  0.3835 -0.2179  0.3806
   45TMC2    H5  712   2.908   2.023   8.775 -0.4221 -0.8110  0.3851
   46MPD2     C  713   2.233   1.518   8.977 -0.2064 -0.5265  0.3282
   46MPD2    C1  714   2.242   1.659   9.004 -0.7541  0.6401 -0.3394
   46MPD2    C2  715   2.123   1.729   9.007 -0.2986  0.5403 -0.1793
   46MPD2    C3  716   2.000   1.665   8.986 -0.3022 -0.0073  0.1838
   46MPD2    C4  717   1.997   1.534   8.957 -0.4543  0.7704 -0.5625
   46MPD2    C5  718   2.115   1.461   8.952 -0.0787  0.4858  0.3115
   46MPD2     H  719   2.124   1.833   9.036 -0.3952  0.5486 -0.2057
   46MPD2    H1  720   1.901   1.488   8.939 -0.4556  0.5182  0.1179
   46MPD2    H2  721   2.320   1.452   8.978 -1.8916 -2.7759 -2.1645
   46MPD2    H3  722   2.117   1.355   8.933  1.0012  0.4770  0.4944
   46MPD2     N  723   1.887   1.743   9.004  0.2791 -0.1041 -0.5146
   46MPD2    H5  724   1.898   1.843   9.013  3.9739 -0.5871  0.4499
   46MPD2    N1  725   2.357   1.732   9.022  0.1667  0.3436  0.6338
   46MPD2    H7  726   2.348   1.832   9.029  0.5493  0.3830  0.5606
   47TMC2    C1  727   4.213   2.188   9.929 -0.3759 -1.4348  0.1361
   47TMC2    C2  728   4.236   2.078   9.854 -0.8680  0.1757 -0.6875
   47TMC2    C3  729   4.129   2.017   9.798 -0.2524  0.4374 -0.0571
   47TMC2    C4  730   4.086   2.244   9.950  0.5736 -0.1300 -1.2553
   47TMC2    C5  731   3.986   2.187   9.874 -0.6307  0.9825 -0.4613
   47TMC2    C6  732   4.003   2.066   9.811  0.0097  0.0742  0.2105
   47TMC2     C  733   4.324   2.287   9.939  0.2006  0.2335  0.5541
   47TMC2     O  734   4.292   2.397   9.976 -0.0889 -0.1054 -0.0231
   47TMC2     H  735   4.335   2.042   9.827 -0.1371  1.2107  0.6237
   47TMC2    H1  736   4.072   2.339  10.000  0.2366 -0.4320 -0.7771
   47TMC2    H2  737   3.917   2.021   9.763 -0.4631  0.0511  1.0913
   47TMC2    C7  738   3.893   2.278   9.807 -0.2209  0.3795 -0.7719
   47TMC2    C8  739   4.165   1.911   9.713 -0.7323 -0.3440 -0.4149
   47TMC2    O1  740   3.811   2.231   9.728  0.1803  0.5442 -0.4036
   47TMC2    O2  741   4.279   1.881   9.686 -0.6267  0.2289 -0.3787
   47TMC2    O5  742   4.063   1.819   9.697 -0.0584  0.0385 -0.6231
   47TMC2    H5  743   3.976   1.843   9.734  1.0841  1.4696  1.1504
   48MPD2     C  744   4.583   2.427   9.998 -0.3428  0.3432  0.1702
   48MPD2    C1  745   4.566   2.307   9.934  0.6787 -0.9263  0.8616
   48MPD2    C2  746   4.684   2.245   9.900  0.4554 -0.1086 -0.5411
   48MPD2    C3  747   0.073   2.296   9.911  0.9734  0.2921 -0.2656
   48MPD2    C4  748   0.086   2.420   9.967 -0.1085 -0.0641  0.2179
   48MPD2    C5  749   4.707   2.476  10.027 -0.0479 -0.3992  0.3733
   48MPD2     H  750   4.683   2.147   9.854  0.5517 -0.1538 -0.4467
   48MPD2    H1  751   0.181   2.465   9.995  0.3687 -0.9149 -0.0093
   48MPD2    H2  752   4.498   2.490  10.023  0.2526  0.9876  0.5876
   48MPD2    H3  753   4.707   2.574  10.074  0.9152 -0.0497 -0.3482
   48MPD2     N  754   0.175   2.224   9.855 -0.1650  0.5428  0.6561
   48MPD2    H5  755   0.155   2.139   9.802 -3.5120  1.1578  0.9468
   48MPD2    N1  756   4.443   2.239   9.910 -0.6030 -0.0429  0.1248
   48MPD2    H7  757   4.441   2.141   9.886  1.0323  0.4914 -2.1734
   49TMC2    C1  758   3.535   1.033   9.802 -0.0790  0.2504  0.0032
   49TMC2    C2  759   3.538   1.137   9.706 -1.0942 -0.4081 -1.1297
   49TMC2    C3  760   3.472   1.110   9.591 -0.2658  0.3073  0.1982
   49TMC2    C4  761   3.470   0.911   9.779 -0.0945  0.4590  0.8805
   49TMC2    C5  762   3.416   0.887   9.650  0.2831 -0.0082  0.0076
   49TMC2    C6  763   3.409   0.990   9.558  0.0421  0.4124 -0.0477
   49TMC2     C  764   3.598   1.052   9.925 -0.3215  0.2440  0.1046
   49TMC2     O  765   3.620   1.166   9.963  0.9155 -0.5749  0.1836
   49TMC2     H  766   3.582   1.235   9.718  0.6937 -1.4690  0.9073
   49TMC2    H1  767   3.446   0.844   9.861  1.0958 -1.9846 -0.7607
   49TMC2    H2  768   3.350   0.998   9.467  1.1851  1.5209 -0.6775
   49TMC2    C7  769   3.361   0.757   9.617  0.2180 -0.1865 -0.0319
   49TMC2    C8  770   3.457   1.224   9.494  0.0935  0.3477 -0.3699
   49TMC2    O1  771   3.339   0.683   9.710 -0.0344 -0.0558  0.3776
   49TMC2    O2  772   3.477   1.338   9.522  0.6788 -0.1441 -0.7921
   49TMC2    O5  773   3.530   1.169   9.390 -0.1905  0.4784 -0.1226
   49TMC2    H5  774   3.529   1.072   9.378  2.8779  0.2904  1.1619
   50MPD2     C  775   3.710   1.029  10.193 -0.2820  0.2523 -0.6170
   50MPD2    C1  776   3.686   0.919  10.112  0.0990  0.4086 -0.3953
   50MPD2    C2  777   3.721   0.792  10.162  0.6531 -0.2572 -0.1297
   50MPD2    C3  778   3.776   0.778  10.290 -0.0745 -0.4797  0.6428
   50MPD2    C4  779   3.796   0.888  10.367 -0.7199  0.0450  0.0583
   50MPD2    C5  780   3.767   1.012  10.316 -0.5934  0.0820 -1.1045
   50MPD2     H  781   3.686   0.705  10.107 -1.1924  1.4270 -1.6424
   50MPD2    H1  782   3.833   0.882  10.469 -0.3715 -0.1926 -0.0820
   50MPD2    H2  783   3.676   1.129  10.168 -1.5417 -0.4343 -1.6099
   50MPD2    H3  784   3.786   1.098  10.379  1.2399 -0.2950 -1.1404
   50MPD2     N  785   3.819   0.651  10.345 -0.6065  0.1473  0.2942
   50MPD2    H5  786   3.833   0.652  10.445 -0.7756  0.5777  0.3144
   50MPD2    N1  787   3.627   0.933   9.986  0.9803 -1.3292  0.1654
   50MPD2    H7  788   3.609   0.848   9.933 -2.7308  0.7289 -1.8264
   51TMC2    C1  789   3.913   3.835   1.812  0.0637 -0.1339 -0.2348
   51TMC2    C2  790   3.781   3.838   1.863  0.2262 -0.2762 -0.0621
   51TMC2    C3  791   3.693   3.911   1.790  0.2027  0.0066 -0.7566
   51TMC2    C4  792   3.958   3.919   1.711 -0.1750  0.1246 -0.1880
   51TMC2    C5  793   3.859   3.986   1.644  0.2110 -0.1940  0.4750
   51TMC2    C6  794   3.721   3.981   1.672 -0.5431  0.6030  0.3613
   51TMC2     C  795   4.010   3.743   1.872  0.8984  0.7819 -0.0510
   51TMC2     O  796   4.008   3.740   1.997  0.2319  0.0249 -0.3788
   51TMC2     H  797   3.748   3.785   1.951  2.0939 -1.0401  0.1567
   51TMC2    H1  798   4.063   3.936   1.690 -0.1074 -0.5335 -0.3778
   51TMC2    H2  799   3.638   4.034   1.627  1.7691  3.7067 -0.2733
   51TMC2    C7  800   3.906   4.079   1.545 -1.0939  0.1158  0.2840
   51TMC2    C8  801   3.546   3.898   1.820  0.0047  0.3184 -0.2596
   51TMC2    O1  802   4.028   4.088   1.538 -0.1324 -0.5853  0.1251
   51TMC2    O2  803   3.460   3.942   1.742  0.6373 -0.1786 -0.3912
   51TMC2    O5  804   3.533   3.875   1.951  0.3116 -0.3103 -0.0797
   51TMC2    H5  805   3.613   3.847   1.999  0.2229  0.6228  0.6088
   52MPD2     C  806   4.423   3.446   1.891 -0.0411 -0.2045  0.5893
   52MPD2    C1  807   4.391   3.466   1.759 -0.1325  0.3210  0.8661
   52MPD2    C2  808   4.279   3.545   1.731 -0.1936 -1.3121  0.3537
   52MPD2    C3  809   4.211   3.606   1.833 -0.4991  0.5689 -0.7911
   52MPD2    C4  810   4.255   3.600   1.966  0.0750  0.2321  0.3120
   52MPD2    C5  811   4.359   3.524   1.989 -0.2110 -0.7497  0.2583
   52MPD2     H  812   4.253   3.556   1.626 -0.1500  1.1573  0.6037
   52MPD2    H1  813   4.217   3.659   2.049  1.0595  0.8214  0.3424
   52MPD2    H2  814   4.511   3.393   1.926  0.1511  0.1154  0.5976
   52MPD2    H3  815   4.394   3.521   2.092 -0.5910  1.1372  0.4304
   52MPD2     N  816   4.103   3.684   1.790 -0.7995 -0.1937  0.0780
   52MPD2    H5  817   4.090   3.690   1.690 -0.9528  2.0484  0.2370
   52MPD2    N1  818   4.451   3.392   1.655  0.1028  0.0758  0.3138
   52MPD2    H7  819   4.414   3.393   1.561  0.2431 -1.6742  0.2376
   53TMC2    C1  820   4.037   1.973  11.009 -0.5949  0.0346 -0.5532
   53TMC2    C2  821   4.126   1.893  10.949  0.5516 -0.5974  0.4504
   53TMC2    C3  822   4.249   1.865  11.004  0.8271  0.6030  0.1239
   53TMC2    C4  823   4.073   2.039  11.126 -0.8923  0.0751 -0.5245
   53TMC2    C5  824   4.191   2.013  11.184  0.3306  0.1367  0.0271
   53TMC2    C6  825   4.282   1.931  11.120  0.0904 -0.0932 -0.2973
   53TMC2     C  826   3.894   1.936  11.007 -0.2849 -0.7433  0.1685
   53TMC2     O  827   3.849   1.879  10.909 -0.0200 -0.4575 -0.9599
   53TMC2     H  828   4.098   1.839  10.860  1.0263  0.5634 -0.4126
   53TMC2    H1  829   4.007   2.116  11.163 -1.1596 -0.1786 -0.4702
   53TMC2    H2  830   4.363   1.896  11.183 -0.5866 -0.2693  0.4967
   53TMC2    C7  831   4.164   1.997  11.322 -0.2645  0.3612 -0.1170
   53TMC2    C8  832   4.337   1.770  10.944 -0.2657 -0.9002 -0.8823
   53TMC2    O1  833   4.044   2.001  11.349 -0.0163 -0.1664 -0.1395
   53TMC2    O2  834   4.292   1.692  10.864  0.4167 -0.3188  0.1091
   53TMC2    O5  835   4.451   1.844  10.920  0.7151 -0.2083  0.6275
   53TMC2    H5  836   4.484   1.893  10.998  0.5405  0.1599  0.4690
   54MPD2     C  837   3.597   1.933  11.062 -0.0347  0.1487 -0.4132
   54MPD2    C1  838   3.701   1.917  11.156  0.4130  0.5660  0.3865
   54MPD2    C2  839   3.671   1.871  11.281  0.4124 -0.3137  0.5206
   54MPD2    C3  840   3.542   1.832  11.308  0.7810  0.1080  0.3420
   54MPD2    C4  841   3.445   1.852  11.216 -0.8445  0.3776  0.2633
   54MPD2    C5  842   3.469   1.901  11.091  0.1875  0.2036  0.1737
   54MPD2     H  843   3.754   1.866  11.351  0.5006  2.0608  0.5767
   54MPD2    H1  844   3.342   1.824  11.233 -0.8074  0.0997  0.0348
   54MPD2    H2  845   3.617   1.986  10.969 -0.0422 -0.3281 -0.6850
   54MPD2    H3  846   3.389   1.909  11.019 -1.1892 -0.5955  1.6035
   54MPD2     N  847   3.506   1.750  11.421 -1.1314  0.3422  0.5708
   54MPD2    H5  848   3.406   1.735  11.432 -1.4930  1.8068 -0.7724
   54MPD2    N1  849   3.839   1.931  11.132 -0.5988  0.5949 -0.0623
   54MPD2    H7  850   3.909   1.918  11.204 -1.1453  0.6501  0.4817
   55TMC2    C1  851   0.219   0.760   0.110 -0.0480 -0.1872 -0.5200
   55TMC2    C2  852   0.330   0.700   0.048  0.2461 -0.0596 -0.0569
   55TMC2    C3  853   0.439   0.661   0.127  0.4370  0.2591 -0.1436
   55TMC2    C4  854   0.233   0.811   0.240  0.3264 -0.6978 -0.0140
   55TMC2    C5  855   0.347   0.767   0.315  0.0589  0.2977  0.4025
   55TMC2    C6  856   0.445   0.687   0.260  0.0541  0.5505 -0.3439
   55TMC2     C  857   0.086   0.776   0.056 -0.4813  0.2722  0.2840
   55TMC2     O  858   0.007   0.829   0.138 -0.2804 -0.5895 -0.2690
   55TMC2     H  859   0.327   0.663  17.695 -1.7184  0.5418 -0.2257
   55TMC2    H1  860   0.154   0.870   0.285  1.2990 -1.5819  2.8995
   55TMC2    H2  861   0.539   0.657   0.305 -0.4095  0.4640  0.5520
   55TMC2    C7  862   0.357   0.775   0.455  0.3870  0.6000  0.4484
   55TMC2    C8  863   0.553   0.596   0.059  0.0944 -0.8209 -1.3080
   55TMC2    O1  864   0.448   0.710   0.514  0.2980 -0.6240  0.4954
   55TMC2    O2  865   0.659   0.657   0.037 -0.3614 -0.3356 -0.2355
   55TMC2    O5  866   0.551   0.466   0.104  0.1154 -0.2591 -0.5040
   55TMC2    H5  867   0.465   0.436   0.139  1.0239  0.0973  2.0327
   56MPD2     C  868   4.696   0.724  17.463 -0.1742  0.3149  0.1209
   56MPD2    C1  869   4.690   0.749  17.596 -0.3369 -0.2675  0.9117
   56MPD2    C2  870   4.567   0.773  17.663  0.0898 -0.1070  1.0975
   56MPD2    C3  871   4.453   0.777  17.589  0.3301 -0.1638  1.3241
   56MPD2    C4  872   4.470   0.762  17.449  0.3349  0.3897  0.1842
   56MPD2    C5  873   4.586   0.741  17.386 -0.0702  0.0069 -0.5181
   56MPD2     H  874   4.571   0.805   0.017 -3.5266  2.7855  0.3322
   56MPD2    H1  875   4.377   0.772  17.394  1.4969  0.6179 -1.7362
   56MPD2    H2  876   0.053   0.702  17.415  0.0705  2.9310 -0.5569
   56MPD2    H3  877   4.586   0.731  17.278  1.2323  0.1877 -0.5296
   56MPD2     N  878   4.329   0.808  17.647  0.1653  0.6426  0.1992
   56MPD2    H5  879   4.334   0.831  17.746 -2.8222  1.1366  0.2413
   56MPD2    N1  880   0.075   0.747  17.670 -0.7597 -0.6624 -1.0091
   56MPD2    H7  881   0.156   0.701  17.631 -0.2187 -0.3694 -0.2505
   57TMC2    C1  882   4.350   0.318  13.166 -0.2032  0.3169 -0.2311
   57TMC2    C2  883   4.457   0.323  13.244 -0.3575 -0.3539  0.1489
   57TMC2    C3  884   4.544   0.218  13.225 -0.2937 -0.7463  0.2783
   57TMC2    C4  885   4.306   0.214  13.083  0.4163 -0.3573  0.1390
   57TMC2    C5  886   4.399   0.114  13.062 -0.3448 -0.1860  0.4813
   57TMC2    C6  887   4.516   0.112  13.135 -0.8402 -0.0110 -0.1252
   57TMC2     C  888   4.240   0.414  13.196 -0.6905  0.2787 -0.5730
   57TMC2     O  889   4.180   0.448  13.095  0.1846 -0.3913 -0.1165
   57TMC2     H  890   4.478   0.406  13.311  1.1109  0.4974 -1.3760
   57TMC2    H1  891   4.202   0.208  13.052  1.5635 -0.9183 -3.6764
   57TMC2    H2  892   4.598   0.043  13.118 -0.5953  0.6285 -1.5134
   57TMC2    C7  893   4.356   4.729  13.001  0.0536  0.0404 -0.1045
   57TMC2    C8  894   4.680   0.250  13.246 -0.0566  0.3265  0.4839
   57TMC2    O1  895   4.250   4.690  13.043  0.3371 -0.1434 -0.3085
   57TMC2    O2  896   0.021   0.159  13.259 -0.2239 -0.2720  0.2927
   57TMC2    O5  897   4.699   0.374  13.191 -0.7601  0.7496 -0.8909
   57TMC2    H5  898   4.618   0.424  13.169 -0.5402  1.1659 -0.7470
   58MPD2     C  899   3.839   0.554  13.475 -0.4814  0.0720 -0.4545
   58MPD2    C1  900   3.850   0.501  13.346  0.5633 -0.3610 -0.4545
   58MPD2    C2  901   3.974   0.458  13.295  1.0030 -0.1011 -0.1948
   58MPD2    C3  902   4.088   0.478  13.373 -0.4430  0.2368  0.1386
   58MPD2    C4  903   4.076   0.529  13.497 -0.1839 -0.0771 -0.2928
   58MPD2    C5  904   3.951   0.565  13.546 -0.6329 -0.1316 -0.6875
   58MPD2     H  905   3.975   0.414  13.196 -0.9716 -0.5395 -0.0209
   58MPD2    H1  906   4.162   0.545  13.560  0.8636  2.1710 -2.3117
   58MPD2    H2  907   3.747   0.587  13.522  0.8170 -0.6281  2.5863
   58MPD2    H3  908   3.961   0.605  13.646 -2.2919 -1.1152 -0.1432
   58MPD2     N  909   4.215   0.437  13.329 -0.0049 -0.1034  0.0827
   58MPD2    H5  910   4.281   0.417  13.403  2.1205 -0.6492 -1.9858
   58MPD2    N1  911   3.744   0.493  13.258  0.2785  0.2139 -0.3962
   58MPD2    H7  912   3.764   0.455  13.166 -1.9296  1.1264 -1.2586
   59TMC2    C1  913   1.835   0.240  12.683  0.1076 -1.0397 -0.3126
   59TMC2    C2  914   1.894   0.126  12.724 -0.6531  0.2189 -0.4487
   59TMC2    C3  915   1.872   0.010  12.656 -0.0847  0.0596  0.5160
   59TMC2    C4  916   1.775   0.252  12.561  0.2676  0.1448 -0.4272
   59TMC2    C5  917   1.738   0.131  12.508 -0.7938 -0.0578 -0.2199
   59TMC2    C6  918   1.791   0.007  12.544 -0.2814 -0.6525  0.1632
   59TMC2     C  919   1.891   0.359  12.755  0.2325  0.3178 -0.0158
   59TMC2     O  920   1.923   0.461  12.700  0.2507 -0.0534 -0.2856
   59TMC2     H  921   1.978   0.128  12.792 -1.5401  0.6175  0.6235
   59TMC2    H1  922   1.750   0.352  12.529  0.8879  0.2149 -0.6975
   59TMC2    H2  923   1.794   4.659  12.478  1.8978 -0.1102 -0.4712
   59TMC2    C7  924   1.666   0.130  12.380 -0.2284  0.5106 -0.1498
   59TMC2    C8  925   1.965   4.637  12.677 -0.8383  0.0476  0.7714
   59TMC2    O1  926   1.644   0.014  12.353  0.5259 -0.6093 -0.1325
   59TMC2    O2  927   2.018   4.572  12.588  0.0060 -0.6781 -1.0678
   59TMC2    O5  928   1.987   4.626  12.807  0.2013  0.3289 -0.2756
   59TMC2    H5  929   1.912   4.672  12.850  1.3927 -0.4239  2.5863
   60MPD2     C  930   1.906   0.379  13.121  0.7328 -0.5550 -0.1769
   60MPD2    C1  931   1.938   0.414  12.991 -0.0875  0.5074  0.5767
   60MPD2    C2  932   2.008   0.525  12.964  0.6800 -0.0718  0.4044
   60MPD2    C3  933   2.067   0.599  13.067  0.2678  0.2367 -0.7853
   60MPD2    C4  934   2.030   0.563  13.196 -0.3302 -0.0204  1.0704
   60MPD2    C5  935   1.959   0.450  13.221 -1.1131 -0.0907 -0.6600
   60MPD2     H  936   2.037   0.541  12.861  1.5169 -1.4593  0.4297
   60MPD2    H1  937   2.053   0.617  13.287  1.8559  0.4950  0.1999
   60MPD2    H2  938   1.876   0.279  13.148 -2.0074  0.7597  1.6453
   60MPD2    H3  939   1.917   0.439  13.321  1.6526 -2.0388  0.2886
   60MPD2     N  940   2.154   0.714  13.050  0.0965 -0.0455 -0.3400
   60MPD2    H5  941   2.189   0.752  13.137 -1.2332 -0.6207  0.4381
   60MPD2    N1  942   1.890   0.330  12.890 -0.5722  0.4384  0.3311
   60MPD2    H7  943   1.844   0.242  12.913  0.9230  0.8120  4.8171
   61TMC2    C1  944   1.480   2.298  15.472  0.7108  0.4276 -0.4862
   61TMC2    C2  945   1.489   2.253  15.598 -0.3924 -0.2651 -0.0735
   61TMC2    C3  946   1.443   2.334  15.704 -0.3997 -0.4345  0.1246
   61TMC2    C4  947   1.417   2.411  15.434 -0.2007  0.2161 -0.0073
   61TMC2    C5  948   1.360   2.478  15.537  0.4268  0.1345  0.7619
   61TMC2    C6  949   1.382   2.452  15.667  0.7923 -0.1627 -0.0867
   61TMC2     C  950   1.539   2.206  15.377  0.1255 -0.3186  0.2508
   61TMC2     O  951   1.546   2.088  15.409 -0.0690  0.0800  0.4040
   61TMC2     H  952   1.537   2.158  15.618 -0.4470  0.1613  2.0989
   61TMC2    H1  953   1.393   2.440  15.332 -0.6233  3.1637  0.9283
   61TMC2    H2  954   1.349   2.514  15.749  1.4247 -0.2985  0.2716
   61TMC2    C7  955   1.306   2.609  15.500 -0.5642 -0.2762 -0.7240
   61TMC2    C8  956   1.533   2.328  15.819  0.5366 -0.0042 -0.5713
   61TMC2    O1  957   1.337   2.642  15.385 -0.0004 -0.0144 -0.1147
   61TMC2    O2  958   1.584   2.224  15.859 -0.8258  0.0925 -0.0252
   61TMC2    O5  959   1.603   2.445  15.817 -0.0417  0.1131 -0.0289
   61TMC2    H5  960   1.557   2.520  15.774 -1.0450  0.8597  2.3740
   62MPD2     C  961   1.619   2.088  15.115 -0.2934  0.1082 -0.4455
   62MPD2    C1  962   1.609   2.218  15.136 -0.2972 -0.1696 -0.6545
   62MPD2    C2  963   1.630   2.304  15.026 -0.6225  0.2343 -0.9109
   62MPD2    C3  964   1.648   2.258  14.892  0.5854  0.4286 -0.0555
   62MPD2    C4  965   1.661   2.116  14.880  0.3480 -0.2103 -0.2798
   62MPD2    C5  966   1.642   2.039  14.993  0.0712  0.0038  0.1617
   62MPD2     H  967   1.626   2.408  15.057  0.7050  0.3112 -1.0174
   62MPD2    H1  968   1.674   2.069  14.784 -0.6618  2.4085 -1.7142
   62MPD2    H2  969   1.604   2.020  15.198  2.0767  3.0223  2.3681
   62MPD2    H3  970   1.658   1.932  14.986 -1.1587 -0.0813 -1.3128
   62MPD2     N  971   1.652   2.345  14.781  0.4367 -0.5426 -0.1645
   62MPD2    H5  972   1.668   2.444  14.800  0.9691 -0.7343  0.3901
   62MPD2    N1  973   1.577   2.275  15.260  0.3576  0.1314 -0.6279
   62MPD2    H7  974   1.588   2.375  15.263 -1.5939  0.2772  1.3098
   63TMC2    C1  975   0.764   1.627  11.223 -0.4385  0.0910 -0.8309
   63TMC2    C2  976   0.814   1.630  11.351 -0.1532  0.2060  0.6260
   63TMC2    C3  977   0.935   1.693  11.363  0.4467 -0.3495  0.5689
   63TMC2    C4  978   0.821   1.679  11.112  0.2737 -0.1835 -1.2467
   63TMC2    C5  979   0.938   1.748  11.135 -0.4235  0.3849 -0.5119
   63TMC2    C6  980   0.994   1.755  11.258 -0.5602 -0.1005 -0.1389
   63TMC2     C  981   0.634   1.560  11.209  0.3070 -0.0402  0.7337
   63TMC2     O  982   0.573   1.553  11.314 -0.3554  0.1931 -0.0792
   63TMC2     H  983   0.756   1.595  11.435  0.4425 -0.8450  0.6031
   63TMC2    H1  984   0.779   1.681  11.013 -2.7707 -0.0838  0.0564
   63TMC2    H2  985   1.089   1.806  11.268 -0.6903  0.9734 -4.5554
   63TMC2    C7  986   0.977   1.827  11.016 -0.5293  0.6946 -0.9858
   63TMC2    C8  987   1.008   1.689  11.485 -0.4933 -0.2685  0.2978
   63TMC2    O1  988   0.935   1.796  10.906  0.1598  0.0986 -0.0504
   63TMC2    O2  989   1.086   1.778  11.512  0.5775  0.7533  0.7540
   63TMC2    O5  990   0.969   1.593  11.570 -0.5543 -0.3715 -0.1684
   63TMC2    H5  991   0.916   1.520  11.533  1.1492 -1.4545 -0.4625
   64MPD2     C  992   0.210   1.431  10.952  0.2503 -0.2206 -0.1487
   64MPD2    C1  993   0.318   1.414  10.866 -0.8012  0.7202  0.3352
   64MPD2    C2  994   0.443   1.453  10.907 -0.0343 -0.0435 -0.5317
   64MPD2    C3  995   0.462   1.503  11.035 -0.3841 -0.1222 -0.9455
   64MPD2    C4  996   0.354   1.523  11.117  0.6734  0.3805 -0.1578
   64MPD2    C5  997   0.229   1.494  11.073 -0.1066 -0.2489  0.3290
   64MPD2     H  998   0.533   1.431  10.851  0.9526  1.2033  0.5620
   64MPD2    H1  999   0.362   1.579  11.209  2.9266 -0.2273  0.0071
   64MPD2    H2 1000   0.110   1.404  10.920  0.5522 -1.9000  0.3333
   64MPD2    H3 1001   0.145   1.522  11.135 -1.0895 -0.6379 -0.8385
   64MPD2     N 1002   0.596   1.531  11.078 -0.2676 -0.4906 -0.1756
   64MPD2    H5 1003   0.657   1.552  10.999  0.5864  0.4086  0.7211
   64MPD2    N1 1004   0.309   1.355  10.743 -0.8408 -0.2921 -0.2016
   64MPD2    H7 1005   0.399   1.346  10.697 -0.7175 -1.3863  0.2436
   65TMC2    C1 1006   2.155   2.119  15.501 -0.3003 -0.8549 -0.9098
   65TMC2    C2 1007   2.154   2.099  15.367  0.0153  0.3966  0.4374
   65TMC2    C3 1008   2.178   2.202  15.280 -0.2078 -0.1645  0.0658
   65TMC2    C4 1009   2.182   2.243  15.556 -0.1311  0.0709  0.5496
   65TMC2    C5 1010   2.206   2.342  15.465 -0.0231 -0.0696  0.3172
   65TMC2    C6 1011   2.204   2.327  15.329 -0.5635 -0.1808  0.0710
   65TMC2     C 1012   2.109   2.020  15.599  0.1373  0.2905 -0.0999
   65TMC2     O 1013   2.120   2.052  15.716 -0.5867  0.2297  0.0969
   65TMC2     H 1014   2.149   2.002  15.320 -0.3194  0.5509  0.1504
   65TMC2    H1 1015   2.182   2.262  15.662  0.4664  0.2884  0.5092
   65TMC2    H2 1016   2.223   2.411  15.263 -0.6993  1.1542  1.7412
   65TMC2    C7 1017   2.261   2.470  15.504  0.4174 -0.8708 -0.1172
   65TMC2    C8 1018   2.179   2.168  15.142  0.2655  0.3971  0.0183
   65TMC2    O1 1019   2.318   2.531  15.416 -0.3102  0.4309  0.3363
   65TMC2    O2 1020   2.238   2.240  15.061 -0.1884 -0.3661  0.2886
   65TMC2    O5 1021   2.046   2.139  15.126 -0.3798  0.2334 -0.3997
   65TMC2    H5 1022   2.001   2.103  15.206  2.8201  0.7626  1.6586
   66MPD2     C 1023   2.033   1.774  15.740  0.2450 -0.2468 -0.7047
   66MPD2    C1 1024   2.037   1.785  15.602 -0.0004  1.0805  0.5981
   66MPD2    C2 1025   2.007   1.679  15.521 -0.1246 -0.3087 -0.3233
   66MPD2    C3 1026   1.960   1.558  15.576  0.7449 -0.7464  0.5449
   66MPD2    C4 1027   1.946   1.558  15.711  0.7938  0.8116  0.6337
   66MPD2    C5 1028   1.986   1.656  15.790 -0.0523 -0.1440 -0.2616
   66MPD2     H 1029   2.002   1.698  15.414 -0.2227  0.3110 -0.2095
   66MPD2    H1 1030   1.904   1.473  15.763 -1.0455 -0.0046 -2.1810
   66MPD2    H2 1031   2.072   1.851  15.806  1.1883  0.1131 -1.6765
   66MPD2    H3 1032   1.975   1.647  15.897 -0.2582 -0.2998 -0.2959
   66MPD2     N 1033   1.910   1.450  15.505 -0.6139  0.4272  0.1216
   66MPD2    H5 1034   1.870   1.372  15.555 -2.8234  1.9024  0.6436
   66MPD2    N1 1035   2.068   1.907  15.541  0.3084 -0.4645 -0.3242
   66MPD2    H7 1036   2.082   1.893  15.442  1.5771 -0.6766 -0.1241
   67TMC2    C1 1037   1.930   1.222  14.055 -0.0300 -0.1542 -0.1451
   67TMC2    C2 1038   1.837   1.317  14.089 -0.0569  0.4193  0.8700
   67TMC2    C3 1039   1.857   1.377  14.205 -0.4326  0.0930  0.2662
   67TMC2    C4 1040   2.038   1.186  14.129  0.2141 -0.1982  0.1729
   67TMC2    C5 1041   2.049   1.245  14.251 -0.1735 -0.0658  0.5757
   67TMC2    C6 1042   1.954   1.339  14.291 -0.1845  0.8345 -0.0110
   67TMC2     C 1043   1.897   1.141  13.935 -0.3025 -0.2917  0.3595
   67TMC2     O 1044   1.935   1.025  13.934 -0.6325 -0.6359 -0.2779
   67TMC2     H 1045   1.747   1.334  14.030  0.9566 -0.5558 -0.9392
   67TMC2    H1 1046   2.107   1.112  14.089 -2.1005 -2.1091 -0.2894
   67TMC2    H2 1047   1.954   1.388  14.388  1.0963 -1.4060  1.1021
   67TMC2    C7 1048   2.166   1.214  14.321  0.2068 -0.2281  0.0725
   67TMC2    C8 1049   1.809   1.511  14.220 -0.5019  0.2630 -0.0332
   67TMC2    O1 1050   2.258   1.164  14.256 -0.3422  0.7510  0.9032
   67TMC2    O2 1051   1.813   1.553  14.336  0.3954 -0.1847 -1.0585
   67TMC2    O5 1052   1.841   1.583  14.114 -0.4135  0.2212 -0.1493
   67TMC2    H5 1053   1.838   1.528  14.032 -1.7930 -0.0302  0.0722
   68MPD2     C 1054   1.769   1.008  13.699  0.4306 -0.0911  0.4945
   68MPD2    C1 1055   1.748   1.144  13.733 -0.9851 -0.1717 -0.4391
   68MPD2    C2 1056   1.673   1.226  13.657 -0.0937 -0.2224 -0.3494
   68MPD2    C3 1057   1.609   1.177  13.541  0.1485 -0.1736  0.0555
   68MPD2    C4 1058   1.631   1.046  13.508 -0.0616  0.1928 -0.1181
   68MPD2    C5 1059   1.707   0.965  13.585  0.7018  0.2289 -0.8720
   68MPD2     H 1060   1.666   1.330  13.686 -2.0143 -0.3748 -0.2909
   68MPD2    H1 1061   1.588   0.998  13.421  1.2105 -0.6824 -0.2585
   68MPD2    H2 1062   1.810   0.939  13.771  1.7400 -0.2107 -0.3852
   68MPD2    H3 1063   1.730   0.863  13.557 -2.6212 -1.6207  3.1602
   68MPD2     N 1064   1.511   1.251  13.467 -0.4232 -0.2307  1.0273
   68MPD2    H5 1065   1.491   1.214  13.375 -0.7807  0.5473  0.7879
   68MPD2    N1 1066   1.819   1.204  13.839  0.3507 -0.2326 -0.3937
   68MPD2    H7 1067   1.814   1.304  13.853  0.8951 -0.1454 -0.8196
   69TMC2    C1 1068   4.196   2.400  12.514 -0.4405  0.2353  0.4667
   69TMC2    C2 1069   4.270   2.508  12.554 -0.6951  0.5491  0.1257
   69TMC2    C3 1070   4.295   2.606  12.465  0.2407 -0.6511  0.4697
   69TMC2    C4 1071   4.158   2.377  12.386  0.0621 -0.6643  0.8211
   69TMC2    C5 1072   4.181   2.483  12.303 -0.0395 -0.1171  0.2880
   69TMC2    C6 1073   4.253   2.595  12.332  0.1002  0.2562  0.4003
   69TMC2     C 1074   4.203   2.281  12.596 -0.2118  0.2846  0.8472
   69TMC2     O 1075   4.109   2.204  12.598  0.0205 -0.1276  0.5453
   69TMC2     H 1076   4.303   2.532  12.655 -2.1864 -0.7093  0.9331
   69TMC2    H1 1077   4.128   2.278  12.352 -2.9189 -0.0861  1.8106
   69TMC2    H2 1078   4.259   2.670  12.254  0.3146 -1.3326 -1.0859
   69TMC2    C7 1079   4.130   2.484  12.167 -0.5099 -0.5389 -0.2449
   69TMC2    C8 1080   4.376   2.718  12.517 -0.6045  0.0939 -0.2676
   69TMC2    O1 1081   4.178   2.558  12.084 -0.8105  0.9489  0.7270
   69TMC2    O2 1082   4.397   2.737  12.634  0.2188 -0.1130 -0.3561
   69TMC2    O5 1083   4.447   2.774  12.414 -0.3304  0.6293 -1.0549
   69TMC2    H5 1084   4.449   2.723  12.331 -0.3943 -1.7526  0.3868
   70MPD2     C 1085   4.500   2.173  12.785  1.6254  0.4786 -0.0444
   70MPD2    C1 1086   4.379   2.154  12.717  0.0397  0.0274 -0.1664
   70MPD2    C2 1087   4.321   2.027  12.698  0.6568 -0.3992 -0.0785
   70MPD2    C3 1088   4.395   1.913  12.734  1.1708  0.0826  0.0502
   70MPD2    C4 1089   4.521   1.932  12.800 -0.0633 -0.5517 -0.3710
   70MPD2    C5 1090   4.577   2.060  12.812 -0.4853  0.1779  0.2125
   70MPD2     H 1091   4.225   2.008  12.651  0.6408 -1.2361  0.2961
   70MPD2    H1 1092   4.585   1.848  12.826  1.5063  0.5469 -0.6702
   70MPD2    H2 1093   4.541   2.273  12.797  0.3712  0.7913  1.7286
   70MPD2    H3 1094   4.675   2.076  12.855 -0.3973  2.3339 -0.8093
   70MPD2     N 1095   4.356   1.779  12.712 -0.1271  0.0987 -0.5484
   70MPD2    H5 1096   4.420   1.709  12.749  1.6850  1.2477 -1.5170
   70MPD2    N1 1097   4.319   2.270  12.668 -0.2758 -0.1512 -0.3544
   70MPD2    H7 1098   4.380   2.352  12.672 -0.3580 -0.1022 -0.1404
   71TMC2    C1 1099   1.706   3.084   1.317 -0.3397 -0.7304  0.6029
   71TMC2    C2 1100   1.817   3.042   1.386 -0.4608 -1.0121 -0.6606
   71TMC2    C3 1101   1.825   3.068   1.521 -0.6494  0.1170  0.0389
   71TMC2    C4 1102   1.604   3.152   1.379  0.1212 -0.8595  0.0282
   71TMC2    C5 1103   1.618   3.174   1.515  0.2844 -0.4998 -0.9439
   71TMC2    C6 1104   1.727   3.129   1.590 -0.4089  0.0613 -0.5088
   71TMC2     C 1105   1.692   3.055   1.178 -0.3584 -0.7572 -0.1765
   71TMC2     O 1106   1.614   3.122   1.109 -0.2655 -0.9447 -0.4495
   71TMC2     H 1107   1.909   3.009   1.338  0.8775 -0.2804  1.3717
   71TMC2    H1 1108   1.520   3.189   1.320 -0.9013 -0.6524  1.6203
   71TMC2    H2 1109   1.733   3.143   1.697 -2.6957  1.7912 -0.6128
   71TMC2    C7 1110   1.511   3.225   1.597  0.1659  0.9681 -0.3379
   71TMC2    C8 1111   1.925   3.006   1.602 -0.1425  0.4814  0.4626
   71TMC2    O1 1112   1.547   3.271   1.701  0.2772  0.3359  0.3185
   71TMC2    O2 1113   1.967   3.070   1.700  0.5567 -0.4481  0.3698
   71TMC2    O5 1114   1.984   2.899   1.544 -0.1975 -0.2971  0.2965
   71TMC2    H5 1115   1.942   2.866   1.462  0.5990 -1.3580  0.3044
   72MPD2     C 1116   1.768   2.784   0.758  0.0310  0.6058 -0.9207
   72MPD2    C1 1117   1.708   2.908   0.781 -0.3795 -0.6470  0.5649
   72MPD2    C2 1118   1.724   2.966   0.900 -0.2579  0.3923  0.1420
   72MPD2    C3 1119   1.785   2.904   1.007  0.6463  0.1141  0.0461
   72MPD2    C4 1120   1.835   2.777   0.991  0.4982 -0.2877  0.2618
   72MPD2    C5 1121   1.828   2.720   0.869 -0.2885 -0.6296 -0.1799
   72MPD2     H 1122   1.675   3.063   0.891  2.5608  1.8125  0.0239
   72MPD2    H1 1123   1.892   2.727   1.067  1.4782  1.9927  1.0437
   72MPD2    H2 1124   1.784   2.727   0.667 -2.1005 -1.8244  0.1977
   72MPD2    H3 1125   1.883   2.629   0.849  0.2231 -0.2015 -0.7216
   72MPD2     N 1126   1.773   2.952   1.141  0.3080  0.3970  0.2809
   72MPD2    H5 1127   1.813   2.895   1.215  1.0435  1.0983  0.4081
   72MPD2    N1 1128   1.640   2.979   0.686 -0.0289  0.0120 -0.4276
   72MPD2    H7 1129   1.609   3.075   0.703  1.3450  0.6005 -1.2217
   73TMC2    C1 1130   0.755   4.367  13.944 -0.2903  0.0799 -0.6073
   73TMC2    C2 1131   0.689   4.393  14.058 -0.4366  0.5087  0.5659
   73TMC2    C3 1132   0.681   4.303  14.154  0.0071 -0.1612 -0.1873
   73TMC2    C4 1133   0.822   4.251  13.931 -0.7297 -0.6038 -0.9645
   73TMC2    C5 1134   0.827   4.155  14.029  0.7998 -0.2595  0.4080
   73TMC2    C6 1135   0.758   4.186  14.146 -0.3153  0.4532  0.2260
   73TMC2     C 1136   0.844   4.475  13.936 -0.0514  0.2045  0.8446
   73TMC2     O 1137   0.954   4.459  13.975 -0.3323 -0.0366 -0.0247
   73TMC2     H 1138   0.674   4.498  14.083 -2.1862  0.3415  0.2053
   73TMC2    H1 1139   0.881   4.248  13.841  0.1959  0.1663 -0.3869
   73TMC2    H2 1140   0.749   4.116  14.228  1.0804  0.2038  0.1741
   73TMC2    C7 1141   0.962   4.101  14.045  0.3572 -0.4839  0.0294
   73TMC2    C8 1142   0.580   4.308  14.256  0.6544 -0.3376 -0.6673
   73TMC2    O1 1143   0.978   3.999  14.114  0.2444  0.2405  0.5683
   73TMC2    O2 1144   0.609   4.295  14.372  0.4695 -0.1426  0.6396
   73TMC2    O5 1145   0.467   4.366  14.215  0.0792  0.0440  0.1828
   73TMC2    H5 1146   0.433   4.346  14.125 -0.5337  0.2455  0.3647
   74MPD2     C 1147   0.975   0.133  13.620 -0.7438  0.3881  0.1146
   74MPD2    C1 1148   1.053   0.032  13.674 -0.4933 -0.3862  0.0664
   74MPD2    C2 1149   0.991   4.689  13.766 -0.1587  0.0312 -0.6215
   74MPD2    C3 1150   0.855   4.692  13.805 -0.1914 -0.1446 -0.0725
   74MPD2    C4 1151   0.792   0.069  13.758  0.1301  0.3597 -0.3707
   74MPD2    C5 1152   0.852   0.149  13.667 -0.1243  0.6185  0.5359
   74MPD2     H 1153   1.046   4.617  13.826  1.7543  0.7903 -1.4603
   74MPD2    H1 1154   0.686   0.078  13.780 -0.0464 -0.3450 -0.9338
   74MPD2    H2 1155   1.007   0.199  13.540  1.0405  1.5942  1.8354
   74MPD2    H3 1156   0.801   0.244  13.653  0.8766  1.2067  0.9115
   74MPD2     N 1157   0.787   4.592  13.886 -0.2460 -0.6069  0.1550
   74MPD2    H5 1158   0.686   4.600  13.885 -0.4049 -2.3834  2.5610
   74MPD2    N1 1159   1.183   0.018  13.633 -0.4706  0.0749 -0.5200
   74MPD2    H7 1160   1.211   0.078  13.556 -1.7156  0.8417 -0.3608
   75TMC2    C1 1161   1.364   1.439  13.415 -0.0802  0.4686  0.3250
   75TMC2    C2 1162   1.354   1.578  13.426 -0.2181 -1.1967 -0.7214
   75TMC2    C3 1163   1.286   1.644  13.333  0.5030  0.3165 -0.5852
   75TMC2    C4 1164   1.308   1.373  13.305 -0.0619  0.0704 -0.2424
   75TMC2    C5 1165   1.249   1.448  13.209 -0.1663  0.6221 -0.1886
   75TMC2    C6 1166   1.241   1.583  13.217  0.1030 -0.1461 -0.1734
   75TMC2     C 1167   1.455   1.371  13.510 -0.2729 -0.5683  0.7066
   75TMC2     O 1168   1.477   1.422  13.617  0.1170 -0.3793 -0.7589
   75TMC2     H 1169   1.394   1.621  13.517  0.4175 -0.9044 -1.1354
   75TMC2    H1 1170   1.320   1.265  13.305  1.4550  0.2451 -0.2724
   75TMC2    H2 1171   1.195   1.642  13.139 -3.4589 -0.2552  1.8402
   75TMC2    C7 1172   1.187   1.376  13.103 -0.1067  0.2054 -0.3837
   75TMC2    C8 1173   1.236   1.776  13.345  0.2292 -0.1877 -0.4340
   75TMC2    O1 1174   1.184   1.256  13.110 -0.2385  0.3954 -0.4229
   75TMC2    O2 1175   1.190   1.840  13.252 -0.2540  0.0512 -0.4652
   75TMC2    O5 1176   1.190   1.783  13.465  0.2354 -0.5799  0.5565
   75TMC2    H5 1177   1.222   1.704  13.513 -2.5442 -1.2734  1.2449
   76TMC2    C1 1178   0.174   1.705  11.384 -0.0403  0.2468  1.0551
   76TMC2    C2 1179   0.075   1.613  11.367  0.3896 -0.3106  0.4578
   76TMC2    C3 1180   0.073   1.494  11.427  0.3372 -0.0152  0.2643
   76TMC2    C4 1181   0.277   1.672  11.468 -0.0545 -0.1725 -0.3442
   76TMC2    C5 1182   0.285   1.541  11.514  0.2754 -0.2755 -0.2637
   76TMC2    C6 1183   0.177   1.454  11.509  0.1221  0.2533  0.2466
   76TMC2     C 1184   0.134   1.847  11.357  0.3297 -0.5293 -0.0822
   76TMC2     O 1185   0.021   1.854  11.313 -0.3949 -0.1040 -0.3366
   76TMC2     H 1186   4.728   1.637  11.304 -0.6972 -1.2319  1.5546
   76TMC2    H1 1187   0.364   1.736  11.472 -0.2079 -0.0323  0.7471
   76TMC2    H2 1188   0.174   1.355  11.554  1.2525 -0.7128 -1.8569
   76TMC2    C7 1189   0.402   1.500  11.580 -0.3929  0.0004  0.3671
   76TMC2    C8 1190   4.696   1.402  11.388 -0.8970 -0.2375 -0.4714
   76TMC2    O1 1191   0.428   1.381  11.607 -0.8802 -0.3354  0.0624
   76TMC2    O2 1192   4.636   1.406  11.280  0.3712  0.5889 -0.1311
   76TMC2    O5 1193   4.654   1.332  11.497  0.1863  0.8294  0.1443
   76TMC2    H5 1194   4.689   1.357  11.585  0.0658 -0.2605  0.4940
   77MPD2     C 1195   0.136   2.363  11.448  0.1822 -0.6433 -0.0556
   77MPD2    C1 1196   0.032   2.280  11.402  0.4535 -0.2540  0.3998
   77MPD2    C2 1197   0.051   2.142  11.378  0.0377 -0.1348  0.8470
   77MPD2    C3 1198   0.175   2.085  11.407  0.0925  0.7363 -0.1819
   77MPD2    C4 1199   0.274   2.159  11.459 -0.3368  0.4032 -0.1993
   77MPD2    C5 1200   0.255   2.300  11.469  0.3384 -0.3672 -0.6022
   77MPD2     H 1201   4.703   2.081  11.352 -1.5677  2.1134  0.8070
   77MPD2    H1 1202   0.374   2.120  11.477 -0.1503  0.8807 -0.1800
   77MPD2    H2 1203   0.132   2.468  11.471 -0.8760 -0.6663 -0.1459
   77MPD2    H3 1204   0.338   2.362  11.501  0.8098 -1.8578  1.0550
   77MPD2     N 1205   0.215   1.948  11.409 -0.5291 -0.0095  0.2760
   77MPD2    H5 1206   0.308   1.935  11.446 -0.8091 -0.6996  0.7464
   77MPD2    N1 1207   4.639   2.339  11.393  0.4109  0.8156  0.5344
   77MPD2    H7 1208   4.626   2.431  11.434 -1.2674  1.1756 -0.8095
   78TMC2    C1 1209   2.244   1.601   1.029 -0.4584  0.6372 -0.4566
   78TMC2    C2 1210   2.187   1.552   0.913 -0.2024  0.3723  0.4781
   78TMC2    C3 1211   2.179   1.640   0.808 -0.3932  0.1471  0.5801
   78TMC2    C4 1212   2.287   1.733   1.038 -0.0809  0.3377 -0.4237
   78TMC2    C5 1213   2.273   1.817   0.932 -0.5410  0.5709 -0.3875
   78TMC2    C6 1214   2.218   1.769   0.810 -0.6369  0.0541  0.5482
   78TMC2     C 1215   2.280   1.511   1.139 -0.3674  0.4756 -0.4162
   78TMC2     O 1216   2.361   1.558   1.218 -0.7154 -0.1268 -0.5705
   78TMC2     H 1217   2.168   1.445   0.907 -0.2418  0.3041  1.8987
   78TMC2    H1 1218   2.322   1.769   1.134 -0.2441  1.2933 -0.7185
   78TMC2    H2 1219   2.206   1.837   0.727 -0.5517 -0.0869  0.4212
   78TMC2    C7 1220   2.271   1.957   0.958 -0.5999 -0.4290  0.1241
   78TMC2    C8 1221   2.108   1.596   0.691 -0.2531 -1.0881  0.2491
   78TMC2    O1 1222   2.355   2.005   1.041  0.4481  0.1443 -0.1446
   78TMC2    O2 1223   2.111   1.664   0.590  0.1894  0.0150  0.3250
   78TMC2    O5 1224   2.014   1.509   0.728 -0.3772 -0.7346 -0.2536
   78TMC2    H5 1225   2.022   1.488   0.823  3.1499 -2.2975 -0.9023
   79MPD1     C 1226   2.189   1.071   1.403 -0.6154 -0.0941  0.2746
   79MPD1    C1 1227   2.300   1.160   1.411  0.2071  0.1228 -0.0578
   79MPD1    C2 1228   2.302   1.263   1.315 -0.4914 -0.0334  0.7064
   79MPD1    C3 1229   2.193   1.294   1.237 -0.1917  0.0802  0.1912
   79MPD1    C4 1230   2.085   1.206   1.232 -0.1939 -0.2775 -0.1617
   79MPD1    C5 1231   2.090   1.094   1.317 -0.8062  0.0132  0.7431
   79MPD1     H 1232   2.393   1.322   1.308  0.1044 -0.6494  3.1522
   79MPD1    H1 1233   2.005   1.199   1.159 -0.8948  0.6513  0.5067
   79MPD1    H2 1234   2.189   0.987   1.471 -0.8042 -0.8634 -0.6724
   79MPD1    H3 1235   2.008   1.022   1.317 -0.0696 -0.8200 -3.0235
   79MPD1     N 1236   2.188   1.405   1.149  0.6869  0.2638  0.4628
   79MPD1    H5 1237   2.110   1.404   1.084 -1.0256 -0.4961  2.5279
   79MPD1    N1 1238   2.417   1.118   1.482  0.2747  0.2562 -0.3273
   79MPD1    H6 1239   2.481   1.192   1.511 -1.8930  2.3835 -0.9110
   79MPD1    H7 1240   2.402   1.068   1.569  0.2255  0.9207  0.0525
   80TMC2    C1 1241   3.893   1.523  11.255 -0.8478 -0.0794  0.2747
   80TMC2    C2 1242   3.801   1.576  11.169  0.1292 -0.6935 -0.9813
   80TMC2    C3 1243   3.675   1.518  11.196 -0.0256 -0.2380 -0.1994
   80TMC2    C4 1244   3.874   1.426  11.351  0.2821  0.3019 -0.8783
   80TMC2    C5 1245   3.748   1.371  11.359 -0.0214  0.0466  0.1769
   80TMC2    C6 1246   3.642   1.415  11.285  0.3396  0.5722 -0.3383
   80TMC2     C 1247   4.013   1.594  11.251  0.2274 -0.3007  1.1289
   80TMC2     O 1248   4.033   1.660  11.149 -0.8395  0.3392  0.6951
   80TMC2     H 1249   3.824   1.655  11.098 -2.0175 -0.4862 -1.4445
   80TMC2    H1 1250   3.960   1.376  11.392  0.5543  0.9417 -0.6661
   80TMC2    H2 1251   3.543   1.370  11.289  0.5514 -0.0944 -2.6241
   80TMC2    C7 1252   3.720   1.281  11.464 -0.1086  0.0245 -0.0387
   80TMC2    C8 1253   3.574   1.552  11.095  0.4976  0.5327 -0.3918
   80TMC2    O1 1254   3.804   1.289  11.552 -0.2800  0.0537  0.4908
   80TMC2    O2 1255   3.457   1.511  11.110 -0.2040  0.0045  0.4963
   80TMC2    O5 1256   3.636   1.530  10.978  0.7676 -0.3143 -0.1026
   80TMC2    H5 1257   3.732   1.547  10.966  1.0339 -0.5490  1.8208
   81MPD2     C 1258   4.289   1.666  11.300 -0.0227  0.1467  0.6611
   81MPD2    C1 1259   4.200   1.646  11.404  0.3343 -0.0257  0.3037
   81MPD2    C2 1260   4.241   1.662  11.533 -0.6146 -0.3081 -0.4443
   81MPD2    C3 1261   4.375   1.695  11.557 -0.2951  0.6742 -0.5184
   81MPD2    C4 1262   4.451   1.704  11.458 -0.8970 -0.2578  1.2572
   81MPD2    C5 1263   4.415   1.690  11.329  0.7598  0.3528  0.6096
   81MPD2     H 1264   4.171   1.655  11.615 -2.7388 -0.4576 -2.2799
   81MPD2    H1 1265   4.554   1.728  11.480 -0.4098 -0.6574 -0.6150
   81MPD2    H2 1266   4.265   1.654  11.195  0.1639 -0.1999  0.6561
   81MPD2    H3 1267   4.491   1.688  11.252 -1.5596 -1.2470 -1.6269
   81MPD2     N 1268   4.424   1.718  11.688 -0.1392  0.1821 -0.3801
   81MPD2    H5 1269   4.523   1.741  11.693  0.2781 -1.4658 -1.2866
   81MPD2    N1 1270   4.069   1.602  11.377 -0.4128  0.4641  0.3488
   81MPD2    H7 1271   4.011   1.574  11.455 -0.9114  0.7367  0.0744
   82TMC2    C1 1272   2.223   0.011  10.927  0.2473  0.4227  0.4887
   82TMC2    C2 1273   2.341   0.019  10.997 -0.3573  0.2680  0.2526
   82TMC2    C3 1274   2.348   4.693  11.118 -0.5199  0.6318  0.7450
   82TMC2    C4 1275   2.122   4.679  10.978  0.2315 -0.1684  0.3462
   82TMC2    C5 1276   2.133   4.618  11.099 -0.2282 -1.0371 -0.1152
   82TMC2    C6 1277   2.250   4.624  11.172 -0.5085  0.0587 -0.8993
   82TMC2     C 1278   2.199   0.077  10.799  0.2168 -0.0224  0.4543
   82TMC2     O 1279   2.086   0.075  10.752 -0.6348 -0.0455 -0.2015
   82TMC2     H 1280   2.429   0.071  10.959  1.7079 -2.1630  1.6680
   82TMC2    H1 1281   2.040   4.658  10.911 -1.3528  2.5700  1.4379
   82TMC2    H2 1282   2.248   4.594  11.276 -2.4811 -1.3891 -1.3530
   82TMC2    C7 1283   2.033   4.518  11.147 -0.3704 -0.1097  0.7193
   82TMC2    C8 1284   2.475   4.698  11.175 -0.8237  0.0856  0.4814
   82TMC2    O1 1285   2.074   4.447  11.236 -0.4239 -0.4140 -0.3115
   82TMC2    O2 1286   2.570   0.011  11.118  0.2741 -0.2286  0.3188
   82TMC2    O5 1287   2.506   4.595  11.258  0.2712 -0.2767 -0.2704
   82TMC2    H5 1288   2.435   4.541  11.298  1.0719  0.2300  1.7991
   83MPD2     C 1289   2.253   0.579  10.702 -0.0921 -0.0285  0.0512
   83MPD2    C1 1290   2.138   0.499  10.693  0.9787 -0.5363  0.1740
   83MPD2    C2 1291   2.156   0.357  10.703  0.3844  0.1776 -0.2179
   83MPD2    C3 1292   2.282   0.308  10.740  0.0894  0.5524  0.0142
   83MPD2    C4 1293   2.390   0.389  10.751  0.2764 -0.2571 -0.2624
   83MPD2    C5 1294   2.377   0.522  10.726 -0.0010 -0.2866  0.0141
   83MPD2     H 1295   2.062   0.302  10.699  1.4329 -1.7598  1.8781
   83MPD2    H1 1296   2.490   0.354  10.775 -0.1956 -1.3772  0.0311
   83MPD2    H2 1297   2.252   0.685  10.683  0.7432 -0.0152  0.1089
   83MPD2    H3 1298   2.468   0.581  10.729 -0.2142 -0.0220  1.4128
   83MPD2     N 1299   2.304   0.167  10.775 -0.3437  0.5272 -0.0652
   83MPD2    H5 1300   2.399   0.150  10.807  0.3828 -0.0672 -2.5421
   83MPD2    N1 1301   2.017   0.571  10.682  0.2876  0.1685  0.0873
   83MPD2    H7 1302   2.026   0.672  10.688  2.2635  0.2810 -5.3556
   84TMC2    C1 1303   3.757   0.310  10.595 -0.1592 -0.1523  0.2668
   84TMC2    C2 1304   3.812   0.193  10.553  0.4421  0.1413 -0.6948
   84TMC2    C3 1305   3.844   0.187  10.426  0.7266 -0.2323  0.5884
   84TMC2    C4 1306   3.763   0.422  10.520  0.2073  0.1653  0.8811
   84TMC2    C5 1307   3.809   0.415  10.386  0.5236 -0.1498  0.0580
   84TMC2    C6 1308   3.852   0.293  10.334  0.1221  1.0123 -0.4185
   84TMC2     C 1309   3.721   0.308  10.733  0.7559  0.1124 -0.0274
   84TMC2     O 1310   3.712   0.199  10.794 -0.5460  0.0479  0.6193
   84TMC2     H 1311   3.837   0.107  10.614 -1.0026  0.4095  0.2465
   84TMC2    H1 1312   3.705   0.511  10.544  0.0239  1.1916 -3.4774
   84TMC2    H2 1313   3.886   0.283  10.232 -0.0769 -0.4270 -0.3538
   84TMC2    C7 1314   3.799   0.532  10.294  0.1478 -0.2638 -0.2032
   84TMC2    C8 1315   3.908   0.069  10.388  0.3165 -1.0486  0.2550
   84TMC2    O1 1316   3.788   0.500  10.176 -0.2169  0.4736 -0.1109
   84TMC2    O2 1317   4.001   0.066  10.307  0.1633  0.1046  0.1410
   84TMC2    O5 1318   3.814   4.715  10.398  0.2689 -0.1195 -0.3732
   84TMC2    H5 1319   3.733   0.007  10.444 -1.3440 -2.4013 -1.7515
   85TMC2    C1 1320   0.009   3.258  15.664  0.1610  0.4280  0.4309
   85TMC2    C2 1321   4.704   3.373  15.728  0.2982  0.0237  0.7551
   85TMC2    C3 1322   4.726   3.486  15.657  0.1592 -0.0498  0.3023
   85TMC2    C4 1323   0.071   3.251  15.550 -0.1739  0.2597 -0.8125
   85TMC2    C5 1324   0.089   3.368  15.479 -0.5787 -0.0391  0.2117
   85TMC2    C6 1325   0.052   3.493  15.531  0.2454  0.0176 -0.1404
   85TMC2     C 1326   4.700   3.135  15.729 -0.4989 -0.0821  0.1993
   85TMC2     O 1327   0.031   3.039  15.701 -0.2999 -0.4406  0.3271
   85TMC2     H 1328   4.662   3.377  15.827  0.2280 -1.1791  0.7700
   85TMC2    H1 1329   0.088   3.154  15.505  0.0011 -1.1907  2.3683
   85TMC2    H2 1330   0.097   3.587  15.502  1.6507 -0.0247  1.8813
   85TMC2    C7 1331   0.107   3.356  15.337  0.3393  0.1973 -1.3756
   85TMC2    C8 1332   4.698   3.607  15.732  1.1378  0.1874 -0.3019
   85TMC2    O1 1333   0.159   3.253  15.297 -0.2099  0.5131 -0.3629
   85TMC2    O2 1334   4.687   3.616  15.856 -0.2374  0.0244  0.1130
   85TMC2    O5 1335   4.654   3.697  15.638  0.2047 -0.2725 -0.2995
   85TMC2    H5 1336   4.663   3.662  15.547  3.9555  0.3486 -0.1744
   86MPD2     C 1337   4.472   2.844  16.066 -0.5187 -0.5637  0.4156
   86MPD2    C1 1338   4.384   2.883  15.970  0.2013 -0.9628  0.5111
   86MPD2    C2 1339   4.425   2.979  15.875  0.2266 -0.2576  0.0015
   86MPD2    C3 1340   4.549   3.035  15.881 -0.6694 -0.8841  1.0047
   86MPD2    C4 1341   4.637   2.998  15.979 -0.1517 -0.3275 -0.1990
   86MPD2    C5 1342   4.597   2.900  16.070 -0.0206  0.6203  0.7414
   86MPD2     H 1343   4.356   3.003  15.795  1.6327  3.6875 -0.0015
   86MPD2    H1 1344   4.736   3.043  15.989  0.0205 -0.5925 -0.7253
   86MPD2    H2 1345   4.450   2.766  16.138 -1.1350 -1.1534 -0.4141
   86MPD2    H3 1346   4.662   2.865  16.149  1.2735  3.3036  0.8545
   86MPD2     N 1347   4.586   3.142  15.796  0.0386  0.7360 -0.3052
   86MPD2    H5 1348   4.515   3.211  15.775 -0.8851 -0.2899 -0.5942
   86MPD2    N1 1349   4.263   2.813  15.959 -0.6399  0.2813  0.4516
   86MPD2    H7 1350   4.210   2.816  15.873 -0.5031 -1.3560  0.2985
   87TMC2    C1 1351   2.306   0.804   0.818  0.1909 -0.0554  0.6025
   87TMC2    C2 1352   2.314   0.721   0.928  0.5341  0.4244 -0.2459
   87TMC2    C3 1353   2.337   0.782   1.048 -0.1179 -0.3328 -0.2221
   87TMC2    C4 1354   2.308   0.933   0.830  0.4007 -0.2062 -0.2337
   87TMC2    C5 1355   2.330   0.992   0.953 -0.1208  0.1007 -1.0625
   87TMC2    C6 1356   2.352   0.917   1.062  0.2119 -0.6226 -0.7661
   87TMC2     C 1357   2.281   0.744   0.692 -0.1586  0.3404 -0.0925
   87TMC2     O 1358   2.300   0.819   0.599 -0.5529  0.5407 -0.3380
   87TMC2     H 1359   2.312   0.612   0.933 -2.1847  0.5035  0.4835
   87TMC2    H1 1360   2.292   0.991   0.739  0.3593 -0.2508 -0.2547
   87TMC2    H2 1361   2.347   0.958   1.162  2.2663 -1.5519 -0.2897
   87TMC2    C7 1362   2.358   1.129   0.947  0.1931 -0.1553 -0.0596
   87TMC2    C8 1363   2.322   0.698   1.160  0.0722 -0.0945 -0.3375
   87TMC2    O1 1364   2.304   1.189   0.858  0.5677  0.6074 -0.1986
   87TMC2    O2 1365   2.264   0.591   1.159 -0.0556  0.1013  0.6842
   87TMC2    O5 1366   2.396   0.749   1.259  0.4180 -0.1167  0.4364
   87TMC2    H5 1367   2.443   0.830   1.232 -3.1412  0.4602 -3.9327
   88MPD2     C 1368   2.631   1.310   1.125  0.1928  0.2056  0.9919
   88MPD2    C1 1369   2.533   1.282   1.030  0.5018  0.0146  0.4587
   88MPD2    C2 1370   2.511   1.378   0.924  0.0936 -0.1260 -0.5989
   88MPD2    C3 1371   2.577   1.505   0.927  0.3828  0.0207 -0.6663
   88MPD2    C4 1372   2.669   1.525   1.024  0.2181  1.1527  0.5897
   88MPD2    C5 1373   2.701   1.426   1.119  0.2181  0.1501  0.2100
   88MPD2     H 1374   2.440   1.355   0.846  0.3773  0.1634 -0.9450
   88MPD2    H1 1375   2.718   1.621   1.037  2.3062  0.2484 -0.4907
   88MPD2    H2 1376   2.663   1.244   1.205 -0.2432 -1.3420 -0.1187
   88MPD2    H3 1377   2.767   1.453   1.201  0.3628 -3.6754  1.3294
   88MPD2     N 1378   2.571   1.602   0.822  0.0756 -0.2454  0.3637
   88MPD2    H5 1379   2.640   1.676   0.826 -1.0801  0.7490  1.8780
   88MPD2    N1 1380   2.459   1.160   1.033  0.0043 -0.6947 -0.5712
   88MPD2    H7 1381   2.489   1.080   1.087  3.4779  1.7670  1.1129
   89TMC2    C1 1382   2.711   3.660   0.753 -0.5702  0.4061 -0.4932
   89TMC2    C2 1383   2.573   3.638   0.759 -0.6838  0.5245  0.1332
   89TMC2    C3 1384   2.492   3.709   0.677  0.6681 -0.3965 -0.2902
   89TMC2    C4 1385   2.763   3.750   0.665 -0.1547  0.2557  0.2739
   89TMC2    C5 1386   2.676   3.802   0.572 -0.0164  0.4359 -0.1258
   89TMC2    C6 1387   2.544   3.779   0.570 -0.0428  0.1905 -0.5340
   89TMC2     C 1388   2.800   3.604   0.859  0.2157 -0.1683  0.3578
   89TMC2     O 1389   2.923   3.626   0.840  0.5744 -0.1401 -0.6415
   89TMC2     H 1390   2.525   3.577   0.834 -3.1369  1.5079 -0.6251
   89TMC2    H1 1391   2.871   3.756   0.660 -0.0936  0.0185  1.4743
   89TMC2    H2 1392   2.475   3.836   0.509  0.5515 -0.3151 -1.7004
   89TMC2    C7 1393   2.742   3.881   0.466  0.5563  0.1130  0.0199
   89TMC2    C8 1394   2.351   3.696   0.690 -0.1562  0.2247 -0.6800
   89TMC2    O1 1395   2.861   3.865   0.455 -0.2502 -0.6575  0.1928
   89TMC2    O2 1396   2.291   3.699   0.800  0.0235 -0.2493 -0.2166
   89TMC2    O5 1397   2.305   3.647   0.571  0.3756  0.4925  0.3332
   89TMC2    H5 1398   2.376   3.645   0.503  2.3326  2.8746  2.2808
   90MPD2     C 1399   2.857   3.384   1.328 -0.1896  0.3099 -0.4237
   90MPD2    C1 1400   2.725   3.395   1.300  0.1501 -0.2826  0.8462
   90MPD2    C2 1401   2.688   3.461   1.183 -0.8136 -0.2313 -0.9011
   90MPD2    C3 1402   2.784   3.510   1.093 -0.0982 -0.1970  0.2969
   90MPD2    C4 1403   2.918   3.495   1.121 -0.2301  0.0935 -0.0669
   90MPD2    C5 1404   2.952   3.447   1.247 -0.3505 -0.2288 -0.0286
   90MPD2     H 1405   2.581   3.472   1.169 -1.2028 -1.4738  1.0202
   90MPD2    H1 1406   3.002   3.539   1.069  0.8793 -1.4361  0.4645
   90MPD2    H2 1407   2.900   3.328   1.410  0.3547  2.3693  0.7146
   90MPD2    H3 1408   3.055   3.449   1.280 -0.2302 -0.0201 -0.4114
   90MPD2     N 1409   2.729   3.558   0.967  0.5127 -0.3593 -0.5676
   90MPD2    H5 1410   2.629   3.572   0.963  0.4007 -2.2372 -3.6473
   90MPD2    N1 1411   2.619   3.337   1.379  0.0705  0.6049  0.1952
   90MPD2    H7 1412   2.528   3.340   1.333 -0.7594 -2.0555  1.6511
   91TMC2    C1 1413   3.785   4.090  15.882 -0.4513 -0.1199 -0.1561
   91TMC2    C2 1414   3.828   4.154  15.773  0.1124  0.5258  0.4326
   91TMC2    C3 1415   3.748   4.153  15.669 -0.8463 -0.2797 -0.1501
   91TMC2    C4 1416   3.659   4.036  15.892 -0.1863  0.2424 -0.0731
   91TMC2    C5 1417   3.571   4.050  15.788 -0.1344 -0.0713 -1.3072
   91TMC2    C6 1418   3.618   4.094  15.669 -0.0561  0.1505 -0.2177
   91TMC2     C 1419   3.864   4.104  16.003  0.2424 -0.2178 -0.1392
   91TMC2     O 1420   3.799   4.095  16.110 -0.5759 -0.0683 -0.3840
   91TMC2     H 1421   3.926   4.199  15.765  1.5423 -2.3797  1.6146
   91TMC2    H1 1422   3.639   3.983  15.984  0.6277  0.6397  0.3260
   91TMC2    H2 1423   3.560   4.114  15.579 -1.3510  0.3190  0.6483
   91TMC2    C7 1424   3.443   3.991  15.789 -0.2864 -0.0867 -0.0129
   91TMC2    C8 1425   3.803   4.229  15.564 -0.0031  0.1738  1.0631
   91TMC2    O1 1426   3.423   3.914  15.881  0.1337  0.2120 -0.0926
   91TMC2    O2 1427   3.880   4.321  15.580 -0.5179  0.1814  0.7723
   91TMC2    O5 1428   3.822   4.132  15.476 -0.2291 -0.7773 -0.0409
   91TMC2    H5 1429   3.751   4.067  15.492  1.0507 -2.0483  0.4812
   92MPD2     C 1430   4.068   4.169  16.216  0.8161 -0.2555 -0.4111
   92MPD2    C1 1431   4.097   4.150  16.078 -0.1500  0.2192 -0.9156
   92MPD2    C2 1432   4.235   4.145  16.046  0.5615 -0.4224  0.6218
   92MPD2    C3 1433   4.334   4.171  16.138 -0.3041  0.1918 -0.1068
   92MPD2    C4 1434   4.304   4.199  16.265 -0.5065 -0.5637  0.0290
   92MPD2    C5 1435   4.173   4.192  16.308 -0.1640 -0.5826  0.1114
   92MPD2     H 1436   4.259   4.121  15.943  0.2281 -1.9869  0.9147
   92MPD2    H1 1437   4.384   4.213  16.337 -1.1334 -0.3128  0.6875
   92MPD2    H2 1438   3.966   4.162  16.251  1.1325 -1.7776  0.2254
   92MPD2    H3 1439   4.152   4.212  16.413 -0.7048 -3.3497  0.5273
   92MPD2     N 1440   4.469   4.161  16.112 -0.6261  0.5336  0.7714
   92MPD2    H5 1441   4.527   4.184  16.193 -0.3419 -2.5686  1.4733
   92MPD2    N1 1442   4.001   4.121  15.978 -0.0730  0.5398 -0.2771
   92MPD2    H7 1443   4.030   4.100  15.883  0.5809  1.5188 -0.2874
   93TMC2    C1 1444   1.069   3.642  13.534 -0.2944 -0.5155 -0.0529
   93TMC2    C2 1445   1.020   3.772  13.562  0.3853  0.0804 -0.3334
   93TMC2    C3 1446   1.111   3.860  13.619  0.4579 -0.4743  0.4667
   93TMC2    C4 1447   1.201   3.608  13.556  0.0759  0.4213 -0.1738
   93TMC2    C5 1448   1.276   3.712  13.611  0.1570 -0.0616  0.4757
   93TMC2    C6 1449   1.240   3.835  13.642 -0.1622  0.2685  0.1787
   93TMC2     C 1450   0.985   3.536  13.484 -0.4502  0.5687  0.2130
   93TMC2     O 1451   1.021   3.422  13.491 -0.2712  0.1426 -0.2615
   93TMC2     H 1452   0.924   3.814  13.534 -0.1753  0.7858  2.6235
   93TMC2    H1 1453   1.237   3.506  13.542  0.2146  0.5011 -0.4149
   93TMC2    H2 1454   1.307   3.900  13.698  1.4805 -1.4229  0.1844
   93TMC2    C7 1455   1.426   3.684  13.604 -0.4244 -0.2007  1.0767
   93TMC2    C8 1456   1.058   3.987  13.681 -0.2413  0.3847  0.4380
   93TMC2    O1 1457   1.462   3.562  13.606  0.0214  0.1535  0.2221
   93TMC2    O2 1458   0.937   3.990  13.714  0.1841 -0.5918  0.3333
   93TMC2    O5 1459   1.125   4.086  13.619  0.1918  0.2076 -0.3107
   93TMC2    H5 1460   1.220   4.069  13.597  0.4635  1.9741 -0.4677
   94MPD2     C 1461   0.747   3.367  13.431  0.0271  1.1536  0.1142
   94MPD2    C1 1462   0.746   3.505  13.431  0.2582 -0.1829  0.2385
   94MPD2    C2 1463   0.626   3.574  13.406  0.6905  0.0621 -0.6450
   94MPD2    C3 1464   0.507   3.506  13.391 -0.1922  0.8777  0.1597
   94MPD2    C4 1465   0.511   3.369  13.406  0.0229 -0.5173  0.4211
   94MPD2    C5 1466   0.628   3.300  13.430  0.3343 -0.1701 -0.3269
   94MPD2     H 1467   0.631   3.682  13.406  2.4300  0.0038  1.7630
   94MPD2    H1 1468   0.426   3.302  13.395 -1.1441  1.0329 -0.0438
   94MPD2    H2 1469   0.832   3.305  13.455  0.4966  2.4428  1.7914
   94MPD2    H3 1470   0.620   3.192  13.435 -0.5354  0.0088  2.0051
   94MPD2     N 1471   0.388   3.562  13.357 -0.4276  0.2283 -0.3210
   94MPD2    H5 1472   0.321   3.490  13.330 -1.0583  0.2682  1.1632
   94MPD2    N1 1473   0.865   3.583  13.450  0.2449 -0.1304 -0.3207
   94MPD2    H7 1474   0.852   3.683  13.445  0.5942  0.1052  3.2016
   95TMC2    C1 1475   1.227   0.701  15.853 -0.1136  0.0256  0.0640
   95TMC2    C2 1476   1.164   0.579  15.828  0.1536 -0.7215  0.0458
   95TMC2    C3 1477   1.100   0.528  15.931 -0.1375 -0.4684 -0.0738
   95TMC2    C4 1478   1.233   0.765  15.973  0.4733 -0.3178 -0.1317
   95TMC2    C5 1479   1.152   0.707  16.069 -0.1274  0.1617 -0.2961
   95TMC2    C6 1480   1.088   0.588  16.050  0.9318 -0.3288  0.0345
   95TMC2     C 1481   1.292   0.770  15.745  0.6892  0.0341 -0.3272
   95TMC2     O 1482   1.373   0.865  15.769 -0.1953 -0.1302  0.0850
   95TMC2     H 1483   1.162   0.521  15.736 -1.7449 -0.6728  0.0576
   95TMC2    H1 1484   1.303   0.844  16.000 -0.8350  0.9705 -0.5426
   95TMC2    H2 1485   1.026   0.546  16.128 -0.8364 -0.0734 -1.2364
   95TMC2    C7 1486   1.149   0.748  16.209 -0.1132  0.2758 -0.2037
   95TMC2    C8 1487   1.068   0.391  15.933 -0.5455 -0.4567 -1.1767
   95TMC2    O1 1488   1.121   0.659  16.292  0.7667 -0.1122  0.7721
   95TMC2    O2 1489   1.120   0.315  15.849  0.0782  0.4186  0.1394
   95TMC2    O5 1490   0.932   0.388  15.963  0.2135  0.5032 -0.4528
   95TMC2    H5 1491   0.907   0.479  15.991  1.6145  0.9881 -0.7273
   96MPD2     C 1492   1.418   0.777  15.238  0.2080 -0.1912 -0.0336
   96MPD2    C1 1493   1.452   0.870  15.336  0.0236  0.2959  0.1546
   96MPD2    C2 1494   1.406   0.851  15.462  0.9006 -0.8840  0.3532
   96MPD2    C3 1495   1.328   0.737  15.494 -0.0024  0.0190 -0.2217
   96MPD2    C4 1496   1.294   0.652  15.391 -0.0074 -0.2126  0.1459
   96MPD2    C5 1497   1.345   0.669  15.266 -0.3969 -0.1882 -0.2832
   96MPD2     H 1498   1.415   0.930  15.536 -0.3070 -0.1548 -0.2767
   96MPD2    H1 1499   1.227   0.569  15.410  1.6601 -1.2935  1.1619
   96MPD2    H2 1500   1.453   0.797  15.138 -0.3632 -3.5581 -0.9089
   96MPD2    H3 1501   1.314   0.600  15.189 -0.7270  0.5259 -0.7905
   96MPD2     N 1502   1.269   0.713  15.621 -1.3384 -0.0516 -0.1111
   96MPD2    H5 1503   1.195   0.643  15.621 -0.5160 -0.9327  0.8485
   96MPD2    N1 1504   1.542   0.972  15.304  0.0514  0.0838  0.0691
   96MPD2    H7 1505   1.578   0.961  15.210  1.7275 -1.2367  0.8512
   97TMC2    C1 1506   4.097   3.847   1.314  0.1898  0.0524  0.6172
   97TMC2    C2 1507   4.208   3.902   1.379  0.0522 -0.2396  0.2824
   97TMC2    C3 1508   4.257   4.012   1.323  0.1496 -0.1742  0.6710
   97TMC2    C4 1509   4.039   3.907   1.202 -0.0272  0.5488  0.0513
   97TMC2    C5 1510   4.102   4.017   1.150  0.0951  0.2354  0.0214
   97TMC2    C6 1511   4.198   4.076   1.210 -0.4724  0.3482 -0.5511
   97TMC2     C 1512   4.030   3.739   1.386 -0.1463  0.0571 -0.0486
   97TMC2     O 1513   4.057   3.719   1.505  0.2654  0.2196  0.1427
   97TMC2     H 1514   4.262   3.862   1.465 -1.5010  1.1721  1.9175
   97TMC2    H1 1515   3.949   3.870   1.154  0.6814  1.7986 -2.2571
   97TMC2    H2 1516   4.264   4.156   1.179  0.2660  0.8368  2.2778
   97TMC2    C7 1517   4.059   4.086   1.031 -0.2788 -0.8001 -0.0386
   97TMC2    C8 1518   4.364   4.073   1.397  0.2858 -0.6474  0.2259
   97TMC2    O1 1519   4.126   4.178   0.996  0.6657 -0.2109  0.3518
   97TMC2    O2 1520   4.452   4.146   1.347 -0.3248  0.2866  0.2534
   97TMC2    O5 1521   4.296   4.094   1.513 -0.1147 -0.1064 -0.3318
   97TMC2    H5 1522   4.201   4.069   1.511 -0.4829  1.2964 -0.8196
   98MPD2     C 1523   3.698   3.350   1.368  0.0844 -0.0561  0.2987
   98MPD2    C1 1524   3.713   3.398   1.237 -0.4654  0.0948 -0.5386
   98MPD2    C2 1525   3.793   3.511   1.222  0.3583  0.4209 -0.6211
   98MPD2    C3 1526   3.867   3.557   1.330 -0.3849  0.5933  0.8336
   98MPD2    C4 1527   3.849   3.505   1.456  0.5342  1.0114 -0.5001
   98MPD2    C5 1528   3.762   3.401   1.477 -0.1995 -0.2523  0.4136
   98MPD2     H 1529   3.793   3.557   1.124  0.6874  1.8262  0.0345
   98MPD2    H1 1530   3.899   3.552   1.540  2.8957 -1.4425 -0.5382
   98MPD2    H2 1531   3.633   3.265   1.384  1.8493 -1.3662  0.4472
   98MPD2    H3 1532   3.765   3.351   1.573 -0.1664 -0.2845  0.3955
   98MPD2     N 1533   3.948   3.664   1.298  1.0295 -0.9006  0.5809
   98MPD2    H5 1534   3.957   3.693   1.201 -0.2526 -1.6519  0.2426
   98MPD2    N1 1535   3.639   3.323   1.141  0.4850 -0.4850 -0.1433
   98MPD2    H7 1536   3.586   3.241   1.171  0.0490 -0.6587 -1.4152
   99TMC2    C1 1537   2.733   4.550   1.874 -0.1210 -0.1744  0.4300
   99TMC2    C2 1538   2.843   4.581   1.951 -0.5100  0.5633 -0.1328
   99TMC2    C3 1539   2.811   4.669   2.055  0.4808 -0.0521  0.3602
   99TMC2    C4 1540   2.603   4.582   1.903 -0.4443  0.0920 -0.2122
   99TMC2    C5 1541   2.584   4.662   2.009  0.5430 -0.4737 -0.6392
   99TMC2    C6 1542   2.683   4.709   2.084  0.2145  0.2892  0.0379
   99TMC2     C 1543   2.773   4.470   1.752  0.2380 -0.2766  0.4070
   99TMC2     O 1544   2.886   4.418   1.758  0.3409  0.4909 -0.0719
   99TMC2     H 1545   2.947   4.555   1.933  0.4175  1.5905  3.8617
   99TMC2    H1 1546   2.520   4.528   1.859 -0.0842 -1.7689  1.3951
   99TMC2    H2 1547   2.666   0.038   2.168  0.2684 -0.9277  1.0191
   99TMC2    C7 1548   2.458   4.737   2.034 -0.4236  0.6283 -0.7112
   99TMC2    C8 1549   2.910   0.001   2.129  0.1078  0.0879  0.0506
   99TMC2    O1 1550   2.448   0.045   2.149 -0.8656 -0.0844  0.0186
   99TMC2    O2 1551   2.924   0.122   2.147  0.6208  0.0016  0.2616
   99TMC2    O5 1552   3.019   4.662   2.122  0.2389 -0.0445  0.0533
   99TMC2    H5 1553   2.980   4.572   2.116 -0.5597  0.3144 -0.1388
  100MPD2     C 1554   2.774   4.293   1.513 -0.2929 -0.7208  0.1776
  100MPD2    C1 1555   2.680   4.388   1.539  0.7021 -0.4019 -0.0444
  100MPD2    C2 1556   2.569   4.401   1.459  0.2901 -0.2108  0.0308
  100MPD2    C3 1557   2.554   4.321   1.346  0.8937  0.1402 -0.7078
  100MPD2    C4 1558   2.650   4.226   1.331  0.1888 -0.4526 -0.0647
  100MPD2    C5 1559   2.753   4.208   1.415  0.8202 -0.3437  0.2030
  100MPD2     H 1560   2.485   4.464   1.485  2.1395  3.0556 -1.8905
  100MPD2    H1 1561   2.651   4.162   1.244  3.2012 -0.4242 -0.0336
  100MPD2    H2 1562   2.862   4.273   1.573 -0.5880  0.6867  1.0577
  100MPD2    H3 1563   2.820   4.124   1.401 -0.3729 -1.6007  1.8729
  100MPD2     N 1564   2.455   4.353   1.252 -0.3099  0.5564  0.2849
  100MPD2    H5 1565   2.396   4.434   1.271 -0.3948  0.7308 -0.7147
  100MPD2    N1 1566   2.677   4.477   1.652 -0.0828 -0.1233 -0.6948
  100MPD2    H7 1567   2.601   4.544   1.647  1.5811  1.8948  1.1654
  101TMC2    C1 1568   3.031   1.609  12.795 -0.3251 -0.1019 -0.3899
  101TMC2    C2 1569   2.940   1.712  12.769 -0.2458  0.1528  0.2074
  101TMC2    C3 1570   2.986   1.817  12.699  0.3907 -0.8346  0.3052
  101TMC2    C4 1571   3.162   1.612  12.759  0.3441  0.8735 -0.3261
  101TMC2    C5 1572   3.201   1.723  12.686 -0.9591  0.3772  0.4552
  101TMC2    C6 1573   3.118   1.826  12.663  0.2116  0.2249 -0.6302
  101TMC2     C 1574   2.963   1.484  12.792 -0.1480 -0.2844  0.1664
  101TMC2     O 1575   2.854   1.487  12.845 -0.0977  0.0701 -0.4741
  101TMC2     H 1576   2.833   1.701  12.785 -0.3094 -3.6168 -2.9740
  101TMC2    H1 1577   3.225   1.525  12.777 -0.2917  0.1685 -1.5028
  101TMC2    H2 1578   3.157   1.910  12.607  1.5370  0.2486  0.3054
  101TMC2    C7 1579   3.325   1.717  12.617 -0.7028 -0.7613  0.4404
  101TMC2    C8 1580   2.913   1.940  12.695  0.3663  0.3367 -0.4857
  101TMC2    O1 1581   3.322   1.772  12.510  0.3206 -0.4244  0.2013
  101TMC2    O2 1582   2.948   2.034  12.623  0.2551 -0.0061  0.2955
  101TMC2    O5 1583   2.863   1.958  12.819 -0.3331  0.2451 -0.4773
  101TMC2    H5 1584   2.845   1.880  12.875  0.0180 -0.2652 -1.0720
  102MPD2     C 1585   3.007   1.195  12.582  0.0070  0.1979 -0.3262
  102MPD2    C1 1586   2.938   1.285  12.666 -1.4846  0.4183 -0.6521
  102MPD2    C2 1587   2.826   1.238  12.725 -0.2393 -0.2739  0.4969
  102MPD2    C3 1588   2.771   1.119  12.697  0.2103 -0.2548 -0.1083
  102MPD2    C4 1589   2.825   1.040  12.594  0.6148  0.0948  0.0335
  102MPD2    C5 1590   2.947   1.073  12.543 -0.2084 -0.2640 -0.2166
  102MPD2     H 1591   2.775   1.298  12.800  0.7911  0.1993  0.8132
  102MPD2    H1 1592   2.768   0.952  12.565 -0.7639  0.6340  1.1276
  102MPD2    H2 1593   3.105   1.212  12.540 -0.0534 -1.7380 -1.2996
  102MPD2    H3 1594   3.007   1.002  12.487  0.5314 -0.4298  0.7754
  102MPD2     N 1595   2.654   1.084  12.762  0.1878 -0.1615  0.0391
  102MPD2    H5 1596   2.617   1.161  12.818  1.1761 -0.6100  1.2997
  102MPD2    N1 1597   3.009   1.400  12.699  0.3006 -0.2301  0.1495
  102MPD2    H7 1598   3.100   1.410  12.655  0.8525  0.1842  1.4125
  103TMC2    C1 1599   0.746   1.986  12.132  0.0786  0.1497 -0.0846
  103TMC2    C2 1600   0.723   2.123  12.133 -0.4881  0.2028 -0.4877
  103TMC2    C3 1601   0.775   2.192  12.241  0.1607 -0.3390  0.0047
  103TMC2    C4 1602   0.824   1.926  12.230  0.8111  0.6322 -0.5154
  103TMC2    C5 1603   0.864   2.001  12.335  0.0746  0.4610 -0.5214
  103TMC2    C6 1604   0.846   2.134  12.344  0.1147  0.3603  0.0800
  103TMC2     C 1605   0.685   1.906  12.022 -0.1940 -0.2058 -0.2011
  103TMC2     O 1606   0.603   1.968  11.959 -0.0901  0.2871  0.2500
  103TMC2     H 1607   0.670   2.168  12.050 -1.5891 -0.0708  0.0653
  103TMC2    H1 1608   0.845   1.820  12.233  0.8247  0.6665  0.4899
  103TMC2    H2 1609   0.901   2.188  12.420  0.1763  2.3001 -1.3540
  103TMC2    C7 1610   0.886   1.929  12.458 -0.2029  0.1488  0.5723
  103TMC2    C8 1611   0.747   2.332  12.241 -0.6730  0.0628  0.2873
  103TMC2    O1 1612   0.889   1.806  12.452 -0.2639  0.5648 -0.0062
  103TMC2    O2 1613   0.805   2.407  12.316  0.0495  0.1084  0.6498
  103TMC2    O5 1614   0.646   2.367  12.155  0.0469 -0.1901  0.5488
  103TMC2    H5 1615   0.595   2.293  12.115  0.0216  0.7705 -1.1642
  104MPD2     C 1616   0.803   1.586  11.896 -0.6703  0.7188  0.3399
  104MPD2    C1 1617   0.712   1.691  11.913 -0.5531 -0.4685  0.9717
  104MPD2    C2 1618   0.595   1.693  11.836  0.0691  0.2847 -0.0416
  104MPD2    C3 1619   0.571   1.601  11.737  0.0043  0.3525  0.2115
  104MPD2    C4 1620   0.664   1.495  11.724 -0.7091  0.3096  0.9581
  104MPD2    C5 1621   0.779   1.494  11.800 -0.2962 -0.1733  0.5783
  104MPD2     H 1622   0.518   1.768  11.852  0.6076  0.9418 -0.5184
  104MPD2    H1 1623   0.649   1.415  11.652  2.8429 -0.2166  0.7874
  104MPD2    H2 1624   0.896   1.586  11.952 -1.7591  0.1909  2.1685
  104MPD2    H3 1625   0.855   1.417  11.793  0.4700  0.4872  1.5629
  104MPD2     N 1626   0.453   1.607  11.660  0.0863  0.3269 -0.3094
  104MPD2    H5 1627   0.400   1.694  11.658  0.8593  0.8417  1.8237
  104MPD2    N1 1628   0.747   1.788  12.012 -1.2396 -0.1327 -0.3500
  104MPD2    H7 1629   0.826   1.773  12.074 -0.7660  0.6723 -0.7527
  105TMC2    C1 1630   2.068   0.615  17.528  0.9931  0.4028 -0.9630
  105TMC2    C2 1631   2.035   0.744  17.533  0.3575  0.2115  0.5961
  105TMC2    C3 1632   2.005   0.788  17.658  0.4100  0.5443  0.1786
  105TMC2    C4 1633   2.072   0.531  17.641 -0.9264 -0.3501  0.5457
  105TMC2    C5 1634   2.037   0.581   0.012 -0.1455  0.1642  0.3641
  105TMC2    C6 1635   1.998   0.711   0.024 -0.1071 -1.1647 -0.6738
  105TMC2     C 1636   2.116   0.554  17.404  0.4288  0.3929  0.1063
  105TMC2     O 1637   2.109   0.431  17.388  0.7650  0.6897 -1.0315
  105TMC2     H 1638   2.021   0.807  17.446 -0.0791  0.5092  0.8816
  105TMC2    H1 1639   2.089   0.427  17.618 -2.5761 -0.3960 -0.4128
  105TMC2    H2 1640   1.945   0.753   0.109  1.8575 -2.5557  1.2343
  105TMC2    C7 1641   2.078   0.507   0.132 -0.1080 -0.2392 -0.6904
  105TMC2    C8 1642   1.977   0.926  17.677 -0.3299 -0.0637 -0.4887
  105TMC2    O1 1643   2.122   0.394   0.118 -0.1180  0.0945 -0.3635
  105TMC2    O2 1644   1.991   0.986   0.030 -0.6556  0.2562  0.1053
  105TMC2    O5 1645   1.873   0.951  17.600  0.0973 -0.1373 -0.2505
  105TMC2    H5 1646   1.844   0.893  17.526  0.3575 -0.9114  0.2572
  106MPD2     C 1647   2.269   0.578  16.921 -0.1385  0.7815 -0.1729
  106MPD2    C1 1648   2.278   0.703  16.982 -0.0196  0.0197  0.3286
  106MPD2    C2 1649   2.229   0.719  17.107  0.1554 -0.3712  0.3088
  106MPD2    C3 1650   2.176   0.616  17.180 -0.2719 -0.2963  0.2807
  106MPD2    C4 1651   2.147   0.492  17.122  0.1397  0.8343  0.4719
  106MPD2    C5 1652   2.206   0.480  16.998  0.6835 -0.0687  0.5170
  106MPD2     H 1653   2.256   0.812  17.156 -1.1307  0.3036 -0.2595
  106MPD2    H1 1654   2.107   0.401  17.167  0.8974 -0.7695 -2.1167
  106MPD2    H2 1655   2.279   0.586  16.814 -0.5876  1.4200 -0.1709
  106MPD2    H3 1656   2.172   0.389  16.950 -0.4103 -0.5146  2.1492
  106MPD2     N 1657   2.156   0.650  17.315  0.5975  0.1466 -0.7100
  106MPD2    H5 1658   2.188   0.741  17.346 -0.2639 -0.1153  0.9510
  106MPD2    N1 1659   2.330   0.818  16.926  0.0614 -0.2812  0.0622
  106MPD2    H7 1660   2.330   0.899  16.987 -2.4880 -1.5341  1.7669
  107TMC2    C1 1661   3.190   0.148  11.532 -0.4757 -0.2225  0.2958
  107TMC2    C2 1662   3.248   0.024  11.545 -0.0643  0.0033  0.7054
  107TMC2    C3 1663   3.369   0.010  11.491  0.0291  0.4304 -0.2782
  107TMC2    C4 1664   3.243   0.241  11.443  0.5347  0.1280 -0.3715
  107TMC2    C5 1665   3.360   0.217  11.383 -0.1948 -0.6953 -0.1406
  107TMC2    C6 1666   3.435   0.105  11.422  0.1202 -0.1663  0.0346
  107TMC2     C 1667   3.055   0.167  11.589  0.0835 -0.2287 -0.2185
  107TMC2     O 1668   3.000   0.065  11.631 -0.0182  0.5747 -0.2969
  107TMC2     H 1669   3.214   4.686  11.615 -0.7356  2.0930  2.6490
  107TMC2    H1 1670   3.186   0.330  11.422  1.4640  0.6816 -0.5219
  107TMC2    H2 1671   3.529   0.085  11.374  0.3844  0.3059  0.3536
  107TMC2    C7 1672   3.441   0.328  11.330  0.6511  0.3091 -0.3719
  107TMC2    C8 1673   3.408   4.608  11.471 -0.3070 -0.1919  0.2308
  107TMC2    O1 1674   3.382   0.432  11.353  0.0937 -0.1775 -0.2572
  107TMC2    O2 1675   3.337   4.514  11.503  0.0692 -0.3984 -0.4314
  107TMC2    O5 1676   3.529   4.612  11.518  0.1615 -0.2498 -0.1144
  107TMC2    H5 1677   3.569   4.702  11.519 -0.0791 -0.1496  0.6778
  108MPD2     C 1678   2.843   0.466  11.571  0.5811 -0.3529  0.5119
  108MPD2    C1 1679   2.887   0.344  11.620 -0.0191  0.1182 -0.3433
  108MPD2    C2 1680   2.794   0.260  11.682 -0.1139 -0.7049 -0.8775
  108MPD2    C3 1681   2.668   0.306  11.694 -0.1169  0.5194  1.0501
  108MPD2    C4 1682   2.625   0.425  11.640  0.3414 -1.0200  0.1046
  108MPD2    C5 1683   2.712   0.509  11.578 -0.3413  0.5135  0.3122
  108MPD2     H 1684   2.828   0.161  11.710 -1.8063 -0.7013  1.1779
  108MPD2    H1 1685   2.523   0.457  11.653  0.2607 -0.3367 -2.1597
  108MPD2    H2 1686   2.910   0.535  11.522  1.3173 -2.9096 -2.0106
  108MPD2    H3 1687   2.676   0.606  11.544 -1.0303  0.3379  0.5411
  108MPD2     N 1688   2.576   0.236  11.767 -0.0763  0.3392 -0.2400
  108MPD2    H5 1689   2.478   0.261  11.759 -0.4882 -1.5040 -0.8705
  108MPD2    N1 1690   3.020   0.305  11.598  0.2352  0.0414  0.1994
  108MPD2    H7 1691   3.078   0.376  11.555  0.8514 -0.2142  0.6142
  109TMC2    C1 1692   2.786   3.224   0.143  0.2813  0.1729  0.3549
  109TMC2    C2 1693   2.775   3.311   0.035 -0.2663  0.5829 -0.0390
  109TMC2    C3 1694   2.884   3.370  17.727 -0.7444 -0.8245 -0.3470
  109TMC2    C4 1695   2.911   3.197   0.191  0.4500  0.5047  0.2849
  109TMC2    C5 1696   3.016   3.261   0.129 -0.7500 -0.4272 -0.9523
  109TMC2    C6 1697   3.010   3.351   0.031 -0.0965  0.1720 -0.2363
  109TMC2     C 1698   2.670   3.162   0.194 -0.0651 -0.4699 -0.1656
  109TMC2     O 1699   2.573   3.162   0.117 -0.2397 -0.4229  0.0012
  109TMC2     H 1700   2.676   3.338   0.001  0.4675 -0.4879 -3.0486
  109TMC2    H1 1701   2.923   3.116   0.262 -1.1915  0.0140  0.0069
  109TMC2    H2 1702   3.100   3.393  17.737  0.2398 -1.3291 -0.9892
  109TMC2    C7 1703   3.139   3.246   0.205 -0.6246 -0.7866 -1.2297
  109TMC2    C8 1704   2.864   3.454  17.613  0.2532 -0.8124 -0.5531
  109TMC2    O1 1705   3.133   3.164   0.297  0.0387  0.3277  0.3377
  109TMC2    O2 1706   2.768   3.441  17.539 -0.3766  0.0310 -0.1771
  109TMC2    O5 1707   2.973   3.528  17.595  0.3503  0.6756  0.4675
  109TMC2    H5 1708   3.021   3.555  17.676 -1.2813  2.8625  0.7300
  110MPD2     C 1709   2.397   2.944   0.561 -0.2029 -0.4861 -0.3841
  110MPD2    C1 1710   2.528   2.926   0.592 -0.2403 -0.3312  0.4519
  110MPD2    C2 1711   2.625   2.992   0.520  0.0899  0.2254 -0.2640
  110MPD2    C3 1712   2.584   3.057   0.406 -0.1836  0.2492  0.6266
  110MPD2    C4 1713   2.450   3.086   0.383 -0.5138 -0.0447  0.6130
  110MPD2    C5 1714   2.356   3.029   0.467 -0.2940  0.7409  0.6014
  110MPD2     H 1715   2.728   2.960   0.535 -0.5948 -3.0795 -2.5914
  110MPD2    H1 1716   2.416   3.135   0.293 -0.3771  0.2934  0.7460
  110MPD2    H2 1717   2.317   2.888   0.609 -0.7202 -0.7342 -1.5317
  110MPD2    H3 1718   2.251   3.040   0.444  0.0047  1.4244 -0.4239
  110MPD2     N 1719   2.684   3.117   0.324 -0.4240 -0.1484  0.7329
  110MPD2    H5 1720   2.780   3.118   0.358 -0.4129  1.6778  0.6150
  110MPD2    N1 1721   2.567   2.842   0.696  0.3415 -0.2892 -0.9539
  110MPD2    H7 1722   2.496   2.801   0.756 -0.4943  0.4030 -1.4726
  111TMC2    C1 1723   2.829   1.875  11.307  0.3229 -0.6820  0.2029
  111TMC2    C2 1724   2.793   1.745  11.294  1.2110 -0.3177 -0.0372
  111TMC2    C3 1725   2.888   1.653  11.321  0.1996  0.7025  0.9476
  111TMC2    C4 1726   2.949   1.915  11.364 -0.4833 -0.2731  0.4775
  111TMC2    C5 1727   3.035   1.815  11.392 -0.3176  0.1430  0.2672
  111TMC2    C6 1728   3.007   1.680  11.379 -0.2709 -0.6085  0.0476
  111TMC2     C 1729   2.753   1.977  11.236  0.3311 -0.4785 -0.7379
  111TMC2     O 1730   2.695   1.937  11.135  0.3503 -0.5825  0.5171
  111TMC2     H 1731   2.709   1.723  11.228  1.1193  1.2774 -0.4528
  111TMC2    H1 1732   2.968   2.011  11.410 -2.1781 -0.4547  1.5467
  111TMC2    H2 1733   3.078   1.604  11.412  1.5348  1.2292  0.4009
  111TMC2    C7 1734   3.161   1.857  11.458 -0.6139  0.0168 -0.5940
  111TMC2    C8 1735   2.843   1.514  11.334 -0.6787  0.2549 -0.1916
  111TMC2    O1 1736   3.224   1.769  11.516 -0.1299  0.2250 -0.1380
  111TMC2    O2 1737   2.924   1.425  11.359  0.3320 -0.3214 -0.2871
  111TMC2    O5 1738   2.712   1.510  11.346 -0.0443  0.2535 -0.0504
  111TMC2    H5 1739   2.667   1.597  11.341 -0.4653 -0.0654 -1.8307
  112MPD2     C 1740   2.697   2.467  11.098 -0.2570 -0.0623 -0.6772
  112MPD2    C1 1741   2.684   2.352  11.018  0.1746 -0.1940  0.5731
  112MPD2    C2 1742   2.716   2.233  11.073 -0.6416  0.0266 -0.5395
  112MPD2    C3 1743   2.751   2.221  11.205 -0.2272 -0.8245  0.1039
  112MPD2    C4 1744   2.770   2.332  11.284  0.0096  0.2203  0.0951
  112MPD2    C5 1745   2.738   2.452  11.228 -1.1681  0.1319  1.0322
  112MPD2     H 1746   2.711   2.140  11.018  0.7195  0.4443 -1.3694
  112MPD2    H1 1747   2.809   2.323  11.384  1.7118 -3.5006 -0.8624
  112MPD2    H2 1748   2.679   2.567  11.061  0.1388  0.2464 -0.0439
  112MPD2    H3 1749   2.754   2.542  11.286  0.4578  0.6359 -0.2101
  112MPD2     N 1750   2.779   2.101  11.278  0.2564 -0.6674 -0.1465
  112MPD2    H5 1751   2.825   2.132  11.363 -0.2499 -0.0715 -0.0871
  112MPD2    N1 1752   2.646   2.357  10.881 -0.3428 -0.3695 -0.5753
  112MPD2    H7 1753   2.658   2.272  10.828 -0.4876 -0.3746 -0.5996
  113TMC2    C1 1754   1.226   0.160   0.483  0.4385  0.1193 -0.1380
  113TMC2    C2 1755   1.215   0.132   0.351 -0.2628 -0.0179  0.5150
  113TMC2    C3 1756   1.086   0.150   0.302 -0.0635  0.1140 -0.6521
  113TMC2    C4 1757   1.125   0.172   0.573  0.6591  1.2073  0.4560
  113TMC2    C5 1758   1.001   0.179   0.511 -0.0475  0.2288  0.3825
  113TMC2    C6 1759   0.982   0.184   0.378 -0.3613 -0.0633 -0.2371
  113TMC2     C 1760   1.353   0.151   0.549 -0.5332 -0.5754 -0.3785
  113TMC2     O 1761   1.355   0.181   0.669 -0.2093 -0.1713 -0.0097
  113TMC2     H 1762   1.296   0.125   0.280  0.0344 -1.4111  0.9913
  113TMC2    H1 1763   1.132   0.177   0.681 -0.5930  0.3323  0.5715
  113TMC2    H2 1764   0.879   0.190   0.345 -0.3430  1.2786 -0.0422
  113TMC2    C7 1765   0.880   0.185   0.593 -0.5710 -0.3097  0.8480
  113TMC2    C8 1766   1.050   0.121   0.168  0.5195  0.1925 -0.5418
  113TMC2    O1 1767   0.784   0.243   0.552 -0.8547 -1.0311  0.0306
  113TMC2    O2 1768   1.118   0.039   0.113 -0.6702  0.1486  0.2747
  113TMC2    O5 1769   0.951   0.201   0.118 -0.2732  0.1582  0.2766
  113TMC2    H5 1770   0.925   0.260   0.192  0.4122  1.4422 -0.5049
  114MPD2     C 1771   1.849   0.043   0.541  0.3933 -0.1945 -0.0416
  114MPD2    C1 1772   1.775   0.115   0.629 -0.0619 -0.1285 -0.2386
  114MPD2    C2 1773   1.638   0.140   0.608  0.1322  0.0916  0.0602
  114MPD2    C3 1774   1.579   0.076   0.494  0.8205  0.0053  0.4233
  114MPD2    C4 1775   1.663   0.004   0.409  0.0645  1.1381 -0.6617
  114MPD2    C5 1776   1.798   4.731   0.427 -0.3736 -0.7021  0.8717
  114MPD2     H 1777   1.580   0.203   0.674 -0.5995 -0.9176  0.3756
  114MPD2    H1 1778   1.618   4.692   0.324 -0.1311 -3.7253  2.2689
  114MPD2    H2 1779   1.957   0.034   0.553  0.5443  0.3519 -0.9720
  114MPD2    H3 1780   1.847   4.672   0.351  2.3992  0.3747  1.8084
  114MPD2     N 1781   1.443   0.083   0.470 -0.5092  0.0052  0.5323
  114MPD2    H5 1782   1.407   0.023   0.396  1.3081 -1.0515  0.5106
  114MPD2    N1 1783   1.837   0.166   0.741  0.0247  0.1931 -0.0348
  114MPD2    H7 1784   1.782   0.222   0.805 -3.0589 -0.6895 -1.9228
  115TMC2    C1 1785   2.128   2.925  17.417 -0.2711 -0.2900  0.5302
  115TMC2    C2 1786   2.254   2.883  17.454 -0.5460 -0.6320 -0.2840
  115TMC2    C3 1787   2.356   2.972  17.434  0.0951  0.5860  0.5002
  115TMC2    C4 1788   2.105   3.036  17.337  1.5895  0.1188  0.6181
  115TMC2    C5 1789   2.217   3.112  17.307  0.3656  0.2824 -0.8999
  115TMC2    C6 1790   2.335   3.086  17.361  0.3813  0.0304  0.2342
  115TMC2     C 1791   2.020   2.844  17.445  0.0432 -0.3193  1.2406
  115TMC2     O 1792   2.040   2.731  17.414  0.0811  0.1140 -0.0179
  115TMC2     H 1793   2.258   2.800  17.525  0.3326  0.3500  0.8231
  115TMC2    H1 1794   2.010   3.067  17.295  1.1970 -0.4680  1.0610
  115TMC2    H2 1795   2.420   3.148  17.334 -1.3958  2.7034  0.7370
  115TMC2    C7 1796   2.184   3.219  17.208 -0.5854  0.5098  0.3437
  115TMC2    C8 1797   2.491   2.956  17.488 -0.6917  0.3898 -0.1747
  115TMC2    O1 1798   2.076   3.221  17.152 -0.1303  0.3552 -0.1887
  115TMC2    O2 1799   2.555   3.055  17.523  0.2450  0.3127 -0.0369
  115TMC2    O5 1800   2.513   2.836  17.540  0.7840 -0.1952 -0.5843
  115TMC2    H5 1801   2.461   2.763  17.501  0.0004 -0.0163  0.1249
  116MPD2     C 1802   1.508   2.810  17.490 -0.1215  0.5071  0.7042
  116MPD2    C1 1803   1.602   2.718  17.436 -0.8485 -0.4200  0.1977
  116MPD2    C2 1804   1.735   2.751  17.430 -1.2545  0.1822 -1.2775
  116MPD2    C3 1805   1.775   2.875  17.473  0.3530 -1.0916  0.2406
  116MPD2    C4 1806   1.684   2.971  17.517 -0.2897  0.1089  0.1086
  116MPD2    C5 1807   1.547   2.937  17.529  0.1574  0.3450  0.1306
  116MPD2     H 1808   1.808   2.674  17.410 -0.9189 -0.3031  1.7092
  116MPD2    H1 1809   1.712   3.068  17.555  0.1721  0.0712 -0.1396
  116MPD2    H2 1810   1.404   2.780  17.495 -0.2196  0.0268 -4.7508
  116MPD2    H3 1811   1.475   3.012  17.561  2.1256  2.7753 -1.0890
  116MPD2     N 1812   1.908   2.923  17.468 -0.1998 -0.0757 -0.5890
  116MPD2    H5 1813   1.910   3.022  17.490  0.7987 -0.1560 -0.3549
  116MPD2    N1 1814   1.553   2.583  17.410 -0.3291 -0.1212 -0.3979
  116MPD2    H7 1815   1.453   2.575  17.394 -0.2494 -0.8982 -0.4907
  117TMC2    C1 1816   0.250   4.366  13.508  0.2579  0.0801 -0.0338
  117TMC2    C2 1817   0.344   4.270  13.530 -0.4737  0.6378  0.1149
  117TMC2    C3 1818   0.469   4.303  13.576  0.8345  0.4051 -0.0596
  117TMC2    C4 1819   0.267   4.486  13.570 -0.0394  0.9340 -0.1379
  117TMC2    C5 1820   0.389   4.504  13.635 -0.1386 -0.5524  0.6330
  117TMC2    C6 1821   0.497   4.421  13.627 -0.1851  0.1568 -0.0626
  117TMC2     C 1822   0.124   4.333  13.443 -0.0527 -0.5334 -0.3820
  117TMC2     O 1823   0.111   4.215  13.403  0.6185 -0.8767 -0.2696
  117TMC2     H 1824   0.331   4.175  13.480 -2.0698  0.1638  1.4306
  117TMC2    H1 1825   0.203   4.572  13.559 -0.7580  0.2098 -1.5954
  117TMC2    H2 1826   0.595   4.444  13.669  0.1535 -1.0743 -0.1754
  117TMC2    C7 1827   0.406   4.613  13.737  1.1460  0.7914  0.1076
  117TMC2    C8 1828   0.566   4.200  13.598 -0.6452  0.2982  0.5592
  117TMC2    O1 1829   0.519   4.636  13.785 -0.1642 -0.3629 -0.4265
  117TMC2    O2 1830   0.678   4.221  13.640  0.4803  0.3774 -0.5303
  117TMC2    O5 1831   0.504   4.078  13.609  0.1852  0.1325  0.0626
  117TMC2    H5 1832   0.407   4.068  13.611  0.1629  0.6722  1.2638
  118MPD2     C 1833   0.120   0.059  13.847  0.5029 -0.5620 -0.0143
  118MPD2    C1 1834   0.252   0.040  13.832 -0.0226 -0.0128  0.4194
  118MPD2    C2 1835   0.351   0.137  13.845 -0.0837 -0.8828  0.6290
  118MPD2    C3 1836   0.316   0.269  13.887  0.1666 -0.6761  0.1258
  118MPD2    C4 1837   0.185   0.283  13.909 -0.6811  0.4113  1.0117
  118MPD2    C5 1838   0.086   0.189  13.893  0.0970 -0.6167 -0.4747
  118MPD2     H 1839   0.457   0.114  13.834 -0.0303 -0.7573  0.8884
  118MPD2    H1 1840   0.151   0.385  13.925  0.1650  0.7967  0.3753
  118MPD2    H2 1841   0.047   4.727  13.809  0.0767 -0.4531  0.6002
  118MPD2    H3 1842   4.721   0.222  13.900  0.1577 -0.7232  0.9872
  118MPD2     N 1843   0.405   0.378  13.893 -0.1540  0.3614 -0.3361
  118MPD2    H5 1844   0.361   0.462  13.929  0.0979  0.8069 -1.0630
  118MPD2    N1 1845   0.282   4.654  13.776 -0.4742 -0.0454  0.2983
  118MPD2    H7 1846   0.208   4.589  13.755  1.4763 -2.3216  0.4639
  119TMC2    C1 1847   3.483   4.499  12.569 -0.2906  0.0842  1.0999
  119TMC2    C2 1848   3.509   4.387  12.640  0.5303  0.1852 -0.3198
  119TMC2    C3 1849   3.419   4.285  12.624 -0.1569  0.4639  0.9978
  119TMC2    C4 1850   3.368   4.506  12.494  0.4454  0.4633  0.7502
  119TMC2    C5 1851   3.278   4.403  12.481 -0.5177  0.1703 -0.1461
  119TMC2    C6 1852   3.300   4.287  12.548 -0.3477  0.7973  0.2217
  119TMC2     C 1853   3.564   4.622  12.578 -0.0437 -0.1165 -0.3497
  119TMC2     O 1854   3.510   4.721  12.530 -0.6085 -0.3264 -0.3901
  119TMC2     H 1855   3.604   4.377  12.692 -0.9145  2.5194  2.7486
  119TMC2    H1 1856   3.345   4.590  12.429  1.1298  2.5266  3.1561
  119TMC2    H2 1857   3.232   4.204  12.542  0.2779  0.3074 -0.1473
  119TMC2    C7 1858   3.145   4.444  12.465  0.2871  0.0407 -0.4335
  119TMC2    C8 1859   3.423   4.196  12.742  0.0355 -0.6253  0.1451
  119TMC2    O1 1860   3.071   4.360  12.424 -0.0108 -0.2995  0.3145
  119TMC2    O2 1861   3.519   4.179  12.819 -0.7240  0.1994 -0.3524
  119TMC2    O5 1862   3.308   4.122  12.740  0.1380 -0.2098 -0.1350
  119TMC2    H5 1863   3.235   4.173  12.699  0.8351 -0.1860 -1.3587
  120MPD2     C 1864   3.917   0.168  12.833  0.8901 -0.9745  0.2315
  120MPD2    C1 1865   3.785   0.187  12.799 -0.1235  0.1129  0.4459
  120MPD2    C2 1866   3.721   0.087  12.722 -0.2666  0.3824 -0.0078
  120MPD2    C3 1867   3.773   4.705  12.685 -0.7896 -0.0311 -0.4003
  120MPD2    C4 1868   3.904   4.685  12.729 -0.1065 -0.3805  0.4401
  120MPD2    C5 1869   3.975   0.043  12.800 -0.2044 -0.0267  0.1529
  120MPD2     H 1870   3.618   0.099  12.689 -0.5608  0.7496  1.0544
  120MPD2    H1 1871   3.951   4.590  12.707  1.6442  0.6128 -0.1955
  120MPD2    H2 1872   3.964   0.240  12.899  2.1764 -1.9810  0.4368
  120MPD2    H3 1873   4.078   0.020  12.828  0.4254 -0.0839 -2.2252
  120MPD2     N 1874   3.688   4.608  12.632 -0.3438 -0.1785 -0.0009
  120MPD2    H5 1875   3.719   4.512  12.639  2.7039  0.7461 -0.8063
  120MPD2    N1 1876   3.709   0.292  12.854 -0.9900  0.0512  0.5975
  120MPD2    H7 1877   3.760   0.360  12.909  0.1230 -2.0748  2.1583
  121TMC2    C1 1878   0.020   2.497  14.220  0.8385 -0.4591  0.9840
  121TMC2    C2 1879   4.723   2.412  14.326  0.2502 -0.3121 -0.3809
  121TMC2    C3 1880   4.609   2.340  14.302  0.0781 -0.1969  0.8216
  121TMC2    C4 1881   4.677   2.531  14.118  0.5220 -0.1235 -0.0427
  121TMC2    C5 1882   4.551   2.475  14.117  0.3777 -0.5419 -0.7534
  121TMC2    C6 1883   4.525   2.366  14.196  0.5383 -0.3824  0.4435
  121TMC2     C 1884   0.152   2.544  14.218  0.0295  1.0446 -1.3042
  121TMC2     O 1885   0.212   2.567  14.318 -0.0466 -0.3529  0.3184
  121TMC2     H 1886   0.055   2.383  14.403  0.7251 -0.6387 -0.9364
  121TMC2    H1 1887   4.703   2.611  14.049 -2.6627  0.9129 -0.0486
  121TMC2    H2 1888   4.441   2.301  14.176 -0.9717  1.4480  0.8599
  121TMC2    C7 1889   4.475   2.508  13.999  0.2937 -0.2812  0.7492
  121TMC2    C8 1890   4.576   2.220  14.373 -0.6670 -0.1973  0.3945
  121TMC2    O1 1891   4.541   2.535  13.900 -0.1523 -0.0360  0.0063
  121TMC2    O2 1892   4.507   2.126  14.339 -0.0481 -0.2668 -0.2204
  121TMC2    O5 1893   4.610   2.246  14.500 -0.2568  0.3825  0.2151
  121TMC2    H5 1894   4.636   2.340  14.510 -1.3885  0.7350 -0.1899
  122MPD2     C 1895   0.398   2.692  14.120  0.6397  0.4566  0.5410
  122MPD2    C1 1896   0.309   2.619  14.035  0.1007 -0.0924  0.1615
  122MPD2    C2 1897   0.327   2.608  13.894 -0.1847 -0.3485 -0.3415
  122MPD2    C3 1898   0.450   2.656  13.843  0.6040 -0.1926 -0.6949
  122MPD2    C4 1899   0.540   2.714  13.926 -0.2270  0.0026  0.0479
  122MPD2    C5 1900   0.514   2.732  14.059 -0.4614 -0.2610  0.1856
  122MPD2     H 1901   0.251   2.554  13.837  0.8478 -0.7438 -1.3269
  122MPD2    H1 1902   0.629   2.757  13.883 -0.9650 -0.2390 -1.7663
  122MPD2    H2 1903   0.380   2.728  14.220  1.3253 -0.1125  0.8693
  122MPD2    H3 1904   0.582   2.789  14.121 -0.2568 -1.2279  0.8369
  122MPD2     N 1905   0.476   2.663  13.707 -0.1747 -0.0055  0.5271
  122MPD2    H5 1906   0.562   2.706  13.675  0.6990 -2.3352 -0.2145
  122MPD2    N1 1907   0.190   2.569  14.088  0.4639 -0.3001 -0.0196
  122MPD2    H7 1908   0.128   2.530  14.018  0.1371  1.4322 -0.6818
  123TMC2    C1 1909   3.472   0.701  10.495  0.1273 -0.3946 -0.2814
  123TMC2    C2 1910   3.515   0.781  10.589 -0.8959 -0.2183  0.1038
  123TMC2    C3 1911   3.502   0.916  10.577  0.0542 -0.3304  0.4981
  123TMC2    C4 1912   3.415   0.757  10.382 -0.2959 -0.0838 -0.5250
  123TMC2    C5 1913   3.420   0.895  10.367 -0.3535 -0.3327  0.5390
  123TMC2    C6 1914   3.455   0.984  10.465 -0.4996  0.5208  0.3269
  123TMC2     C 1915   3.440   0.561  10.524  0.2170 -0.2096 -0.5280
  123TMC2     O 1916   3.478   0.516  10.629  0.1833  0.4026  0.1324
  123TMC2     H 1917   3.555   0.744  10.682 -0.1491 -2.4793 -1.1122
  123TMC2    H1 1918   3.384   0.700  10.296  0.2631  2.6987 -2.5598
  123TMC2    H2 1919   3.465   1.091  10.452  2.1079  0.2495  0.0981
  123TMC2    C7 1920   3.334   0.944  10.264  0.0608  0.2223 -0.2779
  123TMC2    C8 1921   3.514   0.995  10.698  0.4195 -0.7075 -0.6161
  123TMC2    O1 1922   3.248   0.862  10.234 -0.2927 -0.6329 -0.0270
  123TMC2    O2 1923   3.544   1.111  10.705  0.7804 -0.1622  0.2224
  123TMC2    O5 1924   3.425   0.925  10.779 -0.1737  0.0074  0.4536
  123TMC2    H5 1925   3.370   0.856  10.734 -1.2931 -0.7083  2.9457
  124MPD2     C 1926   3.128   0.163  10.455 -0.1426  0.6096 -0.7372
  124MPD2    C1 1927   3.116   0.256  10.354 -0.0978  0.1669  0.7062
  124MPD2    C2 1928   3.198   0.371  10.345 -0.0749  0.4501  0.6765
  124MPD2    C3 1929   3.290   0.390  10.441  0.2162  0.0866 -0.0512
  124MPD2    C4 1930   3.298   0.300  10.547  0.9207  0.2841 -0.1344
  124MPD2    C5 1931   3.219   0.188  10.553 -0.0654  0.1197  0.9763
  124MPD2     H 1932   3.176   0.452  10.277 -3.5683 -1.8386 -0.8978
  124MPD2    H1 1933   3.361   0.308  10.635 -0.6425 -0.0541  1.0096
  124MPD2    H2 1934   3.065   0.076  10.468  0.4724  0.4326  1.0201
  124MPD2    H3 1935   3.222   0.120  10.638  0.6269 -3.4614 -1.9167
  124MPD2     N 1936   3.360   0.509  10.433  0.2670 -0.1156 -0.0878
  124MPD2    H5 1937   3.341   0.568  10.352 -3.0335 -0.3245  0.5071
  124MPD2    N1 1938   3.019   0.220  10.259  0.3903  0.0286  0.2848
  124MPD2    H7 1939   2.957   0.143  10.282  0.0446 -0.2743 -1.6818
  125TMC2    C1 1940   3.503   2.517   9.138 -0.8078  0.0586 -0.4455
  125TMC2    C2 1941   3.387   2.582   9.104  0.5580 -0.3736 -0.3045
  125TMC2    C3 1942   3.346   2.698   9.161  0.0561  0.3369 -0.1833
  125TMC2    C4 1943   3.570   2.562   9.245  0.2959  0.2278  0.4467
  125TMC2    C5 1944   3.533   2.677   9.305  0.0771  0.5118  0.4092
  125TMC2    C6 1945   3.421   2.753   9.260 -0.0297 -0.9879  0.5778
  125TMC2     C 1946   3.521   2.387   9.082 -0.1314 -0.2821  0.0797
  125TMC2     O 1947   3.420   2.336   9.032  0.3893  0.5181 -0.2080
  125TMC2     H 1948   3.333   2.540   9.020  0.0822 -0.8258  0.2220
  125TMC2    H1 1949   3.670   2.524   9.263  0.1595  0.5775  1.9270
  125TMC2    H2 1950   3.383   2.845   9.303  0.2903 -1.3220  1.5661
  125TMC2    C7 1951   3.598   2.720   9.425 -0.6378  0.3559  0.7326
  125TMC2    C8 1952   3.253   2.780   9.088 -0.2241  0.4985  0.7424
  125TMC2    O1 1953   3.582   2.835   9.463 -0.1592 -0.4503  0.0606
  125TMC2    O2 1954   3.255   2.905   9.085 -0.2607  0.5211 -0.1761
  125TMC2    O5 1955   3.161   2.706   9.027 -0.0036 -0.2500  0.5350
  125TMC2    H5 1956   3.165   2.609   9.042  0.5179 -0.3345 -0.1972
  126MPD1     C 1957   3.765   1.937   9.005  0.7690 -1.3062  0.1069
  126MPD1    C1 1958   3.845   2.022   9.082 -0.1925 -0.7237 -0.3029
  126MPD1    C2 1959   3.801   2.146   9.115 -0.3556  0.1415  0.9178
  126MPD1    C3 1960   3.678   2.196   9.085  0.5633 -0.0466 -0.3035
  126MPD1    C4 1961   3.600   2.106   9.017 -0.5092 -0.0183  0.8337
  126MPD1    C5 1962   3.641   1.983   8.978 -0.6797 -0.7396  0.9167
  126MPD1     H 1963   3.870   2.207   9.173  1.3757 -1.3379  0.4301
  126MPD1    H1 1964   3.501   2.132   8.982  0.0364  1.7179  0.5633
  126MPD1    H2 1965   3.790   1.832   8.989 -2.5157 -2.1436  0.4345
  126MPD1    H3 1966   3.567   1.921   8.928  1.8731 -0.8564 -2.6816
  126MPD1     N 1967   3.636   2.329   9.124  0.0249 -0.7840  0.3397
  126MPD1    H5 1968   3.709   2.383   9.170  0.5085 -0.8911 -0.2982
  126MPD1    N1 1969   3.977   1.987   9.083  0.2445  1.0044 -0.2983
  126MPD1    H6 1970   4.040   2.027   9.154 -0.7348 -0.3844  1.3582
  126MPD1    H7 1971   3.981   1.886   9.079 -0.4659  1.0679 -2.1484
  127TMC2    C1 1972   0.454   1.194   9.585  0.2781 -0.2021 -0.0648
  127TMC2    C2 1973   0.457   1.203   9.725 -0.2459  0.0591 -0.0787
  127TMC2    C3 1974   0.350   1.145   9.800 -0.0332  0.0395 -0.2729
  127TMC2    C4 1975   0.343   1.130   9.532  0.2269  0.5541  0.6758
  127TMC2    C5 1976   0.247   1.072   9.610 -0.4739 -0.0155 -0.0150
  127TMC2    C6 1977   0.249   1.070   9.746 -0.5091  1.3184  0.3995
  127TMC2     C 1978   0.505   1.310   9.513 -0.2192  0.2194  0.4962
  127TMC2     O 1979   0.605   1.366   9.554  0.4602  0.0220  0.2300
  127TMC2     H 1980   0.542   1.253   9.770  0.5324 -0.4214 -1.0070
  127TMC2    H1 1981   0.348   1.099   9.429  0.7696  3.1580 -0.0726
  127TMC2    H2 1982   0.179   1.015   9.808 -1.0865  2.0157  0.3734
  127TMC2    C7 1983   0.150   0.989   9.539 -0.2427 -1.1138 -0.0644
  127TMC2    C8 1984   0.362   1.169   9.937 -0.5146  0.3184 -0.2248
  127TMC2    O1 1985   0.126   1.017   9.424  0.0834  0.3616  0.2992
  127TMC2    O2 1986   0.453   1.133  10.009  0.3998 -0.5376  0.2685
  127TMC2    O5 1987   0.309   1.294   9.935 -0.8281 -0.2123 -0.4959
  127TMC2    H5 1988   0.255   1.310   9.855 -1.1331 -1.1775 -0.4755
  128MPD2     C 1989   0.308   1.487   9.255 -0.8480  0.2881 -0.3098
  128MPD2    C1 1990   0.394   1.467   9.361 -0.1316  0.4656 -0.0415
  128MPD2    C2 1991   0.430   1.575   9.443  0.0108 -0.2947  0.0178
  128MPD2    C3 1992   0.377   1.698   9.408 -0.6599 -0.3850  0.2022
  128MPD2    C4 1993   0.308   1.724   9.289 -0.7877 -0.3302  0.2562
  128MPD2    C5 1994   0.276   1.612   9.215 -0.7094 -0.6363 -0.4680
  128MPD2     H 1995   0.497   1.565   9.528  0.1904 -2.9396 -0.4209
  128MPD2    H1 1996   0.277   1.825   9.264  0.5020  0.3292  1.3100
  128MPD2    H2 1997   0.264   1.408   9.194 -0.3147  0.4294 -0.8827
  128MPD2    H3 1998   0.212   1.623   9.128 -0.5398  2.0930 -0.2346
  128MPD2     N 1999   0.418   1.806   9.489  0.2857 -0.5983  0.2002
  128MPD2    H5 2000   0.491   1.785   9.556  0.3767  0.2723  0.3789
  128MPD2    N1 2001   0.420   1.336   9.401  0.4476 -0.1387 -0.0700
  128MPD2    H7 2002   0.359   1.268   9.357 -1.2893  0.5214  1.3167
  129TMC2    C1 2003   4.433   2.342   1.292  0.2889 -0.3409 -0.4728
  129TMC2    C2 2004   4.349   2.450   1.263 -1.2757  0.0244 -0.5812
  129TMC2    C3 2005   4.217   2.425   1.259  0.0465 -0.2933 -0.5750
  129TMC2    C4 2006   4.385   2.212   1.300  0.1527  1.2742  0.6255
  129TMC2    C5 2007   4.249   2.193   1.296  0.0809 -0.5234  0.1478
  129TMC2    C6 2008   4.161   2.296   1.265 -0.0010 -0.3599 -0.8677
  129TMC2     C 2009   4.564   2.371   1.338 -0.6126 -0.3341  0.8868
  129TMC2     O 2010   4.653   2.287   1.316  0.9568 -0.0430  0.3661
  129TMC2     H 2011   4.378   2.553   1.244  0.2504  0.0992  2.1689
  129TMC2    H1 2012   4.445   2.132   1.341 -0.0515  1.5030  1.3728
  129TMC2    H2 2013   4.055   2.275   1.251 -0.0090  0.0858 -1.4883
  129TMC2    C7 2014   4.194   2.059   1.319  0.8625 -0.1531  0.1944
  129TMC2    C8 2015   4.131   2.535   1.227  0.5771  0.6340  0.6117
  129TMC2    O1 2016   4.072   2.054   1.354 -0.0743  0.0150  0.0757
  129TMC2    O2 2017   4.172   2.637   1.180 -0.0171  0.3312  0.4558
  129TMC2    O5 2018   4.011   2.511   1.295 -0.1159 -0.1155 -0.7555
  129TMC2    H5 2019   4.011   2.424   1.341 -0.4621  1.0914  1.5000
  130MPD2     C 2020   0.088   2.510   1.413  0.5359 -0.1815  0.6472
  130MPD2    C1 2021   4.699   2.567   1.422 -0.3462  0.0925  0.0250
  130MPD2    C2 2022   4.680   2.703   1.445 -0.2399 -0.7802 -0.1147
  130MPD2    C3 2023   0.047   2.792   1.451 -0.5953 -0.1083 -0.4806
  130MPD2    C4 2024   0.172   2.732   1.439 -0.2003 -0.0389 -0.4637
  130MPD2    C5 2025   0.191   2.600   1.420 -0.2806  0.2652  0.4453
  130MPD2     H 2026   4.578   2.737   1.461  1.1797  2.9313  1.0684
  130MPD2    H1 2027   0.263   2.791   1.445 -0.6875  0.5752  0.9087
  130MPD2    H2 2028   0.108   2.408   1.382  2.2695 -0.4448  2.6027
  130MPD2    H3 2029   0.288   2.560   1.394 -0.6235 -0.1224 -0.2322
  130MPD2     N 2030   0.018   2.926   1.465  0.0999 -0.5751 -0.8213
  130MPD2    H5 2031   4.663   2.954   1.495 -0.7997 -1.6291 -2.6423
  130MPD2    N1 2032   4.577   2.499   1.396 -0.4671 -0.8788 -0.0767
  130MPD2    H7 2033   4.493   2.554   1.407  0.1032 -0.0723  0.1847
  131TMC2    C1 2034   2.797   1.212   9.883  0.2881  0.2155 -0.8157
  131TMC2    C2 2035   2.863   1.274   9.983 -0.3387 -0.1927  0.1414
  131TMC2    C3 2036   2.895   1.404   9.971 -0.2012  0.0739  0.1456
  131TMC2    C4 2037   2.754   1.289   9.773  0.6192  0.3003 -0.2523
  131TMC2    C5 2038   2.805   1.416   9.753  0.1914  0.2689  0.0182
  131TMC2    C6 2039   2.884   1.469   9.851  0.6314 -0.2198  0.1018
  131TMC2     C 2040   2.761   1.072   9.897  0.0323 -0.3242  0.5925
  131TMC2     O 2041   2.795   1.014   9.999 -0.4881  0.2108 -0.3446
  131TMC2     H 2042   2.866   1.219  10.076 -1.9743  0.1745  0.4160
  131TMC2    H1 2043   2.676   1.263   9.703 -2.5434  1.8054  2.7552
  131TMC2    H2 2044   2.918   1.572   9.848 -0.3666  0.0901 -1.0029
  131TMC2    C7 2045   2.790   1.479   9.625  0.3196  0.2157  0.8200
  131TMC2    C8 2046   2.985   1.451  10.070  0.2467 -0.7132 -0.5658
  131TMC2    O1 2047   2.687   1.464   9.564 -0.6281  0.3103  0.2798
  131TMC2    O2 2048   3.062   1.546  10.052 -0.0777 -0.3896 -0.1174
  131TMC2    O5 2049   2.903   1.447  10.172  0.4587  0.4338 -0.2312
  131TMC2    H5 2050   2.814   1.408  10.160  0.4688  0.1648  0.5652
  132MPD2     C 2051   2.530   0.891   9.681 -0.9858 -0.2753  0.4900
  132MPD2    C1 2052   2.630   0.908   9.774  0.6163  0.1836 -0.1064
  132MPD2    C2 2053   2.668   0.793   9.849  0.3107 -0.3499 -0.1139
  132MPD2    C3 2054   2.603   0.675   9.828 -0.3150  0.5338  0.4514
  132MPD2    C4 2055   2.505   0.658   9.734  0.0294  0.3391 -0.5300
  132MPD2    C5 2056   2.469   0.766   9.659 -0.0655 -0.3048 -0.2095
  132MPD2     H 2057   2.745   0.797   9.924  0.7761 -0.0861 -0.6038
  132MPD2    H1 2058   2.474   0.562   9.694 -0.6899  0.4861 -0.3122
  132MPD2    H2 2059   2.500   0.973   9.618 -0.9868 -1.7730 -1.4326
  132MPD2    H3 2060   2.397   0.775   9.578 -0.6495 -0.4121  0.2959
  132MPD2     N 2061   2.648   0.564   9.903  0.5321  0.2401 -0.2129
  132MPD2    H5 2062   2.729   0.578   9.963 -2.0709 -0.2952  3.4460
  132MPD2    N1 2063   2.687   1.033   9.788  0.0523 -0.6437 -0.4446
  132MPD2    H7 2064   2.659   1.114   9.734  0.7749  0.0369  0.1973
  133TMC2    C1 2065   2.378   2.496   9.154  0.0717  0.2197 -0.6933
  133TMC2    C2 2066   2.445   2.460   9.033  0.2070  0.3848 -0.7563
  133TMC2    C3 2067   2.582   2.475   9.028  0.1942  0.0085  0.1187
  133TMC2    C4 2068   2.445   2.553   9.260  0.6220  0.3948  0.0429
  133TMC2    C5 2069   2.575   2.579   9.234 -0.6474  0.4636  0.3235
  133TMC2    C6 2070   2.649   2.539   9.123 -0.8227  0.4992 -0.1697
  133TMC2     C 2071   2.250   2.438   9.175 -0.8087 -0.2274 -0.3880
  133TMC2     O 2072   2.218   2.348   9.100  0.1983 -0.0365  0.4528
  133TMC2     H 2073   2.387   2.416   8.953  1.4752 -0.7974 -1.0307
  133TMC2    H1 2074   2.398   2.575   9.355 -1.1716 -0.7571 -0.5620
  133TMC2    H2 2075   2.757   2.537   9.120 -0.8460 -1.6409  0.5811
  133TMC2    C7 2076   2.639   2.667   9.331  0.4093  0.2984 -0.3210
  133TMC2    C8 2077   2.643   2.407   8.917 -0.1298 -0.1580 -0.2611
  133TMC2    O1 2078   2.574   2.705   9.431  0.2598 -0.0619 -0.6925
  133TMC2    O2 2079   2.599   2.301   8.878 -0.3978 -0.2918 -0.0653
  133TMC2    O5 2080   2.758   2.470   8.868  0.2590 -0.1926  0.0776
  133TMC2    H5 2081   2.774   2.553   8.918  0.6281 -0.2507  0.0554
  134MPD2     C 2082   1.977   2.573   9.384  0.4519  0.2112  0.1545
  134MPD2    C1 2083   2.040   2.490   9.295 -0.6756  0.0593  0.4212
  134MPD2    C2 2084   1.972   2.379   9.242 -0.2529 -0.1762  0.1027
  134MPD2    C3 2085   1.837   2.362   9.265  0.6547 -0.6158  0.2613
  134MPD2    C4 2086   1.777   2.450   9.349  0.2554 -0.5323  0.2896
  134MPD2    C5 2087   1.844   2.559   9.402  0.4158 -0.2084 -0.0872
  134MPD2     H 2088   2.021   2.312   9.172 -2.0681 -0.3588 -0.9915
  134MPD2    H1 2089   1.673   2.445   9.379 -0.4968  0.9441 -2.0514
  134MPD2    H2 2090   2.030   2.655   9.431 -0.2852 -0.2558  1.8125
  134MPD2    H3 2091   1.789   2.617   9.475  0.2483  0.4961 -0.7789
  134MPD2     N 2092   1.762   2.255   9.213 -0.0596  0.2223 -0.0681
  134MPD2    H5 2093   1.669   2.246   9.252 -0.0889 -0.4159 -0.2715
  134MPD2    N1 2094   2.178   2.506   9.263  1.0657 -0.9846 -0.4365
  134MPD2    H7 2095   2.218   2.592   9.300 -0.7042  0.7766 -2.5939
  135TMC2    C1 2096   4.395   3.270   9.853 -0.7784  0.0395 -0.1867
  135TMC2    C2 2097   4.428   3.399   9.832  0.0770  0.1676  0.2946
  135TMC2    C3 2098   4.330   3.492   9.831 -0.4746 -0.2224 -0.0213
  135TMC2    C4 2099   4.264   3.230   9.890  0.2695  0.1223 -0.0560
  135TMC2    C5 2100   4.168   3.331   9.877  0.1915  0.9457  0.6807
  135TMC2    C6 2101   4.203   3.467   9.861 -0.4898  0.0550  0.2448
  135TMC2     C 2102   4.487   3.158   9.834 -0.1656 -0.3780  0.3911
  135TMC2     O 2103   4.437   3.047   9.820 -0.1844 -0.0236  0.1811
  135TMC2     H 2104   4.527   3.435   9.804 -0.9526  3.0711  0.3889
  135TMC2    H1 2105   4.234   3.127   9.904  1.8170 -0.0828  1.7364
  135TMC2    H2 2106   4.127   3.541   9.839 -0.5714 -0.4513 -1.1410
  135TMC2    C7 2107   4.042   3.273   9.887 -0.2337 -0.0232  0.5091
  135TMC2    C8 2108   4.351   3.626   9.776  0.6719  0.0064  0.8646
  135TMC2    O1 2109   4.018   3.165   9.938  0.1814  0.4639  0.0110
  135TMC2    O2 2110   4.462   3.675   9.776  0.3119 -0.5488 -0.3080
  135TMC2    O5 2111   4.258   3.658   9.682 -0.2028 -0.3268  0.0653
  135TMC2    H5 2112   4.195   3.590   9.649 -0.9831  0.3623  0.1401
  136MPD2     C 2113   0.089   3.141   9.927 -0.0323 -0.0234 -0.3988
  136MPD2    C1 2114   4.718   3.099   9.856 -1.1086  0.2494  0.6052
  136MPD2    C2 2115   4.720   2.976   9.794  0.5240  0.0982  0.5435
  136MPD2    C3 2116   0.088   2.891   9.817 -0.2284  0.2790  0.2526
  136MPD2    C4 2117   0.194   2.940   9.880 -0.2973  0.2369 -0.3552
  136MPD2    C5 2118   0.204   3.058   9.934 -0.7960 -0.3378 -0.3919
  136MPD2     H 2119   4.642   2.958   9.721  0.9013 -1.6791  0.5978
  136MPD2    H1 2120   0.284   2.880   9.889  0.0677  0.9684  0.9054
  136MPD2    H2 2121   0.100   3.242   9.966 -0.6323 -0.4125  0.7976
  136MPD2    H3 2122   0.282   3.095  10.001 -0.0484 -0.5007 -1.1756
  136MPD2     N 2123   0.093   2.761   9.772  0.1155  0.2756  0.0512
  136MPD2    H5 2124   0.178   2.706   9.776  0.6345  1.0434 -0.4553
  136MPD2    N1 2125   4.619   3.196   9.848  0.3665 -0.4085  0.0728
  136MPD2    H7 2126   4.639   3.290   9.879  3.2965 -1.0928  0.2055
  137TMC2    C1 2127   4.435   1.541   9.832 -0.0490  0.2891  1.4912
  137TMC2    C2 2128   4.555   1.475   9.834 -0.8850 -0.0114 -0.2864
  137TMC2    C3 2129   4.584   1.389   9.732 -0.1186 -0.1650  0.7677
  137TMC2    C4 2130   4.361   1.537   9.719  0.1702 -0.2230 -0.2308
  137TMC2    C5 2131   4.393   1.452   9.613  0.3462 -0.2152  0.8589
  137TMC2    C6 2132   4.503   1.372   9.623 -0.3761 -0.4352  1.0906
  137TMC2     C 2133   4.382   1.610   9.950 -0.5122  0.0394  0.1696
  137TMC2     O 2134   4.456   1.620  10.049  0.0642  0.5106 -0.2839
  137TMC2     H 2135   4.625   1.475   9.917  0.5274 -0.6385 -1.4691
  137TMC2    H1 2136   4.274   1.602   9.709  0.9952  1.1736  1.7403
  137TMC2    H2 2137   4.531   1.312   9.537 -1.5959  2.7455 -1.5418
  137TMC2    C7 2138   4.318   1.455   9.489  0.1269 -0.9452  0.1428
  137TMC2    C8 2139   4.715   1.317   9.729 -0.5013  0.0399  0.5969
  137TMC2    O1 2140   4.351   1.371   9.411 -0.3152  0.1182  0.7236
  137TMC2    O2 2141   0.083   1.367   9.757 -0.6841 -0.9038 -0.6359
  137TMC2    O5 2142   4.692   1.203   9.665  0.3979  0.0083  0.3579
  137TMC2    H5 2143   4.597   1.178   9.671  0.5738 -1.2647 -1.7886
  138MPD2     C 2144   4.039   1.725  10.016 -1.0077 -0.6031 -0.9443
  138MPD2    C1 2145   4.172   1.718  10.026  0.0387 -0.4077  0.3061
  138MPD2    C2 2146   4.233   1.809  10.116  0.1436  0.1497  0.2721
  138MPD2    C3 2147   4.161   1.913  10.176 -0.2945  0.2318 -0.0244
  138MPD2    C4 2148   4.028   1.921  10.145 -0.5135  0.4307 -0.1021
  138MPD2    C5 2149   3.964   1.823  10.077  0.4317  0.4310 -0.2431
  138MPD2     H 2150   4.340   1.810  10.134 -0.1953  4.5855  1.9981
  138MPD2    H1 2151   3.975   2.007  10.184 -1.1810 -0.7359  1.5757
  138MPD2    H2 2152   3.983   1.664   9.946  0.1277  0.3070 -2.6443
  138MPD2    H3 2153   3.856   1.823  10.063  0.5398 -0.0423 -1.0457
  138MPD2     N 2154   4.234   2.006  10.258 -0.3588 -0.4428  0.3566
  138MPD2    H5 2155   4.336   2.002  10.266 -0.3471 -2.1118 -0.5340
  138MPD2    N1 2156   4.243   1.624   9.944 -0.3387 -0.4247 -0.0319
  138MPD2    H7 2157   4.199   1.571   9.870  0.7404 -0.7640 -0.4390
  139TMC2    C1 2158   0.457   0.268  13.185  0.2840 -0.0522 -0.0894
  139TMC2    C2 2159   0.521   0.319  13.072  0.7470  0.1138  0.6835
  139TMC2    C3 2160   0.476   0.435  13.021  0.2727  0.1295 -0.1317
  139TMC2    C4 2161   0.353   0.328  13.240  0.0302  0.4164 -0.0434
  139TMC2    C5 2162   0.304   0.439  13.184  0.1742  0.2757 -0.1189
  139TMC2    C6 2163   0.364   0.498  13.078  0.0018 -0.1954  0.4253
  139TMC2     C 2164   0.480   0.132  13.210 -0.3036 -0.4616  0.1339
  139TMC2     O 2165   0.587   0.081  13.191  0.0364  0.5206 -0.3938
  139TMC2     H 2166   0.605   0.279  13.017 -0.2239 -0.1283 -0.6317
  139TMC2    H1 2167   0.306   0.282  13.326 -0.9326 -1.8246 -1.7833
  139TMC2    H2 2168   0.325   0.597  13.056 -0.3927 -0.4991 -0.2362
  139TMC2    C7 2169   0.215   0.519  13.261  0.3035 -0.1134 -0.0871
  139TMC2    C8 2170   0.563   0.508  12.930  0.9617 -0.8052  0.0617
  139TMC2    O1 2171   0.148   0.598  13.196 -0.2953  0.6718  0.4144
  139TMC2    O2 2172   0.673   0.529  12.968  0.2060 -0.2411  0.1254
  139TMC2    O5 2173   0.482   0.603  12.875  0.1205 -0.5684 -0.2581
  139TMC2    H5 2174   0.397   0.565  12.845 -0.2173 -0.0446  0.0358
  140MPD2     C 2175   0.233   4.603  13.196  0.0294  0.4641  0.2999
  140MPD2    C1 2176   0.355   4.660  13.224 -0.2568 -0.2486 -0.4166
  140MPD2    C2 2177   0.464   4.577  13.248 -0.7476  0.3103  0.5633
  140MPD2    C3 2178   0.458   4.440  13.230  0.4764 -0.3128 -0.1464
  140MPD2    C4 2179   0.336   4.391  13.195  0.1372  0.0829  0.4474
  140MPD2    C5 2180   0.225   4.469  13.181  1.0139  0.0096  0.0433
  140MPD2     H 2181   0.564   4.612  13.270 -0.3504 -0.0663 -0.6559
  140MPD2    H1 2182   0.314   4.286  13.179 -0.5032 -0.1087  2.5560
  140MPD2    H2 2183   0.146   4.665  13.181  2.1434  2.6676 -3.0293
  140MPD2    H3 2184   0.133   4.432  13.137  0.7751 -0.7485  1.1814
  140MPD2     N 2185   0.574   4.365  13.259  0.0379  0.6221 -0.0421
  140MPD2    H5 2186   0.653   4.420  13.292 -0.7478  0.1884  2.5392
  140MPD2    N1 2187   0.367   0.066  13.224 -0.2714 -0.1165  0.2621
  140MPD2    H7 2188   0.276   0.111  13.225 -0.5455 -0.6767  0.5710
  141TMC2    C1 2189   1.086   1.552  13.911  0.3779  0.4444 -0.6072
  141TMC2    C2 2190   1.040   1.525  14.038 -0.0986 -0.7097 -0.4340
  141TMC2    C3 2191   1.071   1.621  14.135  0.5456 -0.2423 -0.2842
  141TMC2    C4 2192   1.152   1.669  13.874  0.0180 -0.4258  0.6505
  141TMC2    C5 2193   1.171   1.767  13.970 -0.3659 -0.6485  1.4017
  141TMC2    C6 2194   1.139   1.741  14.105 -0.3700 -0.0311 -0.2382
  141TMC2     C 2195   1.047   1.474  13.798 -0.4295 -0.2854 -0.4636
  141TMC2     O 2196   1.118   1.471  13.697 -0.3533  0.3210 -0.5926
  141TMC2     H 2197   0.979   1.441  14.069 -1.2957  0.2739 -0.1065
  141TMC2    H1 2198   1.151   1.688  13.767 -0.3567 -1.3269  0.5032
  141TMC2    H2 2199   1.158   1.808  14.188  1.6544  0.3039 -0.9700
  141TMC2    C7 2200   1.193   1.904  13.935  0.0631 -0.4978 -0.1523
  141TMC2    C8 2201   1.032   1.595  14.270  0.7053  0.4079 -0.5495
  141TMC2    O1 2202   1.183   1.928  13.813 -0.1648  0.2305  0.6812
  141TMC2    O2 2203   1.096   1.643  14.361  0.0986 -1.0912  0.4003
  141TMC2    O5 2204   0.902   1.560  14.269 -0.1185 -0.9269  0.4070
  141TMC2    H5 2205   0.856   1.558  14.183  1.2840  1.4386 -0.3971
  142TMC2    C1 2206   2.882   0.664   9.573  0.3610 -0.3848  0.2599
  142TMC2    C2 2207   2.814   0.744   9.486  0.0511  0.4159  0.2338
  142TMC2    C3 2208   2.853   0.875   9.499  0.3186 -0.5959  0.1053
  142TMC2    C4 2209   2.979   0.703   9.663  0.3962 -0.1810 -0.5314
  142TMC2    C5 2210   3.014   0.833   9.665  0.9231  0.1310  0.2357
  142TMC2    C6 2211   2.950   0.924   9.586 -0.0225  1.0233 -0.7544
  142TMC2     C 2212   2.841   0.519   9.573 -0.4920 -0.5015 -0.5492
  142TMC2     O 2213   2.878   0.450   9.666 -0.5052  0.0009 -0.4623
  142TMC2     H 2214   2.741   0.708   9.414 -0.4639  1.1013  0.4060
  142TMC2    H1 2215   3.024   0.629   9.729 -1.1211  0.5019  1.2584
  142TMC2    H2 2216   2.963   1.031   9.599  1.7256  0.7474 -0.1595
  142TMC2    C7 2217   3.087   0.875   9.778  0.5372  0.1836  0.1282
  142TMC2    C8 2218   2.777   0.975   9.429  0.0308 -0.3873  0.0273
  142TMC2    O1 2219   3.096   0.801   9.877  0.3977  0.9269 -0.5549
  142TMC2    O2 2220   2.754   1.078   9.492  0.6585  0.2127  0.4406
  142TMC2    O5 2221   2.820   0.964   9.304  0.0004  0.1863  0.0465
  142TMC2    H5 2222   2.851   0.873   9.284  0.2190  0.5720 -1.3415
  143MPD2     C 2223   2.576   0.124   9.371 -0.6317  0.4834 -0.5503
  143MPD2    C1 2224   2.622   0.143   9.502  0.0847  0.3007 -0.2317
  143MPD2    C2 2225   2.696   0.255   9.535  0.4919  0.2883  0.1957
  143MPD2    C3 2226   2.721   0.358   9.438  0.1075  0.0429  0.1501
  143MPD2    C4 2227   2.677   0.337   9.306  0.2779 -0.0937 -0.9686
  143MPD2    C5 2228   2.614   0.214   9.276  0.0309 -0.0654  0.1319
  143MPD2     H 2229   2.715   0.272   9.640  2.0341 -0.2337  0.0067
  143MPD2    H1 2230   2.697   0.406   9.224 -1.7784  0.3932 -1.0516
  143MPD2    H2 2231   2.526   0.035   9.335 -0.5297  0.1051  0.2379
  143MPD2    H3 2232   2.571   0.217   9.177 -1.8214  1.5663  0.9925
  143MPD2     N 2233   2.777   0.484   9.453  0.2051  0.0603  0.1953
  143MPD2    H5 2234   2.774   0.546   9.373 -1.4524 -1.4947 -0.9507
  143MPD2    N1 2235   2.589   0.043   9.601 -0.2828 -0.2369  0.5670
  143MPD2    H7 2236   2.536   4.711   9.550 -1.0197  1.3753 -0.8575
  144TMC2    C1 2237   1.778   4.214   0.391  0.1289  0.3646 -0.2333
  144TMC2    C2 2238   1.797   4.125   0.285  0.0143  1.0346 -0.0629
  144TMC2    C3 2239   1.891   4.023   0.303 -0.4241 -0.2585  0.0322
  144TMC2    C4 2240   1.854   4.209   0.506  0.5119  0.5069  0.1584
  144TMC2    C5 2241   1.971   4.128   0.501  0.6825 -0.6644  0.4036
  144TMC2    C6 2242   1.988   4.034   0.402  0.7121  0.5253  0.4663
  144TMC2     C 2243   1.664   4.294   0.388 -0.2555  0.2405  0.3702
  144TMC2     O 2244   1.593   4.267   0.294  0.5431 -0.3065  0.0244
  144TMC2     H 2245   1.732   4.115   0.199 -0.9662  0.6644  0.7270
  144TMC2    H1 2246   1.841   4.286   0.581  0.8219 -0.8736  1.6284
  144TMC2    H2 2247   2.071   3.964   0.411 -0.4199 -0.6353  1.8947
  144TMC2    C7 2248   2.026   4.089   0.622 -0.3409  1.2603 -0.5789
  144TMC2    C8 2249   1.923   3.944   0.190  0.0255 -0.7563 -0.7992
  144TMC2    O1 2250   2.064   3.973   0.640  0.1221 -0.2690  0.6654
  144TMC2    O2 2251   1.911   3.988   0.077  0.0818  0.0650  0.0434
  144TMC2    O5 2252   2.002   3.838   0.225 -0.5854 -0.5910 -0.0800
  144TMC2    H5 2253   1.991   3.801   0.315  0.0053 -0.0776  0.2029
  145MPD2     C 2254   1.283   4.562   0.602 -0.1216  0.1286  0.8114
  145MPD2    C1 2255   1.294   4.513   0.473  0.3357 -0.4878 -0.5753
  145MPD2    C2 2256   1.417   4.458   0.431 -0.0488  0.0303 -0.0604
  145MPD2    C3 2257   1.524   4.449   0.523 -0.1789 -0.3288 -0.1102
  145MPD2    C4 2258   1.511   4.503   0.643  0.4136  0.1642  0.3297
  145MPD2    C5 2259   1.399   4.564   0.681  0.5772 -0.8419 -0.3899
  145MPD2     H 2260   1.420   4.412   0.332 -1.6918  1.1325 -0.6354
  145MPD2    H1 2261   1.591   4.501   0.716 -1.5272 -0.6587  2.4226
  145MPD2    H2 2262   1.192   4.613   0.631  0.1322  2.1174 -1.8947
  145MPD2    H3 2263   1.394   4.610   0.779  3.0885 -1.0975 -0.1547
  145MPD2     N 2264   1.643   4.379   0.494  0.2786  0.0871  0.3645
  145MPD2    H5 2265   1.717   4.378   0.564  0.0765 -1.5598  0.5659
  145MPD2    N1 2266   1.186   4.509   0.386  0.0863 -0.1020  0.7583
  145MPD2    H7 2267   1.203   4.487   0.288 -1.1479 -3.6041  1.3527
  146TMC2    C1 2268   3.019   2.206  12.080  0.3540 -0.7817 -0.0605
  146TMC2    C2 2269   3.013   2.180  11.948 -0.5449 -0.3188 -0.3789
  146TMC2    C3 2270   3.127   2.154  11.883  0.6323  0.2452  0.5857
  146TMC2    C4 2271   3.143   2.229  12.140  0.4449  0.0963  0.1805
  146TMC2    C5 2272   3.253   2.198  12.066 -0.2245  0.3199 -0.5736
  146TMC2    C6 2273   3.249   2.159  11.940  0.3824 -0.0501 -0.1390
  146TMC2     C 2274   2.891   2.243  12.149  0.1998  0.4256  0.5813
  146TMC2     O 2275   2.798   2.246  12.071  0.1350  0.3147 -0.3263
  146TMC2     H 2276   2.921   2.176  11.890  0.4463 -0.2097 -1.9519
  146TMC2    H1 2277   3.148   2.283  12.234 -2.6499 -0.9166  0.9254
  146TMC2    H2 2278   3.340   2.144  11.883  0.2595 -0.3582 -0.2553
  146TMC2    C7 2279   3.384   2.200  12.128  0.6296  0.0870 -0.6607
  146TMC2    C8 2280   3.107   2.080  11.759 -0.4075 -0.5787  0.4496
  146TMC2    O1 2281   3.483   2.206  12.061  0.7397  0.0929 -0.6023
  146TMC2    O2 2282   3.008   2.104  11.692  0.2422 -0.0677 -0.2790
  146TMC2    O5 2283   3.147   1.954  11.785  0.5412  1.0089 -0.4267
  146TMC2    H5 2284   3.197   1.927  11.865 -3.2020 -0.0645  1.5509
  147MPD2     C 2285   3.677   2.112  12.541 -0.5047  0.0010  0.2847
  147MPD2    C1 2286   3.542   2.107  12.576  0.2077  0.9311  0.3822
  147MPD2    C2 2287   3.445   2.129  12.486  0.7583  0.4565  0.2003
  147MPD2    C3 2288   3.475   2.156  12.351  0.9231 -0.5973 -0.1845
  147MPD2    C4 2289   3.607   2.153  12.314 -0.7483  0.2177  0.4468
  147MPD2    C5 2290   3.706   2.139  12.408  0.8254 -0.6290 -0.2220
  147MPD2     H 2291   3.340   2.126  12.516  0.0372 -1.2250 -2.4723
  147MPD2    H1 2292   3.629   2.170  12.210  0.9127  1.0892  0.9448
  147MPD2    H2 2293   3.761   2.078  12.600 -0.4730  2.6458  1.7868
  147MPD2    H3 2294   3.811   2.138  12.384  1.1006 -2.1209  0.9983
  147MPD2     N 2295   3.368   2.181  12.261  0.8269  0.5109  0.4983
  147MPD2    H5 2296   3.273   2.161  12.291  0.9094  1.7301  1.5789
  147MPD2    N1 2297   3.515   2.063  12.714  0.8954  0.4584  0.3101
  147MPD2    H7 2298   3.597   2.032  12.765 -0.8961  0.0432  2.8662
  148TMC2    C1 2299   2.851   1.856  10.117 -0.2790 -0.1234 -0.4517
  148TMC2    C2 2300   2.985   1.842  10.142  0.0031  0.1650  0.2067
  148TMC2    C3 2301   3.027   1.818  10.269 -0.2649  0.1644 -0.4701
  148TMC2    C4 2302   2.772   1.859  10.233  0.6664 -0.1666 -0.6838
  148TMC2    C5 2303   2.813   1.835  10.358  0.0119  0.8309  0.0236
  148TMC2    C6 2304   2.948   1.814  10.377 -0.2093  0.3573 -0.2125
  148TMC2     C 2305   2.791   1.794   9.998 -0.1825  0.4943 -0.3088
  148TMC2     O 2306   2.850   1.802   9.891  0.2305 -0.0737 -0.0119
  148TMC2     H 2307   3.059   1.850  10.064 -0.3694  0.4630 -0.1153
  148TMC2    H1 2308   2.668   1.884  10.218  0.9409 -0.0531 -2.4044
  148TMC2    H2 2309   2.986   1.801  10.478  0.4562 -0.2726 -0.5449
  148TMC2    C7 2310   2.738   1.720  10.397  0.2394  0.0958 -0.2531
  148TMC2    C8 2311   3.159   1.761  10.301  0.1379 -0.1731  0.2442
  148TMC2    O1 2312   2.651   1.691  10.321  0.4255 -0.3530 -0.0888
  148TMC2    O2 2313   3.208   1.776  10.409 -1.1214 -0.2977  0.1026
  148TMC2    O5 2314   3.215   1.708  10.194  0.7648  0.2124 -0.4659
  148TMC2    H5 2315   3.155   1.686  10.120 -0.3543 -0.1434  0.5509
  149MPD2     C 2316   2.590   1.698   9.804  0.1484 -0.0982 -0.3099
  149MPD2    C1 2317   2.582   1.675   9.941 -0.2682 -0.2539  0.5780
  149MPD2    C2 2318   2.483   1.602   9.999 -0.2873  0.3804 -0.8244
  149MPD2    C3 2319   2.387   1.533   9.923  0.1409 -0.9786  0.5928
  149MPD2    C4 2320   2.396   1.566   9.786  0.0202 -0.2320  0.1327
  149MPD2    C5 2321   2.496   1.640   9.727 -0.5022 -0.1412 -0.3555
  149MPD2     H 2322   2.480   1.588  10.107 -2.0801  1.8791 -0.6734
  149MPD2    H1 2323   2.327   1.526   9.712 -0.9281 -0.4371  1.1158
  149MPD2    H2 2324   2.667   1.760   9.758  2.5547 -1.7183  1.5788
  149MPD2    H3 2325   2.497   1.649   9.619 -0.6431 -4.4139 -0.7056
  149MPD2     N 2326   2.274   1.467   9.965 -0.4548  0.8916  0.4919
  149MPD2    H5 2327   2.213   1.433   9.891  0.1833  1.0071 -0.0985
  149MPD2    N1 2328   2.679   1.728  10.030  0.0536  0.0163  0.0032
  149MPD2    H7 2329   2.666   1.696  10.126  1.4319 -1.0704 -0.1754
  150TMC2    C1 2330   0.441   0.736  12.171 -0.1158  0.2251 -0.7824
  150TMC2    C2 2331   0.430   0.872  12.152 -0.0147  0.0337  0.3473
  150TMC2    C3 2332   0.546   0.957  12.173 -0.5440 -0.1577  0.7392
  150TMC2    C4 2333   0.562   0.681  12.203  0.7394 -0.4360 -0.1987
  150TMC2    C5 2334   0.668   0.764  12.221  0.7264 -0.5126 -0.2631
  150TMC2    C6 2335   0.661   0.901  12.213 -0.3881  0.3568 -0.2117
  150TMC2     C 2336   0.339   0.641  12.150 -0.1226  0.4986  0.0066
  150TMC2     O 2337   0.372   0.524  12.175  0.1244 -0.1490  0.1436
  150TMC2     H 2338   0.331   0.915  12.143 -0.2924 -0.6084  0.3364
  150TMC2    H1 2339   0.577   0.573  12.203 -1.0642 -0.6866  1.5764
  150TMC2    H2 2340   0.742   0.971  12.233  0.2682 -0.3726 -0.3324
  150TMC2    C7 2341   0.803   0.709  12.232  0.7538 -0.9640  0.2956
  150TMC2    C8 2342   0.520   1.085  12.217  0.3412 -0.0509 -0.0257
  150TMC2    O1 2343   0.897   0.783  12.214  0.3256 -0.0497 -0.1675
  150TMC2    O2 2344   0.545   1.114  12.333 -0.0305 -0.0965 -0.3480
  150TMC2    O5 2345   0.441   1.145  12.129  0.2371 -0.5785  0.5712
  150TMC2    H5 2346   0.458   1.108  12.039 -2.9869  4.4890 -2.1330
  151MPD2     C 2347   4.612   0.440  12.025 -0.2402  0.1756 -0.5376
  151MPD2    C1 2348   4.603   0.578  12.018 -0.2073 -0.0562  0.7258
  151MPD2    C2 2349   4.721   0.646  12.035  0.1243 -0.4775  0.0072
  151MPD2    C3 2350   0.103   0.594  12.068  0.2967  0.2584  0.4062
  151MPD2    C4 2351   0.115   0.455  12.075  0.1724 -0.1809 -0.0077
  151MPD2    C5 2352   4.735   0.386  12.045 -0.7278  0.6477 -0.7178
  151MPD2     H 2353   4.724   0.754  12.026 -1.1669 -0.6622 -2.4459
  151MPD2    H1 2354   0.202   0.399  12.106  1.7055  2.2277  0.0919
  151MPD2    H2 2355   4.527   0.374  12.012 -1.7358  1.8080  0.9579
  151MPD2    H3 2356   0.009   0.278  12.053  0.9639  0.7943 -1.0917
  151MPD2     N 2357   0.214   0.684  12.100  0.0916 -0.2575 -0.1091
  151MPD2    H5 2358   0.190   0.781  12.083  2.7420  0.4514  0.2921
  151MPD2    N1 2359   4.475   0.644  11.999 -0.0455  0.9477  0.2638
  151MPD2    H7 2360   4.396   0.581  11.985  1.7206 -1.0375 -0.6462
  152TMC2    C1 2361   4.402   0.400  12.403  0.6251  0.3923 -0.7719
  152TMC2    C2 2362   4.384   0.333  12.520 -0.5047  0.0404 -0.0202
  152TMC2    C3 2363   4.489   0.298  12.591 -0.3684 -0.0388 -0.2564
  152TMC2    C4 2364   4.523   0.460  12.378  0.4820  0.0153 -0.3055
  152TMC2    C5 2365   4.630   0.429  12.462  0.3019 -0.2892 -0.4526
  152TMC2    C6 2366   4.617   0.331  12.558  0.1395  0.3114  0.4609
  152TMC2     C 2367   4.285   0.462  12.353 -0.2855  0.2392 -0.1997
  152TMC2     O 2368   4.296   0.578  12.319 -0.7251  0.2112 -0.0446
  152TMC2     H 2369   4.290   0.292  12.554  0.1799 -3.5528 -2.4071
  152TMC2    H1 2370   4.541   0.512  12.285  1.4822 -3.7205 -2.2062
  152TMC2    H2 2371   4.702   0.291  12.613  1.1833 -0.6561 -1.8873
  152TMC2    C7 2372   0.013   0.511  12.475 -0.3281  0.3985 -0.2406
  152TMC2    C8 2373   4.468   0.197  12.696  0.3701  0.3826 -0.3977
  152TMC2    O1 2374   0.107   0.460  12.535 -0.0363  0.4323  0.0502
  152TMC2    O2 2375   4.418   0.087  12.660  0.0945  0.6902  0.7759
  152TMC2    O5 2376   4.557   0.211  12.793  0.2219  0.2057  0.1092
  152TMC2    H5 2377   4.588   0.303  12.807  1.4196  0.0043 -1.1817
  153MPD2     C 2378   3.953   0.306  12.401  0.0061  0.2302 -0.1562
  153MPD2    C1 2379   4.044   0.410  12.374 -0.2535 -0.2146  0.1500
  153MPD2    C2 2380   3.999   0.539  12.350  0.2355  0.1678  0.1061
  153MPD2    C3 2381   3.866   0.568  12.351  0.1487 -0.1447  0.4856
  153MPD2    C4 2382   3.777   0.463  12.372  0.4101  0.3172  0.6058
  153MPD2    C5 2383   3.823   0.336  12.395 -0.2610 -0.2808 -0.9028
  153MPD2     H 2384   4.061   0.625  12.326  0.2842  0.6181  1.7901
  153MPD2    H1 2385   3.670   0.472  12.385  0.3303  0.9160 -0.4669
  153MPD2    H2 2386   3.982   0.206  12.430 -0.1174  0.1120 -0.4360
  153MPD2    H3 2387   3.757   0.255  12.423 -0.3156  0.1855  0.3483
  153MPD2     N 2388   3.828   0.700  12.331 -0.0270  0.1319  0.4687
  153MPD2    H5 2389   3.900   0.772  12.329  0.9272 -0.8876 -2.8430
  153MPD2    N1 2390   4.177   0.375  12.373  0.2179 -0.4010  0.6706
  153MPD2    H7 2391   4.193   0.276  12.388 -1.6961 -0.5853  1.4152
  154TMC2    C1 2392   1.786   0.188  17.502 -0.1485 -0.3376 -0.0776
  154TMC2    C2 2393   1.909   0.188  17.449 -0.4129 -0.0646 -0.5350
  154TMC2    C3 2394   1.927   0.113  17.329 -0.3353 -0.8673 -0.3288
  154TMC2    C4 2395   1.676   0.120  17.447  0.5138  0.5622 -1.1475
  154TMC2    C5 2396   1.709   0.031  17.351  0.1556 -0.3936  0.5419
  154TMC2    C6 2397   1.837   0.026  17.290 -0.0689  0.3552 -0.6997
  154TMC2     C 2398   1.741   0.308  17.560  0.1695  0.3778 -0.6226
  154TMC2     O 2399   1.810   0.344  17.657 -0.2794  0.5299  0.0515
  154TMC2     H 2400   1.988   0.256  17.477  1.7531 -2.2612 -1.2816
  154TMC2    H1 2401   1.578   0.123  17.493  1.7086  0.1871  1.4495
  154TMC2    H2 2402   1.852   4.703  17.202  1.4229  0.5492 -0.5785
  154TMC2    C7 2403   1.624   4.649  17.360 -0.1531  0.4604  0.2938
  154TMC2    C8 2404   2.064   0.090  17.283  0.3512  0.1128  0.2591
  154TMC2    O1 2405   1.513   4.673  17.413 -0.0915 -0.3236  0.1916
  154TMC2    O2 2406   2.096   4.728  17.218  0.5138  0.0883 -0.1593
  154TMC2    O5 2407   2.145   0.192  17.320 -0.0090 -0.3266 -0.5661
  154TMC2    H5 2408   2.096   0.269  17.357 -0.6164 -0.9451 -0.0726
  155MPD2     C 2409   1.474   0.529  17.452 -0.2070 -0.1422 -0.2121
  155MPD2    C1 2410   1.577   0.485  17.528  0.3952 -0.3617 -0.6619
  155MPD2    C2 2411   1.614   0.561  17.638  0.1531  0.3593 -0.3667
  155MPD2    C3 2412   1.544   0.676  17.673  1.1848  0.1474  0.4547
  155MPD2    C4 2413   1.446   0.723  17.588 -0.3442  0.2398  0.0959
  155MPD2    C5 2414   1.411   0.641  17.487 -0.3814  0.9684 -0.3520
  155MPD2     H 2415   1.694   0.524  17.701 -1.2976 -1.8573  0.2141
  155MPD2    H1 2416   1.392   0.814  17.609  0.7709  0.9260 -0.0174
  155MPD2    H2 2417   1.445   0.464  17.370  1.7587 -0.3239 -0.7657
  155MPD2    H3 2418   1.327   0.673  17.427 -0.7114 -0.4976 -0.6834
  155MPD2     N 2419   1.597   0.750   0.037  0.0694  0.0750  0.3323
  155MPD2    H5 2420   1.677   0.709   0.083  0.2864 -1.0431 -1.0294
  155MPD2    N1 2421   1.637   0.361  17.496  0.3277 -0.0983 -0.3715
  155MPD2    H7 2422   1.604   0.311  17.414 -0.1777  1.6129 -1.2038
  156TMC2    C1 2423   4.032   2.937  10.593 -0.2989 -0.3503  0.7398
  156TMC2    C2 2424   3.903   2.900  10.560 -0.0021  0.0522  0.6874
  156TMC2    C3 2425   3.814   3.000  10.542  0.7437 -0.3235  0.0255
  156TMC2    C4 2426   4.068   3.070  10.592  0.3819 -0.0574 -0.0428
  156TMC2    C5 2427   3.967   3.167  10.585  0.4487  0.3209  0.5790
  156TMC2    C6 2428   3.836   3.135  10.553  0.1839  0.0687  0.0044
  156TMC2     C 2429   4.091   2.852  10.691  0.2128  0.3755  0.1008
  156TMC2     O 2430   4.143   2.913  10.783  0.2390 -0.4986  0.4594
  156TMC2     H 2431   3.880   2.796  10.582  1.0161 -0.2311  0.3870
  156TMC2    H1 2432   4.166   3.094  10.632  0.4052  0.2700 -0.3028
  156TMC2    H2 2433   3.758   3.207  10.532 -1.7599 -1.4292  2.0222
  156TMC2    C7 2434   4.004   3.306  10.621  0.1381  0.3329 -0.4641
  156TMC2    C8 2435   3.692   2.952  10.486  0.2764 -0.6038  0.4106
  156TMC2    O1 2436   4.119   3.325  10.650 -0.9728  0.1043  0.3472
  156TMC2    O2 2437   3.650   2.839  10.498 -0.2087  0.4726 -0.1828
  156TMC2    O5 2438   3.642   3.046  10.402  0.2065 -0.3618 -0.1360
  156TMC2    H5 2439   3.694   3.128  10.385  0.1087  0.2623  2.5091
  157MPD2     C 2440   4.258   2.529  10.671 -0.0509 -0.4744 -0.3553
  157MPD2    C1 2441   4.203   2.635  10.732 -0.1267  0.1535 -0.9247
  157MPD2    C2 2442   4.251   2.667  10.857  0.0691  0.5245  0.6110
  157MPD2    C3 2443   4.355   2.596  10.915  0.1725  0.1508  0.1638
  157MPD2    C4 2444   4.415   2.491  10.852 -0.2095 -0.3105 -0.3988
  157MPD2    C5 2445   4.362   2.459  10.725 -0.2112 -0.5230  0.3568
  157MPD2     H 2446   4.208   2.752  10.909 -0.8501  0.3304  0.1687
  157MPD2    H1 2447   4.498   2.431  10.888  0.8578  1.6572  0.4308
  157MPD2    H2 2448   4.219   2.499  10.575 -0.1440 -0.6732 -0.2534
  157MPD2    H3 2449   4.402   2.377  10.667  1.1894 -0.6506  1.5013
  157MPD2     N 2450   4.393   2.645  11.046 -0.0536 -0.5986  0.3929
  157MPD2    H5 2451   4.342   2.726  11.080  0.4469 -0.3204  0.4743
  157MPD2    N1 2452   4.111   2.722  10.660  0.0496  0.0619 -0.8682
  157MPD2    H7 2453   4.084   2.693  10.566  1.0123 -2.3763 -0.3874
  158TMC2    C1 2454   0.224   1.474  12.929  0.5900  0.5413 -0.3190
  158TMC2    C2 2455   0.259   1.488  12.798 -0.3922 -0.0057  0.2305
  158TMC2    C3 2456   0.164   1.525  12.707  0.1880 -0.2973  0.5280
  158TMC2    C4 2457   0.094   1.500  12.966 -0.9161 -0.3101  0.6143
  158TMC2    C5 2458   0.002   1.536  12.866  0.2744  0.6415 -0.1994
  158TMC2    C6 2459   0.037   1.552  12.734  0.2207  0.5679 -0.2846
  158TMC2     C 2460   0.336   1.471  13.023  0.9313 -0.0353  0.3510
  158TMC2     O 2461   0.444   1.512  12.983 -0.6244  0.0180  0.1671
  158TMC2     H 2462   0.364   1.495  12.771 -0.2267 -1.5354  0.4388
  158TMC2    H1 2463   0.067   1.511  13.070  0.7113 -0.9570  1.1139
  158TMC2    H2 2464   4.715   1.627  12.683 -1.5594 -0.0478  0.9230
  158TMC2    C7 2465   4.600   1.516  12.885  0.2391 -0.0545 -0.5585
  158TMC2    C8 2466   0.208   1.602  12.601  0.1854  0.5494  0.1487
  158TMC2    O1 2467   4.528   1.589  12.822 -0.0682  0.2552  0.2236
  158TMC2    O2 2468   0.312   1.666  12.598 -0.8493 -0.5511  0.3542
  158TMC2    O5 2469   0.116   1.590  12.500 -0.6276  0.3535 -0.3055
  158TMC2    H5 2470   0.039   1.534  12.522 -0.8188  0.7669  0.0842
  159MPD2     C 2471   0.473   1.529  13.505  1.2570 -0.0331 -0.0442
  159MPD2    C1 2472   0.355   1.461  13.503 -0.0364 -0.0124  0.1338
  159MPD2    C2 2473   0.298   1.427  13.385  0.4626  0.8340  0.6819
  159MPD2    C3 2474   0.359   1.469  13.269 -0.8197  0.0914 -0.1048
  159MPD2    C4 2475   0.465   1.551  13.274  0.1276 -0.6029 -0.4331
  159MPD2    C5 2476   0.526   1.585  13.395 -0.5443  0.3224  0.5945
  159MPD2     H 2477   0.206   1.370  13.384 -0.5367  2.4692 -0.1788
  159MPD2    H1 2478   0.509   1.586  13.181 -0.3252  2.5635  0.5670
  159MPD2    H2 2479   0.521   1.555  13.599 -0.1664 -1.5071  1.0729
  159MPD2    H3 2480   0.614   1.648  13.397 -1.4614  1.5568  2.0921
  159MPD2     N 2481   0.297   1.443  13.152 -0.3799  0.7465  0.0745
  159MPD2    H5 2482   0.212   1.390  13.167  0.6529 -0.8445  0.2269
  159MPD2    N1 2483   0.285   1.449  13.630 -0.1901  0.3387  0.4123
  159MPD2    H7 2484   0.332   1.478  13.714 -1.9506 -0.5769  1.7126
  160TMC2    C1 2485   4.705   4.678   1.404  0.3335 -0.2058 -0.3497
  160TMC2    C2 2486   0.066   4.594   1.452 -0.2651  0.3722 -0.6186
  160TMC2    C3 2487   0.187   4.599   1.396 -0.2848  0.1959  0.6217
  160TMC2    C4 2488   4.719   0.021   1.294 -0.7806  0.1635 -0.3864
  160TMC2    C5 2489   0.108   0.031   1.237  0.5280 -0.5698 -0.6714
  160TMC2    C6 2490   0.206   4.689   1.295  0.3871 -0.0904  0.6620
  160TMC2     C 2491   4.571   4.677   1.460  0.2160  0.1923 -0.2686
  160TMC2     O 2492   4.541   4.569   1.512 -0.0588 -0.8614  0.1384
  160TMC2     H 2493   0.051   4.521   1.531  0.1734 -0.5263 -1.3645
  160TMC2    H1 2494   4.637   0.074   1.246 -1.1341  1.5823  1.8030
  160TMC2    H2 2495   0.307   4.685   1.257  0.4850  0.1518  0.8958
  160TMC2    C7 2496   0.136   0.124   1.127  0.0434  0.2972  0.1620
  160TMC2    C8 2497   0.295   4.580   1.488  0.3982  0.2607  0.0428
  160TMC2    O1 2498   0.041   0.176   1.062 -0.1940  0.3705  0.0810
  160TMC2    O2 2499   0.412   4.565   1.453  0.5207 -0.4590 -0.1184
  160TMC2    O5 2500   0.273   4.680   1.578 -0.0690 -0.4042 -0.1080
  160TMC2    H5 2501   0.179   4.679   1.605 -0.0510 -1.0132 -0.0792
  161MPD2     C 2502   4.273   4.698   1.510  0.9371 -0.2347  0.8694
  161MPD2    C1 2503   4.359   0.062   1.482  0.2574 -0.1692  0.3583
  161MPD2    C2 2504   4.300   0.192   1.474 -0.0663 -0.3034 -0.4955
  161MPD2    C3 2505   4.176   0.214   1.521 -0.4726  0.3009  0.3743
  161MPD2    C4 2506   4.093   0.111   1.559  0.2337  1.0568 -0.2791
  161MPD2    C5 2507   4.143   4.720   1.543  0.0071 -1.1607 -1.2390
  161MPD2     H 2508   4.366   0.272   1.444 -0.1508  0.3387  1.0271
  161MPD2    H1 2509   3.988   0.121   1.586 -0.1624 -1.1127 -1.0448
  161MPD2    H2 2510   4.294   4.593   1.492 -0.4610 -0.6294  1.5867
  161MPD2    H3 2511   4.082   4.630   1.549  0.3491 -1.3991 -1.3155
  161MPD2     N 2512   4.103   0.338   1.515  0.3610  0.2768 -0.6108
  161MPD2    H5 2513   4.008   0.348   1.547 -0.1592 -0.4279 -1.9157
  161MPD2    N1 2514   4.494   0.056   1.448 -1.0850  0.3349 -0.4735
  161MPD2    H7 2515   4.547   0.139   1.421 -1.5730  0.6448 -0.4786
  162TMC2    C1 2516   3.271   2.290   1.141  0.4487 -0.1781 -0.2905
  162TMC2    C2 2517   3.146   2.341   1.165 -0.0433 -0.2326 -0.2470
  162TMC2    C3 2518   3.084   2.311   1.285  0.3082  0.1960 -0.0537
  162TMC2    C4 2519   3.325   2.201   1.229  0.3887 -0.1380 -0.8401
  162TMC2    C5 2520   3.264   2.175   1.348  0.5439 -0.4587 -0.2507
  162TMC2    C6 2521   3.145   2.234   1.381  0.4713  0.2381  1.3457
  162TMC2     C 2522   3.315   2.296   1.004 -0.0603 -0.0433  0.7429
  162TMC2     O 2523   3.233   2.335   0.923  0.0837  0.7322 -0.5296
  162TMC2     H 2524   3.105   2.419   1.102 -1.0424  0.3969  1.1578
  162TMC2    H1 2525   3.412   2.142   1.200  2.1088  1.9535  0.0277
  162TMC2    H2 2526   3.096   2.214   1.476  1.0750  0.1826  1.6411
  162TMC2    C7 2527   3.317   2.063   1.424 -0.1317  0.9507  0.0416
  162TMC2    C8 2528   2.957   2.360   1.330 -0.3962  0.0152 -0.0293
  162TMC2    O1 2529   3.430   2.024   1.402  0.5313  0.4583 -0.2941
  162TMC2    O2 2530   2.909   2.364   1.443  0.4447  0.0334  0.8003
  162TMC2    O5 2531   2.885   2.364   1.217 -0.3640 -0.0519  0.7351
  162TMC2    H5 2532   2.925   2.317   1.141  0.1520  1.0359  0.3246
  163MPD2     C 2533   3.611   2.036   0.677 -0.2218  0.2065 -0.3158
  163MPD2    C1 2534   3.486   2.091   0.658  0.3968  0.0148 -0.3986
  163MPD2    C2 2535   3.434   2.179   0.756  0.0963  0.8924 -0.6921
  163MPD2    C3 2536   3.499   2.191   0.875 -0.0689  0.1647  0.1759
  163MPD2    C4 2537   3.622   2.136   0.892 -0.5581 -0.1057  0.3503
  163MPD2    C5 2538   3.672   2.061   0.793 -0.2410 -0.8313 -0.4991
  163MPD2     H 2539   3.345   2.239   0.740  1.5499  2.8058 -1.5792
  163MPD2    H1 2540   3.673   2.145   0.987 -0.7833  2.9220  0.1943
  163MPD2    H2 2541   3.664   1.969   0.611 -3.3500 -0.6843 -1.9628
  163MPD2    H3 2542   3.773   2.022   0.808  0.3423  1.2684  0.9680
  163MPD2     N 2543   3.443   2.251   0.991  0.0192  0.1163 -0.0145
  163MPD2    H5 2544   3.495   2.240   1.077  0.4862  2.0417 -0.0698
  163MPD2    N1 2545   3.414   2.063   0.537  0.0322  0.9689 -0.6956
  163MPD2    H7 2546   3.446   1.990   0.474 -0.1859 -0.1448  0.4991
  164TMC2    C1 2547   2.927   0.743  11.223 -0.0243  0.3509 -0.4575
  164TMC2    C2 2548   3.058   0.747  11.233 -0.4468 -0.0361  0.0174
  164TMC2    C3 2549   3.114   0.867  11.194 -0.4365 -0.4761 -0.1932
  164TMC2    C4 2550   2.853   0.841  11.168  0.0119  0.0629 -0.0555
  164TMC2    C5 2551   2.908   0.962  11.151 -0.3154  0.3614 -0.5024
  164TMC2    C6 2552   3.042   0.978  11.167  0.2550  0.2417  0.3283
  164TMC2     C 2553   2.864   0.606  11.230 -0.4401  0.0516  0.4321
  164TMC2     O 2554   2.742   0.608  11.232  0.3419 -0.2509  0.5995
  164TMC2     H 2555   3.124   0.674  11.280 -0.4095  1.3313  2.0989
  164TMC2    H1 2556   2.746   0.827  11.155 -0.3971  0.6141  2.6739
  164TMC2    H2 2557   3.086   1.077  11.167 -0.2996  0.4865  1.9492
  164TMC2    C7 2558   2.831   1.074  11.099  0.0333  0.2494  0.0835
  164TMC2    C8 2559   3.251   0.886  11.229 -0.4942 -0.3477 -0.5545
  164TMC2    O1 2560   2.710   1.055  11.094  0.3955  0.3937 -0.5013
  164TMC2    O2 2561   3.307   0.820  11.317 -0.4436 -0.4270 -0.3775
  164TMC2    O5 2562   3.303   0.920  11.112 -0.6306 -0.3278  0.2371
  164TMC2    H5 2563   3.233   0.963  11.059 -0.7808  0.7698  1.3321
  165TMC2    C1 2564   4.319   4.503   1.255  0.2087  0.0359 -1.0036
  165TMC2    C2 2565   4.289   4.595   1.159 -0.0315  0.2069  0.1851
  165TMC2    C3 2566   4.383   4.611   1.065  0.2443  0.2122  0.5020
  165TMC2    C4 2567   4.441   4.437   1.266 -0.4216  0.6296  0.6302
  165TMC2    C5 2568   4.532   4.463   1.167  0.5966 -0.1517  0.4057
  165TMC2    C6 2569   4.504   4.546   1.062 -0.0997 -0.5978 -0.1895
  165TMC2     C 2570   4.206   4.431   1.300 -0.0875 -0.4120  0.3190
  165TMC2     O 2571   4.222   4.352   1.394  0.1872  0.1140  0.5609
  165TMC2     H 2572   4.191   4.642   1.150  1.0515  2.4470 -0.0078
  165TMC2    H1 2573   4.463   4.369   1.347 -1.5595 -1.2454 -0.6514
  165TMC2    H2 2574   4.578   4.574   0.988 -0.7531 -0.1617 -0.6827
  165TMC2    C7 2575   4.666   4.400   1.165 -0.4444 -0.0052  0.4877
  165TMC2    C8 2576   4.355   4.696   0.951 -0.6716 -0.4963 -0.0840
  165TMC2    O1 2577   0.015   4.444   1.088  0.4878 -0.2224  0.8100
  165TMC2    O2 2578   4.381   4.673   0.834 -0.7206 -0.1412  0.1879
  165TMC2    O5 2579   4.279   0.067   0.997 -0.6200  0.1872  0.0309
  165TMC2    H5 2580   4.263   0.074   1.093  0.5102  1.1289  0.1436
  166MPD2     C 2581   3.717   4.274   1.302  0.1765  0.1085  0.9059
  166MPD2    C1 2582   3.824   4.231   1.368 -0.0679 -0.4917  0.3939
  166MPD2    C2 2583   3.949   4.289   1.346 -0.0635 -0.1008  0.3691
  166MPD2    C3 2584   3.962   4.399   1.259 -0.3398 -1.0635  0.0948
  166MPD2    C4 2585   3.850   4.441   1.193  0.2771  0.0240  0.3526
  166MPD2    C5 2586   3.733   4.367   1.206 -0.4696  0.2179  0.1794
  166MPD2     H 2587   4.034   4.254   1.404 -0.5413 -1.5445  0.1949
  166MPD2    H1 2588   3.849   4.526   1.125  0.6395 -1.8042 -1.9031
  166MPD2    H2 2589   3.618   4.235   1.319  0.8679 -1.6506  0.8612
  166MPD2    H3 2590   3.641   4.414   1.172  1.1265  1.3166 -2.6121
  166MPD2     N 2591   4.088   4.463   1.235  0.1668  0.3270 -0.1697
  166MPD2    H5 2592   4.093   4.538   1.167 -0.2950  0.4220 -0.0956
  166MPD2    N1 2593   3.803   4.132   1.468 -0.5630  0.7677 -0.2005
  166MPD2    H7 2594   3.708   4.097   1.471  0.0443 -0.6479  1.9321
  167TMC2    C1 2595   2.365   1.123  12.572 -0.0328 -0.3697 -0.0622
  167TMC2    C2 2596   2.252   1.143  12.644  0.2780 -0.0597  0.7803
  167TMC2    C3 2597   2.140   1.067  12.624 -0.3868 -0.1071 -0.1355
  167TMC2    C4 2598   2.363   1.023  12.477  0.1412 -0.8017 -0.5986
  167TMC2    C5 2599   2.245   0.952  12.459  0.1629  0.3149  0.5303
  167TMC2    C6 2600   2.129   0.980  12.523 -0.5471  0.0523  0.3334
  167TMC2     C 2601   2.429   1.248  12.546 -0.0663  0.1675 -0.2662
  167TMC2     O 2602   2.412   1.339  12.629  0.2112 -0.2559 -0.6866
  167TMC2     H 2603   2.248   1.215  12.725 -0.7874 -0.9923  1.5604
  167TMC2    H1 2604   2.457   0.983  12.441  0.8833  0.5866 -0.2005
  167TMC2    H2 2605   2.039   0.926  12.495  0.1068 -1.0709  0.3858
  167TMC2    C7 2606   2.249   0.809  12.421  0.3783 -0.1614 -0.6274
  167TMC2    C8 2607   2.016   1.096  12.702  0.7537  0.0855  0.1612
  167TMC2    O1 2608   2.170   0.728  12.463 -0.2826  0.0856  0.1894
  167TMC2    O2 2609   2.000   1.207  12.745  0.4629 -0.1621  0.4000
  167TMC2    O5 2610   1.965   0.980  12.753 -0.2953  0.2803 -0.4740
  167TMC2    H5 2611   2.000   0.895  12.718 -0.0128  0.3922 -0.4695
  168MPD2     C 2612   2.607   1.442  12.429  0.7418 -0.3411 -0.0163
  168MPD2    C1 2613   2.608   1.314  12.387  0.8337  0.1743  0.0788
  168MPD2    C2 2614   2.690   1.270  12.285  0.1238  0.0317  0.2903
  168MPD2    C3 2615   2.755   1.373  12.217 -0.0873  0.3181  0.0083
  168MPD2    C4 2616   2.755   1.504  12.255  0.4450  0.0781 -0.1240
  168MPD2    C5 2617   2.692   1.538  12.370 -0.0646 -0.1749  0.5078
  168MPD2     H 2618   2.672   1.172  12.242  0.7437 -0.2508  0.6757
  168MPD2    H1 2619   2.811   1.583  12.206  1.2207  0.1611  0.8983
  168MPD2    H2 2620   2.551   1.470  12.518  0.9429 -0.1731  0.0565
  168MPD2    H3 2621   2.705   1.633  12.421 -0.9893 -0.7307  1.7875
  168MPD2     N 2622   2.820   1.340  12.091  0.2851 -0.4656  0.1880
  168MPD2    H5 2623   2.848   1.420  12.035  0.2067 -1.1364 -0.7960
  168MPD2    N1 2624   2.514   1.224  12.440 -0.4083  0.3246  0.5336
  168MPD2    H7 2625   2.514   1.134  12.393 -0.4485  1.8704 -2.4546
  169MPD1     C 2626   4.206   0.913   8.876 -0.0165  0.3329  0.4310
  169MPD1    C1 2627   4.236   0.777   8.861  0.2545  0.1878 -0.1635
  169MPD1    C2 2628   4.337   0.720   8.937  0.0209 -0.2186  0.3996
  169MPD1    C3 2629   4.422   0.803   9.005  0.2823  0.3994  0.0563
  169MPD1    C4 2630   4.392   0.936   9.024 -0.1729 -0.1652 -0.1819
  169MPD1    C5 2631   4.281   0.989   8.966  0.2334 -0.3942 -0.7066
  169MPD1     H 2632   4.356   0.614   8.924 -2.0925 -0.5468 -0.1037
  169MPD1    H1 2633   4.449   0.997   9.094  0.6156  0.3238 -1.2600
  169MPD1    H2 2634   4.122   0.952   8.818  0.3270 -1.1292 -1.0458
  169MPD1    H3 2635   4.247   1.090   8.989  0.5415 -0.6803  0.9902
  169MPD1     N 2636   4.529   0.736   9.071  0.0823 -0.3709 -0.1204
  169MPD1    H5 2637   4.532   0.635   9.074 -0.3327 -0.3954 -0.4798
  169MPD1    N1 2638   4.162   0.700   8.769  0.4189  0.0843 -0.4033
  169MPD1    H6 2639   4.158   0.608   8.813  0.8199 -0.3951 -1.3611
  169MPD1    H7 2640   4.064   0.728   8.769  0.1698 -0.7721  0.4744
  170MPD1     C 2641   3.363   2.853  12.662 -0.4802  0.3056  0.1062
  170MPD1    C1 2642   3.470   2.932  12.705  0.0581 -0.4276  1.0355
  170MPD1    C2 2643   3.462   3.001  12.825 -0.1420 -0.6868  0.0879
  170MPD1    C3 2644   3.348   2.994  12.902  1.2082  0.2026  0.5722
  170MPD1    C4 2645   3.244   2.914  12.862  0.1521 -0.2702 -0.0797
  170MPD1    C5 2646   3.251   2.844  12.739  0.2927 -0.0017 -0.9190
  170MPD1     H 2647   3.546   3.054  12.868 -0.3387 -0.5124  0.2528
  170MPD1    H1 2648   3.160   2.895  12.929  0.5088  3.6444  1.4434
  170MPD1    H2 2649   3.364   2.798  12.568 -2.3136  1.0347 -0.3364
  170MPD1    H3 2650   3.167   2.783  12.709 -0.1073 -0.1954  0.5812
  170MPD1     N 2651   3.359   3.055  13.026 -0.0832  0.1815 -0.0126
  170MPD1    H5 2652   3.428   3.128  13.031  1.1629 -0.9728 -0.4794
  170MPD1    N1 2653   3.591   2.926  12.633  0.5284  0.8333  0.6707
  170MPD1    H6 2654   3.667   2.988  12.663  0.3824  1.1810  0.3184
  170MPD1    H7 2655   3.590   2.896  12.536  2.3622  0.5746  0.7201
  171MPD1     C 2656   1.882   0.279  14.915 -0.0184  0.1065 -0.3765
  171MPD1    C1 2657   1.796   0.183  14.955 -0.6057 -0.3040  0.0138
  171MPD1    C2 2658   1.836   0.081  15.037  0.0658 -0.4510  0.3665
  171MPD1    C3 2659   1.964   0.084  15.092  0.3798 -0.0582 -0.4130
  171MPD1    C4 2660   2.051   0.183  15.051  0.0062 -0.7276 -0.6702
  171MPD1    C5 2661   2.011   0.278  14.966 -0.3131  0.2243 -0.8609
  171MPD1     H 2662   1.764   0.005  15.064  2.3240 -1.8550  2.4885
  171MPD1    H1 2663   2.156   0.187  15.079 -0.7580 -1.1348  2.1596
  171MPD1    H2 2664   1.847   0.363  14.856  0.9533  1.2350  0.6434
  171MPD1    H3 2665   2.081   0.354  14.933 -0.9128  2.3039  2.6117
  171MPD1     N 2666   2.016   4.720  15.183 -0.6537  0.3014  0.2821
  171MPD1    H5 2667   2.117   4.717  15.196 -0.9478 -2.3473  1.8180
  171MPD1    N1 2668   1.682   0.171  14.877 -0.3778  0.3834 -0.0361
  171MPD1    H6 2669   1.611   0.115  14.925  0.9323 -2.1537 -1.0649
  171MPD1    H7 2670   1.642   0.261  14.852  1.2640  1.4309  1.1373
  172MPD1     C 2671   1.055   4.013   0.232 -0.2715 -0.4623  0.5915
  172MPD1    C1 2672   1.090   3.974   0.109 -1.1796  0.4529 -0.4132
  172MPD1    C2 2673   1.201   4.038   0.059 -0.4725 -0.2561 -0.1724
  172MPD1    C3 2674   1.282   4.128   0.131 -0.1398 -0.1977 -0.0808
  172MPD1    C4 2675   1.249   4.163   0.257 -0.5174 -1.0044  0.3723
  172MPD1    C5 2676   1.132   4.103   0.299  0.0472 -0.6549  0.2103
  172MPD1     H 2677   1.231   4.019  17.706 -2.1982  0.5587 -0.8342
  172MPD1    H1 2678   1.301   4.241   0.312  1.3946 -2.4178  0.5567
  172MPD1    H2 2679   0.979   3.965   0.293 -1.4560  1.4291  0.6218
  172MPD1    H3 2680   1.101   4.118   0.402  1.4936 -1.3093  0.7421
  172MPD1     N 2681   1.399   4.196   0.075 -0.1394  0.7705 -0.5124
  172MPD1    H5 2682   1.444   4.262   0.137 -0.6946 -0.1625  0.8796
  172MPD1    N1 2683   1.018   3.879   0.036 -0.2557  0.4361 -0.0684
  172MPD1    H6 2684   1.018   3.904  17.686 -0.0915 -2.0465 -0.6733
  172MPD1    H7 2685   0.934   3.839   0.078  0.8203 -2.4154 -0.6650
  173MPD1     C 2686   2.722   3.970  13.367 -0.6049 -0.7546 -0.0783
  173MPD1    C1 2687   2.621   3.969  13.459 -1.4686  0.0968 -0.3717
  173MPD1    C2 2688   2.664   3.972  13.594 -0.2669 -0.1710 -0.4125
  173MPD1    C3 2689   2.795   3.956  13.632  0.7697  0.0329  0.0367
  173MPD1    C4 2690   2.883   3.936  13.527  0.4260  0.0259  0.1413
  173MPD1    C5 2691   2.846   3.941  13.396 -0.2961 -0.6289  0.6563
  173MPD1     H 2692   2.587   3.970  13.671 -0.1239  1.0812 -0.2379
  173MPD1    H1 2693   2.981   3.899  13.553  0.1433 -0.7195  0.1438
  173MPD1    H2 2694   2.697   3.980  13.262 -0.9183 -0.0433  0.0618
  173MPD1    H3 2695   2.917   3.911  13.320 -0.8304  0.2344 -0.1750
  173MPD1     N 2696   2.824   3.944  13.766  0.5001 -0.5534 -0.1842
  173MPD1    H5 2697   2.749   3.954  13.834  1.0901 -0.6057  0.4736
  173MPD1    N1 2698   2.489   3.999  13.422 -0.0703 -0.4303 -0.1074
  173MPD1    H6 2699   2.422   3.972  13.494  0.5645 -1.5413  0.0691
  173MPD1    H7 2700   2.452   3.965  13.333 -1.4480  1.3493 -0.2121
  174MPD1     C 2701   3.577   3.509  14.298  0.0706 -0.3625  0.1742
  174MPD1    C1 2702   3.482   3.541  14.386  0.4878 -0.4741 -0.4027
  174MPD1    C2 2703   3.361   3.594  14.347  0.1770  1.2003  0.0801
  174MPD1    C3 2704   3.336   3.634  14.213  0.3461  0.2009  0.8946
  174MPD1    C4 2705   3.441   3.610  14.122 -0.5108 -0.5962 -0.0067
  174MPD1    C5 2706   3.555   3.542  14.163 -0.5022 -0.0052 -0.1336
  174MPD1     H 2707   3.289   3.621  14.423 -0.8807 -2.0203  0.2193
  174MPD1    H1 2708   3.444   3.639  14.017 -0.3449  2.9182  0.9737
  174MPD1    H2 2709   3.676   3.473  14.323 -0.3664  0.5521  3.2841
  174MPD1    H3 2710   3.638   3.530  14.094 -1.8858 -1.4288 -1.5423
  174MPD1     N 2711   3.214   3.692  14.169 -0.0378 -0.3365 -0.6060
  174MPD1    H5 2712   3.200   3.703  14.069 -0.2954 -0.1336 -0.5479
  174MPD1    N1 2713   3.512   3.538  14.520  0.1412  0.7060 -0.3653
  174MPD1    H6 2714   3.585   3.467  14.530 -0.0956  0.5623  0.3758
  174MPD1    H7 2715   3.429   3.517  14.576 -0.4559  3.2196 -0.3503
  175MPD1     C 2716   0.777   0.466  15.059  0.0565  0.1024 -0.2135
  175MPD1    C1 2717   0.896   0.421  15.108 -0.1147 -0.6427  0.4268
  175MPD1    C2 2718   0.912   0.379  15.238 -0.0476  0.6148 -0.1941
  175MPD1    C3 2719   0.796   0.373  15.311  0.2761 -0.5309 -0.3302
  175MPD1    C4 2720   0.680   0.426  15.271 -0.4235  0.4221  0.3513
  175MPD1    C5 2721   0.669   0.466  15.137 -0.0527  0.2545 -0.0938
  175MPD1     H 2722   1.010   0.344  15.269 -0.6494  0.5366  1.6017
  175MPD1    H1 2723   0.591   0.421  15.333 -0.3442  0.4797  0.4670
  175MPD1    H2 2724   0.762   0.494  14.956 -2.6887 -0.7843 -0.0664
  175MPD1    H3 2725   0.573   0.503  15.101 -0.6560  0.6119  1.8683
  175MPD1     N 2726   0.793   0.313  15.436 -0.0497 -0.0745 -0.0262
  175MPD1    H5 2727   0.705   0.308  15.486  0.2462 -0.0480  0.5036
  175MPD1    N1 2728   1.005   0.427  15.017  0.4276 -0.0353 -0.6642
  175MPD1    H6 2729   1.079   0.370  15.055  0.6781  0.8775  0.2243
  175MPD1    H7 2730   0.974   0.399  14.924 -1.3504  4.2573 -1.3776
  176MPD1     C 2731   2.948   1.856   0.538  0.3422 -0.9284  0.0401
  176MPD1    C1 2732   2.929   1.986   0.585 -1.0917  0.8325  0.2363
  176MPD1    C2 2733   2.861   2.075   0.498  0.2747 -0.0112 -0.9560
  176MPD1    C3 2734   2.825   2.033   0.370  0.1155  0.2949  0.4116
  176MPD1    C4 2735   2.841   1.904   0.329  1.3630 -0.1626 -0.0982
  176MPD1    C5 2736   2.909   1.823   0.409 -0.1011  0.4421 -0.3139
  176MPD1     H 2737   2.843   2.178   0.526  1.1679 -0.2814  0.6088
  176MPD1    H1 2738   2.802   1.880   0.230 -1.2303  1.6026  0.5031
  176MPD1    H2 2739   3.001   1.786   0.601  1.2276 -1.1725 -0.9883
  176MPD1    H3 2740   2.926   1.721   0.376 -1.6455  0.1740 -0.2864
  176MPD1     N 2741   2.775   2.139   0.286 -0.1816  0.2604 -0.0666
  176MPD1    H5 2742   2.756   2.226   0.336  0.4611 -0.3993  1.3436
  176MPD1    N1 2743   2.940   2.017   0.719 -0.1650  0.0829 -0.0708
  176MPD1    H6 2744   3.006   1.950   0.758  0.5876  0.0216 -1.4405
  176MPD1    H7 2745   2.970   2.113   0.732 -1.8915  0.7502 -0.9477
  177MPD1     C 2746   1.099   1.980  10.157  0.0579  0.3841  0.2783
  177MPD1    C1 2747   1.051   2.108  10.149 -0.6947 -0.4074 -0.4051
  177MPD1    C2 2748   0.943   2.132  10.078 -0.5745 -0.4350 -0.2387
  177MPD1    C3 2749   0.880   2.028  10.005  0.6747  0.7431 -0.3733
  177MPD1    C4 2750   0.925   1.898  10.018 -0.0342  0.1947 -0.0961
  177MPD1    C5 2751   1.038   1.875  10.094  0.0050  0.2205 -0.0384
  177MPD1     H 2752   0.896   2.228  10.064  0.0712 -0.2319 -1.0550
  177MPD1    H1 2753   0.880   1.815   9.965  0.3284 -0.6990  0.9945
  177MPD1    H2 2754   1.184   1.953  10.219  0.2668  2.0491  0.7009
  177MPD1    H3 2755   1.076   1.775  10.112 -1.9756 -0.4552  0.4391
  177MPD1     N 2756   0.770   2.058   9.923 -0.3510  0.3298 -0.0402
  177MPD1    H5 2757   0.734   2.151   9.940 -2.3848 -0.7418  1.5511
  177MPD1    N1 2758   1.110   2.211  10.218 -0.0987 -0.2411  0.7774
  177MPD1    H6 2759   1.092   2.303  10.178  1.5418  0.1629  0.9786
  177MPD1    H7 2760   1.210   2.200  10.234  0.1695  0.1239 -0.6324
  178MPD1     C 2761   4.447   3.751  17.089  0.1196  0.6344 -0.1872
  178MPD1    C1 2762   4.329   3.737  17.145  0.1083  0.2401  0.0165
  178MPD1    C2 2763   4.243   3.637  17.098  0.0412 -0.0118  0.6340
  178MPD1    C3 2764   4.285   3.557  16.990 -0.8599  0.3463  0.8952
  178MPD1    C4 2765   4.406   3.588  16.931  0.1600 -0.3401  0.4894
  178MPD1    C5 2766   4.488   3.684  16.977  0.0061 -0.3065 -0.9887
  178MPD1     H 2767   4.150   3.620  17.149 -0.3677 -0.5973 -0.3029
  178MPD1    H1 2768   4.435   3.522  16.849  1.6775  0.7271  0.1600
  178MPD1    H2 2769   4.518   3.821  17.133  1.3678 -0.9208  0.2842
  178MPD1    H3 2770   4.580   3.711  16.925  1.1435  0.9883  1.6929
  178MPD1     N 2771   4.212   3.451  16.936  0.2874 -0.5100  0.1538
  178MPD1    H5 2772   4.257   3.412  16.854 -0.4954 -2.2606  0.5474
  178MPD1    N1 2773   4.287   3.816  17.250 -0.6072 -0.7846 -0.0336
  178MPD1    H6 2774   4.186   3.823  17.262 -0.3900  0.9238  0.8879
  178MPD1    H7 2775   4.326   3.909  17.235 -0.7618 -0.8243 -0.6811
  179MPD1     C 2776   3.293   1.667  15.171  0.0074  0.8565  0.2898
  179MPD1    C1 2777   3.331   1.679  15.303  0.7942 -0.3944 -0.2242
  179MPD1    C2 2778   3.273   1.592  15.391  0.8182  0.3759 -0.6783
  179MPD1    C3 2779   3.186   1.492  15.357 -0.4221  0.0255  0.1314
  179MPD1    C4 2780   3.161   1.481  15.223  0.3279 -0.3399 -0.3395
  179MPD1    C5 2781   3.208   1.572  15.129 -0.1941  0.2541 -0.4129
  179MPD1     H 2782   3.301   1.598  15.495  1.8289 -1.4704 -0.8628
  179MPD1    H1 2783   3.094   1.410  15.176 -0.2461  0.1013 -0.1903
  179MPD1    H2 2784   3.347   1.729  15.100 -1.3632  1.5835 -0.1157
  179MPD1    H3 2785   3.173   1.555  15.028  0.7633 -0.2536 -0.6542
  179MPD1     N 2786   3.124   1.403  15.453 -0.5996  0.0227 -0.2839
  179MPD1    H5 2787   3.077   1.317  15.425  0.4421 -0.6412  0.0303
  179MPD1    N1 2788   3.423   1.780  15.341  0.0738  0.3454  0.0957
  179MPD1    H6 2789   3.465   1.826  15.260 -1.6136  1.1522 -0.3224
  179MPD1    H7 2790   3.492   1.743  15.406  0.0808  1.9254  0.9692
  180MPD1     C 2791   3.557   2.498  15.008  0.4877  0.8458  0.2722
  180MPD1    C1 2792   3.426   2.522  15.008 -0.3167 -0.4966 -0.5711
  180MPD1    C2 2793   3.359   2.563  14.891  0.0391 -0.4831 -0.5240
  180MPD1    C3 2794   3.408   2.533  14.769 -0.5167  0.1361 -0.1226
  180MPD1    C4 2795   3.545   2.496  14.763 -1.0730  0.0372 -0.3109
  180MPD1    C5 2796   3.616   2.477  14.885  0.2867 -0.8656 -0.2885
  180MPD1     H 2797   3.262   2.610  14.901  1.1978  2.1472 -1.4782
  180MPD1    H1 2798   3.602   2.474  14.673  2.2246  1.3102  1.4516
  180MPD1    H2 2799   3.617   2.479  15.096  1.8836 -0.8132 -1.0330
  180MPD1    H3 2800   3.723   2.458  14.876  0.4016 -0.8299  1.0755
  180MPD1     N 2801   3.322   2.535  14.656 -0.5229 -0.2958  0.2538
  180MPD1    H5 2802   3.230   2.573  14.672 -1.1556 -2.6269  2.1945
  180MPD1    N1 2803   3.373   2.554  15.137 -0.1430 -0.2313  0.4093
  180MPD1    H6 2804   3.422   2.493  15.202 -0.1769 -0.2799  0.3895
  180MPD1    H7 2805   3.275   2.526  15.138  0.2871 -1.7541  0.0545
  181MPD1     C 2806   4.204   3.824  10.487 -0.4306 -0.2963  0.4115
  181MPD1    C1 2807   4.235   3.957  10.466 -0.3989 -0.1305  0.4953
  181MPD1    C2 2808   4.368   3.999  10.443  0.7328  0.0408  0.8598
  181MPD1    C3 2809   4.472   3.911  10.447  0.1120  0.0542  0.2456
  181MPD1    C4 2810   4.437   3.779  10.459 -0.0912 -0.4831 -0.3319
  181MPD1    C5 2811   4.308   3.737  10.485 -0.0067 -0.1460 -0.7045
  181MPD1     H 2812   4.387   4.105  10.428 -0.5228  0.0406 -0.6648
  181MPD1    H1 2813   4.512   3.701  10.449 -0.8722 -1.4727  1.6143
  181MPD1    H2 2814   4.099   3.796  10.487 -0.2288 -1.0598  0.1805
  181MPD1    H3 2815   4.285   3.631  10.498 -0.7372  0.0321 -0.5427
  181MPD1     N 2816   4.606   3.946  10.425 -0.1105 -0.7161  0.5143
  181MPD1    H5 2817   4.662   3.861  10.421  0.2662 -0.4229 -0.2653
  181MPD1    N1 2818   4.128   4.040  10.436 -0.6048  0.0521  0.0288
  181MPD1    H6 2819   4.034   4.019  10.469 -0.0701 -0.4667  1.2159
  181MPD1    H7 2820   4.151   4.139  10.444  0.8751 -0.4259  1.5241
  182MPD1     C 2821   1.304   3.522   1.372  0.0035  0.0497  0.9719
  182MPD1    C1 2822   1.286   3.661   1.389 -0.3771 -0.0984  0.4437
  182MPD1    C2 2823   1.216   3.721   1.291 -0.0137  0.4161 -0.1698
  182MPD1    C3 2824   1.163   3.657   1.178 -0.1030  0.3323 -0.0466
  182MPD1    C4 2825   1.189   3.525   1.162 -0.6319  0.8543  0.3425
  182MPD1    C5 2826   1.265   3.458   1.255  0.4662 -0.5162  0.4470
  182MPD1     H 2827   1.179   3.821   1.311 -0.6176 -0.4203  2.8471
  182MPD1    H1 2828   1.148   3.477   1.074  0.9119  0.9178 -0.4044
  182MPD1    H2 2829   1.348   3.458   1.447 -2.1432 -1.5751  0.8197
  182MPD1    H3 2830   1.269   3.351   1.240 -0.0177 -0.1725 -2.1680
  182MPD1     N 2831   1.089   3.721   1.072  0.6115  0.3712 -0.0292
  182MPD1    H5 2832   1.060   3.664   0.993 -3.8659  0.8771  1.2471
  182MPD1    N1 2833   1.310   3.736   1.509 -0.1593  0.0651 -0.3000
  182MPD1    H6 2834   1.317   3.838   1.507  3.0136 -0.1702 -0.5757
  182MPD1    H7 2835   1.386   3.696   1.562  0.9178  1.8187 -0.5199
  183MPD1     C 2836   0.281   3.429   9.316  0.5561  0.3852 -0.0583
  183MPD1    C1 2837   0.200   3.523   9.369 -0.1218 -0.2831 -0.9124
  183MPD1    C2 2838   0.265   3.620   9.444  0.5584  0.2495 -0.2518
  183MPD1    C3 2839   0.402   3.604   9.482  0.3674  0.3920  0.2998
  183MPD1    C4 2840   0.473   3.506   9.416  0.5424  0.9048 -0.0775
  183MPD1    C5 2841   0.412   3.411   9.350  0.3122 -0.2814  0.3056
  183MPD1     H 2842   0.205   3.699   9.488  0.0121 -0.9548  1.1918
  183MPD1    H1 2843   0.581   3.496   9.416  0.4808  0.1202 -4.4884
  183MPD1    H2 2844   0.244   3.359   9.242 -0.3913  0.6958  0.1225
  183MPD1    H3 2845   0.471   3.333   9.303  0.9673  1.8282 -2.3838
  183MPD1     N 2846   0.460   3.708   9.559 -0.4167  0.1207 -0.1561
  183MPD1    H5 2847   0.418   3.800   9.566  1.4205  0.8388  1.1353
  183MPD1    N1 2848   0.071   3.551   9.313  0.4273  0.0227  0.3855
  183MPD1    H6 2849   0.020   3.602   9.385 -0.0378  0.0661  0.0241
  183MPD1    H7 2850   0.016   3.470   9.282 -1.3525  0.8051  1.4974
  184MPD1     C 2851   0.300   1.774  10.715  0.2013 -0.3910 -0.0057
  184MPD1    C1 2852   0.182   1.727  10.667  0.6373  0.9688 -0.2996
  184MPD1    C2 2853   0.178   1.693  10.529 -0.3158 -0.4313  0.2082
  184MPD1    C3 2854   0.292   1.697  10.449 -0.0231 -0.0965 -0.4135
  184MPD1    C4 2855   0.414   1.739  10.505  0.4131  0.0065 -0.3259
  184MPD1    C5 2856   0.418   1.774  10.639  0.2116  0.1669 -0.2464
  184MPD1     H 2857   0.078   1.680  10.489 -0.1259 -0.3620 -0.2914
  184MPD1    H1 2858   0.507   1.727  10.452  0.0736 -0.9922 -0.7004
  184MPD1    H2 2859   0.316   1.812  10.815  0.2207 -2.0019  0.5984
  184MPD1    H3 2860   0.509   1.811  10.686 -0.9188  1.8572  0.6353
  184MPD1     N 2861   0.295   1.649  10.318 -0.2438  0.5140  0.0375
  184MPD1    H5 2862   0.385   1.649  10.271 -1.3393  1.8228 -2.0910
  184MPD1    N1 2863   0.071   1.752  10.743  0.5469  1.0007  0.8600
  184MPD1    H6 2864   0.092   1.736  10.841 -1.6555  2.3179  1.5544
  184MPD1    H7 2865   4.736   1.683  10.723  0.3595  0.6578  2.7258
  185MPD1     C 2866   4.548   1.675   9.334 -0.7226  0.3910 -0.5949
  185MPD1    C1 2867   4.508   1.728   9.449  0.2956  0.1747 -0.2151
  185MPD1    C2 2868   4.594   1.736   9.554 -0.4218 -0.0753  0.5290
  185MPD1    C3 2869   4.717   1.677   9.550 -0.9648 -0.0650 -0.5310
  185MPD1    C4 2870   0.015   1.613   9.435  0.7575 -0.0736  0.2378
  185MPD1    C5 2871   4.673   1.612   9.328  1.0984 -0.0896 -0.4105
  185MPD1     H 2872   4.565   1.792   9.641 -0.2494 -1.7821  1.6793
  185MPD1    H1 2873   0.113   1.568   9.422  1.1589  0.9929 -0.3676
  185MPD1    H2 2874   4.484   1.668   9.247  0.8835  2.0110 -1.9047
  185MPD1    H3 2875   4.709   1.563   9.238  2.0231 -1.7223  0.8422
  185MPD1     N 2876   0.068   1.675   9.660 -0.7000 -0.4386 -0.0534
  185MPD1    H5 2877   0.158   1.632   9.641 -1.0596 -0.8622 -0.8342
  185MPD1    N1 2878   4.396   1.818   9.451 -0.1617 -0.1791 -0.0244
  185MPD1    H6 2879   4.321   1.797   9.386  1.1480  1.4036 -2.0573
  185MPD1    H7 2880   4.363   1.826   9.547 -3.1184  0.5270 -1.1097
  186MPD1     C 2881   4.355   1.208  15.886  0.6248 -0.6129 -0.7770
  186MPD1    C1 2882   4.246   1.182  15.964 -0.2891  0.5373  0.7491
  186MPD1    C2 2883   4.177   1.290  16.004 -0.2525  0.9764  0.0445
  186MPD1    C3 2884   4.182   1.406  15.937  0.5312 -0.7221  0.0268
  186MPD1    C4 2885   4.269   1.427  15.838 -0.1651 -0.6323 -0.9326
  186MPD1    C5 2886   4.358   1.328  15.819 -0.4330  0.7364  0.0643
  186MPD1     H 2887   4.104   1.276  16.083 -2.6659  2.1494 -1.9608
  186MPD1    H1 2888   4.285   1.518  15.781  0.7610 -0.8161 -0.9672
  186MPD1    H2 2889   4.437   1.138  15.879 -0.7360 -1.9616 -3.2552
  186MPD1    H3 2890   4.439   1.345  15.749 -0.2722 -1.2306 -0.2546
  186MPD1     N 2891   4.108   1.521  15.976  0.1685  0.2417 -0.5649
  186MPD1    H5 2892   4.136   1.609  15.935 -3.3135  2.1637  1.1823
  186MPD1    N1 2893   4.252   1.069  16.053 -0.2750  0.4976  0.1246
  186MPD1    H6 2894   4.288   0.989  16.003  1.3033  1.3829 -0.1407
  186MPD1    H7 2895   4.166   1.038  16.098 -1.6759 -0.0051 -2.9161
  187MPD1     C 2896   2.990   2.786   0.142 -0.2020 -0.0046  0.4024
  187MPD1    C1 2897   3.079   2.878   0.091  0.3658  0.9790 -0.4335
  187MPD1    C2 2898   3.046   2.945  17.729 -0.5145  0.1753  0.2430
  187MPD1    C3 2899   2.922   2.940  17.674  0.2963  0.0263  0.8630
  187MPD1    C4 2900   2.822   2.863  17.735 -0.2168 -0.0709 -0.1756
  187MPD1    C5 2901   2.860   2.784   0.096 -0.2831  0.0903  0.4438
  187MPD1     H 2902   3.121   3.014  17.692  0.2751 -0.6655  0.2639
  187MPD1    H1 2903   2.724   2.846  17.691  0.1446  0.7065 -1.2859
  187MPD1    H2 2904   3.021   2.723   0.224  0.3020  1.2770  1.1987
  187MPD1    H3 2905   2.781   2.724   0.141 -1.3237  0.4746 -0.8739
  187MPD1     N 2906   2.885   3.015  17.559  0.2941  0.4820  0.2364
  187MPD1    H5 2907   2.790   3.006  17.526  0.4910 -3.0179  0.6664
  187MPD1    N1 2908   3.209   2.883   0.147  0.1152 -0.3847  0.1569
  187MPD1    H6 2909   3.275   2.954   0.115  1.4437 -1.0243  1.4802
  187MPD1    H7 2910   3.209   2.859   0.246  0.0273 -2.8004 -0.4270
  188MPD1     C 2911   2.785   3.139   9.968  0.2841 -1.0367 -0.2179
  188MPD1    C1 2912   2.813   3.057  10.071  0.5530  0.0741 -0.3093
  188MPD1    C2 2913   2.762   2.927  10.075  0.3736  0.1166 -0.2068
  188MPD1    C3 2914   2.679   2.881   9.977 -0.2756  0.0405 -0.0993
  188MPD1    C4 2915   2.644   2.972   9.873 -0.1836 -0.1436 -0.7527
  188MPD1    C5 2916   2.700   3.099   9.869  0.1546  0.2057 -0.7030
  188MPD1     H 2917   2.774   2.862  10.161  2.3695  0.9267  0.1263
  188MPD1    H1 2918   2.587   2.940   9.787 -3.3357  0.9782  0.9492
  188MPD1    H2 2919   2.836   3.234   9.960  0.1110 -0.8647  0.7170
  188MPD1    H3 2920   2.674   3.171   9.792 -0.9136  0.4678 -0.0953
  188MPD1     N 2921   2.630   2.746   9.965  0.8395 -0.7121  0.1502
  188MPD1    H5 2922   2.581   2.725   9.880 -0.3371  1.0344  0.4044
  188MPD1    N1 2923   2.884   3.105  10.181 -1.0384 -0.1610  0.3831
  188MPD1    H6 2924   2.954   3.039  10.215 -0.8620 -0.2511 -0.1556
  188MPD1    H7 2925   2.945   3.180  10.148 -2.1586  0.7660  0.4227
  189MPD1     C 2926   0.015   0.043   0.025 -0.5123  0.3507  0.0667
  189MPD1    C1 2927   4.633   0.047  17.710  0.8402 -0.7019 -0.9373
  189MPD1    C2 2928   4.513   0.042   0.033 -0.0007 -0.7469 -0.2239
  189MPD1    C3 2929   4.519   0.028   0.176  0.4426 -0.0258  0.4445
  189MPD1    C4 2930   4.642   0.020   0.235 -0.2283  0.5629  0.3853
  189MPD1    C5 2931   0.024   0.032   0.163  0.0758  0.1417 -1.0633
  189MPD1     H 2932   4.415   0.033  17.738  0.4259 -1.5048 -1.0213
  189MPD1    H1 2933   4.661   0.007   0.341 -0.8297  1.3657  0.5915
  189MPD1    H2 2934   0.108   0.059  17.720  0.6171 -1.5761  1.4432
  189MPD1    H3 2935   0.118   0.032   0.218 -0.9666  0.1674  0.7363
  189MPD1     N 2936   4.402   4.736   0.250  0.3475 -0.5517  0.0209
  189MPD1    H5 2937   4.312   0.024   0.209  0.9150  1.2880 -0.0456
  189MPD1    N1 2938   4.631   0.067  17.569 -0.8064  0.1744  0.2045
  189MPD1    H6 2939   4.704   0.015  17.521 -1.0327  0.4094 -0.3927
  189MPD1    H7 2940   4.543   0.049  17.521 -1.2468 -0.6665  1.3094
  190MPD1     C 2941   3.113   3.069  15.486  0.2897  0.3109  0.8944
  190MPD1    C1 2942   3.166   3.061  15.615  0.1917  0.2316 -0.2503
  190MPD1    C2 2943   3.287   2.994  15.630 -0.2476 -0.3918 -0.8252
  190MPD1    C3 2944   3.359   2.946  15.519  0.2596 -0.4085  0.6460
  190MPD1    C4 2945   3.311   2.964  15.390 -0.5247 -0.4521  0.5218
  190MPD1    C5 2946   3.196   3.037  15.379 -0.0051  0.4481 -0.6436
  190MPD1     H 2947   3.317   2.974  15.732  1.1519 -0.3451 -1.2240
  190MPD1    H1 2948   3.349   2.918  15.299 -0.9476  0.7052 -0.2362
  190MPD1    H2 2949   3.015   3.115  15.479  0.2778  0.0787 -0.4483
  190MPD1    H3 2950   3.157   3.049  15.278 -1.8175 -0.2881 -0.0357
  190MPD1     N 2951   3.488   2.888  15.546  0.0855 -0.2606 -0.6592
  190MPD1    H5 2952   3.512   2.877  15.645  0.7717  1.3240 -0.6434
  190MPD1    N1 2953   3.089   3.094  15.723  0.2954  0.4948 -0.1760
  190MPD1    H6 2954   3.031   3.176  15.707  0.6750  0.7870 -0.0761
  190MPD1    H7 2955   3.141   3.087  15.811 -0.1415 -1.4615 -0.0631
  191MPD1     C 2956   2.242   3.893  12.674  0.5037 -0.3108  0.1813
  191MPD1    C1 2957   2.359   3.850  12.623  0.0358  0.6073  0.0416
  191MPD1    C2 2958   2.385   3.893  12.495 -0.7245 -0.2163  1.1266
  191MPD1    C3 2959   2.306   3.981  12.424 -0.2860  0.2722 -0.2197
  191MPD1    C4 2960   2.182   4.008  12.471 -0.0131 -0.6357 -0.0694
  191MPD1    C5 2961   2.151   3.961  12.598 -0.5883  0.0077 -0.4408
  191MPD1     H 2962   2.476   3.866  12.444 -1.2963 -0.2424  0.1113
  191MPD1    H1 2963   2.107   4.063  12.415 -1.0096 -2.0639 -0.1257
  191MPD1    H2 2964   2.210   3.854  12.770  1.5967  1.1214  1.1152
  191MPD1    H3 2965   2.057   3.987  12.646  0.4554  0.9615  1.0679
  191MPD1     N 2966   2.348   4.021  12.296  0.2598  0.4303  0.2838
  191MPD1    H5 2967   2.440   3.987  12.269 -1.1675 -0.5755 -3.3278
  191MPD1    N1 2968   2.425   3.753  12.697 -0.5306  0.1407  0.2091
  191MPD1    H6 2969   2.523   3.737  12.674 -1.2325 -0.6113 -2.3226
  191MPD1    H7 2970   2.411   3.755  12.798  1.8273 -0.1583  0.5327
  192MPD1     C 2971   2.491   0.026  11.505 -0.3675 -0.3432 -0.1179
  192MPD1    C1 2972   2.363   4.711  11.538  0.4807 -0.0024  0.4320
  192MPD1    C2 2973   2.350   4.605  11.619 -0.3274 -0.1000 -0.5970
  192MPD1    C3 2974   2.463   4.549  11.670  0.0674 -0.5477  0.3676
  192MPD1    C4 2975   2.592   4.594  11.626 -0.3392 -0.4714 -0.4212
  192MPD1    C5 2976   2.606   4.696  11.537  0.2854  0.0198  0.0592
  192MPD1     H 2977   2.250   4.580  11.653 -0.7224  0.1957 -1.5597
  192MPD1    H1 2978   2.680   4.551  11.673 -0.7945  0.9767  1.7501
  192MPD1    H2 2979   2.507   0.106  11.433 -0.2544  1.2491  1.6600
  192MPD1    H3 2980   2.706   4.734  11.517 -1.3723  3.8045 -0.9421
  192MPD1     N 2981   2.465   4.435  11.756 -0.0989 -0.6176  0.4948
  192MPD1    H5 2982   2.554   4.396  11.786  0.6279 -1.4473 -2.6402
  192MPD1    N1 2983   2.249   0.041  11.507  0.0243 -0.1234  0.4956
  192MPD1    H6 2984   2.252   0.095  11.421 -2.2018  0.4329  0.7801
  192MPD1    H7 2985   2.172   4.713  11.495 -0.2891  0.2394  0.5503
  193MPD1     C 2986   1.749   4.399  16.154  0.2202  0.5121  0.2450
  193MPD1    C1 2987   1.715   4.522  16.189 -0.0654 -0.3993 -0.3061
  193MPD1    C2 2988   1.820   4.616  16.204  0.5265  1.0988 -0.1586
  193MPD1    C3 2989   1.949   4.582  16.164  0.9356  0.8012 -0.4722
  193MPD1    C4 2990   1.976   4.451  16.123 -0.3503  0.0026  0.2969
  193MPD1    C5 2991   1.873   4.358  16.116 -0.2832 -0.2102  0.0422
  193MPD1     H 2992   1.798   4.710  16.253 -0.2040 -0.7579  3.0244
  193MPD1    H1 2993   2.074   4.416  16.092 -0.4675  0.7699 -0.9131
  193MPD1    H2 2994   1.678   4.318  16.138 -0.8397  1.3743  0.5979
  193MPD1    H3 2995   1.900   4.257  16.088 -0.1440 -0.1461 -0.0558
  193MPD1     N 2996   2.058   4.673  16.171 -0.0194  0.8113  0.2363
  193MPD1    H5 2997   2.147   4.635  16.139 -0.6549 -0.5595  0.0911
  193MPD1    N1 2998   1.582   4.554  16.221  0.1279  0.4809 -0.5807
  193MPD1    H6 2999   1.575   4.655  16.229 -0.1334  0.3435  1.0395
  193MPD1    H7 3000   1.515   4.526  16.150 -0.4199 -1.6846  0.7671
  194MPD1     C 3001   1.613   1.948  16.317  0.4448  0.2704 -0.2283
  194MPD1    C1 3002   1.567   1.831  16.279  0.1961 -0.4302  0.1039
  194MPD1    C2 3003   1.498   1.753  16.364 -0.1426  0.1635  0.5691
  194MPD1    C3 3004   1.479   1.793  16.493  0.3198 -0.6775 -0.2830
  194MPD1    C4 3005   1.526   1.913  16.530  0.3188  0.6744 -0.3586
  194MPD1    C5 3006   1.603   1.988  16.448 -0.0977 -0.1336  0.7056
  194MPD1     H 3007   1.452   1.665  16.322 -1.1546  0.7792  0.4000
  194MPD1    H1 3008   1.524   1.948  16.632  1.3762  0.0990 -0.1316
  194MPD1    H2 3009   1.656   2.015  16.244 -2.7651  2.7149  0.1806
  194MPD1    H3 3010   1.648   2.076  16.492  0.4027  0.0056 -0.0810
  194MPD1     N 3011   1.390   1.725  16.584  0.2778  0.2605 -0.0233
  194MPD1    H5 3012   1.371   1.773  16.671  1.7390 -0.1489  0.5214
  194MPD1    N1 3013   1.566   1.797  16.145  0.5258  0.1107  1.4240
  194MPD1    H6 3014   1.550   1.698  16.131 -0.4328  0.8196 -2.5717
  194MPD1    H7 3015   1.653   1.818  16.096  0.2613  1.0031  1.3353
  195MPD1     C 3016   1.829   3.633  17.212 -0.3535 -0.7549 -0.2258
  195MPD1    C1 3017   1.782   3.587  17.330  0.2176  0.4851 -0.6011
  195MPD1    C2 3018   1.875   3.571  17.428 -0.3301 -0.3453 -0.3258
  195MPD1    C3 3019   2.008   3.599  17.405  0.4809 -0.3684  0.3294
  195MPD1    C4 3020   2.055   3.654  17.292  1.0693 -0.5871  0.1939
  195MPD1    C5 3021   1.956   3.678  17.201  0.1270 -0.6049  0.4108
  195MPD1     H 3022   1.848   3.524  17.522  0.1984  1.2812  0.6515
  195MPD1    H1 3023   2.156   3.690  17.270  2.1906 -3.4686  0.6705
  195MPD1    H2 3024   1.767   3.661  17.127 -0.6119  3.0513  1.1872
  195MPD1    H3 3025   1.976   3.723  17.105  0.3907  0.1908  0.8391
  195MPD1     N 3026   2.106   3.577  17.501 -0.6751  0.4068  0.1406
  195MPD1    H5 3027   2.204   3.563  17.481 -0.9427 -0.0235 -0.8496
  195MPD1    N1 3028   1.653   3.545  17.357  0.2757  0.1697 -0.3427
  195MPD1    H6 3029   1.588   3.610  17.312 -0.2798 -1.7879 -2.3343
  195MPD1    H7 3030   1.627   3.550  17.455  1.4650  2.0740 -0.1267
  196MPD1     C 3031   0.929   2.756   0.012  0.4333  0.1910  0.4490
  196MPD1    C1 3032   1.030   2.828  17.691 -0.5051  0.6426  0.1433
  196MPD1    C2 3033   1.123   2.895   0.020  0.2189 -0.5192  0.3701
  196MPD1    C3 3034   1.118   2.906   0.154  0.0822 -0.2457  0.4349
  196MPD1    C4 3035   1.014   2.845   0.220 -0.3794 -0.1951  0.5142
  196MPD1    C5 3036   0.923   2.764   0.153 -0.1378  0.9924 -0.0415
  196MPD1     H 3037   1.191   2.949  17.705  1.3652 -1.9224  0.3981
  196MPD1    H1 3038   0.998   2.850   0.327  1.1277  2.0354  0.6311
  196MPD1    H2 3039   0.856   2.692  17.713 -0.0685  0.6182  0.6303
  196MPD1    H3 3040   0.852   2.706   0.210  0.3488  0.2833 -0.1594
  196MPD1     N 3041   1.218   2.962   0.232 -0.4815  0.1091  0.2768
  196MPD1    H5 3042   1.214   2.952   0.333 -2.8773 -1.9097 -0.0122
  196MPD1    N1 3043   1.056   2.805  17.550 -0.2864  0.4097 -0.0362
  196MPD1    H6 3044   1.110   2.874  17.499 -2.3037  0.5086 -2.0259
  196MPD1    H7 3045   0.974   2.796  17.490 -1.7952  1.8734  1.8118
  197MPD1     C 3046   0.930   0.014  17.533  0.0980  0.4239 -0.1784
  197MPD1    C1 3047   0.849   0.060  17.434  0.1384 -0.1949  0.6402
  197MPD1    C2 3048   0.909   0.088  17.312 -0.1186  0.5836 -0.0336
  197MPD1    C3 3049   1.047   0.079  17.292  0.4230  0.1408  0.2223
  197MPD1    C4 3050   1.127   0.036  17.395 -0.4212  0.6677 -0.4147
  197MPD1    C5 3051   1.069   0.002  17.510  0.1828  0.0499  0.4116
  197MPD1     H 3052   0.848   0.121  17.228  0.4145 -1.1097 -1.0855
  197MPD1    H1 3053   1.236   0.029  17.392 -0.6662 -3.3019 -0.0968
  197MPD1    H2 3054   0.882   4.717  17.623  1.1582  2.6634  1.2534
  197MPD1    H3 3055   1.134   4.699  17.587 -1.6279 -1.9540  0.8668
  197MPD1     N 3056   1.116   0.117  17.171 -0.5682  0.6954 -0.0362
  197MPD1    H5 3057   1.217   0.119  17.185 -0.5984  0.6060  0.1963
  197MPD1    N1 3058   0.710   0.038  17.450  0.1390  0.3577  0.6052
  197MPD1    H6 3059   0.666   0.046  17.541  0.0038  2.4828  0.3624
  197MPD1    H7 3060   0.653   0.106  17.401  0.5505 -0.3926 -0.9000
  198MPD1     C 3061   3.038   3.096  14.967  0.6087  0.6568  1.1111
  198MPD1    C1 3062   3.150   3.169  15.012  0.1352  0.0379 -0.4866
  198MPD1    C2 3063   3.134   3.307  15.022  0.0556 -0.1456 -0.0139
  198MPD1    C3 3064   3.017   3.373  14.997 -0.0217 -0.0487  0.3028
  198MPD1    C4 3065   2.906   3.301  14.952 -0.1952  0.0796 -0.5733
  198MPD1    C5 3066   2.927   3.171  14.933 -0.2986 -0.1283  0.2412
  198MPD1     H 3067   3.202   3.367  15.081  2.9190 -1.7838 -1.6937
  198MPD1    H1 3068   2.804   3.332  14.932  0.1194  0.9334 -0.8445
  198MPD1    H2 3069   3.036   2.988  14.959  1.2988  0.8236 -1.1664
  198MPD1    H3 3070   2.840   3.109  14.917 -0.1932 -0.6545  1.6512
  198MPD1     N 3071   3.013   3.512  15.034 -0.1748  0.0123  0.2831
  198MPD1    H5 3072   3.098   3.554  15.071  0.6264 -2.5712  1.4449
  198MPD1    N1 3073   3.278   3.117  15.022 -0.1840  0.0500 -0.2458
  198MPD1    H6 3074   3.279   3.016  15.035  1.7848  0.1131  0.2034
  198MPD1    H7 3075   3.325   3.158  15.102 -2.0512 -0.8298  1.3180
  199MPD1     C 3076   1.033   0.063  10.531 -0.3408 -0.4988  0.0426
  199MPD1    C1 3077   1.000   0.168  10.447  0.4437  0.5107 -0.4496
  199MPD1    C2 3078   0.921   0.148  10.332  0.3666 -0.3539  0.0645
  199MPD1    C3 3079   0.851   0.030  10.319 -0.1170  0.0669 -0.1688
  199MPD1    C4 3080   0.872   4.670  10.418  0.3840  0.1824  0.9105
  199MPD1    C5 3081   0.959   4.686  10.523  0.0459 -0.4720  0.1759
  199MPD1     H 3082   0.933   0.220  10.252  0.9512 -1.6016 -0.9787
  199MPD1    H1 3083   0.807   4.585  10.405 -0.8479  0.9469  2.0351
  199MPD1    H2 3084   1.103   0.066  10.613 -2.4049  1.1151  1.7274
  199MPD1    H3 3085   0.959   4.619  10.608  0.4251 -2.3906 -1.3211
  199MPD1     N 3086   0.771   4.735  10.204  0.3282 -0.0368 -0.4662
  199MPD1    H5 3087   0.713   4.652  10.208 -0.8459  0.9290  2.7212
  199MPD1    N1 3088   1.079   0.282  10.448  0.3362  0.3015 -0.0535
  199MPD1    H6 3089   1.091   0.319  10.542 -0.8157  0.3041  0.0972
  199MPD1    H7 3090   1.038   0.359  10.395 -0.4779 -0.8371 -1.0830
  200MPD1     C 3091   4.264   4.470  15.933  0.3527 -0.0989 -0.0072
  200MPD1    C1 3092   4.335   4.588  15.961 -0.5121 -0.0706 -0.1385
  200MPD1    C2 3093   4.376   4.668  15.852 -0.1395  0.2937  0.2113
  200MPD1    C3 3094   4.338   4.633  15.726 -0.2300 -0.8856  0.1513
  200MPD1    C4 3095   4.265   4.527  15.700  0.2858  0.5822 -0.1960
  200MPD1    C5 3096   4.226   4.443  15.803  1.0299 -0.4813 -0.1287
  200MPD1     H 3097   4.432   0.022  15.869  1.3081 -0.6270  0.3872
  200MPD1    H1 3098   4.232   4.510  15.598 -0.2432  0.1435  0.0450
  200MPD1    H2 3099   4.220   4.414  16.015 -0.6981  0.0160 -0.4963
  200MPD1    H3 3100   4.174   4.353  15.771  0.4717 -0.8311  1.7512
  200MPD1     N 3101   4.383   4.708  15.612  0.0176 -0.6243  0.2518
  200MPD1    H5 3102   4.338   4.684  15.524  2.7152 -1.0532 -1.0119
  200MPD1    N1 3103   4.379   4.609  16.094  0.1982  0.3070  0.3362
  200MPD1    H6 3104   4.300   4.586  16.154 -1.3135  2.3182 -0.8640
  200MPD1    H7 3105   4.399   4.705  16.121  1.5993  0.2380 -0.4828
  201MPD1     C 3106   1.575   3.645  13.160 -0.1237 -0.2099 -0.4493
  201MPD1    C1 3107   1.638   3.552  13.080 -0.7623 -0.3490 -0.2356
  201MPD1    C2 3108   1.617   3.411  13.104 -0.0695  0.1201 -0.7774
  201MPD1    C3 3109   1.507   3.371  13.182  0.4998 -1.0556  0.8995
  201MPD1    C4 3110   1.433   3.468  13.252  0.0925 -0.3955 -0.6532
  201MPD1    C5 3111   1.471   3.602  13.243 -0.3734  0.2915  0.6780
  201MPD1     H 3112   1.677   3.344  13.042 -1.7104 -0.2126 -2.0164
  201MPD1    H1 3113   1.355   3.443  13.323  1.5583  0.0297  1.1185
  201MPD1    H2 3114   1.596   3.751  13.149  0.7367 -0.4945 -1.6546
  201MPD1    H3 3115   1.421   3.677  13.302 -1.7821 -1.1049  1.2475
  201MPD1     N 3116   1.486   3.230  13.191 -0.3438 -0.8058  0.2983
  201MPD1    H5 3117   1.553   3.173  13.140 -0.2762 -2.2974  2.0571
  201MPD1    N1 3118   1.765   3.592  13.020  0.6635  0.4352 -0.6413
  201MPD1    H6 3119   1.783   3.532  12.940 -1.6393 -0.2178 -0.6840
  201MPD1    H7 3120   1.752   3.688  12.991  0.1074  0.6404  0.2745
  202MPD1     C 3121   0.962   2.640   9.423 -0.0595 -0.1172 -0.0346
  202MPD1    C1 3122   0.920   2.755   9.493 -0.0296 -0.2673 -0.8192
  202MPD1    C2 3123   1.021   2.858   9.510  0.4997  0.1142  0.7427
  202MPD1    C3 3124   1.154   2.822   9.507  0.2168  0.0104 -0.3565
  202MPD1    C4 3125   1.193   2.694   9.466 -0.5263 -0.5041  0.3746
  202MPD1    C5 3126   1.094   2.614   9.415  1.0128 -0.0872  0.0832
  202MPD1     H 3127   0.985   2.951   9.553 -2.7689 -0.5205 -0.6473
  202MPD1    H1 3128   1.296   2.662   9.462 -0.3106  0.0936  1.1742
  202MPD1    H2 3129   0.887   2.579   9.373  0.5033 -0.8312 -0.0120
  202MPD1    H3 3130   1.119   2.520   9.367  1.1914  0.2137 -0.4137
  202MPD1     N 3131   1.263   2.903   9.554  0.3908 -0.4615 -0.8326
  202MPD1    H5 3132   1.353   2.860   9.569  0.6687  0.0750 -0.9497
  202MPD1    N1 3133   0.780   2.795   9.485 -0.8514 -0.2515  0.5715
  202MPD1    H6 3134   0.755   2.858   9.560 -0.6857 -0.9149  1.1878
  202MPD1    H7 3135   0.717   2.716   9.500 -1.8073  0.0831 -1.6359
  203MPD1     C 3136   1.119   3.926  12.884 -0.3237 -0.0196  0.1916
  203MPD1    C1 3137   1.201   3.815  12.871  0.0295 -0.5671  0.0054
  203MPD1    C2 3138   1.142   3.692  12.840 -0.1190 -0.4706  0.2699
  203MPD1    C3 3139   1.007   3.681  12.809 -0.2415  0.7419 -0.1422
  203MPD1    C4 3140   0.925   3.792  12.823  0.8254  0.1323 -0.7360
  203MPD1    C5 3141   0.982   3.911  12.859 -0.4477 -0.0099  0.0658
  203MPD1     H 3142   1.191   3.595  12.837  3.2215  1.1919  1.9356
  203MPD1    H1 3143   0.818   3.789  12.808  0.5055 -0.8981  1.6555
  203MPD1    H2 3144   1.149   4.025  12.915 -2.1601  1.2353 -2.0474
  203MPD1    H3 3145   0.918   3.998  12.867  0.5011  0.7139 -0.2798
  203MPD1     N 3146   0.953   3.555  12.773  0.4198 -0.2187 -0.0251
  203MPD1    H5 3147   1.015   3.477  12.792  0.1083 -0.5164 -0.2347
  203MPD1    N1 3148   1.334   3.828  12.899 -0.1934 -0.0356  0.1725
  203MPD1    H6 3149   1.365   3.923  12.883 -1.1099  0.1039 -0.8039
  203MPD1    H7 3150   1.397   3.766  12.848  1.9752  2.5624 -0.3361
  204MPD1     C 3151   0.618   0.929  17.176  1.1405 -0.0007  0.0883
  204MPD1    C1 3152   0.654   0.853  17.066  0.3699  0.1622  0.0356
  204MPD1    C2 3153   0.593   0.732  17.048 -0.7279  0.2981 -0.0583
  204MPD1    C3 3154   0.499   0.689  17.134  0.3715  0.4860 -0.0011
  204MPD1    C4 3155   0.480   0.760  17.247 -0.0873 -0.0747  0.6818
  204MPD1    C5 3156   0.528   0.885  17.269 -0.2925 -0.3735  0.3830
  204MPD1     H 3157   0.610   0.673  16.958 -2.1401 -0.6202  0.2828
  204MPD1    H1 3158   0.426   0.726  17.335  1.4818 -0.3851  1.5107
  204MPD1    H2 3159   0.655   1.028  17.196  0.1441  0.1892  0.9751
  204MPD1    H3 3160   0.498   0.939  17.358  0.2923 -1.0757  1.0001
  204MPD1     N 3161   0.441   0.556  17.105 -0.3717  0.7849 -0.0928
  204MPD1    H5 3162   0.473   0.507  17.022  0.7219  0.9615  0.2192
  204MPD1    N1 3163   0.766   0.882  16.986  0.4229 -0.3868  0.0661
  204MPD1    H6 3164   0.753   0.861  16.887 -2.9290 -0.7438  0.5648
  204MPD1    H7 3165   0.772   0.983  16.978 -1.1104 -0.4178 -1.4996
  205MPD1     C 3166   0.215   0.067   0.600  0.0110 -0.5044  0.1738
  205MPD1    C1 3167   0.127   4.704   0.625  0.3088  0.0262 -0.6760
  205MPD1    C2 3168   0.136   4.593   0.541  0.1275  0.3451 -0.1636
  205MPD1    C3 3169   0.210   4.597   0.430 -0.0939  0.3595 -0.5567
  205MPD1    C4 3170   0.293   4.699   0.404 -0.5756  0.2131  0.0538
  205MPD1    C5 3171   0.295   0.064   0.491  0.2783  0.0456  0.4109
  205MPD1     H 3172   0.071   4.510   0.566  0.4395 -0.5321 -2.3018
  205MPD1    H1 3173   0.354   4.711   0.315 -1.9757  0.6784 -0.8418
  205MPD1    H2 3174   0.209   0.161   0.654  0.2834  0.1043 -0.8348
  205MPD1    H3 3175   0.354   0.154   0.478 -0.1768  0.0827 -1.3879
  205MPD1     N 3176   0.218   4.494   0.332 -0.6091 -0.2528  0.7870
  205MPD1    H5 3177   0.270   4.503   0.246 -0.5307  1.1316  0.9808
  205MPD1    N1 3178   0.053   4.692   0.743  0.0868  0.4959 -0.0622
  205MPD1    H6 3179   4.710   4.631   0.734  0.1047  0.4981 -0.2350
  205MPD1    H7 3180   0.014   0.046   0.767 -0.7390  0.8379 -2.7241
  206MPD1     C 3181   1.190   1.925  16.341 -0.5225  0.5713  0.3016
  206MPD1    C1 3182   1.076   1.909  16.412 -0.5432 -0.3497 -0.1060
  206MPD1    C2 3183   0.946   1.932  16.351 -0.5597  0.1066  0.1572
  206MPD1    C3 3184   0.939   1.944  16.212  0.1282  0.8791 -0.1741
  206MPD1    C4 3185   1.060   1.947  16.143  0.6211  0.0868  0.1120
  206MPD1    C5 3186   1.181   1.946  16.203 -0.3981 -0.0138 -0.0991
  206MPD1     H 3187   0.862   1.943  16.418 -1.9318 -2.1947 -1.2038
  206MPD1    H1 3188   1.073   1.965  16.037 -0.7351  0.7268  0.0506
  206MPD1    H2 3189   1.286   1.922  16.392  0.2571  1.1104 -1.1329
  206MPD1    H3 3190   1.273   1.957  16.147 -1.2362  0.4401 -1.3765
  206MPD1     N 3191   0.822   1.975  16.134  0.4956 -0.1968 -0.2921
  206MPD1    H5 3192   0.834   1.987  16.034 -2.6401  2.0164 -0.3983
  206MPD1    N1 3193   1.088   1.899  16.551  0.0743 -0.9396  0.1435
  206MPD1    H6 3194   1.003   1.870  16.599  0.1053  0.3109  0.9724
  206MPD1    H7 3195   1.176   1.854  16.576 -0.5631 -2.5393 -0.5511
  207MPD1     C 3196   1.838   4.209   9.811 -0.4660 -0.1095  0.4946
  207MPD1    C1 3197   1.860   4.303   9.713  0.0828 -0.5390 -0.0244
  207MPD1    C2 3198   1.981   4.371   9.718 -0.1707  0.8042 -0.6005
  207MPD1    C3 3199   2.060   4.366   9.836 -0.8534  0.5535 -0.2911
  207MPD1    C4 3200   2.022   4.288   9.940 -0.0704 -0.3008 -0.0866
  207MPD1    C5 3201   1.912   4.204   9.931  0.1517  0.1643  0.2781
  207MPD1     H 3202   2.010   4.432   9.633 -0.0994 -2.8448 -3.1825
  207MPD1    H1 3203   2.088   4.292  10.026  1.1799  1.1912 -1.1042
  207MPD1    H2 3204   1.754   4.141   9.809  0.5149 -1.3045  0.0179
  207MPD1    H3 3205   1.883   4.138  10.012 -1.4958  1.1690  0.5155
  207MPD1     N 3206   2.190   4.425   9.848 -0.7654 -0.0251  0.1813
  207MPD1    H5 3207   2.252   4.411   9.928  0.5143 -0.1491 -0.8203
  207MPD1    N1 3208   1.788   4.301   9.589  0.2716 -0.7138  0.3848
  207MPD1    H6 3209   1.690   4.286   9.613  0.0026 -2.0820 -1.5583
  207MPD1    H7 3210   1.800   4.398   9.558 -0.2498 -1.1273 -1.1429
  208MPD1     C 3211   4.479   2.880   1.188 -0.4459  0.2435 -0.8887
  208MPD1    C1 3212   4.426   3.006   1.173  0.4389 -1.1053 -0.8378
  208MPD1    C2 3213   4.496   3.091   1.091 -1.0390 -0.2492 -0.5186
  208MPD1    C3 3214   4.620   3.064   1.044  0.3076 -0.0577  0.0339
  208MPD1    C4 3215   4.679   2.945   1.087 -0.3044 -0.6901 -0.3477
  208MPD1    C5 3216   4.607   2.852   1.150 -0.1949 -0.4911  0.0767
  208MPD1     H 3217   4.449   3.185   1.066 -1.1768 -0.4282 -0.9243
  208MPD1    H1 3218   0.038   2.908   1.056  0.2971  1.2828 -0.8166
  208MPD1    H2 3219   4.424   2.809   1.248  2.3090 -0.9247  0.2491
  208MPD1    H3 3220   4.648   2.752   1.155 -0.0390 -0.3915  0.7862
  208MPD1     N 3221   4.690   3.161   0.960  0.1070 -0.1566 -0.2585
  208MPD1    H5 3222   4.636   3.240   0.927 -0.1232 -0.0782  0.2860
  208MPD1    N1 3223   4.285   3.021   1.207 -0.5519 -0.1002  0.6884
  208MPD1    H6 3224   4.262   2.966   1.290  1.4010 -0.6470  0.8551
  208MPD1    H7 3225   4.248   3.115   1.223  1.4239  0.8143 -0.1394
  209MPD1     C 3226   3.197   3.289   9.632 -0.0823 -0.2446 -0.4047
  209MPD1    C1 3227   3.180   3.223   9.751  0.0689  0.0267 -0.4513
  209MPD1    C2 3228   3.106   3.284   9.852 -0.0233 -0.2137  0.1224
  209MPD1    C3 3229   3.051   3.413   9.848 -0.5678 -0.8947  0.0198
  209MPD1    C4 3230   3.077   3.470   9.731  0.1636  0.2177  0.1424
  209MPD1    C5 3231   3.137   3.418   9.622 -0.5561 -0.8814 -0.3915
  209MPD1     H 3232   3.083   3.234   9.945  0.2647 -0.5510  0.0121
  209MPD1    H1 3233   3.030   3.567   9.714  1.1203  0.3903 -1.5496
  209MPD1    H2 3234   3.247   3.252   9.543  1.5190 -1.5191  1.0317
  209MPD1    H3 3235   3.146   3.486   9.538  3.3645 -0.5823  0.2332
  209MPD1     N 3236   2.993   3.491   9.953 -0.3146 -0.2668 -0.1499
  209MPD1    H5 3237   2.958   3.584   9.935  1.9809  0.4511 -0.9322
  209MPD1    N1 3238   3.240   3.099   9.776  0.6146  0.0339  0.4008
  209MPD1    H6 3239   3.276   3.071   9.685 -0.9235 -0.8439  0.0637
  209MPD1    H7 3240   3.182   3.026   9.816 -1.1550 -0.7010 -3.4988
  210MPD1     C 3241   2.904   3.238  10.911 -0.0935  0.0723  0.1011
  210MPD1    C1 3242   2.945   3.364  10.908  0.2845 -0.3510 -0.7139
  210MPD1    C2 3243   2.930   3.430  10.785 -0.3218  0.4571  0.7882
  210MPD1    C3 3244   2.884   3.369  10.674  0.4123 -0.0081 -0.4603
  210MPD1    C4 3245   2.845   3.239  10.675  0.6423 -0.3499 -0.2333
  210MPD1    C5 3246   2.855   3.179  10.794 -0.6914 -1.1895  0.7017
  210MPD1     H 3247   2.965   3.532  10.774 -0.2559  0.4134  0.5922
  210MPD1    H1 3248   2.824   3.181  10.586  0.4668  1.1695 -1.1806
  210MPD1    H2 3249   2.890   3.189  11.007 -2.8007 -0.2228 -0.4486
  210MPD1    H3 3250   2.821   3.077  10.807  2.1089 -2.3609 -1.2502
  210MPD1     N 3251   2.870   3.437  10.547  0.4914 -0.2684  0.9200
  210MPD1    H5 3252   2.834   3.389  10.465  0.4343  0.7306  0.3613
  210MPD1    N1 3253   3.011   3.418  11.017 -0.2476  0.5799  0.3981
  210MPD1    H6 3254   3.017   3.519  11.009  0.5794  0.4068 -1.1354
  210MPD1    H7 3255   2.963   3.389  11.102 -2.2608 -2.2950 -1.7177
  211MPD1     C 3256   0.224   3.794  15.320  0.3725  0.7036 -0.2349
  211MPD1    C1 3257   0.124   3.887  15.326 -0.7235  0.3658  0.5773
  211MPD1    C2 3258   0.098   3.939  15.449  0.4010  0.1167 -0.2966
  211MPD1    C3 3259   0.174   3.915  15.562  0.5383  0.0883 -0.4619
  211MPD1    C4 3260   0.288   3.837  15.548 -0.2366 -0.0312  0.6172
  211MPD1    C5 3261   0.305   3.774  15.431 -0.7306  0.5737 -0.0372
  211MPD1     H 3262   0.009   3.997  15.468 -2.0093 -3.0960 -1.8497
  211MPD1    H1 3263   0.346   3.806  15.635  0.2241 -0.4989  0.1393
  211MPD1    H2 3264   0.248   3.736  15.232 -1.8461 -3.4429  1.8958
  211MPD1    H3 3265   0.388   3.705  15.427 -1.7877 -0.6440 -1.4998
  211MPD1     N 3266   0.128   3.960  15.688 -0.1421 -0.3487  0.9795
  211MPD1    H5 3267   0.041   4.012  15.679 -1.2679 -1.7220  3.8431
  211MPD1    N1 3268   0.048   3.912  15.211 -0.1945 -0.3033  0.1106
  211MPD1    H6 3269   0.103   3.907  15.125 -1.0433 -1.9151 -0.3328
  211MPD1    H7 3270   0.009   4.006  15.205  1.4233  0.3594 -0.1391
  212MPD1     C 3271   4.562   2.649  16.394 -0.2773 -0.1654  0.2356
  212MPD1    C1 3272   4.434   2.696  16.416  0.9301  0.6735  0.2446
  212MPD1    C2 3273   4.357   2.610  16.495  1.0274  0.1502  0.5700
  212MPD1    C3 3274   4.398   2.491  16.541  0.1741  0.0967  0.2816
  212MPD1    C4 3275   4.516   2.444  16.501 -0.4209  0.5191 -0.0248
  212MPD1    C5 3276   4.600   2.526  16.434  0.0062  0.1358  0.1753
  212MPD1     H 3277   4.259   2.648  16.523  0.7616 -1.1398  1.3690
  212MPD1    H1 3278   4.563   2.351  16.529  0.4595  0.6151 -1.1728
  212MPD1    H2 3279   4.631   2.705  16.331  0.1175 -2.3854 -1.2692
  212MPD1    H3 3280   4.701   2.496  16.408  0.0715  0.6475 -0.1594
  212MPD1     N 3281   4.318   2.406  16.621  0.7074  0.5371  0.4335
  212MPD1    H5 3282   4.347   2.311  16.637 -0.5360  0.5688  2.8162
  212MPD1    N1 3283   4.401   2.828  16.385  0.5468 -0.1802  0.0676
  212MPD1    H6 3284   4.435   2.845  16.290 -2.5839 -0.0041 -1.0449
  212MPD1    H7 3285   4.300   2.840  16.385  0.8796  2.4970  1.3531
  213MPD1     C 3286   3.025   2.760  15.285 -0.0202 -0.4588 -0.3808
  213MPD1    C1 3287   2.999   2.780  15.152 -0.1411 -0.8235 -0.3986
  213MPD1    C2 3288   2.864   2.788  15.116 -0.4779 -0.3304  0.0305
  213MPD1    C3 3289   2.769   2.811  15.214  0.1657  0.1031 -0.5213
  213MPD1    C4 3290   2.800   2.812  15.346 -0.6971  0.3147 -0.2032
  213MPD1    C5 3291   2.932   2.783  15.383 -0.0637  0.0874  0.0594
  213MPD1     H 3292   2.834   2.791  15.012 -0.0441 -0.6332 -0.1037
  213MPD1    H1 3293   2.723   2.826  15.421 -0.0776 -0.0193  0.5008
  213MPD1    H2 3294   3.127   2.750  15.321  0.1825  0.4906 -0.6815
  213MPD1    H3 3295   2.971   2.785  15.484  2.0172  1.7665 -0.7558
  213MPD1     N 3296   2.635   2.820  15.167  0.0510 -0.1279 -0.2317
  213MPD1    H5 3297   2.623   2.797  15.069  2.2200 -1.1998 -0.2508
  213MPD1    N1 3298   3.097   2.732  15.066  0.2809  0.3838  0.6266
  213MPD1    H6 3299   3.191   2.759  15.094 -0.1700  0.7998  1.7392
  213MPD1    H7 3300   3.087   2.763  14.969 -1.3242  2.0757  1.3268
  214MPD1     C 3301   1.734   2.619  15.448 -0.1710 -0.4488  0.4208
  214MPD1    C1 3302   1.727   2.607  15.310 -0.0934 -0.2770  0.4321
  214MPD1    C2 3303   1.851   2.612  15.237  0.0355 -0.2503  0.3527
  214MPD1    C3 3304   1.969   2.650  15.301 -0.0890 -0.7298  0.0317
  214MPD1    C4 3305   1.971   2.659  15.441  0.2557  0.4201  0.5571
  214MPD1    C5 3306   1.853   2.647  15.509  0.0166 -0.2652  0.0862
  214MPD1     H 3307   1.852   2.573  15.136 -0.5949 -3.0475  1.4420
  214MPD1    H1 3308   2.061   2.678  15.499  0.1392  2.6980 -0.0279
  214MPD1    H2 3309   1.646   2.627  15.510 -0.8254 -1.0434 -0.4250
  214MPD1    H3 3310   1.840   2.673  15.614  1.9156 -1.8097  0.7101
  214MPD1     N 3311   2.092   2.674  15.232  0.7183 -0.2600 -0.4392
  214MPD1    H5 3312   2.172   2.698  15.290 -0.2761  0.5587  0.6023
  214MPD1    N1 3313   1.607   2.565  15.250 -0.3174  0.3453 -0.8002
  214MPD1    H6 3314   1.603   2.595  15.152 -1.3512  0.3601 -0.7515
  214MPD1    H7 3315   1.527   2.595  15.305  1.4732  2.8224  0.4512
  215MPD1     C 3316   2.561   2.896  10.338  0.0976  0.1163 -0.4548
  215MPD1    C1 3317   2.609   2.899  10.473  0.1011  0.4070  0.1796
  215MPD1    C2 3318   2.590   3.018  10.544 -0.1649 -0.4509 -0.1548
  215MPD1    C3 3319   2.533   3.132  10.472 -0.3348  0.8589  0.1367
  215MPD1    C4 3320   2.495   3.121  10.341 -0.7250 -0.4067 -0.0225
  215MPD1    C5 3321   2.512   3.005  10.273  0.3993 -0.2575  0.7195
  215MPD1     H 3322   2.613   3.023  10.650  0.6641  0.0466 -0.3565
  215MPD1    H1 3323   2.450   3.201  10.284 -1.7484 -1.6096 -0.8940
  215MPD1    H2 3324   2.570   2.800  10.288 -0.2545 -0.6431  0.9341
  215MPD1    H3 3325   2.484   3.010  10.169  2.4191  0.3245  0.2182
  215MPD1     N 3326   2.513   3.243  10.555 -0.0678 -0.1969 -0.4233
  215MPD1    H5 3327   2.523   3.233  10.656 -1.3394 -2.3906 -0.5249
  215MPD1    N1 3328   2.647   2.781  10.533  0.0993  0.3271  0.5993
  215MPD1    H6 3329   2.693   2.712  10.474 -1.3296 -2.2416  2.4847
  215MPD1    H7 3330   2.704   2.806  10.614 -0.9299 -1.6317  1.9210
  216MPD1     C 3331   4.498   0.998  16.681  0.0900 -0.3951 -1.1507
  216MPD1    C1 3332   4.436   1.104  16.746  0.7059 -0.3382 -0.3805
  216MPD1    C2 3333   4.467   1.119  16.884 -0.0591 -0.2146  0.9723
  216MPD1    C3 3334   4.548   1.030  16.954 -0.1587 -0.1451 -0.0575
  216MPD1    C4 3335   4.594   0.921  16.886  0.1910 -0.1348  0.1015
  216MPD1    C5 3336   4.573   0.912  16.750 -0.0079 -0.5026 -0.7549
  216MPD1     H 3337   4.426   1.209  16.927 -1.8465  0.1386 -1.4247
  216MPD1    H1 3338   4.664   0.853  16.933  1.0382 -0.0944 -1.0970
  216MPD1    H2 3339   4.485   0.981  16.575  0.0351 -0.2156 -1.1735
  216MPD1    H3 3340   4.619   0.835  16.688 -1.6608 -3.3610  1.5773
  216MPD1     N 3341   4.592   1.058  17.085  0.8154 -0.7557  0.1807
  216MPD1    H5 3342   4.572   1.151  17.121 -1.2756 -0.6485 -1.2081
  216MPD1    N1 3343   4.373   1.208  16.675  0.0412 -0.1660 -0.8564
  216MPD1    H6 3344   4.318   1.180  16.594  0.3773  0.4554 -1.3055
  216MPD1    H7 3345   4.322   1.265  16.742  1.0623 -0.7404  0.4130
  217MPD1     C 3346   4.044   2.244   9.506  0.4747  0.4013 -0.3409
  217MPD1    C1 3347   4.150   2.155   9.474 -0.6187 -0.2184 -0.5681
  217MPD1    C2 3348   4.285   2.192   9.489  0.3617 -0.1613  0.4933
  217MPD1    C3 3349   4.312   2.303   9.556 -0.4422 -0.2513 -0.0802
  217MPD1    C4 3350   4.210   2.389   9.590  0.9214 -0.3858  0.3167
  217MPD1    C5 3351   4.081   2.356   9.564  0.4946 -0.5591  0.6521
  217MPD1     H 3352   4.358   2.121   9.453 -0.1951 -1.1906  1.3947
  217MPD1    H1 3353   4.231   2.484   9.638 -1.1632 -1.0424  2.5402
  217MPD1    H2 3354   3.939   2.221   9.494  0.3213  1.6033 -1.3355
  217MPD1    H3 3355   4.006   2.430   9.592  0.8326  0.0057  0.0638
  217MPD1     N 3356   4.443   2.342   9.584 -0.0861  0.3737 -0.2005
  217MPD1    H5 3357   4.449   2.415   9.654 -1.4075  0.8363 -0.5674
  217MPD1    N1 3358   4.120   2.039   9.406  0.7755  0.8379 -0.0872
  217MPD1    H6 3359   4.033   1.990   9.427  1.4930 -1.0414 -1.5064
  217MPD1    H7 3360   4.196   1.972   9.419 -1.5522 -2.2621 -2.3325
  218MPD1     C 3361   1.447   4.153  12.993 -0.0985 -0.1671 -0.2885
  218MPD1    C1 3362   1.555   4.100  13.058  0.3434 -0.0861 -0.3062
  218MPD1    C2 3363   1.647   4.021  12.982  0.7444 -0.4692  0.3268
  218MPD1    C3 3364   1.626   4.002  12.843  0.5028  0.1805  0.1188
  218MPD1    C4 3365   1.519   4.070  12.780 -0.2857  0.4172  0.0042
  218MPD1    C5 3366   1.436   4.144  12.859  0.4895 -0.1766 -0.2401
  218MPD1     H 3367   1.735   3.981  13.029 -0.4549 -2.6375  0.7051
  218MPD1    H1 3368   1.498   4.069  12.674 -0.3421  0.8928  0.0150
  218MPD1    H2 3369   1.379   4.215  13.051 -0.9551 -1.9162  0.5864
  218MPD1    H3 3370   1.353   4.199  12.813 -0.5670 -1.2227  0.4198
  218MPD1     N 3371   1.708   3.915  12.762 -0.7976 -0.0706  1.0651
  218MPD1    H5 3372   1.781   3.862  12.808 -0.7977 -0.8361  0.1782
  218MPD1    N1 3373   1.562   4.102  13.197 -0.4306  0.1323 -0.4303
  218MPD1    H6 3374   1.658   4.091  13.228 -0.4170  1.0988 -0.1172
  218MPD1    H7 3375   1.513   4.182  13.238  2.5089  0.7654  1.8737
  219MPD1     C 3376   2.389   3.687  11.924 -0.2314  0.3065  0.4319
  219MPD1    C1 3377   2.257   3.735  11.920  0.5486  0.4161 -0.0942
  219MPD1    C2 3378   2.172   3.733  12.026 -0.8880 -0.0145 -0.4912
  219MPD1    C3 3379   2.211   3.687  12.145  0.4005 -0.1537  0.4040
  219MPD1    C4 3380   2.338   3.619  12.142  0.1509  0.5767 -0.5103
  219MPD1    C5 3381   2.421   3.611  12.029  0.5255  0.0025 -0.7364
  219MPD1     H 3382   2.069   3.763  12.008 -0.5373  1.0161 -0.7988
  219MPD1    H1 3383   2.377   3.569  12.230 -1.9712 -0.9227 -0.4395
  219MPD1    H2 3384   2.471   3.699  11.854 -0.1961 -0.8872  0.2765
  219MPD1    H3 3385   2.517   3.568  12.054  1.2564  0.2331 -3.1412
  219MPD1     N 3386   2.133   3.684  12.265 -0.2692 -0.3128  0.5306
  219MPD1    H5 3387   2.172   3.642  12.349 -0.5132 -2.6733 -0.5399
  219MPD1    N1 3388   2.213   3.791  11.805  0.3130 -0.7825 -0.5826
  219MPD1    H6 3389   2.142   3.860  11.826  0.5038 -0.6651 -0.3175
  219MPD1    H7 3390   2.282   3.803  11.731  0.2705  0.3456 -0.4290
  220MPD1     C 3391   1.653   0.032   9.666 -0.2255  0.9428 -0.0131
  220MPD1    C1 3392   1.770   4.735   9.725 -0.6163 -0.1164  0.3755
  220MPD1    C2 3393   1.760   4.632   9.812 -0.6913 -0.6375 -0.5585
  220MPD1    C3 3394   1.646   4.572   9.854 -0.7826 -0.1557 -0.3999
  220MPD1    C4 3395   1.523   4.617   9.811 -0.5185 -0.0805  0.0597
  220MPD1    C5 3396   1.538   4.717   9.716  0.5759 -0.5308  0.0707
  220MPD1     H 3397   1.853   4.597   9.855  0.0325  1.8456 -0.0779
  220MPD1    H1 3398   1.424   4.582   9.840 -0.1292  0.7786  2.5066
  220MPD1    H2 3399   1.643   0.114   9.596  1.6319  1.3379  0.1933
  220MPD1    H3 3400   1.450   0.030   9.679 -0.5177 -2.7421 -0.3495
  220MPD1     N 3401   1.662   4.474   9.957  0.0890  0.0142  0.2241
  220MPD1    H5 3402   1.752   4.448   9.994  0.0627  0.2264  0.4359
  220MPD1    N1 3403   1.893   0.040   9.664 -0.2199  0.1214 -0.0607
  220MPD1    H6 3404   1.971   0.018   9.726 -2.2970  0.2996  2.6434
  220MPD1    H7 3405   1.909   0.121   9.604  1.2574 -0.4875 -0.5009
  221MPD1     C 3406   0.368   3.497  15.852 -0.2557 -0.7295  0.2317
  221MPD1    C1 3407   0.386   3.436  15.972  0.1705  0.8462 -1.0173
  221MPD1    C2 3408   0.446   3.306  15.974  0.1305  0.4288  0.3358
  221MPD1    C3 3409   0.475   3.236  15.855  0.4261 -0.0577 -0.0916
  221MPD1    C4 3410   0.436   3.290  15.732  0.2661 -0.0454  0.2872
  221MPD1    C5 3411   0.390   3.427  15.736  0.6792 -0.2642 -0.0689
  221MPD1     H 3412   0.455   3.251  16.067  0.8459 -0.5352 -0.3129
  221MPD1    H1 3413   0.454   3.248  15.634  1.6608  0.0589  0.5050
  221MPD1    H2 3414   0.342   3.602  15.842 -0.3789 -0.7220  0.6565
  221MPD1    H3 3415   0.362   3.466  15.639 -0.8270  0.7816  0.7903
  221MPD1     N 3416   0.509   3.100  15.851  0.7010 -0.2615 -0.3950
  221MPD1    H5 3417   0.497   3.056  15.760  0.8919 -0.8351 -0.1438
  221MPD1    N1 3418   0.328   3.492  16.094 -0.3853  0.2298 -0.0551
  221MPD1    H6 3419   0.342   3.593  16.096  1.0858  0.0344 -0.4620
  221MPD1    H7 3420   0.376   3.459  16.178  0.5323  0.5342 -0.4567
  222MPD1     C 3421   3.991   2.215   0.031 -0.3761  0.0112 -0.1228
  222MPD1    C1 3422   3.923   2.283  17.681  0.3945 -0.2195  0.2567
  222MPD1    C2 3423   3.906   2.415  17.704 -0.4203  0.3446 -0.5693
  222MPD1    C3 3424   3.927   2.476   0.076  0.3759 -0.7734 -0.1998
  222MPD1    C4 3425   3.993   2.403   0.178 -0.1001  0.2092  0.4151
  222MPD1    C5 3426   4.030   2.275   0.147  0.6051 -0.3325 -0.1731
  222MPD1     H 3427   3.850   2.465  17.626 -1.1855  2.5057  1.3505
  222MPD1    H1 3428   4.016   2.444   0.276 -2.7090 -0.3737  1.2719
  222MPD1    H2 3429   4.004   2.108   0.021 -0.7415  0.0750 -1.3163
  222MPD1    H3 3430   4.069   2.205   0.220  1.6371  1.3540  0.8942
  222MPD1     N 3431   3.885   2.604   0.116 -0.5076 -0.2540  0.1718
  222MPD1    H5 3432   3.911   2.628   0.211  1.2868 -2.0998  0.1625
  222MPD1    N1 3433   3.894   2.235  17.545 -0.0727  0.6452 -0.4305
  222MPD1    H6 3434   3.889   2.134  17.538  1.3237  0.4221  1.6217
  222MPD1    H7 3435   3.805   2.277  17.517 -0.2623 -1.2419 -2.6429
  223MPD1     C 3436   3.388   3.533  17.567 -0.2463  0.4976  0.9933
  223MPD1    C1 3437   3.506   3.560  17.643  0.0305 -0.8005  0.0384
  223MPD1    C2 3438   3.561   3.460  17.709  0.0182  1.0630  0.5616
  223MPD1    C3 3439   3.512   3.332  17.713  0.3430 -0.4222 -0.6052
  223MPD1    C4 3440   3.394   3.306  17.650 -0.0770 -0.0053  0.2325
  223MPD1    C5 3441   3.332   3.411  17.578 -0.7568 -0.3529 -0.0559
  223MPD1     H 3442   3.656   3.479   0.008  1.7137 -3.2269 -1.0794
  223MPD1    H1 3443   3.355   3.205  17.650 -2.3062  0.8445  0.2515
  223MPD1    H2 3444   3.339   3.609  17.507  0.2596  0.3620  0.4178
  223MPD1    H3 3445   3.244   3.393  17.519 -0.6961 -2.1985  0.4139
  223MPD1     N 3446   3.585   3.231   0.035 -0.0855  0.2710  0.6804
  223MPD1    H5 3447   3.670   3.260   0.081 -0.2882  0.3190  1.0225
  223MPD1    N1 3448   3.555   3.689  17.667 -0.3245  0.1953 -0.3322
  223MPD1    H6 3449   3.652   3.701  17.696 -1.2252  0.2831  2.6656
  223MPD1    H7 3450   3.535   3.762  17.599 -0.0470 -0.6876 -1.3546
  224MPD1     C 3451   4.520   3.238   9.429 -0.3958 -0.5080 -0.2278
  224MPD1    C1 3452   4.612   3.135   9.405 -0.1157 -0.7531  0.2725
  224MPD1    C2 3453   0.002   3.151   9.449  0.7530  0.3525  0.5275
  224MPD1    C3 3454   0.037   3.256   9.530 -0.7447  0.4451  0.3652
  224MPD1    C4 3455   4.682   3.354   9.560 -0.3068 -0.3637 -0.1262
  224MPD1    C5 3456   4.562   3.347   9.496 -0.2369  0.4357 -0.0229
  224MPD1     H 3457   0.070   3.070   9.426  1.0105  0.4243  1.0395
  224MPD1    H1 3458   4.710   3.439   9.621  0.6318 -0.4115 -0.4869
  224MPD1    H2 3459   4.415   3.237   9.401 -0.4940 -0.4798  0.1423
  224MPD1    H3 3460   4.497   3.433   9.509 -0.9917  0.1448 -1.8169
  224MPD1     N 3461   0.166   3.272   9.586 -0.2755 -0.3525 -0.1075
  224MPD1    H5 3462   0.184   3.352   9.646  1.7222 -0.5816 -0.4201
  224MPD1    N1 3463   4.580   3.029   9.317 -0.4800  0.4501  0.0352
  224MPD1    H6 3464   4.480   3.020   9.301 -0.7162  1.7117  0.7635
  224MPD1    H7 3465   4.615   2.937   9.343 -1.8325 -0.4197 -1.2354
  225MPD1     C 3466   2.049   0.185  12.218  0.9028  0.0277  0.7593
  225MPD1    C1 3467   2.068   0.067  12.271 -0.0059 -0.0418 -0.6346
  225MPD1    C2 3468   1.982   4.702  12.237 -0.0365  0.1400  0.0527
  225MPD1    C3 3469   1.877   4.723  12.146  0.2150 -0.0574 -0.0831
  225MPD1    C4 3470   1.862   0.114  12.098  0.2840  0.0553  0.6084
  225MPD1    C5 3471   1.955   0.207  12.120  0.0787 -0.3407 -0.1314
  225MPD1     H 3472   1.995   4.605  12.283  0.1842  0.2528  0.2201
  225MPD1    H1 3473   1.778   0.144  12.036  0.6397 -0.6681 -0.2188
  225MPD1    H2 3474   2.117   0.262  12.253  2.2429 -0.5237 -0.6242
  225MPD1    H3 3475   1.954   0.308  12.080 -1.8332  0.9296  3.1655
  225MPD1     N 3476   1.783   4.617  12.120 -0.0278  0.3313  0.0535
  225MPD1    H5 3477   1.697   4.658  12.084  0.9976  0.4692 -2.1872
  225MPD1    N1 3478   2.181   0.035  12.352 -0.8034  0.2385  0.2694
  225MPD1    H6 3479   2.223   0.118  12.393  0.6623 -0.3303 -0.0811
  225MPD1    H7 3480   2.250   4.725  12.294  1.3911 -0.2070  3.2915
  226MPD1     C 3481   0.115   0.639   8.778 -0.1411  0.0323 -0.4598
  226MPD1    C1 3482   0.228   0.620   8.857  0.3118 -0.1960 -0.0699
  226MPD1    C2 3483   0.223   0.523   8.956 -0.1041 -0.3090  0.1944
  226MPD1    C3 3484   0.112   0.443   8.980  0.1203 -0.2000 -0.5771
  226MPD1    C4 3485   0.003   0.472   8.907 -0.2719  0.5538  0.1272
  226MPD1    C5 3486   0.004   0.570   8.811 -0.3707  0.2224 -0.0797
  226MPD1     H 3487   0.309   0.515   9.022  0.1904  0.3301 -0.1109
  226MPD1    H1 3488   4.650   0.412   8.904  0.6122 -0.7337 -0.8317
  226MPD1    H2 3489   0.117   0.692   8.683 -0.9023  0.1415 -0.4168
  226MPD1    H3 3490   4.652   0.585   8.751 -0.9819 -1.5201  0.3852
  226MPD1     N 3491   0.123   0.332   9.068 -0.4185 -0.4388  0.7653
  226MPD1    H5 3492   0.215   0.297   9.094  0.4301  1.1364 -0.1193
  226MPD1    N1 3493   0.347   0.682   8.814 -0.1276  0.8367  0.3690
  226MPD1    H6 3494   0.394   0.715   8.898  1.5596  0.0889 -0.2904
  226MPD1    H7 3495   0.334   0.766   8.757 -2.1850  0.1838 -0.1289
  227MPD1     C 3496   4.204   4.315   9.378  0.4082 -0.1848 -0.3141
  227MPD1    C1 3497   4.175   4.447   9.339 -0.3589  0.0171  0.0499
  227MPD1    C2 3498   4.280   4.535   9.321 -0.3503 -0.6477  1.1372
  227MPD1    C3 3499   4.412   4.494   9.343 -0.0511 -0.1580  0.3572
  227MPD1    C4 3500   4.438   4.365   9.389 -0.9720 -0.4510  0.0848
  227MPD1    C5 3501   4.334   4.280   9.414 -0.2502 -0.5192  0.2524
  227MPD1     H 3502   4.265   4.626   9.264  1.3302 -1.6412 -0.8944
  227MPD1    H1 3503   4.535   4.333   9.428  0.2329  2.2814 -0.6247
  227MPD1    H2 3504   4.121   4.246   9.371 -0.7741  1.1997 -0.0381
  227MPD1    H3 3505   4.356   4.181   9.450 -3.2711 -1.4202 -0.3527
  227MPD1     N 3506   4.515   4.588   9.313  0.3276 -0.2705  0.0159
  227MPD1    H5 3507   4.494   4.684   9.288 -1.6865 -1.3206 -2.3671
  227MPD1    N1 3508   4.048   4.483   9.294  0.0616 -0.2753 -0.2574
  227MPD1    H6 3509   4.041   4.582   9.318  0.9944 -0.2094 -0.2707
  227MPD1    H7 3510   3.972   4.440   9.348  0.7927  0.7253  1.5757
  228MPD1     C 3511   4.031   1.574  13.148 -0.4880  0.3984 -0.3167
  228MPD1    C1 3512   4.049   1.692  13.081 -0.1697  0.6919  0.1241
  228MPD1    C2 3513   3.930   1.758  13.051 -0.9034 -0.2701  0.2249
  228MPD1    C3 3514   3.815   1.695  13.074  0.0755 -0.2225 -0.5165
  228MPD1    C4 3515   3.802   1.572  13.129 -0.0351  0.2760 -0.3861
  228MPD1    C5 3516   3.915   1.514  13.175  0.1019 -0.0889  0.3321
  228MPD1     H 3517   3.929   1.851  12.995  2.5221 -1.1554 -1.2974
  228MPD1    H1 3518   3.706   1.524  13.146  0.0508  0.9444  2.0130
  228MPD1    H2 3519   4.112   1.515  13.189 -0.5338  1.7569  1.7834
  228MPD1    H3 3520   3.919   1.421  13.230  2.5516  0.4857  1.1575
  228MPD1     N 3521   3.699   1.769  13.055 -0.3706  0.1074  0.4581
  228MPD1    H5 3522   3.720   1.848  12.994  0.5672 -0.1128  0.4959
  228MPD1    N1 3523   4.174   1.763  13.080 -0.0996 -0.3578 -0.2882
  228MPD1    H6 3524   4.261   1.712  13.092 -0.3712 -0.4265  1.3720
  228MPD1    H7 3525   4.182   1.844  13.018  0.4048 -0.6595 -0.6154
  229MPD1     C 3526   3.399   1.753  14.312 -0.4593  0.2216  0.3141
  229MPD1    C1 3527   3.293   1.722  14.390  0.0709  0.4296 -0.7784
  229MPD1    C2 3528   3.308   1.652  14.506  0.8622  0.4056  0.2094
  229MPD1    C3 3529   3.435   1.625  14.549  0.8913 -0.1407  0.3578
  229MPD1    C4 3530   3.544   1.657  14.475 -0.5881  0.0698  0.0397
  229MPD1    C5 3531   3.529   1.730  14.360  0.1445  0.2365 -0.5505
  229MPD1     H 3532   3.216   1.630  14.561  0.1973  0.3450 -0.9246
  229MPD1    H1 3533   3.637   1.612  14.511 -0.6465  0.6854  0.9644
  229MPD1    H2 3534   3.379   1.805  14.219 -1.7056  1.0766  1.0499
  229MPD1    H3 3535   3.613   1.748  14.295  0.2744 -0.0300 -0.4562
  229MPD1     N 3536   3.463   1.553  14.669  0.5527 -0.4232 -0.3020
  229MPD1    H5 3537   3.557   1.570  14.704  0.9153 -2.8601 -0.0779
  229MPD1    N1 3538   3.169   1.726  14.334  0.5260 -0.2363 -0.1393
  229MPD1    H6 3539   3.111   1.731  14.418 -1.4140  1.0747 -1.5582
  229MPD1    H7 3540   3.139   1.812  14.288  0.4486 -0.3269 -0.2600
  230MPD1     C 3541   3.954   1.812  15.440 -0.3244  0.4705 -0.3182
  230MPD1    C1 3542   3.976   1.676  15.443 -0.1633  0.0951 -0.3509
  230MPD1    C2 3543   3.872   1.598  15.396  0.2760 -0.0338  0.9220
  230MPD1    C3 3544   3.774   1.657  15.319 -0.9320  0.6258 -0.3394
  230MPD1    C4 3545   3.766   1.798  15.308 -0.2536  0.1323 -0.1749
  230MPD1    C5 3546   3.853   1.870  15.383  0.2756  0.0264 -0.0546
  230MPD1     H 3547   3.877   1.490  15.393 -1.0952 -0.0847  0.6402
  230MPD1    H1 3548   3.684   1.843  15.253  0.6124  0.7185 -0.9911
  230MPD1    H2 3549   4.020   1.870  15.503  1.0262  1.2500 -2.4640
  230MPD1    H3 3550   3.825   1.974  15.397  0.9599  0.3347 -0.9399
  230MPD1     N 3551   3.684   1.576  15.252 -0.4155 -0.0231  0.1000
  230MPD1    H5 3552   3.682   1.478  15.279 -0.1073 -0.3457 -1.0227
  230MPD1    N1 3553   4.084   1.621  15.517  0.7287  0.4008  0.3877
  230MPD1    H6 3554   4.093   1.522  15.495  0.6045  0.5732 -0.4248
  230MPD1    H7 3555   4.176   1.659  15.495 -0.1155  1.0341 -1.9557
  231MPD1     C 3556   2.097   2.988  15.341  0.2699  0.8467  0.8400
  231MPD1    C1 3557   1.992   3.008  15.255 -0.2553 -0.3573  0.3760
  231MPD1    C2 3558   2.002   3.099  15.155  0.8721  0.1538  0.6964
  231MPD1    C3 3559   2.111   3.181  15.148  0.5428 -0.4066 -0.6017
  231MPD1    C4 3560   2.220   3.160  15.232 -0.4757  0.0192 -0.3903
  231MPD1    C5 3561   2.209   3.062  15.327  0.3227 -0.0410  0.8763
  231MPD1     H 3562   1.914   3.099  15.092  2.1022  1.2289 -1.0029
  231MPD1    H1 3563   2.310   3.219  15.224 -0.0993 -0.6342 -1.0624
  231MPD1    H2 3564   2.102   2.909  15.416 -2.4606  0.8898  1.0614
  231MPD1    H3 3565   2.298   3.042  15.386  0.1294 -2.1598  0.4263
  231MPD1     N 3566   2.102   3.275  15.045 -0.8472  0.3579  0.4278
  231MPD1    H5 3567   2.032   3.255  14.974  0.7592 -0.6307 -0.8618
  231MPD1    N1 3568   1.871   2.945  15.287 -0.1907  0.4963  0.0658
  231MPD1    H6 3569   1.888   2.854  15.328 -0.2476  2.5295  4.6307
  231MPD1    H7 3570   1.799   2.931  15.216 -0.2736 -0.7892  0.4099
  232MPD1     C 3571   3.588   1.070   0.430 -0.4041  0.2338  0.0840
  232MPD1    C1 3572   3.497   0.983   0.474 -0.1855  0.1022 -0.1387
  232MPD1    C2 3573   3.380   0.969   0.392  0.2226 -0.2241  0.0578
  232MPD1    C3 3574   3.378   1.018   0.262 -0.2159  0.4840 -0.5403
  232MPD1    C4 3575   3.478   1.101   0.216  0.6469 -0.4563  0.3902
  232MPD1    C5 3576   3.576   1.127   0.306 -0.6963 -0.2251  0.3673
  232MPD1     H 3577   3.298   0.905   0.424 -0.6261  0.5718 -0.5090
  232MPD1    H1 3578   3.487   1.141   0.115 -1.6961 -1.6850 -0.3137
  232MPD1    H2 3579   3.678   1.093   0.486  0.7809 -1.4842 -1.1496
  232MPD1    H3 3580   3.664   1.183   0.277 -0.2941  0.5143  3.0716
  232MPD1     N 3581   3.275   0.977   0.173  0.1634 -0.0317 -0.1893
  232MPD1    H5 3582   3.198   0.932   0.221 -0.4838  1.1108 -0.1745
  232MPD1    N1 3583   3.497   0.951   0.609  0.0794 -0.0738  0.4889
  232MPD1    H6 3584   3.454   0.861   0.628 -0.7651 -0.0926 -1.5100
  232MPD1    H7 3585   3.591   0.955   0.648 -0.1639 -1.2848  1.2012
  233MPD1     C 3586   4.169   4.022   0.564 -0.3458 -0.1961 -0.1827
  233MPD1    C1 3587   4.156   3.944   0.672 -0.3338 -0.2555 -0.1049
  233MPD1    C2 3588   4.264   3.928   0.760 -0.1184  0.5817  0.0814
  233MPD1    C3 3589   4.375   4.008   0.750  0.2349 -0.2254  0.3356
  233MPD1    C4 3590   4.387   4.090   0.640  1.3194  0.3117 -0.5653
  233MPD1    C5 3591   4.287   4.089   0.547 -1.3599  0.0680 -0.2491
  233MPD1     H 3592   4.259   3.851   0.836 -2.6657  1.1229  0.4897
  233MPD1    H1 3593   4.469   4.159   0.623  1.6925  0.2858  1.0669
  233MPD1    H2 3594   4.094   4.027   0.485 -0.1014  0.1338 -0.3959
  233MPD1    H3 3595   4.286   4.161   0.467  1.2993  1.3604  0.8778
  233MPD1     N 3596   4.475   4.016   0.846 -0.1091  0.0688 -0.1710
  233MPD1    H5 3597   4.546   4.088   0.838 -0.9060  0.3894 -4.2975
  233MPD1    N1 3598   4.048   3.853   0.676  0.5918 -0.2502  0.4434
  233MPD1    H6 3599   4.033   3.812   0.768 -0.1589  0.1207  0.4843
  233MPD1    H7 3600   3.961   3.894   0.642 -0.0339 -1.3569  0.7058
  234MPD1     C 3601   1.287   1.604   9.744 -0.1568 -0.3853 -0.0489
  234MPD1    C1 3602   1.277   1.637   9.610  0.1907 -1.0025 -0.7062
  234MPD1    C2 3603   1.240   1.770   9.588 -0.0171 -0.3007 -0.2589
  234MPD1    C3 3604   1.246   1.866   9.688  0.0965  1.4706 -0.3540
  234MPD1    C4 3605   1.264   1.826   9.817 -0.4305  0.4589  0.3720
  234MPD1    C5 3606   1.286   1.695   9.846 -0.1362  1.0757  0.7125
  234MPD1     H 3607   1.212   1.802   9.488 -0.0106 -0.3984 -0.2921
  234MPD1    H1 3608   1.266   1.895   9.900 -0.1770  0.4565  0.3683
  234MPD1    H2 3609   1.285   1.503   9.783 -1.4358  0.2543  1.5469
  234MPD1    H3 3610   1.282   1.656   9.948 -0.8047  0.7748  0.5678
  234MPD1     N 3611   1.206   1.998   9.653 -0.0367 -0.3540 -0.0591
  234MPD1    H5 3612   1.184   2.006   9.554 -0.7713  0.3995  0.1636
  234MPD1    N1 3613   1.249   1.534   9.516 -0.4461  0.3040  0.1368
  234MPD1    H6 3614   1.302   1.448   9.528 -0.3184  0.2910 -0.4908
  234MPD1    H7 3615   1.256   1.561   9.418  0.5898  0.5064  0.2629
  235MPD1     C 3616   2.233   4.421  10.216 -0.3957 -0.1263  0.0336
  235MPD1    C1 3617   2.169   4.536  10.170  0.2900  0.6609 -0.7428
  235MPD1    C2 3618   2.254   4.638  10.133  0.0940  0.8290  0.2672
  235MPD1    C3 3619   2.387   4.629  10.143 -0.3886  0.3765 -0.8680
  235MPD1    C4 3620   2.442   4.510  10.183  0.2661  0.3571  0.4212
  235MPD1    C5 3621   2.365   4.412  10.223 -0.3000 -0.0856 -0.7605
  235MPD1     H 3622   2.215   4.735  10.105  0.5653  1.0250  0.2929
  235MPD1    H1 3623   2.549   4.494  10.190  0.0472 -0.5272  1.8448
  235MPD1    H2 3624   2.184   4.330  10.249  0.0175  0.0907  1.2402
  235MPD1    H3 3625   2.405   4.325  10.273  0.3623  1.3576  1.2295
  235MPD1     N 3626   2.461   0.003  10.109  0.2167  0.4795  0.6822
  235MPD1    H5 3627   2.410   0.076  10.059 -0.4808 -0.9445 -0.6914
  235MPD1    N1 3628   2.026   4.545  10.149 -0.0958 -0.7791 -0.2686
  235MPD1    H6 3629   1.979   4.509  10.231 -3.4945 -1.9830 -2.7698
  235MPD1    H7 3630   1.985   4.638  10.147  2.1471  0.2177  0.1191
  236MPD1     C 3631   1.410   1.092   9.632  0.8884 -0.7161 -0.2362
  236MPD1    C1 3632   1.493   1.197   9.607  0.1045 -0.1508  0.1662
  236MPD1    C2 3633   1.601   1.212   9.689  0.0458  0.2066 -0.5895
  236MPD1    C3 3634   1.624   1.127   9.799 -0.5120 -0.1784  0.1473
  236MPD1    C4 3635   1.548   1.015   9.813  0.2811  0.0482  0.5980
  236MPD1    C5 3636   1.440   1.009   9.735 -0.0033  0.6965  0.2983
  236MPD1     H 3637   1.666   1.298   9.679  0.5358 -0.0763  0.1532
  236MPD1    H1 3638   1.562   0.933   9.883 -3.2543  0.9245  2.2974
  236MPD1    H2 3639   1.317   1.063   9.584  1.5758 -0.5227 -1.6891
  236MPD1    H3 3640   1.373   0.925   9.753  0.9328  0.0333  0.6804
  236MPD1     N 3641   1.738   1.145   9.890 -0.4980  0.5464  0.1038
  236MPD1    H5 3642   1.750   1.065   9.952 -2.6771 -0.9564 -1.3892
  236MPD1    N1 3643   1.449   1.299   9.526 -0.4338 -0.0373  0.7026
  236MPD1    H6 3644   1.518   1.370   9.503  0.0602 -0.5206  0.7015
  236MPD1    H7 3645   1.391   1.264   9.450 -0.6484  1.8133  0.0272
  237MPD1     C 3646   2.546   4.638  14.460 -0.1837  0.0644  0.1663
  237MPD1    C1 3647   2.436   4.642  14.382 -1.0596  0.6238 -0.1068
  237MPD1    C2 3648   2.343   4.543  14.405  0.0157 -0.0655  0.1895
  237MPD1    C3 3649   2.338   4.456  14.509  0.2052 -0.8793 -0.0689
  237MPD1    C4 3650   2.452   4.455  14.592 -0.2134 -0.0161  0.1949
  237MPD1    C5 3651   2.558   4.544  14.567 -0.5824  0.0962  0.4809
  237MPD1     H 3652   2.268   4.537  14.327 -0.9816  1.2047  1.0610
  237MPD1    H1 3653   2.466   4.382  14.671  0.2458  0.5646  0.6514
  237MPD1    H2 3654   2.631   4.706  14.455  0.7234 -1.2206 -2.0599
  237MPD1    H3 3655   2.642   4.557  14.635  0.6182  0.8818 -1.1749
  237MPD1     N 3656   2.228   4.370  14.530  0.3140 -0.2849 -0.0119
  237MPD1    H5 3657   2.153   4.387  14.465 -1.2001 -0.9582  1.5614
  237MPD1    N1 3658   2.425   4.723  14.271  0.3764 -0.5060  0.4806
  237MPD1    H6 3659   2.330   4.737  14.239 -0.3318 -1.2012  2.3087
  237MPD1    H7 3660   2.459   0.081  14.285 -2.1957  0.6470 -1.1534
  238MPD1     C 3661   3.850   3.068  15.126 -0.0750  0.1055 -0.7391
  238MPD1    C1 3662   3.902   3.034  15.005 -0.4815 -0.1672  0.0249
  238MPD1    C2 3663   3.810   3.004  14.911  0.4970  0.8002  0.8353
  238MPD1    C3 3664   3.675   2.998  14.929  1.0273  0.0121 -0.3610
  238MPD1    C4 3665   3.630   3.039  15.048  0.2143 -0.3126  0.3615
  238MPD1    C5 3666   3.717   3.079  15.145  0.6494  0.0651 -0.0501
  238MPD1     H 3667   3.837   2.966  14.813  2.5897 -0.2726  1.8297
  238MPD1    H1 3668   3.524   3.056  15.060  0.1906 -1.1092  1.2555
  238MPD1    H2 3669   3.911   3.105  15.208 -1.6155  0.7814  0.1206
  238MPD1    H3 3670   3.685   3.112  15.243  0.9567 -0.9949  0.4082
  238MPD1     N 3671   3.575   2.962  14.836 -0.5534  0.1636  0.4238
  238MPD1    H5 3672   3.480   2.956  14.873 -0.0526 -1.5401  1.4011
  238MPD1    N1 3673   4.035   3.047  14.971  0.4075 -0.0217 -0.7406
  238MPD1    H6 3674   4.099   2.980  15.015  0.3899  0.5921  0.2335
  238MPD1    H7 3675   4.049   3.026  14.873 -0.5256  0.7864 -1.0389
  239MPD1     C 3676   3.879   3.512  14.893  0.5260  0.0322 -0.6267
  239MPD1    C1 3677   3.957   3.468  14.787 -0.6183 -0.3163  0.5789
  239MPD1    C2 3678   3.954   3.541  14.665  0.3756  0.5195  0.1699
  239MPD1    C3 3679   3.859   3.646  14.648 -0.1868  0.1752 -0.6216
  239MPD1    C4 3680   3.771   3.674  14.755  0.1798  0.4165  0.4404
  239MPD1    C5 3681   3.787   3.612  14.873  0.7768  0.5151 -0.3161
  239MPD1     H 3682   4.023   3.508  14.587 -1.5349  2.8516 -2.5006
  239MPD1    H1 3683   3.686   3.741  14.748  1.6656  2.2533  0.0413
  239MPD1    H2 3684   3.877   3.457  14.986  1.3976  1.7292  0.4004
  239MPD1    H3 3685   3.733   3.650  14.959  1.5525  0.6892  0.0916
  239MPD1     N 3686   3.833   3.718  14.530 -0.1586  0.3501 -0.5759
  239MPD1    H5 3687   3.749   3.773  14.541  2.5350  4.1610  1.2200
  239MPD1    N1 3688   4.052   3.370  14.818  0.1098 -1.1787  0.6591
  239MPD1    H6 3689   4.083   3.315  14.737 -3.1120 -2.3617  0.2228
  239MPD1    H7 3690   4.032   3.313  14.900  0.4849 -1.1849  0.7471
  240MPD1     C 3691   3.344   3.616  13.674  0.4578  0.4710 -0.0987
  240MPD1    C1 3692   3.406   3.514  13.747  0.1722 -0.3335  1.0744
  240MPD1    C2 3693   3.332   3.446  13.845 -0.2605  0.3708  0.0849
  240MPD1    C3 3694   3.203   3.481  13.856 -1.0593 -0.5722 -0.3660
  240MPD1    C4 3695   3.140   3.575  13.766 -0.5981 -0.1881  1.0456
  240MPD1    C5 3696   3.210   3.638  13.674  0.2760 -0.1510  0.0821
  240MPD1     H 3697   3.385   3.374  13.907  0.1576  1.9239  1.5244
  240MPD1    H1 3698   3.038   3.606  13.787 -0.5454  0.9271 -0.3652
  240MPD1    H2 3699   3.405   3.672  13.605 -0.3921  0.2691 -1.0135
  240MPD1    H3 3700   3.171   3.720  13.615 -0.0046 -0.0854  0.3599
  240MPD1     N 3701   3.126   3.425  13.963 -0.5634  0.7942  0.8680
  240MPD1    H5 3702   3.175   3.361  14.025 -0.9286  0.8681  1.2262
  240MPD1    N1 3703   3.539   3.494  13.742 -0.8296  0.1485  0.7617
  240MPD1    H6 3704   3.585   3.493  13.652 -0.5109 -0.1730  0.9250
  240MPD1    H7 3705   3.580   3.417  13.795 -0.5163 -0.9902 -1.1562
  241MPD1     C 3706   3.573   3.225  14.618  0.3560  0.1526 -0.7503
  241MPD1    C1 3707   3.448   3.233  14.685 -0.4329  0.0053  0.0689
  241MPD1    C2 3708   3.334   3.240  14.611  0.2653  0.0153 -0.4462
  241MPD1    C3 3709   3.337   3.253  14.472  0.3661 -0.3922  0.2670
  241MPD1    C4 3710   3.462   3.236  14.409 -0.3048 -0.3312 -0.2744
  241MPD1    C5 3711   3.572   3.210  14.480 -0.0207 -0.0542 -0.0081
  241MPD1     H 3712   3.241   3.255  14.664  0.4477  2.0642 -0.7299
  241MPD1    H1 3713   3.470   3.240  14.301  0.5541 -1.0860 -0.2399
  241MPD1    H2 3714   3.666   3.209  14.670  0.5603  0.3171 -1.0634
  241MPD1    H3 3715   3.668   3.190  14.434 -0.1017 -1.4033  0.4044
  241MPD1     N 3716   3.222   3.272  14.389 -0.9308  0.0597 -0.4685
  241MPD1    H5 3717   3.233   3.281  14.289  0.5561  2.1749 -0.1013
  241MPD1    N1 3718   3.455   3.254  14.821 -0.5475 -0.1875 -0.7063
  241MPD1    H6 3719   3.546   3.218  14.850 -1.3534 -2.0264 -0.4084
  241MPD1    H7 3720   3.373   3.219  14.871  0.7552  1.5548  2.6054
  242MPD1     C 3721   2.729   1.422  15.444  0.0879 -0.0633 -0.3186
  242MPD1    C1 3722   2.803   1.533  15.473  1.2157 -0.4856 -0.2013
  242MPD1    C2 3723   2.834   1.618  15.369 -0.6335  0.2794 -0.5412
  242MPD1    C3 3724   2.812   1.581  15.234 -0.1419  0.3509  0.1648
  242MPD1    C4 3725   2.757   1.456  15.211 -0.4369 -0.0337  0.1089
  242MPD1    C5 3726   2.727   1.373  15.313 -0.2274  0.3170 -0.4956
  242MPD1     H 3727   2.882   1.713  15.388  1.7857 -1.3983  1.8775
  242MPD1    H1 3728   2.756   1.427  15.106  2.2545 -3.4715  1.0097
  242MPD1    H2 3729   2.700   1.347  15.516  0.3432  0.0924 -0.0551
  242MPD1    H3 3730   2.684   1.277  15.287  2.2897 -0.7444 -0.8218
  242MPD1     N 3731   2.840   1.659  15.124 -0.0806 -0.5640 -0.2464
  242MPD1    H5 3732   2.833   1.608  15.037  1.2986 -1.0299 -0.0880
  242MPD1    N1 3733   2.821   1.576  15.609 -1.1204  0.2244 -0.4112
  242MPD1    H6 3734   2.912   1.621  15.619 -0.0817 -1.9362 -0.1998
  242MPD1    H7 3735   2.826   1.494  15.669  0.7743  0.1082 -0.7480
  243MPD1     C 3736   3.676   0.545  17.574 -0.3932  0.3889  0.7030
  243MPD1    C1 3737   3.758   0.613  17.488 -0.3829 -1.3425  0.2799
  243MPD1    C2 3738   3.880   0.562  17.458  0.7130  0.8218  0.2962
  243MPD1    C3 3739   3.918   0.439  17.515  0.2535  0.0204 -0.0270
  243MPD1    C4 3740   3.836   0.371  17.611  0.1484 -0.2757  0.0759
  243MPD1    C5 3741   3.708   0.424  17.625  0.5173  0.2905  0.2489
  243MPD1     H 3742   3.950   0.610  17.391 -0.4307 -0.0207 -1.5157
  243MPD1    H1 3743   3.865   0.274  17.649 -0.4465 -0.1798  0.7700
  243MPD1    H2 3744   3.574   0.574  17.596  0.1606  2.3800  0.6396
  243MPD1    H3 3745   3.647   0.354  17.681 -2.9365  2.8885 -0.2162
  243MPD1     N 3746   4.054   0.403  17.498  0.0047  0.2999  0.3458
  243MPD1    H5 3747   4.104   0.458  17.428 -1.8154  0.3569 -0.9218
  243MPD1    N1 3748   3.710   0.723  17.420  0.5234 -0.0789 -0.2495
  243MPD1    H6 3749   3.631   0.776  17.457  1.1281 -0.5719  1.7366
  243MPD1    H7 3750   3.786   0.784  17.390  1.7932  0.2919  3.6957
  244MPD1     C 3751   0.193   0.452   0.332 -0.2507  0.4396 -0.6973
  244MPD1    C1 3752   0.215   0.380   0.219  0.1474  0.0552  0.0975
  244MPD1    C2 3753   0.120   0.375   0.121 -0.2915 -0.1160 -0.1959
  244MPD1    C3 3754   4.734   0.432   0.139  0.0535 -0.0495  0.1576
  244MPD1    C4 3755   4.707   0.506   0.251  0.6144 -0.3545  0.7180
  244MPD1    C5 3756   0.067   0.508   0.353 -0.7118  1.0027  0.0138
  244MPD1     H 3757   0.146   0.335   0.023 -2.5813 -0.9325 -0.4700
  244MPD1    H1 3758   4.606   0.532   0.280  0.6848  1.3837 -0.5949
  244MPD1    H2 3759   0.274   0.459   0.404 -1.5581  1.7962  0.6443
  244MPD1    H3 3760   0.047   0.557   0.447 -0.5093  0.1050  0.5266
  244MPD1     N 3761   4.638   0.420   0.038 -0.0698  0.0969 -0.8359
  244MPD1    H5 3762   4.660   0.354  17.714 -0.4044 -1.4884  0.4930
  244MPD1    N1 3763   0.339   0.322   0.199 -0.0071 -0.0073  0.6354
  244MPD1    H6 3764   0.326   0.242   0.136  0.5002 -1.3221  2.2081
  244MPD1    H7 3765   0.394   0.307   0.283  2.5320 -3.5157 -1.6742
  245MPD1     C 3766   1.521   0.683  13.038 -0.3351  0.3220  0.0691
  245MPD1    C1 3767   1.653   0.689  13.007 -0.6910 -0.2335  0.0684
  245MPD1    C2 3768   1.730   0.799  13.055  0.1082  0.2934  0.3618
  245MPD1    C3 3769   1.672   0.901  13.134 -0.6233  0.0395 -0.0387
  245MPD1    C4 3770   1.538   0.882  13.171  0.3318  0.3581 -0.0978
  245MPD1    C5 3771   1.458   0.781  13.116  0.3346  0.3328 -0.3641
  245MPD1     H 3772   1.834   0.807  13.025 -0.3530 -1.5685 -1.7720
  245MPD1    H1 3773   1.490   0.952  13.238 -0.0424 -0.7693  0.8167
  245MPD1    H2 3774   1.456   0.605  12.998 -0.5252  0.5420 -0.0536
  245MPD1    H3 3775   1.353   0.776  13.143  1.2060 -0.2047  2.8609
  245MPD1     N 3776   1.745   1.014  13.167 -0.2605  0.0567 -0.0510
  245MPD1    H5 3777   1.841   1.017  13.135 -0.1303  0.2816  0.3595
  245MPD1    N1 3778   1.695   0.613  12.897 -0.3527 -1.0954  0.1157
  245MPD1    H6 3779   1.796   0.595  12.893 -0.8252 -3.9155  0.6569
  245MPD1    H7 3780   1.649   0.522  12.891  0.2607 -1.3837 -0.2305
  246MPD1     C 3781   3.012   2.977   9.501  0.1816  0.6824  0.0460
  246MPD1    C1 3782   3.036   2.951   9.362 -0.1477  0.7028  0.1417
  246MPD1    C2 3783   2.946   2.866   9.296 -0.8616  0.1611 -0.3494
  246MPD1    C3 3784   2.847   2.800   9.370 -0.0620  0.1193 -0.4988
  246MPD1    C4 3785   2.823   2.835   9.502  0.5215 -0.8053  0.7392
  246MPD1    C5 3786   2.922   2.902   9.567 -0.1549  0.1598  0.3133
  246MPD1     H 3787   2.953   2.851   9.189 -0.4535  0.1373 -0.3201
  246MPD1    H1 3788   2.768   2.764   9.562 -0.9439  1.2765  1.8894
  246MPD1    H2 3789   3.087   3.019   9.566  1.9238 -2.1635 -0.0979
  246MPD1    H3 3790   2.914   2.925   9.672 -1.8059  0.0821  0.1992
  246MPD1     N 3791   2.766   2.710   9.301  0.1999  0.1390 -0.3902
  246MPD1    H5 3792   2.792   2.683   9.207  0.4330  1.4417 -0.6967
  246MPD1    N1 3793   3.120   3.044   9.293  0.1273  0.1346 -0.2142
  246MPD1    H6 3794   3.205   3.064   9.346  0.7985  2.2885 -2.0925
  246MPD1    H7 3795   3.142   3.010   9.199  0.3633  0.0555 -0.1313
  247MPD1     C 3796   1.265   1.063  16.596  0.3572  0.3689 -0.3331
  247MPD1    C1 3797   1.256   0.923  16.603 -0.1661  0.2165  0.4987
  247MPD1    C2 3798   1.215   0.864  16.482 -0.3377  0.6509  0.3366
  247MPD1    C3 3799   1.204   0.938  16.362 -0.4826  0.3735 -0.0613
  247MPD1    C4 3800   1.219   1.073  16.366 -0.6827 -0.8206  0.5611
  247MPD1    C5 3801   1.254   1.136  16.480  0.5707  0.6752 -0.4358
  247MPD1     H 3802   1.199   0.757  16.484 -0.5587  0.6889  0.6400
  247MPD1    H1 3803   1.217   1.128  16.273  1.3801 -1.6808  0.0177
  247MPD1    H2 3804   1.274   1.123  16.687  0.2387 -2.0557  1.2762
  247MPD1    H3 3805   1.262   1.244  16.489  2.5580  0.5113 -0.1025
  247MPD1     N 3806   1.187   0.877  16.236  0.0653 -0.4133  1.0107
  247MPD1    H5 3807   1.167   0.939  16.158  0.5318 -0.4234  0.8843
  247MPD1    N1 3808   1.276   0.858  16.727 -0.0729  0.0501 -0.0893
  247MPD1    H6 3809   1.317   0.765  16.720  0.2152  0.2202 -0.6964
  247MPD1    H7 3810   1.341   0.908  16.788  0.1807 -1.3689  0.8126
  248MPD1     C 3811   1.564   4.150  17.298  0.3821 -0.4255 -0.4880
  248MPD1    C1 3812   1.700   4.175  17.297 -0.5534  0.0755  0.7008
  248MPD1    C2 3813   1.735   4.311  17.303  0.3800 -0.0918 -0.4666
  248MPD1    C3 3814   1.641   4.408  17.331  0.7783 -0.6810  0.6083
  248MPD1    C4 3815   1.508   4.370  17.366 -0.2180 -0.7134 -0.0767
  248MPD1    C5 3816   1.478   4.243  17.351  0.1237  0.9496 -1.0416
  248MPD1     H 3817   1.834   4.346  17.275  1.1316 -2.2089 -0.5213
  248MPD1    H1 3818   1.433   4.444  17.390  1.5940  0.8412  0.7607
  248MPD1    H2 3819   1.530   4.048  17.286  3.4638 -1.5379  0.3152
  248MPD1    H3 3820   1.372   4.225  17.363  0.3898 -0.3495 -0.6468
  248MPD1     N 3821   1.685   4.542  17.308  0.3627 -0.2828  0.6456
  248MPD1    H5 3822   1.782   4.556  17.285 -0.2872 -0.6065 -2.3036
  248MPD1    N1 3823   1.792   4.076  17.248 -0.8978 -0.1268  0.1873
  248MPD1    H6 3824   1.780   3.986  17.292 -0.7970 -0.3852 -0.3087
  248MPD1    H7 3825   1.885   4.107  17.277 -0.5829  0.5667 -1.5208
  249MPD1     C 3826   3.093   0.449   9.318 -0.4426  0.6504 -0.5773
  249MPD1    C1 3827   3.145   0.543   9.235 -0.2508  0.1233  0.2545
  249MPD1    C2 3828   3.219   0.645   9.296 -0.5437 -0.0645  0.3331
  249MPD1    C3 3829   3.241   0.637   9.427  0.0839 -0.4005 -0.0741
  249MPD1    C4 3830   3.190   0.546   9.513 -0.1364 -0.7030  0.0500
  249MPD1    C5 3831   3.120   0.444   9.452  0.3653 -0.5252 -0.2778
  249MPD1     H 3832   3.276   0.720   9.241  1.0139 -0.8883  0.8103
  249MPD1    H1 3833   3.210   0.536   9.620 -1.4870 -0.5393  0.3196
  249MPD1    H2 3834   3.047   0.367   9.264  0.2405 -1.5649  2.2143
  249MPD1    H3 3835   3.091   0.361   9.516 -2.0349  0.7550  0.2748
  249MPD1     N 3836   3.319   0.747   9.485  0.1655  0.1411  0.1832
  249MPD1    H5 3837   3.348   0.816   9.417 -1.3955 -0.6044 -1.2575
  249MPD1    N1 3838   3.098   0.559   9.108 -0.1018 -0.2537  0.5327
  249MPD1    H6 3839   3.065   0.472   9.067  1.8091  0.3025 -2.2070
  249MPD1    H7 3840   3.167   0.599   9.045 -3.3499  0.7591 -2.4381
  250MPD2     C 3841   0.431   3.609  12.534  0.2799 -0.2049 -0.2035
  250MPD2    C1 3842   0.336   3.703  12.508 -0.4342  0.4085 -0.3031
  250MPD2    C2 3843   0.235   3.676  12.422 -0.3461 -0.2490 -0.0249
  250MPD2    C3 3844   0.232   3.543  12.363  0.7785  0.3221  0.1041
  250MPD2    C4 3845   0.326   3.450  12.390  0.1422  0.3396 -0.4561
  250MPD2    C5 3846   0.425   3.488  12.476  0.4667  0.4190  0.3919
  250MPD2     H 3847   0.160   3.750  12.398  0.7494  0.8855  0.0893
  250MPD2    H1 3848   0.325   3.350  12.349  2.7948 -0.6308  1.8255
  250MPD2    H2 3849   0.508   3.628  12.609 -0.7329  3.2518 -0.0722
  250MPD2    H3 3850   0.497   3.417  12.515  0.2942 -0.2576 -0.5190
  250MPD2     N 3851   0.132   3.507  12.263 -0.0812 -0.1008  0.2725
  250MPD2    H5 3852   0.140   3.413  12.226 -0.3272  0.0763 -0.2293
  250MPD2    N1 3853   0.356   3.833  12.570 -0.0420 -0.6470  0.0104
  250MPD2    H7 3854   0.449   3.845  12.611 -0.5270  1.7819  0.4345
  251TMC3    C1 3855   0.277   4.036  12.675  0.4953  0.1581  0.0763
  251TMC3    C2 3856   0.174   4.125  12.695 -0.1141 -0.6051 -0.2917
  251TMC3    C3 3857   0.190   4.222  12.793 -0.3523  0.9367  0.5012
  251TMC3    C4 3858   0.400   4.060  12.739 -0.0303 -0.0941 -0.1274
  251TMC3    C5 3859   0.408   4.167  12.829  0.2810  0.2632 -0.4475
  251TMC3    C6 3860   0.299   4.240  12.870  0.7484  0.2945 -0.3735
  251TMC3     C 3861   0.259   3.936  12.575  0.3020 -0.7743  0.3014
  251TMC3     O 3862   0.145   3.934  12.532  0.5479 -0.1358  0.0701
  251TMC3     H 3863   0.093   4.128  12.623  0.0879 -0.5877 -0.5192
  251TMC3    H1 3864   0.490   4.001  12.724  1.8147  2.1808  1.8523
  251TMC3    H2 3865   0.306   4.325  12.936  2.5828 -1.5805  1.8709
  251TMC3    C7 3866   0.535   4.222  12.866  0.2656 -0.4619 -0.3819
  251TMC3    C8 3867   0.084   4.318  12.800  0.2114 -0.1763  0.4331
  251TMC3    O1 3868   0.624   4.141  12.870 -0.2570  0.4906 -0.2370
  251TMC3    O2 3869   0.113   4.423  12.856  0.3787 -0.5155  0.8057
  252TMC3    C1 3870   0.003   0.723   9.167  0.3533  0.2290 -0.4919
  252TMC3    C2 3871   0.122   0.780   9.185 -0.0668 -0.7305  0.1634
  252TMC3    C3 3872   0.213   0.712   9.267 -0.4610  0.1534  0.4010
  252TMC3    C4 3873   4.700   0.609   9.233  0.0372 -0.0472 -0.4430
  252TMC3    C5 3874   0.046   0.550   9.321 -0.3393  0.0458 -0.1571
  252TMC3    C6 3875   0.171   0.597   9.325 -0.2329  0.1249 -0.2730
  252TMC3     C 3876   4.645   0.808   9.097 -0.4749  0.3782 -0.1355
  252TMC3     O 3877   4.673   0.922   9.088  0.2794  0.6293  0.2055
  252TMC3     H 3878   0.156   0.875   9.144  3.0724 -1.3866  1.2049
  252TMC3    H1 3879   4.594   0.593   9.247  0.6861 -1.8410  2.4123
  252TMC3    H2 3880   0.253   0.549   9.377 -1.8985 -0.7667  1.5287
  252TMC3    C7 3881   4.717   0.440   9.402  1.0597 -0.2746  0.4760
  252TMC3    C8 3882   0.340   0.775   9.293  0.0087 -0.0330 -0.6746
  252TMC3    O1 3883   4.602   0.413   9.387  0.2908  0.1333  0.2401
  252TMC3    O2 3884   0.367   0.864   9.211  0.3933  0.1493 -0.4212
  253MPD2     C 3885   1.443   4.282  14.624  0.4754  0.5273 -0.2950
  253MPD2    C1 3886   1.309   4.264  14.661  0.6280 -0.3132 -0.2975
  253MPD2    C2 3887   1.270   4.298  14.788 -0.2031 -0.3642  0.1244
  253MPD2    C3 3888   1.358   4.347  14.880 -0.1938  0.0927 -0.9523
  253MPD2    C4 3889   1.489   4.361  14.850  0.2995 -0.1145 -0.0518
  253MPD2    C5 3890   1.531   4.324  14.724 -0.0342 -0.0702  0.0177
  253MPD2     H 3891   1.166   4.283  14.815 -0.5775 -0.1047 -1.2022
  253MPD2    H1 3892   1.551   4.405  14.928 -1.5584  1.3497  0.6085
  253MPD2    H2 3893   1.485   4.236  14.535 -0.9674  0.8850 -1.1554
  253MPD2    H3 3894   1.638   4.316  14.713  0.2751  2.1624  1.3938
  253MPD2     N 3895   1.314   4.384  15.011 -0.3941 -0.5506 -0.3109
  253MPD2    H5 3896   1.386   4.403  15.080 -0.9907  0.3214  0.0769
  253MPD2    N1 3897   1.207   4.219  14.574 -0.0831 -0.1328 -0.2253
  253MPD2    H7 3898   1.115   4.203  14.613  0.1289 -1.0206 -0.0793
  254TMC3    C1 3899   1.159   4.428  15.186 -0.1139 -0.5234 -0.6015
  254TMC3    C2 3900   1.032   4.469  15.222 -0.2650  0.4637  0.6291
  254TMC3    C3 3901   1.009   4.486  15.355  0.0611 -0.3348 -0.1164
  254TMC3    C4 3902   1.249   4.401  15.278 -0.3378  0.2722 -0.6845
  254TMC3    C5 3903   1.222   4.425  15.414 -0.1339 -0.8259  0.1840
  254TMC3    C6 3904   1.103   4.459  15.453  0.3178  0.4638 -0.2958
  254TMC3     C 3905   1.184   4.408  15.044  0.9638 -0.3154  0.5198
  254TMC3     O 3906   1.098   4.451  14.970  0.2394 -0.1348 -0.3332
  254TMC3     H 3907   0.951   4.479  15.152 -0.2797  0.3387  0.6293
  254TMC3    H1 3908   1.345   4.362  15.247 -0.2136 -0.9992  1.2758
  254TMC3    H2 3909   1.081   4.461  15.560 -1.0042  0.6923 -0.5757
  254TMC3    C7 3910   1.317   4.365  15.513  0.8247 -0.7115 -0.4287
  254TMC3    C8 3911   0.876   4.489  15.416  0.4643  0.0482  0.2465
  254TMC3    O1 3912   1.262   4.317  15.611  0.1506  0.3943 -0.0225
  254TMC3    O2 3913   0.855   4.399  15.500  0.2973  0.4355  0.4737
  255MPD2     C 3914   3.985   2.941  10.187  0.1716  0.9322  0.0981
  255MPD2    C1 3915   3.918   2.833  10.225 -0.9240  0.5583 -0.1813
  255MPD2    C2 3916   3.980   2.729  10.291  0.3258 -0.2636  0.0992
  255MPD2    C3 3917   4.120   2.720  10.300  0.0525  0.5596 -0.4922
  255MPD2    C4 3918   4.192   2.827  10.254 -0.9043  0.1727 -0.3353
  255MPD2    C5 3919   4.123   2.938  10.202  0.7810 -0.2573 -0.0865
  255MPD2     H 3920   3.924   2.639  10.310  1.2696 -0.6357  1.1303
  255MPD2    H1 3921   4.301   2.830  10.254 -0.8817 -0.7379  0.3165
  255MPD2    H2 3922   3.939   3.027  10.140 -2.0425 -0.2173  0.1365
  255MPD2    H3 3923   4.177   3.026  10.169 -1.6690  0.3256 -2.5086
  255MPD2     N 3924   4.185   2.601  10.340  0.2145  0.2750  0.8742
  255MPD2    H5 3925   4.128   2.527  10.380 -0.0270 -0.3931 -0.7424
  255MPD2    N1 3926   3.787   2.818  10.177 -0.3863 -0.0309  0.1740
  255MPD2    H7 3927   3.761   2.904  10.130 -1.0104 -1.6063 -2.3694
  256TMC3    C1 3928   3.571   2.748  10.133 -0.2362  0.0891  0.7331
  256TMC3    C2 3929   3.540   2.875  10.123  0.1069 -0.2239  0.1099
  256TMC3    C3 3930   3.485   2.919  10.006  0.4807  0.0545  0.7258
  256TMC3    C4 3931   3.507   2.656  10.056 -0.4681 -0.4490 -0.0969
  256TMC3    C5 3932   3.457   2.703   9.936  1.2729 -0.6527  0.3010
  256TMC3    C6 3933   3.443   2.834   9.908  0.1131 -0.7240 -0.2354
  256TMC3     C 3934   3.699   2.715  10.188  0.1909 -0.0645 -0.0092
  256TMC3     O 3935   3.723   2.598  10.213 -0.3390  0.1897  0.1327
  256TMC3     H 3936   3.566   2.946  10.201  1.2905  1.4716 -1.8257
  256TMC3    H1 3937   3.545   2.555  10.061 -3.1928 -1.6344 -3.1353
  256TMC3    H2 3938   3.432   2.866   9.805  1.9512 -1.5757 -0.6875
  256TMC3    C7 3939   3.440   2.613   9.827  0.3509  0.2586  0.3819
  256TMC3    C8 3940   3.577   3.017   9.962  0.2574  0.2849  0.5900
  256TMC3    O1 3941   3.485   2.500   9.833  0.0134 -0.0430  0.0884
  256TMC3    O2 3942   3.680   3.026  10.032 -0.6589 -0.1953 -0.8323
  257MPD2     C 3943   3.385   3.916  12.986 -0.0636 -0.1917 -0.2249
  257MPD2    C1 3944   3.329   3.812  12.913 -0.0174  0.4180 -0.7495
  257MPD2    C2 3945   3.320   3.687  12.974 -0.0576  0.9466 -0.3096
  257MPD2    C3 3946   3.358   3.665  13.106 -0.3043 -0.0086  0.5940
  257MPD2    C4 3947   3.404   3.774  13.178  0.0175 -0.1358  0.1115
  257MPD2    C5 3948   3.410   3.897  13.116 -0.2568 -0.2703 -0.3609
  257MPD2     H 3949   3.288   3.605  12.910 -0.6328 -0.4476  1.7829
  257MPD2    H1 3950   3.415   3.768  13.286 -1.0442 -0.6341  0.1893
  257MPD2    H2 3951   3.382   4.013  12.938 -0.7107 -0.3327 -0.4752
  257MPD2    H3 3952   3.444   3.980  13.178  0.0355 -0.2879 -0.4987
  257MPD2     N 3953   3.345   3.532  13.156  0.0150 -0.5649 -0.1865
  257MPD2    H5 3954   3.310   3.468  13.086  0.9890 -2.3285  0.9508
  257MPD2    N1 3955   3.301   3.833  12.775 -0.3724  0.3219 -0.2495
  257MPD2    H7 3956   3.328   3.925  12.742 -1.7166  1.3100  1.4168
  258TMC3    C1 3957   3.392   3.342  13.289 -0.6058 -0.2938 -0.8027
  258TMC3    C2 3958   3.335   3.262  13.197  0.6336  0.7123 -0.0078
  258TMC3    C3 3959   3.309   3.130  13.234  0.6646 -0.7599  0.1387
  258TMC3    C4 3960   3.422   3.302  13.412 -0.7165 -0.1619  0.4813
  258TMC3    C5 3961   3.403   3.164  13.440 -0.4769  0.7084 -0.3090
  258TMC3    C6 3962   3.337   3.078  13.358  0.1351 -0.3902 -0.1635
  258TMC3     C 3963   3.409   3.484  13.271 -0.3259  0.6516 -0.2352
  258TMC3     O 3964   3.468   3.546  13.359 -0.3384  0.2390 -0.4175
  258TMC3     H 3965   3.294   3.295  13.102  1.6239 -0.2774 -0.7813
  258TMC3    H1 3966   3.451   3.367  13.493 -0.2626  1.1119 -0.6990
  258TMC3    H2 3967   3.315   2.974  13.380 -1.1717  0.5261  2.8410
  258TMC3    C7 3968   3.450   3.109  13.564  0.4682  1.0775 -0.0635
  258TMC3    C8 3969   3.276   3.035  13.130  0.5025 -0.0145  0.0179
  258TMC3    O1 3970   3.409   2.997  13.599  0.3405  0.9496 -0.2387
  258TMC3    O2 3971   3.203   2.935  13.146  0.5743  0.2850 -0.7342
  259MPD2     C 3972   2.815   1.375   0.677 -0.3704 -0.1507 -0.4362
  259MPD2    C1 3973   2.739   1.262   0.684  0.1569 -1.0247  0.8963
  259MPD2    C2 3974   2.655   1.229   0.575  0.1821  0.0791 -0.1811
  259MPD2    C3 3975   2.645   1.316   0.468 -0.5448 -0.1643 -0.2290
  259MPD2    C4 3976   2.720   1.433   0.469 -0.5134 -0.4451 -0.1673
  259MPD2    C5 3977   2.811   1.463   0.569  0.0155  0.1259 -0.3205
  259MPD2     H 3978   2.598   1.136   0.571 -0.5839  0.4866  1.2625
  259MPD2    H1 3979   2.716   1.509   0.392 -2.2779 -0.1459  0.2203
  259MPD2    H2 3980   2.878   1.402   0.761  1.7745 -2.4035 -1.3009
  259MPD2    H3 3981   2.870   1.553   0.576  0.7727 -0.4219  0.4258
  259MPD2     N 3982   2.560   1.273   0.364  0.0919  0.1043 -0.4200
  259MPD2    H5 3983   2.525   1.178   0.368 -0.8127  0.4184 -0.7191
  259MPD2    N1 3984   2.769   1.175   0.788 -0.3421  1.1563 -0.0804
  259MPD2    H7 3985   2.832   1.209   0.861 -2.2200  1.5083  1.3657
  260TMC3    C1 3986   2.430   1.293   0.174 -0.1686 -0.1152 -0.6831
  260TMC3    C2 3987   2.354   1.375   0.093 -0.2348 -0.0085  0.3991
  260TMC3    C3 3988   2.260   1.324   0.007  0.3247 -0.4547  0.8732
  260TMC3    C4 3989   2.409   1.150   0.170 -0.2799 -0.2549 -0.3235
  260TMC3    C5 3990   2.320   1.101   0.075  0.4956 -0.1278  0.3159
  260TMC3    C6 3991   2.251   1.189  17.741  0.1999  0.1479  0.1040
  260TMC3     C 3992   2.530   1.353   0.258 -0.0328  0.3267 -0.1982
  260TMC3     O 3993   2.558   1.474   0.237 -0.7530  0.2233  0.0065
  260TMC3     H 3994   2.378   1.481   0.086 -0.6489  0.3152  3.9683
  260TMC3    H1 3995   2.476   1.084   0.223 -1.8660 -2.4191 -1.0140
  260TMC3    H2 3996   2.188   1.158  17.659  0.8080 -2.6650  0.7207
  260TMC3    C7 3997   2.364   0.986   0.007 -0.6952 -0.2702  0.4494
  260TMC3    C8 3998   2.289   1.390  17.632 -0.0582  0.7974  0.6867
  260TMC3    O1 3999   2.361   0.994  17.634 -0.1310  0.6665  0.0779
  260TMC3    O2 4000   2.294   1.509  17.629  0.1307 -0.6445  0.3442
  261MPD2     C 4001   4.106   3.796  12.086 -0.0202 -0.2218  0.5406
  261MPD2    C1 4002   4.237   3.821  12.062 -0.7549 -0.0321  0.0192
  261MPD2    C2 4003   4.288   3.953  12.060 -0.1470  0.3231  0.0490
  261MPD2    C3 4004   4.196   4.061  12.070  0.6424 -0.1695 -0.0268
  261MPD2    C4 4005   4.060   4.032  12.098  0.0104 -0.3804  0.1172
  261MPD2    C5 4006   4.017   3.900  12.108 -0.2101  0.7767 -0.9005
  261MPD2     H 4007   4.392   3.983  12.055  0.0837 -0.7117 -1.1836
  261MPD2    H1 4008   3.988   4.110  12.120  0.8768  0.4912 -0.1242
  261MPD2    H2 4009   4.067   3.695  12.084  1.3077 -0.7614  2.3127
  261MPD2    H3 4010   3.914   3.878  12.135  0.6185 -0.2417  1.3933
  261MPD2     N 4011   4.248   4.195  12.038 -0.5303 -0.0107  0.2248
  261MPD2    H5 4012   4.342   4.201  12.000 -0.8786  0.6454 -0.5367
  261MPD2    N1 4013   4.331   3.710  12.053  0.1552  0.0012 -0.0275
  261MPD2    H7 4014   4.429   3.734  12.041 -0.7682  2.3931 -2.7734
  262TMC3    C1 4015   4.212   4.435  11.975  0.3054  0.1605 -0.5453
  262TMC3    C2 4016   4.184   4.558  12.023  0.1897  0.4841 -0.4921
  262TMC3    C3 4017   4.258   4.661  11.974  0.3680  0.4514  0.1495
  262TMC3    C4 4018   4.293   4.410  11.870 -0.0576  0.0859  0.3577
  262TMC3    C5 4019   4.367   4.513  11.819  0.2760 -0.4814 -0.2483
  262TMC3    C6 4020   4.341   4.644  11.867  0.9928  0.8963 -0.5896
  262TMC3     C 4021   4.170   4.312  12.045 -0.3261  0.3594 -0.1420
  262TMC3     O 4022   4.068   4.327  12.114  0.1222 -0.5777  0.1322
  262TMC3     H 4023   4.119   4.563  12.110 -2.9366 -1.4060 -2.7364
  262TMC3    H1 4024   4.304   4.309  11.831  2.6642  0.8655 -0.8178
  262TMC3    H2 4025   4.410   4.724  11.845 -1.7495  3.2719 -0.5319
  262TMC3    C7 4026   4.450   4.493  11.704  0.0448  0.7828  0.3561
  262TMC3    C8 4027   4.223   0.058  11.999  0.1527  0.1265  0.2127
  262TMC3    O1 4028   4.492   4.377  11.687  0.1369  0.5743 -0.5234
  262TMC3    O2 4029   4.306   0.143  11.968 -0.4618 -0.2761  0.2408
  263MPD2     C 4030   0.159   3.382  11.696  0.5458 -0.1306 -0.2244
  263MPD2    C1 4031   0.248   3.351  11.599 -0.4102 -0.2879 -0.4737
  263MPD2    C2 4032   0.261   3.440  11.487 -0.0087 -0.4196  0.5138
  263MPD2    C3 4033   0.169   3.546  11.473 -0.4012 -0.0644  0.1878
  263MPD2    C4 4034   0.071   3.555  11.567 -0.4835 -0.3660 -0.0646
  263MPD2    C5 4035   0.070   3.484  11.680  0.2184  0.2425 -0.4102
  263MPD2     H 4036   0.330   3.420  11.405 -1.6348  2.3680 -1.5365
  263MPD2    H1 4037   4.730   3.630  11.560  1.3839  1.3766 -2.3810
  263MPD2    H2 4038   0.166   3.333  11.792 -1.0316 -0.8463 -0.4717
  263MPD2    H3 4039   4.732   3.502  11.755 -0.0383 -1.8941 -0.1522
  263MPD2     N 4040   0.190   3.635  11.364 -0.1437  0.4722  0.6636
  263MPD2    H5 4041   0.274   3.624  11.308  1.1139  0.7692  2.4742
  263MPD2    N1 4042   0.330   3.244  11.621  0.0897 -0.4658 -0.5437
  263MPD2    H7 4043   0.324   3.201  11.713 -0.5374  0.5108 -0.1405
  264TMC3    C1 4044   0.161   3.826  11.234 -0.5282  0.0316 -0.3343
  264TMC3    C2 4045   0.171   3.965  11.252  0.0915  0.3328  0.5453
  264TMC3    C3 4046   0.253   4.037  11.167  0.1895 -0.7626  0.0038
  264TMC3    C4 4047   0.206   3.759  11.122 -0.3248 -0.1468 -0.1378
  264TMC3    C5 4048   0.282   3.836  11.039  0.8715  0.6620  0.1641
  264TMC3    C6 4049   0.316   3.970  11.064  0.6575 -0.0883  0.0147
  264TMC3     C 4050   0.118   3.754  11.347 -0.5255  0.4477  0.2329
  264TMC3     O 4051   0.059   3.820  11.434 -0.1454 -0.2776  0.2692
  264TMC3     H 4052   0.133   4.015  11.341  1.1653  1.2674  0.4781
  264TMC3    H1 4053   0.175   3.657  11.103  0.0600 -0.4651  0.9395
  264TMC3    H2 4054   0.390   4.019  11.002  0.9259  0.9590  1.1644
  264TMC3    C7 4055   0.390   3.760  10.960  0.3578 -1.5374  0.5170
  264TMC3    C8 4056   0.316   4.159  11.218  0.9835  0.3111  0.2435
  264TMC3    O1 4057   0.504   3.803  10.965 -0.7857  0.6413  0.0930
  264TMC3    O2 4058   0.415   4.198  11.158  0.5816  0.2178  0.0450
  265MPD2     C 4059   2.243   3.939  15.266  0.3972 -0.2608 -0.0826
  265MPD2    C1 4060   2.307   4.043  15.209 -0.4954 -0.3272 -0.4278
  265MPD2    C2 4061   2.414   4.029  15.122  0.0327  0.3535 -0.1731
  265MPD2    C3 4062   2.452   3.899  15.094 -0.6050  0.4414 -0.2524
  265MPD2    C4 4063   2.383   3.790  15.147  0.8059 -0.0566  0.4487
  265MPD2    C5 4064   2.281   3.811  15.235  0.1741 -0.0236  0.2213
  265MPD2     H 4065   2.458   4.117  15.078 -0.1434 -0.3092 -1.6852
  265MPD2    H1 4066   2.408   3.688  15.124  4.6265  0.6476  1.5475
  265MPD2    H2 4067   2.167   3.950  15.343 -0.4176 -1.2402 -0.7372
  265MPD2    H3 4068   2.221   3.727  15.268  1.2762 -1.0426 -0.3682
  265MPD2     N 4069   2.555   3.868  15.000  0.6727 -0.0188  0.1465
  265MPD2    H5 4070   2.561   3.771  14.972 -0.6064 -0.0451 -0.0600
  265MPD2    N1 4071   2.266   4.166  15.247  0.8615  0.4345 -0.5482
  265MPD2    H7 4072   2.329   4.245  15.232 -1.0270  1.6959 -1.8444
  266TMC3    C1 4073   2.136   4.337  15.331  0.0266  0.2225 -0.3826
  266TMC3    C2 4074   2.254   4.391  15.367  0.5568  0.1133  0.7263
  266TMC3    C3 4075   2.247   4.518  15.413 -0.4637  0.0736 -0.0850
  266TMC3    C4 4076   2.009   4.400  15.320 -0.2280 -0.7809 -0.2793
  266TMC3    C5 4077   2.020   4.540  15.329  0.8090  0.3327 -0.0386
  266TMC3    C6 4078   2.133   4.594  15.383 -0.4244 -0.4019  0.0953
  266TMC3     C 4079   2.147   4.198  15.293  0.4619  0.7138 -0.0652
  266TMC3     O 4080   2.038   4.132  15.288 -0.3631 -0.1502  0.1183
  266TMC3     H 4081   2.342   4.331  15.387  0.0421 -0.6735  0.6327
  266TMC3    H1 4082   1.933   4.354  15.258  1.8520 -4.1712 -0.3691
  266TMC3    H2 4083   2.151   4.701  15.380 -1.0520 -0.2809  0.9253
  266TMC3    C7 4084   1.936   4.623  15.248 -0.0761 -0.0243  0.0810
  266TMC3    C8 4085   2.363   4.570  15.488  0.3956 -0.2050  0.4053
  266TMC3    O1 4086   1.816   4.597  15.243  0.4272  0.1789  0.1272
  266TMC3    O2 4087   2.430   4.485  15.535  0.0242  0.6321  0.5731
  267MPD2     C 4088   0.507   1.028   0.215  0.3351 -0.4291 -0.0020
  267MPD2    C1 4089   0.539   0.991   0.086  0.4076  0.0433  0.3095
  267MPD2    C2 4090   0.446   1.009  17.732 -0.2927 -0.6308  0.4721
  267MPD2    C3 4091   0.320   1.064   0.019  0.0008  0.4330  0.0591
  267MPD2    C4 4092   0.296   1.119   0.148 -0.3187  0.6593 -0.4841
  267MPD2    C5 4093   0.402   1.108   0.240  0.2497  0.2675 -0.5386
  267MPD2     H 4094   0.460   0.969  17.632  0.4837 -0.6258  0.5846
  267MPD2    H1 4095   0.209   1.177   0.177 -1.6012 -1.0011 -1.0476
  267MPD2    H2 4096   0.575   1.016   0.298 -0.6290  0.2447  0.8825
  267MPD2    H3 4097   0.399   1.151   0.339 -2.1723 -2.5002  0.5868
  267MPD2     N 4098   0.217   1.081  17.675 -0.1244 -0.2246 -0.3832
  267MPD2    H5 4099   0.129   1.114  17.714 -0.7113 -3.0865  0.7692
  267MPD2    N1 4100   0.674   0.950   0.056  0.5258 -0.2808 -0.4374
  267MPD2    H7 4101   0.734   0.913   0.130  0.5877 -3.2536 -1.9812
  268TMC3    C1 4102   0.865   0.873  17.670  0.2906 -0.0693 -0.0466
  268TMC3    C2 4103   0.950   0.932  17.578  0.0549  0.4673  0.2493
  268TMC3    C3 4104   1.085   0.928  17.598 -0.6122  0.0719  0.5476
  268TMC3    C4 4105   0.912   0.798   0.027  0.1759 -0.4757  0.2230
  268TMC3    C5 4106   1.048   0.790   0.042  0.4454 -0.0778 -0.4219
  268TMC3    C6 4107   1.134   0.855  17.701 -0.1485 -0.2773  0.2171
  268TMC3     C 4108   0.728   0.931  17.675  0.3805 -0.2310 -1.0366
  268TMC3     O 4109   0.676   0.970  17.570 -0.0150 -0.5315 -0.3431
  268TMC3     H 4110   0.906   0.993  17.499  1.1352 -0.0371 -0.7503
  268TMC3    H1 4111   0.847   0.741   0.093 -0.8717  1.9394  1.2860
  268TMC3    H2 4112   1.241   0.858  17.721 -0.5892 -0.0671  2.6076
  268TMC3    C7 4113   1.081   0.782   0.179  0.3904  0.3208 -0.1267
  268TMC3    C8 4114   1.140   1.068  17.593 -0.1932  0.0408 -0.4596
  268TMC3    O1 4115   1.003   0.836   0.260 -0.1937 -0.4409 -0.2556
  268TMC3    O2 4116   1.154   1.113  17.707  0.4944 -0.2753  0.0878
  269MPD2     C 4117   0.360   0.107  15.065  0.7956 -0.5273  0.5225
  269MPD2    C1 4118   0.273   0.122  15.176  0.9649 -0.5286 -1.0124
  269MPD2    C2 4119   0.232   0.248  15.209  0.2206  0.2792  0.5635
  269MPD2    C3 4120   0.278   0.363  15.148 -0.5524  0.8925 -0.6159
  269MPD2    C4 4121   0.371   0.346  15.044  0.0556  0.0116 -0.3034
  269MPD2    C5 4122   0.409   0.219  15.007  0.1708  0.2120  0.0233
  269MPD2     H 4123   0.155   0.275  15.281 -1.2019  1.4952 -1.4322
  269MPD2    H1 4124   0.431   0.424  14.998  2.4361 -0.5750  1.8119
  269MPD2    H2 4125   0.373   0.014  15.012  1.1067 -1.1289  1.6502
  269MPD2    H3 4126   0.472   0.209  14.919  2.7040  0.6214  1.8046
  269MPD2     N 4127   0.240   0.493  15.195  0.4034  0.6614  0.0458
  269MPD2    H5 4128   0.177   0.494  15.275  1.7953  0.9876  1.1270
  269MPD2    N1 4129   0.249   4.735  15.248  0.1877 -0.1972 -0.2703
  269MPD2    H7 4130   0.282   4.653  15.197 -0.4871 -2.2152  2.5388
  270TMC3    C1 4131   0.181   4.584  15.415 -0.2190 -0.6987 -0.1100
  270TMC3    C2 4132   0.064   4.513  15.410  0.3305 -0.0153  0.1445
  270TMC3    C3 4133   0.074   4.376  15.431 -0.0085  0.3264  0.2720
  270TMC3    C4 4134   0.305   4.523  15.419  0.3251 -0.0737  0.5424
  270TMC3    C5 4135   0.302   4.388  15.438  0.8894 -0.1082  0.0839
  270TMC3    C6 4136   0.190   4.306  15.454 -0.0568  0.3511  0.2452
  270TMC3     C 4137   0.177   4.724  15.366  0.1011  0.4628 -0.0307
  270TMC3     O 4138   0.120   0.068  15.436 -0.3687 -0.0758  0.6818
  270TMC3     H 4139   4.702   4.551  15.391 -0.2456 -1.2591  0.7023
  270TMC3    H1 4140   0.395   4.581  15.400 -0.6592  1.7367  1.4519
  270TMC3    H2 4141   0.194   4.198  15.464 -1.8576  0.3194  0.6542
  270TMC3    C7 4142   0.404   4.308  15.377  0.5953  0.4296 -0.1411
  270TMC3    C8 4143   0.015   4.302  15.316 -0.1044 -0.5025 -0.5643
  270TMC3    O1 4144   0.521   4.339  15.384 -0.2798  0.1622 -0.0822
  270TMC3    O2 4145   0.095   4.226  15.258  0.3215  0.3798  0.0305
  271MPD2     C 4146   4.164   3.927  13.576  0.1209 -0.1413 -0.0113
  271MPD2    C1 4147   4.122   4.007  13.679  0.4188  0.9094 -0.4128
  271MPD2    C2 4148   4.021   4.092  13.647  0.2375  0.2155  0.1192
  271MPD2    C3 4149   3.972   4.102  13.517  0.7289  0.2943  0.3357
  271MPD2    C4 4150   4.012   4.026  13.413 -0.3520 -0.0706  0.6119
  271MPD2    C5 4151   4.110   3.937  13.449  0.3496  0.6175 -0.3537
  271MPD2     H 4152   3.989   4.165  13.720  0.0066 -1.0816  1.3030
  271MPD2    H1 4153   3.965   4.037  13.316  2.5317 -0.1176 -0.7903
  271MPD2    H2 4154   4.230   3.842  13.594  0.1175  0.2300  1.7404
  271MPD2    H3 4155   4.151   3.871  13.373 -0.4916  0.1264 -0.3802
  271MPD2     N 4156   3.878   4.198  13.474 -0.5755  0.3908 -0.4592
  271MPD2    H5 4157   3.850   4.200  13.376  3.3009 -0.5541 -1.5586
  271MPD2    N1 4158   4.181   4.016  13.812  0.3723  0.4944  0.4668
  271MPD2    H7 4159   4.134   4.063  13.889 -4.0626 -0.9034 -1.3348
  272TMC3    C1 4160   4.356   3.968  13.959  1.2710  0.6191  0.8298
  272TMC3    C2 4161   4.479   3.910  13.975  0.3386  0.5126 -0.2544
  272TMC3    C3 4162   4.517   3.870  14.098  0.1271 -0.2074  0.4070
  272TMC3    C4 4163   4.269   3.975  14.064 -0.3140  0.0930 -0.4022
  272TMC3    C5 4164   4.309   3.936  14.190 -0.3122 -0.7779 -0.0341
  272TMC3    C6 4165   4.438   3.887  14.204 -0.0046 -0.6076 -0.0252
  272TMC3     C 4166   4.310   3.973  13.827 -0.3007  0.4275  0.1456
  272TMC3     O 4167   4.403   3.979  13.742  0.2562 -0.3318 -0.0530
  272TMC3     H 4168   4.548   3.897  13.891  0.5542 -0.7235  0.1112
  272TMC3    H1 4169   4.164   4.002  14.059 -0.4869 -0.2429  1.4024
  272TMC3    H2 4170   4.473   3.862  14.304  0.7010 -1.1649 -0.4124
  272TMC3    C7 4171   4.238   3.982  14.303 -0.1599 -0.1712  0.5101
  272TMC3    C8 4172   4.635   3.796  14.106  0.1167 -0.3511  0.4878
  272TMC3    O1 4173   4.116   3.994  14.283 -0.1388  0.5565  0.4329
  272TMC3    O2 4174   4.678   3.761  13.996  0.4262  0.1907  0.3492
  273MPD2     C 4175   0.814   2.025  11.679  0.0075  0.6985 -0.1599
  273MPD2    C1 4176   0.883   2.139  11.645 -0.1568  0.2720  0.2712
  273MPD2    C2 4177   0.893   2.166  11.510  0.8179  0.6636 -0.4600
  273MPD2    C3 4178   0.828   2.090  11.416 -0.4998 -0.0712 -1.2353
  273MPD2    C4 4179   0.757   1.970  11.452  0.0515 -0.0941  0.5861
  273MPD2    C5 4180   0.755   1.941  11.588 -0.5371 -0.1086  0.3847
  273MPD2     H 4181   0.924   2.261  11.468  1.6953  0.7694  0.4178
  273MPD2    H1 4182   0.715   1.912  11.371  0.9181  2.1069 -1.4593
  273MPD2    H2 4183   0.797   1.988  11.779  0.3329  2.6126  0.6087
  273MPD2    H3 4184   0.704   1.850  11.616 -0.4990  0.3394  1.9122
  273MPD2     N 4185   0.840   2.137  11.286  0.6015 -0.4957 -0.1027
  273MPD2    H5 4186   0.892   2.223  11.273 -2.5834  1.2266 -1.4425
  273MPD2    N1 4187   0.948   2.218  11.745  0.6638 -0.5286  0.3230
  273MPD2    H7 4188   0.946   2.171  11.835  0.9210  0.6716  0.9584
  274TMC3    C1 4189   0.825   2.170  11.057 -0.2101 -0.4952 -0.3391
  274TMC3    C2 4190   0.726   2.196  10.967  0.0565  0.0750  0.2039
  274TMC3    C3 4191   0.728   2.318  10.912  1.1670  0.4024 -0.0177
  274TMC3    C4 4192   0.931   2.252  11.072  0.6504  0.4996  0.0217
  274TMC3    C5 4193   0.929   2.377  11.015  0.3692  0.3832  0.5565
  274TMC3    C6 4194   0.831   2.411  10.925 -0.2590  0.3367 -0.1571
  274TMC3     C 4195   0.789   2.085  11.171 -0.0908 -0.4397  0.0646
  274TMC3     O 4196   0.711   1.992  11.153  0.9812 -0.0824  0.1521
  274TMC3     H 4197   0.631   2.144  10.962  0.0728 -0.0439  1.2293
  274TMC3    H1 4198   1.021   2.220  11.123 -0.3430  1.0605  2.0947
  274TMC3    H2 4199   0.816   2.516  10.904 -0.9603  0.0382 -1.1531
  274TMC3    C7 4200   0.937   2.477  11.121  0.0162 -0.1928 -0.1138
  274TMC3    C8 4201   0.605   2.366  10.846  0.0989  0.3398  0.4904
  274TMC3    O1 4202   0.915   2.436  11.232  0.0897  0.7120 -0.3150
  274TMC3    O2 4203   0.586   2.484  10.833 -0.6003  0.8633 -0.2865
  275MPD2     C 4204   0.734   0.773  14.331 -0.4099  0.2228  1.1357
  275MPD2    C1 4205   0.789   0.648  14.330 -0.4897 -0.2284  0.4501
  275MPD2    C2 4206   0.704   0.540  14.306  0.3112 -0.1609  0.4423
  275MPD2    C3 4207   0.567   0.566  14.286  0.6707  0.2554 -0.9071
  275MPD2    C4 4208   0.522   0.698  14.264  0.6468  0.7212  0.3074
  275MPD2    C5 4209   0.610   0.800  14.283 -0.4000  0.7222  0.4303
  275MPD2     H 4210   0.733   0.436  14.305 -1.8456 -0.7302 -2.8298
  275MPD2    H1 4211   0.428   0.727  14.219  0.0899 -0.0860  0.9599
  275MPD2    H2 4212   0.790   0.864  14.349 -0.9049  0.6147  0.6931
  275MPD2    H3 4213   0.568   0.899  14.272  0.2636  1.0463  0.7944
  275MPD2     N 4214   0.465   0.464  14.279 -0.1317  0.4281  0.2049
  275MPD2    H5 4215   0.371   0.501  14.282 -0.6819 -1.3179  3.5880
  275MPD2    N1 4216   0.925   0.625  14.368  0.1414  0.0833  0.4853
  275MPD2    H7 4217   0.969   0.534  14.367  0.0161  0.0169  0.9860
  276TMC3    C1 4218   1.136   0.691  14.472 -0.2685 -0.4796 -0.2670
  276TMC3    C2 4219   1.189   0.561  14.454 -0.2463 -0.0562  0.2939
  276TMC3    C3 4220   1.315   0.537  14.490  0.0958 -0.6867  0.1504
  276TMC3    C4 4221   1.212   0.790  14.518 -0.4019 -0.4942  0.1583
  276TMC3    C5 4222   1.346   0.767  14.532 -0.6706 -0.8410  0.7681
  276TMC3    C6 4223   1.393   0.644  14.530  0.3393 -0.3900  0.4447
  276TMC3     C 4224   1.004   0.731  14.421  0.0655  0.6287 -0.2218
  276TMC3     O 4225   0.970   0.842  14.464 -0.1006 -0.2044  0.2931
  276TMC3     H 4226   1.133   0.479  14.412  0.6202 -1.2533  1.4827
  276TMC3    H1 4227   1.178   0.892  14.518  0.0803 -0.3246  1.8546
  276TMC3    H2 4228   1.496   0.626  14.558  0.8817  1.3631 -0.4824
  276TMC3    C7 4229   1.422   0.870  14.591  0.2808  0.4407 -0.5746
  276TMC3    C8 4230   1.373   0.408  14.498 -0.2208 -0.2370  0.4124
  276TMC3    O1 4231   1.373   0.942  14.682  0.0495  0.2996  0.3244
  276TMC3    O2 4232   1.492   0.414  14.533 -0.3948  0.2688 -0.6397
  277MPD2     C 4233   2.642   3.778  13.031  0.6406  0.3947  0.3702
  277MPD2    C1 4234   2.521   3.831  13.079  0.1973  0.3365 -0.2211
  277MPD2    C2 4235   2.456   3.761  13.186 -0.4755  0.0743 -0.4946
  277MPD2    C3 4236   2.521   3.655  13.253 -0.1489 -0.0157 -0.1591
  277MPD2    C4 4237   2.639   3.607  13.201  0.6732 -0.6585  0.6209
  277MPD2    C5 4238   2.699   3.665  13.094  0.3950  0.1172 -0.2652
  277MPD2     H 4239   2.359   3.787  13.226 -1.4766 -1.0831 -2.1670
  277MPD2    H1 4240   2.696   3.535  13.259  2.5935 -1.1963 -1.9060
  277MPD2    H2 4241   2.682   3.820  12.940  0.1286 -1.4034 -0.6748
  277MPD2    H3 4242   2.792   3.625  13.053  0.9410  0.9751  0.1389
  277MPD2     N 4243   2.451   3.604  13.367  0.1100 -0.3610  0.8279
  277MPD2    H5 4244   2.361   3.644  13.394 -0.5257  0.0298 -1.8205
  277MPD2    N1 4245   2.469   3.947  13.020 -0.1188  0.0718  0.0042
  277MPD2    H7 4246   2.525   3.986  12.945 -1.2155  0.4851 -0.6045
  278TMC3    C1 4247   2.390   3.454  13.545 -0.1585  0.0725  0.0538
  278TMC3    C2 4248   2.348   3.317  13.549 -1.0008  0.0921 -0.4455
  278TMC3    C3 4249   2.218   3.295  13.579  0.3181  0.4228 -0.1794
  278TMC3    C4 4250   2.303   3.551  13.580  0.0915  0.3918 -0.0726
  278TMC3    C5 4251   2.173   3.522  13.622 -0.4482  0.8794  0.7949
  278TMC3    C6 4252   2.127   3.390  13.618  0.7630  0.0274 -0.0907
  278TMC3     C 4253   2.488   3.497  13.438  0.3596 -0.2724 -0.3806
  278TMC3     O 4254   2.586   3.421  13.428 -0.1219 -0.1063 -0.1301
  278TMC3     H 4255   2.403   3.248  13.486  1.9121  0.7448  1.3448
  278TMC3    H1 4256   2.329   3.655  13.591  0.9778  0.1187  0.4131
  278TMC3    H2 4257   2.028   3.369  13.655  1.2913  0.1558  1.4016
  278TMC3    C7 4258   2.093   3.637  13.653  0.2482  0.2081 -0.0842
  278TMC3    C8 4259   2.174   3.154  13.578  0.3766 -0.0274  0.0500
  278TMC3    O1 4260   2.145   3.735  13.710  0.1671  0.4044  0.3061
  278TMC3    O2 4261   2.270   3.078  13.580 -0.6027 -0.5661  0.1326
  279MPD2     C 4262   2.097   3.948  17.536 -0.1432 -0.3422 -0.5083
  279MPD2    C1 4263   2.030   4.062  17.489 -0.7848  0.0735  0.3021
  279MPD2    C2 4264   2.056   4.119  17.368 -0.7217 -0.5146 -0.4813
  279MPD2    C3 4265   2.142   4.050  17.283 -0.2310 -0.2901  0.0616
  279MPD2    C4 4266   2.210   3.943  17.325 -0.0341 -0.1664  0.4137
  279MPD2    C5 4267   2.196   3.894  17.456  0.0477  0.2330 -1.0636
  279MPD2     H 4268   2.015   4.213  17.334  1.6398  1.2851  1.6384
  279MPD2    H1 4269   2.273   3.882  17.260  0.5383  1.3797 -0.4779
  279MPD2    H2 4270   2.073   3.911  17.635 -1.7917  1.6515 -0.1659
  279MPD2    H3 4271   2.258   3.815  17.496 -2.2305 -0.8805  0.2338
  279MPD2     N 4272   2.170   4.085  17.151 -0.0447  0.6854 -0.1846
  279MPD2    H5 4273   2.246   4.028  17.116 -1.3200 -2.4224  2.1356
  279MPD2    N1 4274   1.953   4.127  17.581  0.7371 -0.0020  0.5291
  279MPD2    H7 4275   1.922   4.079  17.666  0.2939  0.4280  0.6101
  280TMC3    C1 4276   1.810   4.292  17.654  0.2794  0.1025  0.3303
  280TMC3    C2 4277   1.707   4.202  17.668  0.1156  0.0454 -0.2291
  280TMC3    C3 4278   1.581   4.252  17.696  0.9425  0.0781  0.2539
  280TMC3    C4 4279   1.794   4.429  17.685 -0.0462  0.1787  0.1807
  280TMC3    C5 4280   1.665   4.473  17.708 -0.1637 -0.0033  0.6595
  280TMC3    C6 4281   1.558   4.384  17.716 -0.6938 -0.0736  0.0800
  280TMC3     C 4282   1.934   4.261  17.583 -0.0858  0.2733  0.7668
  280TMC3     O 4283   1.976   4.347  17.506  0.3138 -0.6397  0.0154
  280TMC3     H 4284   1.718   4.096  17.649 -0.1705 -0.3006  1.5775
  280TMC3    H1 4285   1.871   4.505  17.683 -1.2750  1.4885  2.7860
  280TMC3    H2 4286   1.458   4.425  17.728  0.0369  1.3411  1.3029
  280TMC3    C7 4287   1.652   4.611  17.748 -0.7969 -0.9660 -0.6767
  280TMC3    C8 4288   1.470   4.161  17.707 -0.3829  0.3617 -0.1510
  280TMC3    O1 4289   1.759   4.662   0.037  0.5774 -0.1328 -0.1350
  280TMC3    O2 4290   1.463   4.063  17.633  0.5446 -0.0844 -0.0277
  281TMC3    C1 4291   0.713   4.179  13.285  0.4243  0.8156 -0.1138
  281TMC3    C2 4292   0.815   4.262  13.242 -0.1565 -0.0567 -0.0158
  281TMC3    C3 4293   0.916   4.202  13.172  0.4503 -0.1014 -0.4449
  281TMC3    C4 4294   0.713   4.042  13.267 -0.2940  0.1057 -0.2153
  281TMC3    C5 4295   0.822   3.986  13.200  0.3264 -0.3159 -0.7075
  281TMC3    C6 4296   0.923   4.070  13.158 -0.5170 -0.1956  0.0190
  281TMC3     C 4297   0.588   4.233  13.239  0.3062 -0.0670  0.1755
  281TMC3     O 4298   0.520   4.158  13.175  0.0257  0.2833  0.2879
  281TMC3     H 4299   0.812   4.368  13.263  2.6246 -0.0861  0.5205
  281TMC3    H1 4300   0.620   3.986  13.276 -0.1855 -0.0256  0.0843
  281TMC3    H2 4301   1.012   4.029  13.111  0.2778  1.5783 -0.0215
  281TMC3    C7 4302   0.797   3.867  13.131 -0.4117  0.6416 -0.3616
  281TMC3    C8 4303   1.030   4.280  13.118  0.2184 -0.0396  0.1954
  281TMC3    O1 4304   0.875   3.775  13.142  0.1197  0.0941  0.4385
  281TMC3    O2 4305   1.146   4.250  13.144 -0.0757  0.3196 -0.1462
  282MPD2     C 4306   2.459   1.188  14.737 -0.0001 -0.2634 -0.4326
  282MPD2    C1 4307   2.328   1.222  14.773 -0.4064 -0.4465 -0.6685
  282MPD2    C2 4308   2.229   1.232  14.678  0.5215 -0.2103  0.3142
  282MPD2    C3 4309   2.258   1.208  14.548 -0.2098 -0.3204 -1.0813
  282MPD2    C4 4310   2.390   1.168  14.513 -0.1653 -0.0026 -0.0216
  282MPD2    C5 4311   2.484   1.156  14.607 -0.6645  0.2918 -0.3280
  282MPD2     H 4312   2.128   1.266  14.698  1.0778 -0.0094  2.8077
  282MPD2    H1 4313   2.423   1.152  14.411  0.0123  1.9823 -0.2688
  282MPD2    H2 4314   2.543   1.173  14.804 -0.6354 -1.0568  0.1875
  282MPD2    H3 4315   2.584   1.119  14.583 -0.6007  0.3732 -0.1880
  282MPD2     N 4316   2.155   1.232  14.455 -0.4949  0.3283 -0.1362
  282MPD2    H5 4317   2.066   1.261  14.492  0.5786  2.7364  0.5466
  282MPD2    N1 4318   2.292   1.252  14.906  0.9050  0.3500  0.4469
  282MPD2    H7 4319   2.195   1.271  14.929  1.1893  1.5730  0.6091
  283TMC3    C1 4320   2.313   1.288  15.134  0.6609  0.9286  0.4476
  283TMC3    C2 4321   2.382   1.368  15.221  0.2069  0.2958  1.1872
  283TMC3    C3 4322   2.345   1.385  15.350  0.1044  0.1634 -0.5525
  283TMC3    C4 4323   2.209   1.206  15.183 -0.6163 -0.6810 -0.6996
  283TMC3    C5 4324   2.182   1.210  15.318 -0.1366  0.0113  0.7098
  283TMC3    C6 4325   2.241   1.306  15.400  0.3054  0.5270 -0.4086
  283TMC3     C 4326   2.378   1.253  15.012  0.5150 -0.1722 -0.6105
  283TMC3     O 4327   2.496   1.223  15.021  0.2221  0.0294  0.2810
  283TMC3     H 4328   2.466   1.426  15.186  0.8776 -1.6680 -0.4503
  283TMC3    H1 4329   2.161   1.132  15.121 -2.2683  0.3250 -0.6258
  283TMC3    H2 4330   2.214   1.314  15.505  0.5681 -0.4158 -0.2636
  283TMC3    C7 4331   2.089   1.121  15.377 -0.4161 -0.8342  0.4141
  283TMC3    C8 4332   2.362   1.513  15.411  0.1520 -0.1158  0.0015
  283TMC3    O1 4333   2.028   1.155  15.475 -0.2360  0.3195 -0.2809
  283TMC3    O2 4334   2.366   1.521  15.530  0.1465  0.5710  0.5398
  284MPD2     C 4335   0.073   0.166  11.767  0.6888  0.4451  0.6811
  284MPD2    C1 4336   0.207   0.187  11.789  0.2377 -0.5633  0.8025
  284MPD2    C2 4337   0.288   0.074  11.825  0.6665  0.0675 -0.5164
  284MPD2    C3 4338   0.231   4.688  11.849 -0.4415  0.1208 -0.1117
  284MPD2    C4 4339   0.094   4.673  11.832 -0.0730  0.0526  0.3903
  284MPD2    C5 4340   0.021   0.042  11.783 -0.7187  0.6164 -0.0185
  284MPD2     H 4341   0.393   0.085  11.852  0.3493  0.4322  0.5914
  284MPD2    H1 4342   0.042   4.584  11.866  3.4915 -2.4691 -0.6952
  284MPD2    H2 4343   0.010   0.252  11.746  0.4308 -0.0361 -0.5063
  284MPD2    H3 4344   4.653   0.027  11.762 -0.8591 -0.7981  1.7448
  284MPD2     N 4345   0.320   4.587  11.891 -0.1145 -0.4743  0.8286
  284MPD2    H5 4346   0.415   4.620  11.907 -0.5091  1.7146 -1.4655
  284MPD2    N1 4347   0.276   0.310  11.774  0.0518 -0.3052 -0.0026
  284MPD2    H7 4348   0.377   0.310  11.784 -0.2218 -2.4414  2.6820
  285TMC3    C1 4349   0.311   0.544  11.766 -0.5548  0.0700  0.1370
  285TMC3    C2 4350   0.426   0.525  11.838 -0.2751  0.3987 -0.2192
  285TMC3    C3 4351   0.514   0.630  11.861 -0.5482 -0.6418 -0.3442
  285TMC3    C4 4352   0.274   0.656  11.711  0.4110  0.2204 -0.4870
  285TMC3    C5 4353   0.363   0.757  11.728  0.3772  0.0351  0.1391
  285TMC3    C6 4354   0.478   0.742  11.803  0.8134  0.3360  0.0862
  285TMC3     C 4355   0.218   0.433  11.755  0.2399 -0.1753  0.3072
  285TMC3     O 4356   0.101   0.455  11.734  0.2309  0.2881 -0.0203
  285TMC3     H 4357   0.447   0.432  11.889 -0.6186  0.6560  0.3973
  285TMC3    H1 4358   0.193   0.670  11.639  3.0585  0.3467 -3.4529
  285TMC3    H2 4359   0.521   0.836  11.835  0.2487  1.6994 -3.0915
  285TMC3    C7 4360   0.389   0.856  11.625 -0.7164 -0.2972 -0.2323
  285TMC3    C8 4361   0.655   0.586  11.849 -0.8129 -0.3761  0.7365
  285TMC3    O1 4362   0.505   0.886  11.612  0.1243  0.5822  0.5976
  285TMC3    O2 4363   0.667   0.465  11.871  0.1098  0.0424  0.3479
  286MPD2     C 4364   1.238   4.192   1.599  0.6991  0.0301 -0.1140
  286MPD2    C1 4365   1.207   4.173   1.461  0.1686  0.3046 -0.5924
  286MPD2    C2 4366   1.296   4.094   1.390 -0.2913  0.2711 -0.2581
  286MPD2    C3 4367   1.407   4.039   1.440 -0.2465  0.0687 -0.4121
  286MPD2    C4 4368   1.434   4.051   1.576  0.1580  0.3238 -0.0063
  286MPD2    C5 4369   1.346   4.124   1.654  0.8337 -0.5850  0.2801
  286MPD2     H 4370   1.286   4.081   1.283  1.1425 -0.8742 -0.2560
  286MPD2    H1 4371   1.522   4.014   1.627  1.7465  1.7509 -1.7426
  286MPD2    H2 4372   1.177   4.249   1.668  0.7698  0.1814 -0.1775
  286MPD2    H3 4373   1.369   4.133   1.760 -1.1581 -0.5820  0.7156
  286MPD2     N 4374   1.491   3.951   1.372  0.6909  0.5420 -0.2355
  286MPD2    H5 4375   1.560   3.899   1.425  1.6438  1.7379 -0.3072
  286MPD2    N1 4376   1.096   4.234   1.402 -0.1665  0.1431  0.4200
  286MPD2    H7 4377   1.102   4.230   1.300 -1.7603 -2.2230  0.4169
  287TMC3    C1 4378   1.522   3.792   1.176 -0.2446 -0.1062 -0.3184
  287TMC3    C2 4379   1.476   3.765   1.052 -0.1682  0.5728 -0.6674
  287TMC3    C3 4380   1.486   3.635   0.998 -0.2768 -0.0965 -0.3519
  287TMC3    C4 4381   1.594   3.699   1.249 -0.3232  0.3706 -0.3987
  287TMC3    C5 4382   1.613   3.577   1.186 -0.0419  1.0625 -1.3215
  287TMC3    C6 4383   1.553   3.537   1.069 -0.0542  0.5363 -0.0926
  287TMC3     C 4384   1.484   3.927   1.232 -0.7733  0.1255  0.2467
  287TMC3     O 4385   1.452   4.015   1.151  0.2941  0.1738 -0.3812
  287TMC3     H 4386   1.395   3.824   1.012 -0.8095 -0.4288 -0.8452
  287TMC3    H1 4387   1.623   3.721   1.351  1.6760  1.5559 -1.1982
  287TMC3    H2 4388   1.561   3.439   1.023 -0.3819 -0.6267  2.3101
  287TMC3    C7 4389   1.706   3.486   1.241 -0.1099  0.1079  0.0447
  287TMC3    C8 4390   1.401   3.592   0.888 -0.8122 -0.4701  0.2166
  287TMC3    O1 4391   1.733   3.486   1.362 -0.1397  0.9997  0.1472
  287TMC3    O2 4392   1.384   3.472   0.874  0.0263 -0.0071 -0.0163
  288TMC3    C1 4393   3.001   3.785  14.158  0.0141 -0.2812  0.4180
  288TMC3    C2 4394   2.898   3.845  14.223 -0.7776  0.2149 -0.5701
  288TMC3    C3 4395   2.824   3.938  14.156  0.3593 -0.3663  0.2345
  288TMC3    C4 4396   3.028   3.813  14.029 -0.2445 -0.7816  0.3937
  288TMC3    C5 4397   2.950   3.912  13.962  0.3464 -0.2995 -0.4180
  288TMC3    C6 4398   2.853   3.985  14.030  0.5958  0.0319 -0.1547
  288TMC3     C 4399   3.097   3.723  14.242 -0.3196  0.2100  0.0481
  288TMC3     O 4400   3.061   3.695  14.355  0.0061  0.2048 -0.2690
  288TMC3     H 4401   2.887   3.824  14.329  2.4687 -1.4868 -0.5833
  288TMC3    H1 4402   3.112   3.766  13.978 -0.3336 -1.5484  0.9393
  288TMC3    H2 4403   2.787   4.057  13.983  0.3714 -1.2401 -1.8254
  288TMC3    C7 4404   2.948   3.913  13.819  0.0201 -0.0692  0.1069
  288TMC3    C8 4405   2.728   4.004  14.249 -0.6741 -0.2482 -0.0363
  288TMC3    O1 4406   3.053   3.885  13.761  0.5698  0.1472  0.2808
  288TMC3    O2 4407   2.700   4.121  14.228 -0.2509  0.3233 -0.3329
  289MPD2     C 4408   2.656   2.809  14.342  0.3235 -0.4271 -0.6198
  289MPD2    C1 4409   2.631   2.914  14.253 -0.7080 -0.4691 -0.5177
  289MPD2    C2 4410   2.522   2.894  14.169 -0.7404 -0.7209 -0.0897
  289MPD2    C3 4411   2.457   2.773  14.155  0.0298  0.3171  0.3741
  289MPD2    C4 4412   2.474   2.674  14.247 -0.1551 -0.7843 -0.1132
  289MPD2    C5 4413   2.575   2.698  14.337  0.5604 -0.4490  0.6557
  289MPD2     H 4414   2.491   2.972  14.100 -0.5473 -1.3570 -0.8963
  289MPD2    H1 4415   2.411   2.586  14.247 -0.3236 -0.6618  0.2238
  289MPD2    H2 4416   2.724   2.812  14.426  0.7982 -2.3349 -0.9187
  289MPD2    H3 4417   2.581   2.622  14.414  0.8505 -0.4155  0.6667
  289MPD2     N 4418   2.357   2.760  14.050 -0.1758 -0.5839  0.4945
  289MPD2    H5 4419   2.306   2.673  14.055  1.4442 -1.5541  0.0302
  289MPD2    N1 4420   2.708   3.031  14.261 -0.6471  0.3176  0.0729
  289MPD2    H7 4421   2.799   3.018  14.304 -0.2782 -0.9326 -1.0666
  290TMC3    C1 4422   2.182   2.799  13.899  0.2717 -1.2448  0.4828
  290TMC3    C2 4423   2.098   2.898  13.863  0.3777 -0.0364  1.6020
  290TMC3    C3 4424   1.962   2.882  13.882 -0.2273  0.6611 -0.6182
  290TMC3    C4 4425   2.138   2.677  13.941  0.2947  0.6197  0.4064
  290TMC3    C5 4426   2.000   2.655  13.953  0.3453  0.3984  0.4199
  290TMC3    C6 4427   1.909   2.762  13.930 -0.3933 -0.4423 -0.4390
  290TMC3     C 4428   2.310   2.846  13.952  0.4283 -0.4191  0.3729
  290TMC3     O 4429   2.332   2.964  13.931 -0.0601  0.3581 -0.2679
  290TMC3     H 4430   2.135   2.994  13.829  0.7832  0.0192  2.2017
  290TMC3    H1 4431   2.199   2.587  13.937 -2.2023 -1.0417 -0.9763
  290TMC3    H2 4432   1.801   2.751  13.941  0.2794 -3.1056  3.7285
  290TMC3    C7 4433   1.961   2.562  14.053 -0.2997  0.2436 -0.4399
  290TMC3    C8 4434   1.866   2.983  13.856  0.0006  0.4353 -0.4295
  290TMC3    O1 4435   1.881   2.618  14.127  0.0546  0.0023  0.1446
  290TMC3    O2 4436   1.757   2.952  13.815  0.2053 -0.0764  0.7088
  291MPD2     C 4437   1.650   3.106   0.098 -0.7308  0.1358 -0.1687
  291MPD2    C1 4438   1.761   3.063   0.165  0.9460  1.2151  1.2233
  291MPD2    C2 4439   1.865   3.148   0.177 -0.0021 -0.3379 -0.5478
  291MPD2    C3 4440   1.857   3.269   0.122 -0.2431  0.4753 -0.2556
  291MPD2    C4 4441   1.749   3.311   0.046 -0.2177  0.0037  0.2908
  291MPD2    C5 4442   1.642   3.230   0.042  0.1355 -0.6926  0.1031
  291MPD2     H 4443   1.952   3.117   0.234  1.4971  1.0422 -2.1018
  291MPD2    H1 4444   1.737   3.414   0.015  1.4201 -0.8925 -3.2414
  291MPD2    H2 4445   1.567   3.040   0.075  0.9856 -2.2457  0.4466
  291MPD2    H3 4446   1.550   3.264  17.746  1.0677  0.2212 -1.1385
  291MPD2     N 4447   1.962   3.368   0.144  0.2298  0.0487  0.0728
  291MPD2    H5 4448   1.952   3.452   0.089 -0.6489 -0.7645 -1.0223
  291MPD2    N1 4449   1.776   2.923   0.199 -0.3866  0.3145  0.5412
  291MPD2    H7 4450   1.857   2.903   0.256  0.3449  0.7341 -0.3576
  292TMC3    C1 4451   1.748   2.702   0.197  0.4990 -0.4301 -0.0243
  292TMC3    C2 4452   1.829   2.681   0.309  0.5922 -0.3362  0.4896
  292TMC3    C3 4453   1.888   2.561   0.330  0.1077 -0.1345 -0.8608
  292TMC3    C4 4454   1.726   2.600   0.109 -0.4117  0.1815  0.1732
  292TMC3    C5 4455   1.784   2.477   0.133 -0.8467  0.9628 -0.7461
  292TMC3    C6 4456   1.865   2.454   0.241  0.0645 -0.0648 -0.4792
  292TMC3     C 4457   1.685   2.826   0.168 -0.4555 -0.0623 -0.0434
  292TMC3     O 4458   1.583   2.824   0.101  0.3426 -0.4553 -0.4435
  292TMC3     H 4459   1.846   2.767   0.373  0.1327  0.9382 -1.0992
  292TMC3    H1 4460   1.684   2.616   0.010 -1.0648 -0.0086  0.4166
  292TMC3    H2 4461   1.906   2.353   0.242 -1.1092 -0.5177  2.0562
  292TMC3    C7 4462   1.751   2.370   0.052 -0.4735  0.4294  0.2296
  292TMC3    C8 4463   2.010   2.565   0.405 -0.5865 -0.8990 -0.0426
  292TMC3    O1 4464   1.823   2.270   0.050  0.4568  0.7681 -0.2955
  292TMC3    O2 4465   2.062   2.675   0.417  0.4219  0.3191 -0.0455
  293MPD2     C 4466   3.827   3.605  12.313  1.0525 -0.6007 -0.1762
  293MPD2    C1 4467   3.707   3.579  12.379 -0.1585 -0.1000 -0.0735
  293MPD2    C2 4468   3.698   3.612  12.514 -0.3676 -0.0038 -0.0612
  293MPD2    C3 4469   3.795   3.686  12.577  0.2482  0.0251 -0.2801
  293MPD2    C4 4470   3.913   3.712  12.509 -0.6957 -0.3712  0.0595
  293MPD2    C5 4471   3.933   3.670  12.384 -0.1347 -0.2813  0.4115
  293MPD2     H 4472   3.616   3.580  12.577 -2.0253  0.6454 -1.8542
  293MPD2    H1 4473   3.988   3.769  12.563  0.0607 -0.9314 -0.4045
  293MPD2    H2 4474   3.830   3.581  12.207  2.6642  1.3928 -0.5809
  293MPD2    H3 4475   4.027   3.689  12.333 -1.5787  2.6245 -1.1271
  293MPD2     N 4476   3.780   3.734  12.705  0.3751  0.3569  0.5710
  293MPD2    H5 4477   3.700   3.696  12.754  0.8595 -1.9404 -0.4407
  293MPD2    N1 4478   3.599   3.531  12.303  0.7146 -0.2429  0.5216
  293MPD2    H7 4479   3.612   3.513  12.204 -0.1545 -1.0061  0.5427
  294TMC3    C1 4480   3.386   3.436  12.256  0.1324  0.3967  0.6451
  294TMC3    C2 4481   3.253   3.428  12.297  0.8466  0.4423 -0.1931
  294TMC3    C3 4482   3.156   3.403  12.199 -0.3553  0.0377 -0.2294
  294TMC3    C4 4483   3.416   3.433  12.125 -0.0423  1.0980  0.2125
  294TMC3    C5 4484   3.322   3.398  12.030  0.4257 -0.8081  0.8121
  294TMC3    C6 4485   3.187   3.391  12.068 -0.3227  0.4031  0.0326
  294TMC3     C 4486   3.477   3.496  12.350 -0.3842  0.3253 -0.0112
  294TMC3     O 4487   3.433   3.525  12.462  0.4272 -0.1986 -0.2564
  294TMC3     H 4488   3.232   3.440  12.403  0.4426  2.8148 -0.5450
  294TMC3    H1 4489   3.518   3.446  12.089 -1.0605 -0.3343 -3.1675
  294TMC3    H2 4490   3.120   3.350  11.994  1.2268 -0.7195 -0.7636
  294TMC3    C7 4491   3.348   3.433  11.890  0.5568  0.5929 -0.5000
  294TMC3    C8 4492   3.025   3.368  12.244  0.0895  0.6815  0.0280
  294TMC3    O1 4493   3.245   3.448  11.822 -0.3859  0.3670 -0.4963
  294TMC3    O2 4494   2.993   3.403  12.358  0.0889 -0.3633 -0.1817
  295MPD2     C 4495   0.138   3.675   0.823 -1.0888 -0.7548 -0.0132
  295MPD2    C1 4496   0.009   3.631   0.845 -0.1446  0.5466  0.1320
  295MPD2    C2 4497   4.716   3.563   0.963 -0.2323  0.0113 -0.3739
  295MPD2    C3 4498   0.082   3.524   1.056  0.2712  0.3018  1.0638
  295MPD2    C4 4499   0.208   3.564   1.021 -0.0216  0.1448 -0.2170
  295MPD2    C5 4500   0.237   3.636   0.905  0.1591 -1.2610 -0.7856
  295MPD2     H 4501   4.622   3.511   0.971  1.3289 -3.1834 -2.4563
  295MPD2    H1 4502   0.294   3.538   1.082 -0.5729 -0.4437  0.3129
  295MPD2    H2 4503   0.161   3.723   0.728  1.1606 -1.6299  0.1059
  295MPD2    H3 4504   0.340   3.658   0.879  0.4905 -1.0630  0.7510
  295MPD2     N 4505   0.064   3.424   1.154  0.6409  0.3594 -0.2306
  295MPD2    H5 4506   0.147   3.389   1.202  0.2735 -0.7671 -0.4242
  295MPD2    N1 4507   4.634   3.646   0.754 -0.0432 -0.7913 -0.4044
  295MPD2    H7 4508   4.545   3.601   0.776  0.1033 -0.6810  0.4048
  296TMC3    C1 4509   4.692   3.321   1.326 -0.1015 -0.0542  0.2510
  296TMC3    C2 4510   4.605   3.350   1.433 -0.3988  0.5043  0.3809
  296TMC3    C3 4511   4.615   3.267   1.538 -0.4112  0.2470  0.0611
  296TMC3    C4 4512   0.045   3.221   1.324  0.4788 -0.0857  0.3718
  296TMC3    C5 4513   0.049   3.146   1.437  0.8679  0.2033  0.0405
  296TMC3    C6 4514   4.707   3.165   1.549 -0.4704  0.5428  0.3681
  296TMC3     C 4515   4.684   3.413   1.218  0.0973 -0.7083  0.3101
  296TMC3     O 4516   4.583   3.483   1.199 -0.4738 -0.5475  0.0314
  296TMC3     H 4517   4.536   3.434   1.436  1.1721  1.7895  0.5242
  296TMC3    H1 4518   0.102   3.195   1.236  2.3033  1.0181  1.2261
  296TMC3    H2 4519   4.724   3.110   1.641 -2.6433 -1.1650 -0.2425
  296TMC3    C7 4520   0.106   3.017   1.421  0.4638 -0.4953 -0.3778
  296TMC3    C8 4521   4.571   3.316   1.669 -0.4640  0.0265  0.2630
  296TMC3    O1 4522   0.211   3.013   1.360  0.1233  0.7468 -0.3859
  296TMC3    O2 4523   4.639   3.281   1.763 -0.4272  0.2527  0.6434
  297MPD2     C 4524   1.274   4.567  15.880 -0.3079  0.4835  0.1747
  297MPD2    C1 4525   1.254   4.699  15.845 -0.2304  0.1825  0.2474
  297MPD2    C2 4526   1.371   0.039  15.842  0.0357 -0.0300 -0.2011
  297MPD2    C3 4527   1.497   4.726  15.863  0.4091  0.2282 -0.2643
  297MPD2    C4 4528   1.515   4.597  15.891  0.1027  0.2824  0.4545
  297MPD2    C5 4529   1.401   4.519  15.914  0.3927 -0.5922 -0.1071
  297MPD2     H 4530   1.357   0.146  15.833  2.8550  0.5250  1.9800
  297MPD2    H1 4531   1.613   4.552  15.889  0.6203  1.3950  1.2685
  297MPD2    H2 4532   1.187   4.503  15.882 -1.0750  1.5260  0.4058
  297MPD2    H3 4533   1.412   4.414  15.939 -0.4433 -0.5499  0.4486
  297MPD2     N 4534   1.604   0.077  15.849 -0.1685 -0.2007  0.3285
  297MPD2    H5 4535   1.590   0.172  15.817 -0.2447  0.1702  1.4812
  297MPD2    N1 4536   1.130   0.024  15.824 -0.1031 -0.0673  0.2739
  297MPD2    H7 4537   1.121   0.121  15.795 -1.5170 -0.3283 -0.1763
  298TMC3    C1 4538   0.913   0.051  15.793 -0.2250 -0.1715  0.4388
  298TMC3    C2 4539   0.936   0.097  15.664 -0.1132  0.0731 -0.4260
  298TMC3    C3 4540   0.862   0.208  15.627 -0.4691 -0.0675  0.3063
  298TMC3    C4 4541   0.811   0.092  15.875 -0.0725 -0.5514  0.5381
  298TMC3    C5 4542   0.737   0.189  15.817 -0.1292 -0.2822  0.3576
  298TMC3    C6 4543   0.762   0.254  15.704  0.4520  0.1052  0.2576
  298TMC3     C 4544   1.008   4.707  15.855  0.4648  0.3230 -0.5136
  298TMC3     O 4545   0.968   4.614  15.924 -0.4256  0.1582 -0.0828
  298TMC3     H 4546   1.003   0.044  15.597 -1.5751 -2.4909  0.1197
  298TMC3    H1 4547   0.802   0.046  15.973 -0.5305 -2.2483 -0.2987
  298TMC3    H2 4548   0.721   0.353  15.682 -0.9641 -0.5333  0.0094
  298TMC3    C7 4549   0.639   0.236  15.913 -0.8788  1.6259 -0.5644
  298TMC3    C8 4550   0.905   0.271  15.505 -0.5717  0.4658 -0.4779
  298TMC3    O1 4551   0.652   0.207  16.033 -0.1725  0.1468 -0.5500
  298TMC3    O2 4552   1.015   0.248  15.465  0.1870 -0.1893 -0.1446
  299MPD2     C 4553   1.748   0.102  10.164  0.6569 -0.3256  0.2910
  299MPD2    C1 4554   1.759   0.038  10.283 -0.4770  0.1393 -0.3745
  299MPD2    C2 4555   1.657   4.690  10.323  0.2843 -0.3174 -0.1811
  299MPD2    C3 4556   1.539   4.680  10.248 -0.2108 -0.6069 -0.3680
  299MPD2    C4 4557   1.535   0.017  10.132 -0.1407 -0.0718  0.5801
  299MPD2    C5 4558   1.639   0.092  10.088  0.0373  0.2499  0.2573
  299MPD2     H 4559   1.663   4.646  10.422 -0.8761 -0.5122 -0.1975
  299MPD2    H1 4560   1.446   0.011  10.070  1.4313 -2.8002 -1.4350
  299MPD2    H2 4561   1.830   0.153  10.114  0.4614 -0.6628 -0.3596
  299MPD2    H3 4562   1.632   0.127   9.985  0.8994 -0.5433 -0.0716
  299MPD2     N 4563   1.438   4.590  10.284  0.6994 -0.0390 -0.5742
  299MPD2    H5 4564   1.355   4.590  10.225  0.6013 -1.3313 -0.4342
  299MPD2    N1 4565   1.882   0.040  10.361 -0.0149 -0.6620 -0.2125
  299MPD2    H7 4566   1.881   4.721  10.446  2.6165  1.5052  1.2335
  300TMC3    C1 4567   1.316   4.420  10.385  0.2582  0.4628 -0.3737
  300TMC3    C2 4568   1.229   4.440  10.278  0.1425  0.2972 -0.2216
  300TMC3    C3 4569   1.092   4.413  10.287 -0.3356 -0.4575  0.0902
  300TMC3    C4 4570   1.272   4.380  10.503  0.6739 -1.0722  0.9016
  300TMC3    C5 4571   1.131   4.369  10.516  0.4110  0.0189  0.4399
  300TMC3    C6 4572   1.046   4.373  10.409 -0.0730  0.1368 -0.7985
  300TMC3     C 4573   1.430   4.505  10.393 -0.1319 -0.2818  0.5525
  300TMC3     O 4574   1.501   4.504  10.490 -0.1994  0.3090 -0.1330
  300TMC3     H 4575   1.272   4.457  10.179  0.4794 -0.3223 -0.1816
  300TMC3    H1 4576   1.335   4.384  10.591 -1.2616  1.1187  2.1978
  300TMC3    H2 4577   0.942   4.349  10.424  0.0845  0.4639  0.7906
  300TMC3    C7 4578   1.064   4.348  10.643  0.1598 -0.2114 -0.0859
  300TMC3    C8 4579   0.999   4.400  10.178  0.4187  0.3270 -0.3888
  300TMC3    O1 4580   0.944   4.319  10.646 -0.0464  0.1852  0.2765
  300TMC3    O2 4581   0.920   4.309  10.189 -0.3241 -0.2833 -0.4593
  301MPD2     C 4582   4.431   1.188   1.132  0.0231 -0.1028  0.8119
  301MPD2    C1 4583   4.294   1.209   1.146  0.3913  0.0085  0.1470
  301MPD2    C2 4584   4.212   1.109   1.196 -0.2824  0.3184  0.3883
  301MPD2    C3 4585   4.265   0.994   1.250  0.6277 -0.5756 -0.0743
  301MPD2    C4 4586   4.399   0.970   1.251 -0.8592  0.0420 -0.3531
  301MPD2    C5 4587   4.474   1.070   1.194  0.4527 -0.5668 -0.0988
  301MPD2     H 4588   4.109   1.143   1.199  0.2517  2.0235 -0.7038
  301MPD2    H1 4589   4.443   0.878   1.288  0.0677 -0.5987 -3.0337
  301MPD2    H2 4590   4.499   1.266   1.100 -0.9894  0.0805 -0.8861
  301MPD2    H3 4591   4.579   1.046   1.189  1.1621  2.7084 -1.3912
  301MPD2     N 4592   4.182   0.897   1.313  0.1324  0.2618 -0.1163
  301MPD2    H5 4593   4.241   0.828   1.359 -0.0337  0.0527 -0.2136
  301MPD2    N1 4594   4.224   1.319   1.086 -0.0524  0.0417  0.5452
  301MPD2    H7 4595   4.123   1.316   1.100 -0.0618 -1.0799  0.2432
  302TMC3    C1 4596   3.993   0.756   1.342  0.6305  0.3535 -0.1133
  302TMC3    C2 4597   4.089   0.665   1.385 -0.3967 -0.5008  0.1968
  302TMC3    C3 4598   4.053   0.534   1.402  0.0211  0.0008 -0.3134
  302TMC3    C4 4599   3.868   0.721   1.295  0.2757  0.2239  0.1072
  302TMC3    C5 4600   3.837   0.585   1.304 -0.5262 -0.4014  0.6209
  302TMC3    C6 4601   3.923   0.494   1.369  0.4776 -0.9851  0.4661
  302TMC3     C 4602   4.048   0.887   1.291  0.1879  0.0284 -0.0692
  302TMC3     O 4603   3.969   0.955   1.224  0.4835 -0.5957  0.6675
  302TMC3     H 4604   4.182   0.705   1.426  0.3049 -0.1938 -1.6604
  302TMC3    H1 4605   3.805   0.795   1.246  1.9874 -1.0652 -4.0381
  302TMC3    H2 4606   3.894   0.389   1.372 -0.4873 -0.6489  2.7186
  302TMC3    C7 4607   3.715   0.527   1.241 -0.3092  0.2391  0.3204
  302TMC3    C8 4608   4.154   0.453   1.457 -0.4451 -0.2705 -0.5502
  302TMC3    O1 4609   3.694   0.408   1.256 -0.4422 -0.3627 -0.4571
  302TMC3    O2 4610   4.271   0.473   1.423 -0.1583  0.0049  0.7747
  303MPD2     C 4611   4.019   4.497  10.149 -0.6057 -0.5351 -0.8007
  303MPD2    C1 4612   3.962   4.372  10.138  0.7647  0.5675  0.0010
  303MPD2    C2 4613   4.044   4.265  10.111  0.0608 -0.3783 -0.2973
  303MPD2    C3 4614   4.185   4.275  10.106 -0.5439 -0.3290 -0.8638
  303MPD2    C4 4615   4.238   4.402  10.125  0.0468 -0.3892 -0.0696
  303MPD2    C5 4616   4.156   4.511  10.135  0.2575  0.2690  0.1772
  303MPD2     H 4617   3.996   4.169  10.121  0.3038 -0.4239  0.4658
  303MPD2    H1 4618   4.345   4.415  10.111  0.1333  0.6743  1.6626
  303MPD2    H2 4619   3.958   4.585  10.165  1.3278  0.6667 -0.0251
  303MPD2    H3 4620   4.186   4.615  10.134 -0.1167  0.3826  0.7221
  303MPD2     N 4621   4.260   4.156  10.099  0.9157  0.1558  0.2341
  303MPD2    H5 4622   4.204   4.073  10.084 -1.2140  1.6792 -0.2880
  303MPD2    N1 4623   3.820   4.365  10.151  0.3344 -0.0722 -0.3085
  303MPD2    H7 4624   3.768   4.451  10.136 -1.9131 -1.2021  1.0398
  304TMC3    C1 4625   3.606   4.284  10.126 -0.1010 -0.1333 -0.9084
  304TMC3    C2 4626   3.594   4.312   9.990  0.4083 -0.7299 -0.2183
  304TMC3    C3 4627   3.477   4.289   9.930 -0.6534 -0.9007  0.2232
  304TMC3    C4 4628   3.515   4.209  10.196 -0.2082 -0.7138 -0.4660
  304TMC3    C5 4629   3.393   4.200  10.139 -0.4107 -0.2016  0.7219
  304TMC3    C6 4630   3.372   4.241  10.008 -0.0959 -0.6542  0.2271
  304TMC3     C 4631   3.744   4.251  10.150 -0.1436 -0.2347  0.2385
  304TMC3     O 4632   3.777   4.129  10.157 -0.4251  0.6964 -0.0018
  304TMC3     H 4633   3.670   4.366   9.935  1.3474 -2.8965 -1.0716
  304TMC3    H1 4634   3.539   4.176  10.296  0.4523  2.0783  0.3026
  304TMC3    H2 4635   3.275   4.221   9.966  0.8763 -1.8793 -1.4523
  304TMC3    C7 4636   3.327   4.070  10.150 -0.3497 -0.1248  0.4838
  304TMC3    C8 4637   3.488   4.223   9.805  0.5507  0.0701  0.1732
  304TMC3    O1 4638   3.310   4.012  10.047 -0.3394  0.3347 -0.3499
  304TMC3    O2 4639   3.552   4.278   9.718  0.0661 -0.0146 -0.5014
  305MPD2     C 4640   2.346   1.481  13.516  0.0834  0.0195 -0.5424
  305MPD2    C1 4641   2.434   1.377  13.531  0.4126  0.5862 -0.7042
  305MPD2    C2 4642   2.428   1.279  13.427 -0.1716  0.5919  0.1883
  305MPD2    C3 4643   2.349   1.291  13.312  0.3638 -0.3043 -0.1217
  305MPD2    C4 4644   2.263   1.394  13.308 -0.0201  0.3666 -0.6951
  305MPD2    C5 4645   2.258   1.486  13.412  0.3659  0.3046 -0.1681
  305MPD2     H 4646   2.480   1.185  13.440  2.0814  1.6106 -1.3622
  305MPD2    H1 4647   2.192   1.406  13.226 -0.6004 -2.2764 -0.5755
  305MPD2    H2 4648   2.342   1.554  13.597  0.7012  1.4811 -1.8210
  305MPD2    H3 4649   2.193   1.573  13.417 -0.3871 -0.3272  0.9541
  305MPD2     N 4650   2.338   1.182  13.216  0.0811 -0.1997 -0.0575
  305MPD2    H5 4651   2.260   1.182  13.150  0.2269  0.2342 -0.2285
  305MPD2    N1 4652   2.512   1.373  13.651  0.7033  0.1013  0.0876
  305MPD2    H7 4653   2.488   1.442  13.721 -3.9786 -0.0271 -1.4203
  306TMC3    C1 4654   2.708   1.334  13.768  0.1053 -0.1318  0.4141
  306TMC3    C2 4655   2.831   1.277  13.769  0.1223  0.1927 -0.0814
  306TMC3    C3 4656   2.894   1.257  13.893  0.0923  0.4945 -0.5460
  306TMC3    C4 4657   2.650   1.377  13.884 -1.0305  0.7493  0.0856
  306TMC3    C5 4658   2.721   1.371  14.004  0.0840  0.0415  0.1535
  306TMC3    C6 4659   2.842   1.298  14.011  0.1471 -0.3392  0.2669
  306TMC3     C 4660   2.627   1.292  13.660 -0.2291 -0.1697 -0.2943
  306TMC3     O 4661   2.688   1.231  13.570 -0.6549  0.1961  0.3357
  306TMC3     H 4662   2.878   1.261  13.673 -1.4747  0.3755 -0.8952
  306TMC3    H1 4663   2.547   1.408  13.885 -0.1010  3.8666 -2.3565
  306TMC3    H2 4664   2.904   1.277  14.098  0.5467  0.5807  0.2009
  306TMC3    C7 4665   2.651   1.371  14.134  0.1356  0.7501 -0.7932
  306TMC3    C8 4666   3.016   1.179  13.894  0.3949 -0.6233 -0.5300
  306TMC3    O1 4667   2.537   1.332  14.140  0.3193  0.0448 -0.0162
  306TMC3    O2 4668   3.088   1.181  13.993 -0.0406 -0.3175  0.5879
  307MPD2     C 4669   0.244   0.726   0.731  0.2558  1.1685  0.1932
  307MPD2    C1 4670   0.175   0.788   0.631 -0.1460 -0.4367 -0.2475
  307MPD2    C2 4671   0.051   0.839   0.656 -0.4918  0.3803  0.4944
  307MPD2    C3 4672   4.720   0.810   0.778 -0.2932 -0.4025  0.5937
  307MPD2    C4 4673   0.060   0.747   0.871  0.2272  0.2514  0.7210
  307MPD2    C5 4674   0.186   0.704   0.852 -0.1300  0.0374  0.1973
  307MPD2     H 4675   0.002   0.896   0.577 -0.0398 -0.7421 -0.5963
  307MPD2    H1 4676   0.031   0.726   0.973 -0.8671  2.6299  0.9041
  307MPD2    H2 4677   0.345   0.687   0.721 -0.2227  0.2733 -1.1610
  307MPD2    H3 4678   0.239   0.657   0.934 -0.3112 -0.9139 -0.2343
  307MPD2     N 4679   4.591   0.855   0.802 -0.0944  0.1101  0.1645
  307MPD2    H5 4680   4.542   0.898   0.725 -1.2332  1.9463  1.9317
  307MPD2    N1 4681   0.232   0.816   0.505  0.1368 -0.2699  0.4361
  307MPD2    H7 4682   0.172   0.856   0.434 -0.8292 -0.9775  0.8416
  308TMC3    C1 4683   4.173   0.765   0.946  0.2535  0.6534  0.2831
  308TMC3    C2 4684   4.113   0.879   0.903  1.1350  0.8949 -0.2856
  308TMC3    C3 4685   4.196   0.975   0.860  0.1295  0.0983 -0.1037
  308TMC3    C4 4686   4.303   0.752   0.959 -0.3995 -0.8033  0.1901
  308TMC3    C5 4687   4.385   0.848   0.905  0.6698 -0.6310  0.1510
  308TMC3    C6 4688   4.335   0.963   0.853 -0.5883 -0.5113 -0.5361
  308TMC3     C 4689   4.090   0.656   0.986  0.2931 -0.0679 -0.5697
  308TMC3     O 4690   4.141   0.588   1.075 -0.5021 -0.1718  0.9807
  308TMC3     H 4691   4.009   0.898   0.927  1.2295  1.0057  0.0390
  308TMC3    H1 4692   4.342   0.657   0.993 -1.9989 -0.8957  1.7714
  308TMC3    H2 4693   4.401   1.042   0.818 -0.7780 -0.0237  0.1848
  308TMC3    C7 4694   4.526   0.840   0.922  0.6670  1.0328 -0.1774
  308TMC3    C8 4695   4.126   1.086   0.805  0.7616  0.6971  0.1839
  308TMC3    O1 4696   4.559   0.777   1.019  0.7270  0.3758 -0.1203
  308TMC3    O2 4697   4.013   1.100   0.854 -0.0760 -0.1015  0.1229
  309MPD2     C 4698   4.369   0.047  17.218 -0.5002  0.4556  0.0768
  309MPD2    C1 4699   4.305   0.111  17.116  0.2350 -0.5444  0.7725
  309MPD2    C2 4700   4.168   0.157  17.141  0.0519  0.4786  0.2118
  309MPD2    C3 4701   4.100   0.123  17.262 -0.1216 -1.0988 -0.0192
  309MPD2    C4 4702   4.164   0.042  17.356  0.1102  0.4471 -0.8322
  309MPD2    C5 4703   4.297   0.002  17.334 -0.2691  0.2807 -0.1649
  309MPD2     H 4704   4.119   0.208  17.059  1.9977  2.2721  0.1592
  309MPD2    H1 4705   4.126   0.017  17.454  1.4048 -0.0681 -0.4607
  309MPD2    H2 4706   4.475   0.026  17.209 -0.2130  2.3846 -0.9333
  309MPD2    H3 4707   4.354   4.696  17.414  2.0943 -0.4490 -2.2477
  309MPD2     N 4708   3.968   0.167  17.288  0.0702  0.5037 -0.0271
  309MPD2    H5 4709   3.917   0.132  17.369 -2.0160  0.2302 -1.4683
  309MPD2    N1 4710   4.350   0.142  16.988  0.5144  0.3535 -0.3860
  309MPD2    H7 4711   4.281   0.173  16.920  0.2546  0.1372 -0.2251
  310TMC3    C1 4712   4.499   0.165  16.801 -0.3489 -0.0574  0.6136
  310TMC3    C2 4713   4.415   0.247  16.735 -0.5213 -0.4526  0.7616
  310TMC3    C3 4714   4.444   0.278  16.599  0.0574 -0.0470  0.1802
  310TMC3    C4 4715   4.603   0.102  16.736 -0.3441 -0.4256 -0.1834
  310TMC3    C5 4716   4.620   0.127  16.600 -0.5753 -0.0840 -0.6636
  310TMC3    C6 4717   4.534   0.207  16.524  0.4010 -0.2967  0.6950
  310TMC3     C 4718   4.476   0.131  16.944 -0.0531 -0.6670  0.1666
  310TMC3     O 4719   4.574   0.107  17.011  0.0023  0.0322  0.0653
  310TMC3     H 4720   4.332   0.298  16.784 -0.6256 -1.1013  1.2623
  310TMC3    H1 4721   4.673   0.041  16.791 -1.2724 -1.2847  0.0489
  310TMC3    H2 4722   4.561   0.234  16.423 -0.8962 -0.6343  0.2582
  310TMC3    C7 4723   4.691   0.034  16.520 -0.1535 -0.4085  0.8312
  310TMC3    C8 4724   4.327   0.307  16.502 -0.3001 -0.2105 -0.0277
  310TMC3    O1 4725   4.652   0.023  16.406  0.6949  0.3366 -0.3047
  310TMC3    O2 4726   4.347   0.290  16.380  0.1673 -0.3859  0.2735
  311MPD2     C 4727   1.428   0.517  12.583 -0.3805  0.2129  0.4786
  311MPD2    C1 4728   1.409   0.645  12.532  0.0512 -0.2776  0.5066
  311MPD2    C2 4729   1.287   0.694  12.556  0.0068 -0.2183 -0.1634
  311MPD2    C3 4730   1.179   0.614  12.598 -0.9243  1.1980 -0.9283
  311MPD2    C4 4731   1.201   0.481  12.646 -0.2311 -0.2649 -0.7792
  311MPD2    C5 4732   1.334   0.443  12.643  0.3072  0.0560  0.5408
  311MPD2     H 4733   1.266   0.801  12.549  1.1942 -0.0124 -0.5015
  311MPD2    H1 4734   1.121   0.420  12.687 -0.0536  0.8146  1.1725
  311MPD2    H2 4735   1.525   0.468  12.577 -0.9806 -1.1028  1.6435
  311MPD2    H3 4736   1.360   0.353  12.697  1.3914  1.5232  2.4558
  311MPD2     N 4737   1.056   0.677  12.615  0.4194  0.0119 -0.5861
  311MPD2    H5 4738   1.053   0.773  12.581 -2.0418 -0.0551 -0.6189
  311MPD2    N1 4739   1.505   0.732  12.478  0.0832  0.7253 -0.2141
  311MPD2    H7 4740   1.488   0.829  12.455  0.7827 -0.1289 -4.2704
  312TMC3    C1 4741   0.840   0.728  12.665 -0.0557 -0.3007  0.2656
  312TMC3    C2 4742   0.716   0.684  12.620 -0.4398  0.2855  0.0014
  312TMC3    C3 4743   0.631   0.785  12.588  0.6911  0.0906 -0.2389
  312TMC3    C4 4744   0.886   0.854  12.671  1.1108 -0.6976 -0.5329
  312TMC3    C5 4745   0.796   0.952  12.628  0.7887  0.3441 -0.1207
  312TMC3    C6 4746   0.664   0.918  12.584 -0.1790  0.4649  0.3465
  312TMC3     C 4747   0.942   0.623  12.672 -0.7754 -0.0396 -0.3296
  312TMC3     O 4748   0.918   0.507  12.706 -0.2148 -0.4808 -0.0793
  312TMC3     H 4749   0.684   0.580  12.620 -0.3499  0.2579  0.7778
  312TMC3    H1 4750   0.982   0.872  12.718  0.6516 -0.7718  0.4213
  312TMC3    H2 4751   0.595   1.000  12.567 -0.7518 -0.5041 -1.8754
  312TMC3    C7 4752   0.836   1.092  12.610  0.1199 -0.6809 -0.2260
  312TMC3    C8 4753   0.495   0.750  12.556 -0.2418  0.4720 -0.4460
  312TMC3    O1 4754   0.764   1.168  12.546 -0.2154  0.7601 -0.0059
  312TMC3    O2 4755   0.466   0.634  12.574  0.4351  0.3402  0.0235
  313MPD2     C 4756   0.272   0.311  11.388 -0.1753  0.7227 -0.2144
  313MPD2    C1 4757   0.369   0.366  11.308  0.5582 -0.1623  0.3389
  313MPD2    C2 4758   0.456   0.274  11.257 -0.4409 -0.1337  0.3832
  313MPD2    C3 4759   0.439   0.136  11.270 -0.6417  0.0291 -0.4890
  313MPD2    C4 4760   0.341   0.081  11.349  0.3710  0.2920  0.3887
  313MPD2    C5 4761   0.265   0.178  11.411  0.0137 -0.2546  0.5770
  313MPD2     H 4762   0.534   0.306  11.188  0.2728 -1.7665  0.4357
  313MPD2    H1 4763   0.316   4.713  11.353  0.7855  0.1551 -0.7330
  313MPD2    H2 4764   0.203   0.383  11.432  1.2302  1.8584  0.1414
  313MPD2    H3 4765   0.177   0.155  11.470 -1.5717  2.7005 -0.6553
  313MPD2     N 4766   0.515   0.061  11.184 -0.1055 -0.4101  0.0526
  313MPD2    H5 4767   0.605   0.099  11.156 -1.2486  2.8516  0.8286
  313MPD2    N1 4768   0.380   0.503  11.278  0.8524 -0.1806  0.3714
  313MPD2    H7 4769   0.458   0.524  11.217 -0.1809  1.1605 -0.5150
  314TMC3    C1 4770   0.329   0.724  11.233 -0.6967 -0.2370  0.2238
  314TMC3    C2 4771   0.462   0.738  11.205 -0.7447 -0.0925 -0.4955
  314TMC3    C3 4772   0.504   0.841  11.123 -0.1729 -0.3600 -0.3216
  314TMC3    C4 4773   0.232   0.796  11.173  0.0657  0.1683 -0.0840
  314TMC3    C5 4774   0.271   0.887  11.078 -0.6050 -0.1949  1.1327
  314TMC3    C6 4775   0.406   0.909  11.049  0.7382 -0.7014  0.3294
  314TMC3     C 4776   0.284   0.599  11.298 -0.9831 -0.7818  0.8185
  314TMC3     O 4777   0.165   0.589  11.331  0.7046 -0.0166  0.4773
  314TMC3     H 4778   0.535   0.683  11.264 -2.1323 -0.0149  1.2990
  314TMC3    H1 4779   0.127   0.769  11.183 -0.2830  1.0275 -1.4256
  314TMC3    H2 4780   0.439   0.997  10.995  1.9907 -0.9307  0.7359
  314TMC3    C7 4781   0.185   0.905  10.962  0.1844  0.5451 -0.5792
  314TMC3    C8 4782   0.643   0.853  11.076 -0.7405  0.0485  0.0882
  314TMC3    O1 4783   0.071   0.866  10.968 -0.4695  0.3935  0.2282
  314TMC3    O2 4784   0.640   0.881  10.959  0.2352 -0.3017 -0.1557
  315MPD2     C 4785   0.415   4.733  17.708 -0.0830 -0.6847 -0.3071
  315MPD2    C1 4786   0.532   0.008   0.028  0.1003  0.0276 -0.0717
  315MPD2    C2 4787   0.622   0.113   0.006  0.1788 -0.6681 -1.4355
  315MPD2    C3 4788   0.600   0.207  17.669  0.2454 -0.4606 -0.2515
  315MPD2    C4 4789   0.476   0.199  17.609 -0.1809  0.4256 -0.1277
  315MPD2    C5 4790   0.383   0.101  17.625 -0.4666  0.0320  0.5436
  315MPD2     H 4791   0.725   0.112   0.039 -0.3272  1.5229  0.2679
  315MPD2    H1 4792   0.451   0.267  17.529 -0.9211  1.2985  0.8392
  315MPD2    H2 4793   0.341   4.656  17.725 -2.0966  1.4653  0.6906
  315MPD2    H3 4794   0.291   0.107  17.568  1.2749 -1.3028 -2.3744
  315MPD2     N 4795   0.697   0.308  17.637  0.3813  0.4970 -0.0198
  315MPD2    H5 4796   0.787   0.299  17.682 -0.2183 -0.8891  0.9163
  315MPD2    N1 4797   0.563   4.652   0.130 -0.4147  0.7029  0.1899
  315MPD2    H7 4798   0.527   4.558   0.120 -1.8790  1.2690  0.1882
  316TMC3    C1 4799   0.812   0.466  17.507 -0.4577  0.8077  0.2874
  316TMC3    C2 4800   0.902   0.441  17.611  0.9772 -0.3461 -0.4553
  316TMC3    C3 4801   1.037   0.418  17.577 -0.2084 -0.0019  0.1568
  316TMC3    C4 4802   0.851   0.466  17.374 -0.4415 -0.3855  0.8189
  316TMC3    C5 4803   0.983   0.444  17.347 -0.2790 -0.7998 -0.7023
  316TMC3    C6 4804   1.073   0.411  17.442  0.1413  0.8292  0.3276
  316TMC3     C 4805   0.691   0.390  17.530 -0.1088  0.1391  0.4636
  316TMC3     O 4806   0.613   0.387  17.436  0.7744  0.0291 -0.2689
  316TMC3     H 4807   0.882   0.460  17.716 -0.1567  2.3256 -1.1753
  316TMC3    H1 4808   0.784   0.500  17.296  1.6755  1.3706 -0.2164
  316TMC3    H2 4809   1.177   0.413  17.410 -0.6473 -0.8742 -2.3374
  316TMC3    C7 4810   1.032   0.473  17.208  0.5268  0.1329 -0.1346
  316TMC3    C8 4811   1.139   0.392  17.680 -0.6074 -0.6111 -0.3726
  316TMC3    O1 4812   1.152   0.467  17.191 -0.1054  0.0107  0.4309
  316TMC3    O2 4813   1.132   0.452   0.033 -0.0206 -0.1691 -0.7465
  317MPD2     C 4814   2.682   2.367  12.312 -0.4634  0.2241 -0.7185
  317MPD2    C1 4815   2.805   2.322  12.361  0.1804 -0.2698  0.0797
  317MPD2    C2 4816   2.839   2.342  12.497  0.0014  0.8590 -0.5226
  317MPD2    C3 4817   2.740   2.388  12.583 -0.1342  0.3922  0.1701
  317MPD2    C4 4818   2.621   2.430  12.540 -0.3810  0.4698  0.1871
  317MPD2    C5 4819   2.600   2.426  12.406 -0.4319  0.0391  0.5504
  317MPD2     H 4820   2.933   2.309  12.539 -1.4976 -0.3239  1.8848
  317MPD2    H1 4821   2.548   2.482  12.601  1.1877 -0.2313  2.6692
  317MPD2    H2 4822   2.651   2.379  12.208  0.2242  0.1313 -0.9359
  317MPD2    H3 4823   2.511   2.472  12.363 -0.5142 -0.9727 -0.3845
  317MPD2     N 4824   2.774   2.375  12.721  0.6390 -0.1001  0.1570
  317MPD2    H5 4825   2.864   2.331  12.732  1.5664  1.7602  0.0641
  317MPD2    N1 4826   2.897   2.257  12.286  0.2473 -0.8324  0.1795
  317MPD2    H7 4827   2.978   2.228  12.341 -0.1275  0.8268  1.6145
  318TMC3    C1 4828   2.752   2.321  12.943 -0.2903  0.0516  1.2849
  318TMC3    C2 4829   2.673   2.241  13.019  0.3174  1.0836  0.0009
  318TMC3    C3 4830   2.716   2.174  13.127 -0.7995 -0.1203 -0.1638
  318TMC3    C4 4831   2.878   2.338  12.982 -0.1826 -0.2305  0.1197
  318TMC3    C5 4832   2.928   2.263  13.085 -0.1220 -0.4271 -0.6208
  318TMC3    C6 4833   2.849   2.173  13.155 -0.1349  0.4063  0.2131
  318TMC3     C 4834   2.687   2.383  12.829  0.0420  0.1748 -0.1560
  318TMC3     O 4835   2.569   2.400  12.831 -0.4083  0.4190 -0.2481
  318TMC3     H 4836   2.567   2.248  12.997  0.5150  2.5209 -0.4777
  318TMC3    H1 4837   2.946   2.404  12.928 -0.0318  2.4458  3.6146
  318TMC3    H2 4838   2.882   2.109  13.237 -1.1574 -1.6495 -0.9854
  318TMC3    C7 4839   3.039   2.332  13.153 -0.4837 -0.4288  0.2729
  318TMC3    C8 4840   2.638   2.069  13.190 -0.7931  0.1381 -0.6780
  318TMC3    O1 4841   3.028   2.457  13.145  0.2973 -0.8776  0.5881
  318TMC3    O2 4842   2.696   1.993  13.269  0.0261 -0.7460  0.0832
  319MPD2     C 4843   3.921   4.513  16.039  0.2689  0.5635  0.5671
  319MPD2    C1 4844   3.853   4.506  16.160  0.6072  0.3778 -0.6456
  319MPD2    C2 4845   3.717   4.479  16.156 -0.0867 -0.5286 -0.1465
  319MPD2    C3 4846   3.655   4.445  16.032  0.6474  0.0748 -0.0584
  319MPD2    C4 4847   3.730   4.468  15.912  0.2847 -0.3527  0.9566
  319MPD2    C5 4848   3.860   4.505  15.917 -0.4706  0.5914  0.0292
  319MPD2     H 4849   3.656   4.490  16.245  2.0755 -2.0339  1.5136
  319MPD2    H1 4850   3.687   4.447  15.814  0.5610 -2.4661  1.2824
  319MPD2    H2 4851   4.026   4.538  16.031 -0.3499  2.5302 -1.5022
  319MPD2    H3 4852   3.918   4.510  15.825 -0.2497  2.3850  0.2685
  319MPD2     N 4853   3.521   4.398  16.035  0.5897  0.0175  0.1244
  319MPD2    H5 4854   3.471   4.371  16.119 -0.5792  1.8386 -0.0028
  319MPD2    N1 4855   3.914   4.526  16.285 -0.0218  0.1801  0.6590
  319MPD2    H7 4856   3.853   4.525  16.366 -1.9470  0.5979 -0.7866
  320TMC3    C1 4857   3.313   4.318  15.949 -0.7681 -0.0077  0.1737
  320TMC3    C2 4858   3.216   4.331  15.855 -0.6477 -0.5804 -0.5180
  320TMC3    C3 4859   3.108   4.249  15.848 -0.1077  0.1733 -0.3525
  320TMC3    C4 4860   3.314   4.212  16.032  0.7090  0.3810 -0.6168
  320TMC3    C5 4861   3.202   4.136  16.026 -0.2300 -0.4894 -0.5297
  320TMC3    C6 4862   3.094   4.148  15.942  1.1935  0.3666  0.1606
  320TMC3     C 4863   3.430   4.407  15.930  0.2939 -0.1896 -0.8780
  320TMC3     O 4864   3.432   4.473  15.828  0.0045 -0.3478 -0.3769
  320TMC3     H 4865   3.228   4.411  15.783  0.4475 -0.4070 -0.1404
  320TMC3    H1 4866   3.399   4.182  16.091  0.0478  1.7648  1.0401
  320TMC3    H2 4867   3.016   4.072  15.938  2.2925 -0.7480 -0.0227
  320TMC3    C7 4868   3.192   4.017  16.113  0.0521 -0.3176  0.6120
  320TMC3    C8 4869   3.028   4.258  15.719  0.2803  0.3322  0.2018
  320TMC3    O1 4870   3.106   3.936  16.084  0.5205  0.4723  0.0161
  320TMC3    O2 4871   3.073   4.325  15.623 -0.1146 -0.5979  0.1950
  321TMC3    C1 4872   4.084   4.558  16.449  0.5954 -0.3299 -0.0858
  321TMC3    C2 4873   4.021   4.659  16.519 -0.2106  0.1905  0.2034
  321TMC3    C3 4874   4.093   0.009  16.592 -0.3964 -0.1621  0.2617
  321TMC3    C4 4875   4.218   4.531  16.463  0.2569 -0.2690 -0.8265
  321TMC3    C5 4876   4.281   4.608  16.555  0.6467  0.4469  0.5127
  321TMC3    C6 4877   4.222   4.723  16.610  0.3704  0.2179 -0.4012
  321TMC3     C 4878   4.047   4.545  16.310 -0.1679 -0.0534 -0.5664
  321TMC3     O 4879   4.149   4.541  16.242 -0.2621  0.4196 -0.0341
  321TMC3     H 4880   3.913   4.672  16.521 -0.2416 -0.0936  0.7229
  321TMC3    H1 4881   4.258   4.448  16.405 -1.4015 -1.4306 -0.3068
  321TMC3    H2 4882   4.277   0.044  16.683 -1.1300  2.0870 -0.7786
  321TMC3    C7 4883   4.346   4.526  16.655  0.0195 -0.3915  0.5927
  321TMC3    C8 4884   4.030   0.051  16.724  0.0130  0.1271  0.2089
  321TMC3    O1 4885   4.353   4.584  16.764  0.1030 -0.4138  0.0273
  321TMC3    O2 4886   4.108   0.102  16.799  0.3115 -0.6281 -0.1491
  322MPD2     C 4887   2.266   0.217  12.919 -0.0858 -0.5889  0.1007
  322MPD2    C1 4888   2.313   0.251  13.040 -0.6865 -0.4851  0.3285
  322MPD2    C2 4889   2.325   0.140  13.123  0.4133 -0.5060  0.1112
  322MPD2    C3 4890   2.297   0.013  13.085  0.3833 -0.0969  0.2396
  322MPD2    C4 4891   2.243   4.730  12.958 -0.0370 -0.2373  0.5808
  322MPD2    C5 4892   2.230   0.095  12.883 -0.2567 -0.6833 -0.0967
  322MPD2     H 4893   2.347   0.156  13.228  0.4360 -1.4298  0.2553
  322MPD2    H1 4894   2.210   4.634  12.919 -0.8497  0.7991 -1.2925
  322MPD2    H2 4895   2.249   0.300  12.851 -0.6023  0.8657  1.9846
  322MPD2    H3 4896   2.186   0.076  12.786 -0.5855  1.0001 -0.2808
  322MPD2     N 4897   2.325   4.647  13.178 -0.4230 -0.1905  0.4953
  322MPD2    H5 4898   2.367   4.663  13.269  0.3834  0.9512 -0.0731
  322MPD2    N1 4899   2.345   0.384  13.079 -0.0745 -0.4151 -0.5058
  322MPD2    H7 4900   2.359   0.448  13.002 -1.4590  0.3341 -0.1487
  323TMC3    C1 4901   2.420   0.556  13.223  0.1200 -0.0220  0.3139
  323TMC3    C2 4902   2.508   0.597  13.123  0.3029 -0.0113  0.3673
  323TMC3    C3 4903   2.597   0.700  13.149  0.1906 -0.1583 -0.6878
  323TMC3    C4 4904   2.427   0.615  13.346 -0.8520 -0.0798 -0.3235
  323TMC3    C5 4905   2.520   0.711  13.372  0.0713 -0.1191  0.3730
  323TMC3    C6 4906   2.611   0.758  13.277 -0.4565 -0.7070  0.5670
  323TMC3     C 4907   2.349   0.431  13.209 -0.3556  0.0448  0.4924
  323TMC3     O 4908   2.311   0.366  13.304  0.1868  0.3578 -0.1922
  323TMC3     H 4909   2.501   0.560  13.022  0.6686 -0.0316  0.3512
  323TMC3    H1 4910   2.360   0.578  13.423 -0.5857 -0.5432 -0.3115
  323TMC3    H2 4911   2.693   0.825  13.301 -0.7097  0.4485 -1.8379
  323TMC3    C7 4912   2.565   0.743  13.506  0.2099  0.0552  0.0158
  323TMC3    C8 4913   2.708   0.725  13.059  0.4051 -0.9782 -0.6266
  323TMC3    O1 4914   2.623   0.850  13.512  0.3700  0.3389 -0.3555
  323TMC3    O2 4915   2.801   0.785  13.107 -0.4433  0.2779 -0.0782
  324MPD2     C 4916   4.074   1.399  14.234 -0.5980 -0.4074  0.0666
  324MPD2    C1 4917   4.041   1.517  14.172  0.0658 -0.1961 -0.3240
  324MPD2    C2 4918   3.915   1.549  14.134 -0.2228 -0.7556  0.0346
  324MPD2    C3 4919   3.811   1.461  14.160 -0.3265  0.3293  0.8082
  324MPD2    C4 4920   3.846   1.343  14.232  0.6071  0.0446  0.4677
  324MPD2    C5 4921   3.974   1.312  14.267  0.2000  0.6573 -0.2106
  324MPD2     H 4922   3.905   1.644  14.083 -0.2304 -0.2858  0.9187
  324MPD2    H1 4923   3.764   1.275  14.251  0.0421  0.2911 -1.0507
  324MPD2    H2 4924   4.171   1.372  14.274 -0.9752  1.5486  2.2383
  324MPD2    H3 4925   4.001   1.219  14.316 -2.5409  1.0846  2.1147
  324MPD2     N 4926   3.675   1.479  14.116  0.3729 -0.3230  0.1176
  324MPD2    H5 4927   3.617   1.402  14.149  0.9014 -1.2364 -1.1119
  324MPD2    N1 4928   4.144   1.612  14.141  0.3197  0.1199 -0.2634
  324MPD2    H7 4929   4.119   1.684  14.074  0.4951 -1.8312 -2.3903
  325TMC3    C1 4930   3.496   1.590  13.998 -0.1235  0.0908 -0.3261
  325TMC3    C2 4931   3.442   1.473  13.949 -0.2881  0.1723  0.2252
  325TMC3    C3 4932   3.338   1.481  13.860 -0.2810  0.0118 -0.0229
  325TMC3    C4 4933   3.443   1.709  13.969  0.2817  0.2390  0.4615
  325TMC3    C5 4934   3.333   1.718  13.889 -0.9912  0.6401 -0.3804
  325TMC3    C6 4935   3.284   1.603  13.826  0.1912 -0.1880  0.1616
  325TMC3     C 4936   3.631   1.591  14.043 -0.0682  0.8079 -0.2163
  325TMC3     O 4937   3.691   1.684  13.992  0.7711 -0.1768 -0.3891
  325TMC3     H 4938   3.477   1.376  13.984  1.2478  0.3408 -0.8222
  325TMC3    H1 4939   3.484   1.797  14.016  1.8143 -0.7333  0.9227
  325TMC3    H2 4940   3.209   1.608  13.749 -0.0339 -1.2071  0.3191
  325TMC3    C7 4941   3.281   1.845  13.835  0.5985 -0.1270 -0.7839
  325TMC3    C8 4942   3.333   1.364  13.778  0.2109 -0.1056  0.6644
  325TMC3    O1 4943   3.205   1.829  13.740 -0.0366  0.2675 -0.7038
  325TMC3    O2 4944   3.413   1.275  13.800  0.0152 -0.0851 -0.1826
  326MPD2     C 4945   4.680   3.028  11.128 -0.5818  0.1361 -0.0992
  326MPD2    C1 4946   0.026   2.966  11.041 -0.0036  0.4321  0.2906
  326MPD2    C2 4947   0.164   2.954  11.069  0.8255 -0.1282  0.7164
  326MPD2    C3 4948   0.226   3.032  11.163  0.0495 -0.0982 -0.0533
  326MPD2    C4 4949   0.138   3.114  11.240 -0.1453  0.6323 -0.0315
  326MPD2    C5 4950   0.007   3.095  11.231  0.3171 -0.2921 -0.3508
  326MPD2     H 4951   0.222   2.895  10.999  0.0370 -0.7487  0.5808
  326MPD2    H1 4952   0.184   3.183  11.310  0.0773  0.4423  0.0113
  326MPD2    H2 4953   4.575   3.049  11.113 -0.0683  0.9837 -2.3970
  326MPD2    H3 4954   4.668   3.145  11.289 -0.2308 -0.4524 -0.9383
  326MPD2     N 4955   0.364   3.049  11.186 -0.5249  0.9048 -0.8212
  326MPD2    H5 4956   0.395   3.115  11.257 -0.3713 -0.3898  0.3345
  326MPD2    N1 4957   4.719   2.888  10.932 -0.2533 -0.3932 -0.3258
  326MPD2    H7 4958   0.058   2.846  10.881 -0.3273 -1.4929  0.4635
  327TMC3    C1 4959   4.577   2.787  10.775  0.3108  0.1910 -0.1963
  327TMC3    C2 4960   4.502   2.839  10.675  0.5197 -0.1907  0.5759
  327TMC3    C3 4961   4.515   2.796  10.549  0.5567  0.0169 -0.9572
  327TMC3    C4 4962   4.663   2.687  10.755  0.0048  0.1716  0.1484
  327TMC3    C5 4963   4.687   2.649  10.623 -0.9984 -0.3717 -0.2848
  327TMC3    C6 4964   4.618   2.704  10.523 -0.7992 -0.3705 -0.0523
  327TMC3     C 4965   4.592   2.880  10.883 -0.4113  0.1401  0.0329
  327TMC3     O 4966   4.498   2.954  10.907 -0.2619 -0.1903  0.4370
  327TMC3     H 4967   4.459   2.936  10.693 -1.4090 -0.6898 -1.2710
  327TMC3    H1 4968   4.713   2.643  10.841 -0.3099 -1.3775 -0.4563
  327TMC3    H2 4969   4.636   2.671  10.422  0.3544 -0.1640  0.0881
  327TMC3    C7 4970   0.005   2.521  10.600 -0.9022 -0.3331  0.2853
  327TMC3    C8 4971   4.494   2.906  10.454  0.3736  0.8270 -0.2883
  327TMC3    O1 4972   4.698   2.464  10.502 -0.2682  0.3847 -0.1564
  327TMC3    O2 4973   4.405   2.983  10.488 -0.1081  0.2505 -0.2051
  328MPD2     C 4974   2.939   2.237  17.311 -0.3578 -0.9978  0.1946
  328MPD2    C1 4975   2.907   2.362  17.363  0.4005 -0.0934  0.1995
  328MPD2    C2 4976   2.911   2.473  17.277 -0.2735  0.1968 -0.1459
  328MPD2    C3 4977   2.941   2.449  17.145 -0.0903 -0.3964  0.0015
  328MPD2    C4 4978   2.947   2.323  17.089  1.1308 -0.6112 -0.6710
  328MPD2    C5 4979   2.978   2.220  17.176  0.3666  0.2483  0.7694
  328MPD2     H 4980   2.886   2.576  17.301 -0.6035 -0.2938  1.6080
  328MPD2    H1 4981   2.969   2.308  16.984 -0.6151  0.3405 -1.1751
  328MPD2    H2 4982   2.948   2.151  17.377  1.9174  0.5926  1.9734
  328MPD2    H3 4983   3.011   2.124  17.137 -0.8703 -0.1091  0.5959
  328MPD2     N 4984   2.962   2.558  17.058 -0.0217  0.2079 -0.1457
  328MPD2    H5 4985   2.969   2.545  16.957 -2.7605 -3.1011  0.0484
  328MPD2    N1 4986   2.874   2.365  17.499  0.2829  0.0591  0.8361
  328MPD2    H7 4987   2.870   2.273  17.541  0.6019 -0.9373 -1.3020
  329TMC3    C1 4988   2.756   2.433  17.686  0.4819  0.4575  0.4537
  329TMC3    C2 4989   2.649   2.506  17.729 -0.1031  0.0372  0.5805
  329TMC3    C3 4990   2.575   2.447   0.082  0.7342  1.1643 -0.1596
  329TMC3    C4 4991   2.785   2.310  17.738  0.0004  0.7599 -0.1226
  329TMC3    C5 4992   2.716   2.258   0.093 -0.3171  0.3225 -0.8698
  329TMC3    C6 4993   2.605   2.325   0.149 -0.1094 -0.3742  0.1659
  329TMC3     C 4994   2.820   2.477  17.561 -0.5079 -0.2794 -0.6606
  329TMC3     O 4995   2.801   2.587  17.514 -0.0815  0.0856  0.1782
  329TMC3     H 4996   2.634   2.603  17.683  1.8664 -0.2055 -0.6057
  329TMC3    H1 4997   2.879   2.260  17.715  0.8489  1.1849  2.4916
  329TMC3    H2 4998   2.549   2.282   0.232  0.1261 -1.1328 -0.0627
  329TMC3    C7 4999   2.768   2.132   0.148 -0.2691 -0.0119 -0.2034
  329TMC3    C8 5000   2.449   2.512   0.106 -0.8072 -0.3547  0.4977
  329TMC3    O1 5001   2.817   2.048   0.073 -0.2514  0.1780  0.2619
  329TMC3    O2 5002   2.354   2.442   0.139  0.3990 -0.0748 -0.1455
  330TMC3    C1 5003   0.382   2.137   9.803 -0.0339  0.3555 -0.0444
  330TMC3    C2 5004   0.330   2.087   9.684  0.6973  0.1265 -0.6104
  330TMC3    C3 5005   0.408   2.000   9.618 -0.0865  0.4382  0.1575
  330TMC3    C4 5006   0.509   2.107   9.851 -0.4344 -0.4979 -0.3952
  330TMC3    C5 5007   0.582   2.018   9.780 -0.3237 -0.1595 -0.4862
  330TMC3    C6 5008   0.532   1.962   9.668  0.6733  0.5205 -0.4334
  330TMC3     C 5009   0.310   2.239   9.870  0.5319  0.4563 -0.7188
  330TMC3     O 5010   0.379   2.324   9.921 -0.5480 -0.3408  0.7563
  330TMC3     H 5011   0.235   2.123   9.648 -0.5925  0.5198  3.2007
  330TMC3    H1 5012   0.550   2.138   9.946  0.0891 -0.0086 -0.7798
  330TMC3    H2 5013   0.608   1.919   9.604 -1.6403 -0.1090 -2.7983
  330TMC3    C7 5014   0.707   1.973   9.835 -0.0385 -0.4326 -0.3406
  330TMC3    C8 5015   0.353   1.926   9.509 -0.1654 -0.0087  0.0476
  330TMC3    O1 5016   0.749   1.862   9.799  0.0066  0.0107 -0.2161
  330TMC3    O2 5017   0.238   1.965   9.473 -0.7396 -0.0223  0.6684
  331MPD2     C 5018   4.486   1.222  12.237 -0.2594  0.0314  0.1079
  331MPD2    C1 5019   4.390   1.313  12.213  0.0046  0.2510 -0.1713
  331MPD2    C2 5020   4.255   1.282  12.225  0.2693 -0.1467 -0.3391
  331MPD2    C3 5021   4.209   1.160  12.266 -0.3892 -0.8001  0.0291
  331MPD2    C4 5022   4.304   1.066  12.290  0.3568  0.0767  0.3743
  331MPD2    C5 5023   4.437   1.098  12.273  0.4459 -0.7561 -0.2865
  331MPD2     H 5024   4.186   1.358  12.190  0.0690  0.6399  1.7398
  331MPD2    H1 5025   4.293   0.962  12.320 -1.5085  0.3742  0.6916
  331MPD2    H2 5026   4.590   1.245  12.220  0.1198 -0.7547  1.3945
  331MPD2    H3 5027   4.511   1.023  12.298  0.4036 -0.5404  0.5008
  331MPD2     N 5028   4.067   1.145  12.268 -0.0053  0.1658  0.8378
  331MPD2    H5 5029   4.007   1.222  12.241  1.2512  1.2504  1.1487
  331MPD2    N1 5030   4.425   1.446  12.172 -0.4212  0.2616  0.6386
  331MPD2    H7 5031   4.360   1.520  12.199 -0.6777 -0.3676  1.7694
  332TMC3    C1 5032   3.857   1.058  12.301 -0.8846  0.7821  0.4524
  332TMC3    C2 5033   3.814   1.109  12.182  0.3897  0.7225  0.4358
  332TMC3    C3 5034   3.720   1.042  12.117 -0.9895  0.0445  0.2049
  332TMC3    C4 5035   3.798   0.946  12.354 -0.2348 -0.2081  0.4519
  332TMC3    C5 5036   3.697   0.884  12.287 -0.0798  0.3532 -0.0237
  332TMC3    C6 5037   3.652   0.931  12.173 -0.2333 -0.1700  0.4100
  332TMC3     C 5038   3.996   1.032  12.306  0.5095  0.4105 -0.3102
  332TMC3     O 5039   4.039   0.921  12.345  0.1793  0.7073  0.7638
  332TMC3     H 5040   3.862   1.193  12.132  1.5438  0.9622  1.9652
  332TMC3    H1 5041   3.841   0.905  12.445  1.7800  2.4286  0.6609
  332TMC3    H2 5042   3.590   0.870  12.110 -0.7662  2.1138 -1.2846
  332TMC3    C7 5043   3.698   0.741  12.314 -0.7551  0.7933 -0.4078
  332TMC3    C8 5044   3.690   1.069  11.976 -0.3900 -0.4064 -0.1538
  332TMC3    O1 5045   3.601   0.669  12.294  0.3723 -0.4373 -0.0738
  332TMC3    O2 5046   3.772   1.143  11.921 -0.5068 -0.1326 -0.0858
  333MPD2     C 5047   3.874   1.091  11.168  0.8525 -0.9617  0.2077
  333MPD2    C1 5048   3.876   1.009  11.063 -0.2722  0.2080  0.1324
  333MPD2    C2 5049   3.888   0.873  11.066 -0.2741 -0.2389  0.8429
  333MPD2    C3 5050   3.883   0.819  11.194  0.1064  0.0903 -0.6203
  333MPD2    C4 5051   3.879   0.898  11.307 -0.3768  0.1435 -0.3911
  333MPD2    C5 5052   3.869   1.033  11.291 -0.2216  0.1898 -0.6126
  333MPD2     H 5053   3.903   0.808  10.981  0.6076 -0.2339  0.9887
  333MPD2    H1 5054   3.890   0.858  11.408  1.2888  0.3632 -0.4988
  333MPD2    H2 5055   3.880   1.199  11.161  2.4263 -1.1683 -1.5349
  333MPD2    H3 5056   3.874   1.093  11.382 -0.9202 -0.4386 -0.1606
  333MPD2     N 5057   3.904   0.678  11.202 -0.1856 -0.0513 -0.4352
  333MPD2    H5 5058   3.894   0.633  11.112 -0.1458 -2.5129  0.7863
  333MPD2    N1 5059   3.886   1.076  10.939 -0.5691  0.2456  0.2149
  333MPD2    H7 5060   3.891   1.177  10.947 -3.9441  0.4496 -0.0324
  334TMC3    C1 5061   3.907   1.116  10.710 -0.4029  0.1234  0.4293
  334TMC3    C2 5062   3.997   1.118  10.608 -0.1770 -0.8895  0.4491
  334TMC3    C3 5063   4.011   1.232  10.534 -0.4022 -0.0754  0.0381
  334TMC3    C4 5064   3.817   1.222  10.730  0.3758 -1.1277  0.1289
  334TMC3    C5 5065   3.817   1.320  10.639  0.0914 -0.4480 -0.5790
  334TMC3    C6 5066   3.918   1.329  10.546 -0.7363  0.0722  0.3014
  334TMC3     C 5067   3.912   1.019  10.818 -0.4093  0.1727  0.1324
  334TMC3     O 5068   3.944   0.906  10.790 -0.1328 -0.2049 -0.7510
  334TMC3     H 5069   4.059   1.030  10.596  0.3576 -0.5308  0.5966
  334TMC3    H1 5070   3.748   1.204  10.812 -0.7954  0.8257 -0.4272
  334TMC3    H2 5071   3.911   1.396  10.461 -1.4495  0.0617  0.3525
  334TMC3    C7 5072   3.716   1.427  10.638 -0.9106  0.3462  0.2553
  334TMC3    C8 5073   4.076   1.219  10.404  0.4252  0.0151  0.2020
  334TMC3    O1 5074   3.741   1.531  10.579 -0.5558  0.0114  0.2354
  334TMC3    O2 5075   4.011   1.231  10.305 -0.6063  0.4909 -0.3849
  335TMC3    C1 5076   4.036   3.319  16.888  0.0547 -0.4134 -0.0782
  335TMC3    C2 5077   3.900   3.305  16.891 -0.2081 -0.6508  0.0243
  335TMC3    C3 5078   3.856   3.182  16.848  0.0286 -0.1561  0.9210
  335TMC3    C4 5079   4.124   3.219  16.827  0.1336  0.5826  0.0788
  335TMC3    C5 5080   4.071   3.104  16.789 -0.1311  0.7581 -0.0145
  335TMC3    C6 5081   3.942   3.084  16.810  0.2156 -0.0072 -0.1963
  335TMC3     C 5082   4.085   3.422  16.975  0.1120  0.8164 -0.2026
  335TMC3     O 5083   4.000   3.483  17.037 -0.3662 -0.0334 -0.6655
  335TMC3     H 5084   3.827   3.383  16.907 -0.2014 -0.5492 -0.4215
  335TMC3    H1 5085   4.232   3.225  16.827  0.1397  0.4511 -1.5775
  335TMC3    H2 5086   3.899   2.995  16.764  0.7213 -0.5738  0.4324
  335TMC3    C7 5087   4.158   2.990  16.769 -0.6297 -0.3388  0.1738
  335TMC3    C8 5088   3.714   3.157  16.840  0.2027  0.3976 -1.3347
  335TMC3    O1 5089   4.269   3.009  16.721  0.2515  0.2744  0.2484
  335TMC3    O2 5090   3.639   3.250  16.824  0.3455 -0.1598  0.1147
  336MPD2     C 5091   3.410   0.862  16.025  0.4016  0.6074 -0.0124
  336MPD2    C1 5092   3.310   0.817  15.940 -0.9312 -0.3867  0.3016
  336MPD2    C2 5093   3.302   0.683  15.906 -0.3594 -0.2589 -0.3689
  336MPD2    C3 5094   3.402   0.592  15.956 -0.0874  0.6273 -0.0117
  336MPD2    C4 5095   3.503   0.630  16.040  0.0162 -0.7143 -0.0660
  336MPD2    C5 5096   3.502   0.764  16.073  0.8670 -0.0994  0.1619
  336MPD2     H 5097   3.226   0.664  15.831 -2.3234  1.4782  1.2068
  336MPD2    H1 5098   3.582   0.566  16.079  0.2969 -0.5139 -0.3085
  336MPD2    H2 5099   3.430   0.963  16.057  1.7330  1.0867 -2.3807
  336MPD2    H3 5100   3.578   0.804  16.139 -0.3439  0.9958  0.8827
  336MPD2     N 5101   3.386   0.457  15.921 -0.2871  0.1396  0.4277
  336MPD2    H5 5102   3.468   0.403  15.945 -1.3113 -0.6120  2.2639
  336MPD2    N1 5103   3.230   0.913  15.882  0.1594  0.3831  0.4352
  336MPD2    H7 5104   3.158   0.878  15.820 -0.7890  1.8196  0.7303
  337TMC3    C1 5105   3.131   1.126  15.815 -0.3458  0.2856 -1.2095
  337TMC3    C2 5106   3.018   1.064  15.773 -0.6875  0.7542 -0.4735
  337TMC3    C3 5107   2.940   1.120  15.670  0.4709 -0.4808  0.1293
  337TMC3    C4 5108   3.172   1.245  15.760  0.7570 -0.3918  0.0900
  337TMC3    C5 5109   3.095   1.303  15.661 -0.0969  0.8022 -0.7839
  337TMC3    C6 5110   2.982   1.240  15.616  0.4222 -0.4817  0.3175
  337TMC3     C 5111   3.227   1.052  15.905  0.0820 -0.8786 -0.6584
  337TMC3     O 5112   3.317   1.122  15.953 -0.5666  0.2874  0.6743
  337TMC3     H 5113   2.984   0.967  15.808 -2.6120  2.1013  1.4767
  337TMC3    H1 5114   3.258   1.295  15.802  1.0765 -0.1894 -0.8073
  337TMC3    H2 5115   2.929   1.285  15.532 -1.1962  0.7838  2.0133
  337TMC3    C7 5116   3.137   1.417  15.586 -0.1726 -0.1376  0.3333
  337TMC3    C8 5117   2.812   1.068  15.647 -0.1578  0.0944 -0.0756
  337TMC3    O1 5118   3.181   1.506  15.657  0.0821 -0.3402 -0.3153
  337TMC3    O2 5119   2.768   0.997  15.736  0.4455  0.2477 -0.0368
  338MPD2     C 5120   2.895   0.143   0.732 -0.1240 -0.2171  0.3241
  338MPD2    C1 5121   2.877   0.230   0.626 -0.1494  0.2479  0.6238
  338MPD2    C2 5122   2.766   0.222   0.546  0.4983 -0.4946  0.2918
  338MPD2    C3 5123   2.672   0.124   0.565 -0.3895 -0.1496 -0.0887
  338MPD2    C4 5124   2.692   0.037   0.671 -0.2158  0.0694 -0.0336
  338MPD2    C5 5125   2.804   0.049   0.753  0.1439  0.1540 -0.6806
  338MPD2     H 5126   2.756   0.285   0.458  0.5395  1.1700  1.4662
  338MPD2    H1 5127   2.627   4.690   0.690  0.4699 -0.4040  0.2055
  338MPD2    H2 5128   2.970   0.145   0.810 -1.0680  1.2152  1.1948
  338MPD2    H3 5129   2.813   4.723   0.839  0.1002 -1.6437 -2.0099
  338MPD2     N 5130   2.578   0.111   0.464 -0.0458  0.5548  0.1565
  338MPD2    H5 5131   2.605   0.159   0.378  3.9722 -1.9545  0.0042
  338MPD2    N1 5132   2.977   0.324   0.593 -0.0573  0.1387 -0.4382
  338MPD2    H7 5133   2.950   0.388   0.518 -0.8536  0.1943 -0.1084
  339TMC3    C1 5134   2.432   0.001   0.325 -0.5761  0.1102 -0.0642
  339TMC3    C2 5135   2.441   4.613   0.270  1.0600 -0.1832  0.3354
  339TMC3    C3 5136   2.476   4.595   0.140  0.8564  0.5536 -0.6080
  339TMC3    C4 5137   2.463   0.108   0.247 -0.6391  0.1495 -0.5516
  339TMC3    C5 5138   2.507   0.084   0.121  0.1724 -0.0101 -0.3413
  339TMC3    C6 5139   2.513   4.698   0.062 -0.2833 -0.3807  0.2797
  339TMC3     C 5140   2.482   0.010   0.459 -0.2524 -0.4337 -0.5781
  339TMC3     O 5141   2.453   4.658   0.534 -0.0810  0.0470 -0.4244
  339TMC3     H 5142   2.418   4.526   0.330  0.8819 -1.9942 -2.3221
  339TMC3    H1 5143   2.440   0.209   0.281  0.9863  0.3639 -0.0723
  339TMC3    H2 5144   2.565   4.685  17.717  1.2470  0.2999  1.0138
  339TMC3    C7 5145   2.605   0.179   0.078  0.2278  0.1015 -0.0027
  339TMC3    C8 5146   2.541   4.472   0.102 -0.5464  0.2421  0.5662
  339TMC3    O1 5147   2.634   0.259   0.166 -0.4959 -0.3687 -0.1583
  339TMC3    O2 5148   2.575   4.463  17.735  0.4209  0.3089  0.1365
  340MPD2     C 5149   3.203   2.458   9.393 -0.0542 -0.1378 -0.3817
  340MPD2    C1 5150   3.322   2.413   9.455 -0.1408  0.2967 -0.2264
  340MPD2    C2 5151   3.378   2.477   9.569 -0.3172 -0.5238  0.0771
  340MPD2    C3 5152   3.317   2.591   9.613  0.0247  0.0723 -0.8786
  340MPD2    C4 5153   3.204   2.641   9.551 -0.5258  0.6334  0.0076
  340MPD2    C5 5154   3.147   2.574   9.442  0.1314 -0.0199  0.0004
  340MPD2     H 5155   3.465   2.437   9.619 -0.9232 -0.9977  0.7335
  340MPD2    H1 5156   3.161   2.737   9.581 -0.5611 -0.1794  2.5526
  340MPD2    H2 5157   3.149   2.396   9.323  0.2559 -2.6550  1.6291
  340MPD2    H3 5158   3.053   2.600   9.395  0.8588 -0.3163 -1.6499
  340MPD2     N 5159   3.362   2.661   9.729 -0.0933 -0.3106  0.1884
  340MPD2    H5 5160   3.319   2.753   9.729 -2.2431 -1.3073  0.4095
  340MPD2    N1 5161   3.374   2.291   9.409  0.1887  0.1866 -0.3385
  340MPD2    H7 5162   3.307   2.230   9.364 -1.0046  0.4424  1.0896
  341TMC3    C1 5163   3.509   2.098   9.399  0.4717  0.2859 -0.0927
  341TMC3    C2 5164   3.395   2.023   9.379 -0.3955  0.4279  0.7377
  341TMC3    C3 5165   3.413   1.887   9.362 -0.2320 -0.7097 -0.2074
  341TMC3    C4 5166   3.632   2.042   9.395 -0.4153 -0.0432 -0.3210
  341TMC3    C5 5167   3.647   1.908   9.368 -0.1067  0.0480 -0.0582
  341TMC3    C6 5168   3.535   1.834   9.370  0.3924  0.5954  0.1612
  341TMC3     C 5169   3.502   2.242   9.423  0.4176 -0.3384 -0.3418
  341TMC3     O 5170   3.603   2.304   9.459  0.6658  0.0494 -0.0451
  341TMC3     H 5171   3.294   2.058   9.396 -1.0245 -0.9782 -0.0896
  341TMC3    H1 5172   3.722   2.102   9.401 -0.3903  0.0464 -1.8004
  341TMC3    H2 5173   3.536   1.727   9.354  2.7372  0.3368  2.0594
  341TMC3    C7 5174   3.783   1.865   9.388  0.3994 -0.2824  0.4049
  341TMC3    C8 5175   3.301   1.797   9.390 -0.3997  0.4709  0.2614
  341TMC3    O1 5176   3.853   1.919   9.474 -0.3438  0.4292  0.6415
  341TMC3    O2 5177   3.319   1.691   9.443 -0.0992 -0.0094 -0.5131
  342MPD2     C 5178   1.590   1.035  17.443 -0.8827 -0.1710  0.6176
  342MPD2    C1 5179   1.651   1.063  17.327 -0.1414 -0.6166 -0.2086
  342MPD2    C2 5180   1.625   1.184  17.266  0.4312  0.3212 -0.9123
  342MPD2    C3 5181   1.561   1.279  17.342  0.4259 -0.5330 -0.0543
  342MPD2    C4 5182   1.507   1.252  17.462 -0.2400  0.5593  1.0293
  342MPD2    C5 5183   1.510   1.128  17.511 -0.5567  0.3371  0.2131
  342MPD2     H 5184   1.671   1.205  17.171  0.7010  2.5826 -0.2888
  342MPD2    H1 5185   1.475   1.335  17.525 -0.5990  0.6406  0.7395
  342MPD2    H2 5186   1.588   0.935  17.484 -3.0072 -0.5661 -0.4383
  342MPD2    H3 5187   1.465   1.112  17.608  0.5448  2.2147  1.0277
  342MPD2     N 5188   1.565   1.416  17.311 -0.0822 -0.8881  0.0425
  342MPD2    H5 5189   1.548   1.480  17.388  2.4037  0.7193 -0.7119
  342MPD2    N1 5190   1.726   0.967  17.252 -0.5404  0.4116  0.1167
  342MPD2    H7 5191   1.748   1.000  17.159 -1.4628  1.5077  0.2796
  343TMC3    C1 5192   1.806   0.744  17.201  0.0505  0.2653 -0.1291
  343TMC3    C2 5193   1.860   0.801  17.085 -0.6380 -0.4862  0.5330
  343TMC3    C3 5194   1.863   0.723  16.978 -0.1011  1.2601 -0.7509
  343TMC3    C4 5195   1.756   0.619  17.209 -0.2922  0.1048  0.1971
  343TMC3    C5 5196   1.758   0.543  17.099 -0.7040  0.2186  0.4891
  343TMC3    C6 5197   1.814   0.594  16.985 -0.3537 -0.0402 -0.6762
  343TMC3     C 5198   1.755   0.838  17.296 -0.4152  0.5130 -1.3021
  343TMC3     O 5199   1.747   0.794  17.412 -0.0187 -0.2237  0.7173
  343TMC3     H 5200   1.899   0.902  17.088 -0.8609 -0.3623 -0.8120
  343TMC3    H1 5201   1.709   0.583  17.300  0.1290 -0.3632  0.2287
  343TMC3    H2 5202   1.819   0.520  16.906 -2.8774  3.2095 -3.8974
  343TMC3    C7 5203   1.739   0.402  17.119  0.4185  0.7429 -0.2637
  343TMC3    C8 5204   1.925   0.777  16.854 -0.5057  0.1908  0.9658
  343TMC3    O1 5205   1.645   0.366  17.192  0.3190 -0.0012  0.2239
  343TMC3    O2 5206   1.944   0.904  16.851  0.2094  0.1630  0.1160
  344MPD2     C 5207   2.666   0.409  10.400  0.2525  0.0113  0.1117
  344MPD2    C1 5208   2.541   0.423  10.342  0.1635 -0.2932  0.4283
  344MPD2    C2 5209   2.511   0.544  10.288  0.2534 -0.4070 -0.1456
  344MPD2    C3 5210   2.593   0.654  10.289  0.0518  0.4739  0.8334
  344MPD2    C4 5211   2.720   0.632  10.343 -0.2310 -0.2017  0.0212
  344MPD2    C5 5212   2.753   0.511  10.396  0.3144 -0.8673 -0.0090
  344MPD2     H 5213   2.411   0.552  10.249 -0.6585 -1.0549  2.0810
  344MPD2    H1 5214   2.796   0.708  10.340 -0.6883  0.2887  0.9495
  344MPD2    H2 5215   2.697   0.310  10.433 -0.0393  0.1610  0.8428
  344MPD2    H3 5216   2.851   0.502  10.440  1.4481  2.0137 -1.9456
  344MPD2     N 5217   2.557   0.785  10.254  0.8711  0.6575  0.2135
  344MPD2    H5 5218   2.628   0.856  10.268  1.3377  0.6773 -2.3064
  344MPD2    N1 5219   2.442   0.325  10.354 -0.0843 -0.3726  0.1124
  344MPD2    H7 5220   2.354   0.344  10.307  0.1685 -1.5843 -0.8553
  345TMC3    C1 5221   2.442   0.949  10.127 -0.1143  0.4417  0.9332
  345TMC3    C2 5222   2.492   1.046  10.211 -0.2894  0.3012  0.2064
  345TMC3    C3 5223   2.534   1.162  10.153 -0.5555 -0.5305  0.4870
  345TMC3    C4 5224   2.393   0.979   9.997  0.6472 -0.0901 -0.1944
  345TMC3    C5 5225   2.407   1.108   9.956  0.2343  0.5877 -0.0376
  345TMC3    C6 5226   2.484   1.199  10.027 -0.1722  0.3376  0.6446
  345TMC3     C 5227   2.447   0.807  10.168  0.4259 -0.1023  0.2559
  345TMC3     O 5228   2.363   0.731  10.116 -0.0955  0.2061  0.7556
  345TMC3     H 5229   2.528   1.018  10.309  0.3153 -2.4851 -0.8157
  345TMC3    H1 5230   2.349   0.899   9.939  0.5530 -0.8631  0.9544
  345TMC3    H2 5231   2.504   1.297   9.985 -0.5591  1.2971  2.6937
  345TMC3    C7 5232   2.369   1.145   9.826 -0.3912 -0.1708  0.0792
  345TMC3    C8 5233   2.601   1.264  10.225 -0.9068  0.0984 -0.0691
  345TMC3    O1 5234   2.428   1.243   9.772 -0.5224  0.3140 -0.6995
  345TMC3    O2 5235   2.619   1.372  10.161  0.3329  0.7612  0.0387
  346MPD2     C 5236   2.517   2.184  14.264 -0.1283 -0.2046  0.1369
  346MPD2    C1 5237   2.609   2.206  14.156 -0.1688 -0.1464 -0.7326
  346MPD2    C2 5238   2.706   2.298  14.175 -0.2996  0.4263 -0.3915
  346MPD2    C3 5239   2.730   2.351  14.303 -0.2533  0.2643 -0.4206
  346MPD2    C4 5240   2.634   2.336  14.399 -0.4927  0.0798 -0.1726
  346MPD2    C5 5241   2.528   2.259  14.376 -0.0493  0.3765  0.0149
  346MPD2     H 5242   2.779   2.305  14.095 -0.0077  0.0044 -0.1617
  346MPD2    H1 5243   2.632   2.391  14.493 -0.2911  1.1061 -0.7678
  346MPD2    H2 5244   2.443   2.106  14.254  1.3081 -1.1425 -3.3862
  346MPD2    H3 5245   2.456   2.236  14.454  0.2417  0.0032  0.1782
  346MPD2     N 5246   2.848   2.425  14.326 -0.2037 -0.3525  0.4799
  346MPD2    H5 5247   2.896   2.457  14.242 -2.0022  2.5022  0.5009
  346MPD2    N1 5248   2.605   2.147  14.031  0.4276  0.7229 -0.3622
  346MPD2    H7 5249   2.682   2.154  13.966  0.9199  1.8521  0.3534
  347TMC3    C1 5250   3.014   2.546  14.423  0.1911  0.8739 -0.3228
  347TMC3    C2 5251   3.031   2.600  14.298  0.4493 -0.4205 -0.6355
  347TMC3    C3 5252   3.157   2.578  14.246 -0.3918  0.0302 -0.2951
  347TMC3    C4 5253   3.115   2.516  14.509 -0.2498 -0.2293  0.1366
  347TMC3    C5 5254   3.234   2.500  14.450  0.3715  0.0141  0.2848
  347TMC3    C6 5255   3.264   2.532  14.316 -0.1383  0.1835 -0.8154
  347TMC3     C 5256   2.899   2.466  14.444  0.5187  0.0751  0.0592
  347TMC3     O 5257   2.877   2.417  14.554  0.2982 -0.0046 -0.3615
  347TMC3     H 5258   2.943   2.631  14.244 -0.1793 -1.2703 -0.0991
  347TMC3    H1 5259   3.086   2.497  14.612 -2.0700  1.0344 -0.1514
  347TMC3    H2 5260   3.359   2.502  14.272  0.2236  0.2226 -0.0543
  347TMC3    C7 5261   3.346   2.495  14.534  0.2506  1.1605  0.2683
  347TMC3    C8 5262   3.149   2.519  14.110  0.0804 -0.1878  0.2832
  347TMC3    O1 5263   3.457   2.468  14.480  0.5448  0.3364 -0.3237
  347TMC3    O2 5264   3.061   2.561  14.041  0.0865  0.6257  0.2672
  348MPD2     C 5265   1.618   1.403  12.137 -0.4301  0.2676 -0.3446
  348MPD2    C1 5266   1.514   1.377  12.046 -0.2630  0.5662  0.9391
  348MPD2    C2 5267   1.487   1.463  11.949 -0.4178  0.7028 -0.1625
  348MPD2    C3 5268   1.560   1.586  11.929  0.4965  0.3428 -0.0987
  348MPD2    C4 5269   1.653   1.612  12.027  0.0020  1.0107  0.3635
  348MPD2    C5 5270   1.682   1.526  12.130  0.0620  0.0458  0.6459
  348MPD2     H 5271   1.421   1.432  11.868 -1.7555  3.8129 -0.2437
  348MPD2    H1 5272   1.721   1.696  12.027 -0.2487  1.2119  0.1803
  348MPD2    H2 5273   1.647   1.334  12.215 -4.2216 -1.1105 -0.1893
  348MPD2    H3 5274   1.759   1.547  12.204  2.5029 -0.2842 -1.8210
  348MPD2     N 5275   1.551   1.656  11.806 -0.1242  0.0204 -0.7180
  348MPD2    H5 5276   1.494   1.613  11.733 -1.9737  1.0886  0.0793
  348MPD2    N1 5277   1.456   1.254  12.030 -0.3111 -0.2669 -0.5567
  348MPD2    H7 5278   1.393   1.253  11.950 -0.0977  0.4708 -0.7265
  349TMC3    C1 5279   1.445   1.020  12.018 -0.6100  0.5562 -0.1668
  349TMC3    C2 5280   1.500   0.897  12.059 -0.1510  0.3412  0.4618
  349TMC3    C3 5281   1.472   0.786  11.989 -0.2422 -0.2694  0.0839
  349TMC3    C4 5282   1.371   1.027  11.910  0.3351  0.0648 -0.1546
  349TMC3    C5 5283   1.348   0.911  11.840 -0.6294 -0.0359  0.6609
  349TMC3    C6 5284   1.391   0.786  11.877  0.3346 -0.0860  0.1624
  349TMC3     C 5285   1.485   1.135  12.090 -0.4701 -0.2946 -0.8148
  349TMC3     O 5286   1.558   1.112  12.184 -0.2734 -0.3156 -0.3140
  349TMC3     H 5287   1.573   0.890  12.139  2.1925  0.1960 -1.6781
  349TMC3    H1 5288   1.328   1.117  11.867  0.5395  0.9215  1.4200
  349TMC3    H2 5289   1.371   0.699  11.816  2.0754 -0.1005 -0.3906
  349TMC3    C7 5290   1.293   0.927  11.714 -0.1888 -0.3819 -0.7832
  349TMC3    C8 5291   1.519   0.659  12.045  0.0703 -0.7058  0.0117
  349TMC3    O1 5292   1.204   1.014  11.705  1.0138 -0.5888  0.2482
  349TMC3    O2 5293   1.624   0.662  12.112 -0.3182  0.4203  0.3886
  350MPD2     C 5294   0.434   4.586  10.310 -0.5164  0.0599 -0.2518
  350MPD2    C1 5295   0.448   4.458  10.368 -0.0125 -0.5069  0.3418
  350MPD2    C2 5296   0.531   4.449  10.482 -0.1906  0.0130 -0.3739
  350MPD2    C3 5297   0.578   4.557  10.545  0.2230  0.6935  0.0215
  350MPD2    C4 5298   0.555   4.683  10.488  0.3916  0.5016 -0.6088
  350MPD2    C5 5299   0.491   4.698  10.364 -0.9200 -0.2032 -0.1417
  350MPD2     H 5300   0.552   4.357  10.535  1.5322  0.9622  0.6095
  350MPD2    H1 5301   0.606   0.031  10.530 -3.0357  3.0036 -1.5177
  350MPD2    H2 5302   0.380   4.605  10.217 -1.2691  0.6342  0.3010
  350MPD2    H3 5303   0.471   0.058  10.321 -0.2743  0.7508  1.7110
  350MPD2     N 5304   0.653   4.532  10.665 -0.1381  0.0568 -0.8484
  350MPD2    H5 5305   0.646   4.438  10.701  0.2366  0.8143  1.1989
  350MPD2    N1 5306   0.391   4.339  10.322 -0.0733  0.0944 -0.3343
  350MPD2    H7 5307   0.426   4.249  10.352  1.0842  2.0360  4.1699
  351TMC3    C1 5308   0.221   4.200  10.265 -0.8735 -0.5253  0.0738
  351TMC3    C2 5309   0.307   4.092  10.255 -0.3984 -0.5885  0.3361
  351TMC3    C3 5310   0.253   3.972  10.297  0.6426  0.4366  0.0650
  351TMC3    C4 5311   0.094   4.190  10.311  0.7013 -0.0226  1.2742
  351TMC3    C5 5312   0.052   4.071  10.364 -0.2789 -0.2753  0.6908
  351TMC3    C6 5313   0.126   3.959  10.340 -0.1550  0.0079  0.6235
  351TMC3     C 5314   0.277   4.332  10.244 -0.2430  0.0799 -0.7298
  351TMC3     O 5315   0.205   4.419  10.206 -0.3107  0.4135 -0.2408
  351TMC3     H 5316   0.400   4.103  10.200 -0.7481 -0.8377 -0.2967
  351TMC3    H1 5317   0.027   4.275  10.321  1.0505  0.2925  0.8964
  351TMC3    H2 5318   0.088   3.860  10.362  0.1168  0.0298  1.1741
  351TMC3    C7 5319   4.657   4.073  10.414  0.4056 -0.0242  0.4418
  351TMC3    C8 5320   0.318   3.855  10.245  0.1600  0.0394 -0.6044
  351TMC3    O1 5321   4.600   4.180  10.431  0.2734 -0.1160  0.3185
  351TMC3    O2 5322   0.249   3.760  10.215 -0.4332  0.8824  0.3346
  352MPD2     C 5323   4.234   2.291   0.823 -0.4166  0.2337 -0.2019
  352MPD2    C1 5324   4.121   2.264   0.897  0.9384  0.2679 -0.4994
  352MPD2    C2 5325   4.103   2.138   0.940  0.1150  0.4666 -0.1470
  352MPD2    C3 5326   4.197   2.040   0.911 -0.4109 -0.3370  0.3323
  352MPD2    C4 5327   4.300   2.064   0.828 -0.6848  0.2704 -0.4426
  352MPD2    C5 5328   4.316   2.193   0.785  0.1601 -0.4376  0.4279
  352MPD2     H 5329   4.016   2.111   1.000  0.5328  0.1958  0.3294
  352MPD2    H1 5330   4.372   1.989   0.800 -2.1325 -1.1113 -0.4606
  352MPD2    H2 5331   4.249   2.388   0.779  0.0939  0.6301  0.8573
  352MPD2    H3 5332   4.408   2.223   0.736  0.7423 -0.6846  1.3717
  352MPD2     N 5333   4.178   1.909   0.955 -0.9841 -0.7595  0.4283
  352MPD2    H5 5334   4.239   1.840   0.912 -0.8026 -0.8163  0.7792
  352MPD2    N1 5335   4.024   2.362   0.907  0.1087  0.0276  0.4677
  352MPD2    H7 5336   4.046   2.446   0.856  1.9051 -1.4592 -1.1996
  353TMC3    C1 5337   4.076   1.717   1.032  0.5616  0.0155 -0.1008
  353TMC3    C2 5338   4.188   1.647   1.012 -0.7816 -0.2031 -0.5160
  353TMC3    C3 5339   4.165   1.515   0.979  0.0336  0.1386  0.0971
  353TMC3    C4 5340   3.958   1.658   1.061 -0.3988 -0.1766  0.2673
  353TMC3    C5 5341   3.940   1.525   1.035 -0.0031 -0.0182 -0.1210
  353TMC3    C6 5342   4.045   1.458   0.995  0.8258 -0.2154 -0.3310
  353TMC3     C 5343   4.068   1.862   1.032  0.2390  0.2134 -0.4628
  353TMC3     O 5344   3.967   1.915   1.069 -0.2899  0.0744 -0.6512
  353TMC3     H 5345   4.283   1.694   0.988 -0.4236 -0.9126 -0.5033
  353TMC3    H1 5346   3.869   1.718   1.075 -0.2681 -0.0788  0.6907
  353TMC3    H2 5347   4.026   1.358   0.957 -1.8104  0.2271 -0.1959
  353TMC3    C7 5348   3.808   1.468   1.028  0.4307 -0.2563  0.0045
  353TMC3    C8 5349   4.271   1.424   1.011  0.0002 -0.0650  0.8633
  353TMC3    O1 5350   3.797   1.376   0.949  0.4922  0.1376  0.6206
  353TMC3    O2 5351   4.390   1.450   0.989 -0.2811 -0.5923 -0.6307
  354TMC3    C1 5352   0.425   2.660  13.477  0.0377  0.0946 -0.1017
  354TMC3    C2 5353   0.514   2.765  13.465  0.8803  0.3938 -0.0220
  354TMC3    C3 5354   0.499   2.858  13.366 -0.6623 -0.8509 -0.0302
  354TMC3    C4 5355   0.330   2.646  13.385 -0.1192 -0.1235  0.1457
  354TMC3    C5 5356   0.334   2.719  13.271  0.2139 -0.3098 -0.0936
  354TMC3    C6 5357   0.402   2.840  13.273  0.0612  0.6381  0.4870
  354TMC3     C 5358   0.397   2.610  13.609  0.8164 -0.4170 -0.6319
  354TMC3     O 5359   0.293   2.546  13.615  0.4767 -0.1504 -0.1169
  354TMC3     H 5360   0.600   2.771  13.531  1.7998  3.2859 -1.5163
  354TMC3    H1 5361   0.287   2.548  13.371  1.3726 -0.8560  0.7237
  354TMC3    H2 5362   0.394   2.904  13.186 -0.5074  2.8831  2.1999
  354TMC3    C7 5363   0.330   2.656  13.142 -0.0253 -0.5165 -0.1730
  354TMC3    C8 5364   0.625   2.890  13.295  0.5717  0.5072  0.0016
  354TMC3    O1 5365   0.232   2.585  13.117 -0.1108  0.0446 -0.6921
  354TMC3    O2 5366   0.629   2.862  13.176 -0.0291 -0.7351 -0.5137
  355MPD2     C 5367   0.300   3.706  11.895  0.1998  0.6201 -0.2945
  355MPD2    C1 5368   0.387   3.702  11.788  0.8152  0.6391 -0.3848
  355MPD2    C2 5369   0.500   3.617  11.800 -0.1697  0.2561  1.1991
  355MPD2    C3 5370   0.528   3.547  11.915  0.1066 -0.6252  0.5489
  355MPD2    C4 5371   0.435   3.543  12.011 -0.2667 -0.0029 -0.6197
  355MPD2    C5 5372   0.327   3.625  11.996 -0.3083 -0.5028  0.2358
  355MPD2     H 5373   0.572   3.603  11.721 -2.9025  1.3241 -1.4969
  355MPD2    H1 5374   0.448   3.500  12.110 -0.1256  0.1879 -0.5540
  355MPD2    H2 5375   0.211   3.768  11.893  0.2699  0.8229  2.3171
  355MPD2    H3 5376   0.256   3.641  12.076  0.6378  3.0797  0.3517
  355MPD2     N 5377   0.652   3.479  11.927  0.7132  0.0355 -0.3524
  355MPD2    H5 5378   0.721   3.506  11.858 -2.5065  2.0889 -2.8252
  355MPD2    N1 5379   0.373   3.801  11.691  0.3137 -0.3813 -0.5607
  355MPD2    H7 5380   0.302   3.873  11.702  0.4604 -0.3309  0.0694
  356TMC3    C1 5381   0.829   3.357  12.030 -0.1086  0.0916  0.0224
  356TMC3    C2 5382   0.870   3.331  11.907  0.5144 -0.2331 -0.0960
  356TMC3    C3 5383   0.999   3.347  11.871  0.6499 -0.5891 -0.4875
  356TMC3    C4 5384   0.915   3.408  12.125  0.2432 -0.3730 -0.6864
  356TMC3    C5 5385   1.050   3.413  12.088 -0.9349  0.2646  0.2737
  356TMC3    C6 5386   1.087   3.389  11.965  0.0604  0.7864 -0.4386
  356TMC3     C 5387   0.695   3.410  12.038 -0.0104  0.8003  0.0851
  356TMC3     O 5388   0.649   3.406  12.151  0.6028 -0.6162 -0.1553
  356TMC3     H 5389   0.792   3.294  11.841  0.7899 -2.1241  0.6437
  356TMC3    H1 5390   0.871   3.443  12.217 -1.8620  0.1705 -1.9027
  356TMC3    H2 5391   1.192   3.405  11.943  0.5288 -1.8651 -0.1068
  356TMC3    C7 5392   1.150   3.469  12.175 -0.5850 -0.0993  0.3726
  356TMC3    C8 5393   1.027   3.376  11.732 -0.6243  0.4896 -0.4334
  356TMC3    O1 5394   1.209   3.379  12.240  0.2708  0.8563  0.3604
  356TMC3    O2 5395   0.975   3.300  11.647 -0.6199  0.8268 -0.1027
  357MPD2     C 5396   0.520   4.362   0.738  0.0244 -0.7791 -0.2996
  357MPD2    C1 5397   0.550   4.262   0.826  0.2698 -0.6966  0.6087
  357MPD2    C2 5398   0.446   4.197   0.886 -0.0288  0.3678 -0.2347
  357MPD2    C3 5399   0.316   4.228   0.861  0.9353  0.3409 -0.4779
  357MPD2    C4 5400   0.290   4.338   0.781  0.1646 -0.1363  0.2762
  357MPD2    C5 5401   0.389   4.401   0.718 -0.5476 -0.7400 -0.4365
  357MPD2     H 5402   0.475   4.110   0.944  0.0574  0.6955  0.2134
  357MPD2    H1 5403   0.191   4.365   0.747  0.0295 -4.1683 -2.6033
  357MPD2    H2 5404   0.589   4.416   0.673 -0.6836  1.1233  0.5465
  357MPD2    H3 5405   0.369   4.491   0.661 -0.1865  0.0725  0.7310
  357MPD2     N 5406   0.204   4.151   0.910 -0.2161 -0.2899  0.5920
  357MPD2    H5 5407   0.108   4.180   0.898 -0.6509 -1.9318  0.1263
  357MPD2    N1 5408   0.685   4.222   0.839  0.3656  0.0682 -0.1550
  357MPD2    H7 5409   0.759   4.259   0.780 -0.6257  0.8472 -0.9018
  358TMC3    C1 5410   0.864   4.087   0.891 -0.3800 -0.0478  0.6885
  358TMC3    C2 5411   0.865   4.032   0.765  0.4734 -0.9626 -0.0401
  358TMC3    C3 5412   0.928   3.910   0.742 -0.6985  1.0564  0.4199
  358TMC3    C4 5413   0.931   4.022   0.993  0.1473 -0.1570  0.3278
  358TMC3    C5 5414   1.006   3.911   0.959  0.1262 -0.0690  0.4997
  358TMC3    C6 5415   0.994   3.844   0.840  0.5285 -0.1468 -0.0540
  358TMC3     C 5416   0.731   4.134   0.928  0.4303  0.0222  0.3219
  358TMC3     O 5417   0.677   4.102   1.030 -0.2155  0.5114  0.6963
  358TMC3     H 5418   0.792   4.071   0.695 -0.0971 -0.1876  0.9805
  358TMC3    H1 5419   0.913   4.045   1.097  1.7844  1.2826  0.2880
  358TMC3    H2 5420   1.072   3.774   0.812  1.8250  1.5123 -0.6081
  358TMC3    C7 5421   1.086   3.860   1.062  0.0644 -0.2840  0.1247
  358TMC3    C8 5422   0.886   3.845   0.621 -0.0208 -0.0197  0.2261
  358TMC3    O1 5423   1.132   3.943   1.134  0.4160 -0.7337  0.7562
  358TMC3    O2 5424   0.889   3.913   0.522 -0.1655 -0.4997  0.3968
  359MPD2     C 5425   0.694   2.785  12.181  0.7159 -0.4163 -0.3487
  359MPD2    C1 5426   0.690   2.708  12.064 -0.4266 -0.6916  0.9900
  359MPD2    C2 5427   0.569   2.683  12.004 -0.8121 -0.3896  0.0679
  359MPD2    C3 5428   0.457   2.729  12.062  0.7022 -0.4210 -1.1777
  359MPD2    C4 5429   0.458   2.812  12.170 -0.6429  0.3216 -0.0194
  359MPD2    C5 5430   0.579   2.840  12.235  0.3281  0.1630  0.3957
  359MPD2     H 5431   0.562   2.634  11.907  0.0489  0.2618 -0.3249
  359MPD2    H1 5432   0.367   2.842  12.220 -0.6949  0.0662  0.0377
  359MPD2    H2 5433   0.777   2.787  12.250  0.9733  0.2785 -0.6773
  359MPD2    H3 5434   0.598   2.889  12.329  0.8331 -0.6392  0.7119
  359MPD2     N 5435   0.330   2.692  12.040 -0.8106 -0.2825 -0.6060
  359MPD2    H5 5436   0.252   2.741  12.084 -0.3259  0.3137 -0.4115
  359MPD2    N1 5437   0.808   2.643  12.016 -0.1840  0.5795  0.1226
  359MPD2    H7 5438   0.792   2.585  11.934  0.0236 -0.8131  1.0759
  360TMC3    C1 5439   1.030   2.562  11.992 -0.0723 -0.2277 -0.1958
  360TMC3    C2 5440   1.161   2.589  12.006 -0.7040  0.3036  1.2078
  360TMC3    C3 5441   1.247   2.522  11.924  0.1125 -0.1191 -0.4113
  360TMC3    C4 5442   0.978   2.462  11.919  0.5951 -0.5933 -0.4132
  360TMC3    C5 5443   1.075   2.393  11.847 -0.0115 -0.0375 -0.2211
  360TMC3    C6 5444   1.212   2.417  11.843  0.3757  0.5907  0.3452
  360TMC3     C 5445   0.934   2.637  12.070 -0.2137 -0.4902  0.3423
  360TMC3     O 5446   0.979   2.709  12.158 -0.3317  0.0932  0.1358
  360TMC3     H 5447   1.183   2.687  12.047 -3.1655  0.6189  1.8096
  360TMC3    H1 5448   0.875   2.444  11.891  0.1641  0.2505  0.6672
  360TMC3    H2 5449   1.269   2.372  11.763  1.8917  2.8369  0.1814
  360TMC3    C7 5450   1.031   2.331  11.726 -0.1368 -0.2708 -0.1077
  360TMC3    C8 5451   1.382   2.577  11.911  0.7367 -0.0236  0.0276
  360TMC3    O1 5452   1.048   2.402  11.624  0.1476  0.6932 -1.1569
  360TMC3    O2 5453   1.403   2.689  11.961  0.2600 -0.1892 -0.5076
  361MPD2     C 5454   2.685   1.992  17.062  0.0524 -0.5212  0.2078
  361MPD2    C1 5455   2.680   1.893  16.968 -0.6785  0.1737  0.1653
  361MPD2    C2 5456   2.771   1.785  16.982 -0.1666 -0.0678  0.1177
  361MPD2    C3 5457   2.857   1.776  17.090  0.0717 -0.4701  0.4386
  361MPD2    C4 5458   2.858   1.881  17.183 -0.7909  0.2932  0.1276
  361MPD2    C5 5459   2.774   1.986  17.161  0.1425  0.2962  0.9006
  361MPD2     H 5460   2.781   1.708  16.906  1.1165  2.3129 -2.1047
  361MPD2    H1 5461   2.913   1.878  17.276 -1.8141  0.6416  0.7505
  361MPD2    H2 5462   2.612   2.072  17.052  1.4119  0.7611  0.4916
  361MPD2    H3 5463   2.770   2.059  17.241  1.8915  0.9703  0.3760
  361MPD2     N 5464   2.925   1.660  17.130  0.8332  0.7912 -0.2630
  361MPD2    H5 5465   2.987   1.664  17.209 -0.0468 -0.0207  0.4731
  361MPD2    N1 5466   2.591   1.878  16.865 -0.0262 -0.2208  1.0878
  361MPD2    H7 5467   2.602   1.796  16.807 -0.5396 -0.0279  0.7214
  362TMC3    C1 5468   2.396   1.892  16.748  0.3752 -0.4233 -0.3222
  362TMC3    C2 5469   2.261   1.860  16.772  0.6082 -0.1246 -0.8811
  362TMC3    C3 5470   2.192   1.795  16.675  0.2255  0.6736  0.2838
  362TMC3    C4 5471   2.459   1.861  16.633 -0.1963 -0.5802  0.2346
  362TMC3    C5 5472   2.386   1.794  16.535  0.0403  0.0348  0.0885
  362TMC3    C6 5473   2.255   1.762  16.556  0.2751 -0.8890  0.4194
  362TMC3     C 5474   2.482   1.956  16.846  1.0525  0.1481 -0.3484
  362TMC3     O 5475   2.436   2.049  16.916  0.1436  0.1542  0.0396
  362TMC3     H 5476   2.220   1.900  16.864  0.2913  1.1315 -1.5637
  362TMC3    H1 5477   2.560   1.887  16.605 -0.8803  1.0017 -0.7882
  362TMC3    H2 5478   2.191   1.720  16.480  1.1461 -0.2610 -0.6639
  362TMC3    C7 5479   2.423   1.838  16.398 -0.0161  0.6510 -0.1250
  362TMC3    C8 5480   2.056   1.749  16.693 -0.1032  0.4434  0.4199
  362TMC3    O1 5481   2.495   1.938  16.387  0.0200  0.0071  0.0581
  362TMC3    O2 5482   2.028   1.646  16.640 -0.3843 -0.2708 -0.2229
  363TMC3    C1 5483   0.630   3.832   9.672 -0.3549  0.3975 -0.2575
  363TMC3    C2 5484   0.739   3.822   9.747  0.2694 -0.0045 -0.0789
  363TMC3    C3 5485   0.811   3.933   9.776  1.0739 -0.1575 -0.2331
  363TMC3    C4 5486   0.590   3.945   9.617  0.0726  0.2331  0.0059
  363TMC3    C5 5487   0.663   4.059   9.647 -0.7200 -0.8838  0.3076
  363TMC3    C6 5488   0.771   4.053   9.731  0.1460 -0.3252  0.3454
  363TMC3     C 5489   0.591   3.708   9.599  0.2971  1.0267 -0.2577
  363TMC3     O 5490   0.658   3.609   9.620  0.2058  0.0347  0.7707
  363TMC3     H 5491   0.774   3.726   9.783  0.3758 -0.1899 -0.6802
  363TMC3    H1 5492   0.510   3.945   9.545  1.8425 -2.8945 -1.9450
  363TMC3    H2 5493   0.825   4.142   9.761  0.3405  0.2115 -1.5926
  363TMC3    C7 5494   0.608   4.184   9.608  0.0848 -0.2096 -0.1113
  363TMC3    C8 5495   0.947   3.924   9.832  0.7182 -0.2897 -0.3713
  363TMC3    O1 5496   0.487   4.182   9.590 -0.3725  0.1852  0.5154
  363TMC3    O2 5497   0.974   4.020   9.908  0.5323  0.2332 -0.4604
  364MPD2     C 5498   4.657   3.304  10.202 -0.3162  1.1306 -1.0274
  364MPD2    C1 5499   0.030   3.238  10.258  0.5002 -0.6255  0.0886
  364MPD2    C2 5500   0.007   3.115  10.317  0.3878 -0.0080 -0.0983
  364MPD2    C3 5501   4.618   3.063  10.322  0.0421  0.6424 -0.5961
  364MPD2    C4 5502   4.505   3.124  10.268  0.0876 -0.0732  0.3278
  364MPD2    C5 5503   4.526   3.243  10.199 -0.6002 -0.2623 -0.4099
  364MPD2     H 5504   0.087   3.050  10.351 -0.5876 -0.8577  0.5676
  364MPD2    H1 5505   4.410   3.072  10.270  0.9910 -1.6623  1.7158
  364MPD2    H2 5506   4.674   3.395  10.147  1.7974 -0.7444 -3.4770
  364MPD2    H3 5507   4.443   3.293  10.150 -0.7201  0.5710  0.6541
  364MPD2     N 5508   4.608   2.942  10.386  0.1479 -0.0159  0.0326
  364MPD2    H5 5509   4.693   2.898  10.419  1.4405  0.1950 -3.1154
  364MPD2    N1 5510   0.156   3.305  10.255  0.3673  1.3197 -0.6510
  364MPD2    H7 5511   0.161   3.396  10.210 -0.8858  1.1887 -1.0776
  365TMC3    C1 5512   0.372   3.351  10.312  0.1795  0.5743 -0.5129
  365TMC3    C2 5513   0.490   3.289  10.302 -0.8413 -0.1123 -0.1598
  365TMC3    C3 5514   0.598   3.365  10.332 -0.4521 -0.3738  0.2071
  365TMC3    C4 5515   0.344   3.469  10.377 -0.3158 -0.4016  0.1641
  365TMC3    C5 5516   0.455   3.535  10.415  0.0275 -0.7406 -0.3058
  365TMC3    C6 5517   0.582   3.489  10.392  0.4419 -0.9630 -0.2999
  365TMC3     C 5518   0.274   3.253  10.304 -0.4638  1.0238  0.4827
  365TMC3     O 5519   0.300   3.141  10.345 -0.1672 -0.1104  0.0378
  365TMC3     H 5520   0.499   3.191  10.255  0.0493 -0.0447 -0.1402
  365TMC3    H1 5521   0.244   3.506  10.396  0.1026  1.5042 -1.3713
  365TMC3    H2 5522   0.671   3.547  10.413  1.1836 -1.7547 -1.2209
  365TMC3    C7 5523   0.453   3.654  10.504 -0.5219 -0.3176  0.0200
  365TMC3    C8 5524   0.731   3.317  10.300  0.0683 -1.0021 -0.1009
  365TMC3    O1 5525   0.564   3.690  10.534 -0.1380 -0.1317 -0.1590
  365TMC3    O2 5526   0.817   3.404  10.283  0.0067  0.0224 -0.4199
  366MPD2     C 5527   3.158   4.348  14.890  0.6144  0.1451 -0.9487
  366MPD2    C1 5528   3.270   4.421  14.927  0.3532 -0.4568 -0.2745
  366MPD2    C2 5529   3.392   4.364  14.931 -0.7002  0.5809  0.2389
  366MPD2    C3 5530   3.410   4.238  14.875  0.0775  0.0117 -1.2478
  366MPD2    C4 5531   3.303   4.164  14.836  0.2026 -0.3058  0.5592
  366MPD2    C5 5532   3.175   4.219  14.853  0.0274  0.2869  0.2312
  366MPD2     H 5533   3.471   4.406  14.991 -1.5002  0.9649  1.0245
  366MPD2    H1 5534   3.316   4.069  14.785 -0.6173  0.6887 -1.5021
  366MPD2    H2 5535   3.059   4.393  14.884  0.2474 -0.8175 -2.1181
  366MPD2    H3 5536   3.093   4.169  14.803  0.7672 -1.2619  0.5478
  366MPD2     N 5537   3.541   4.188  14.850  0.1884  0.1041 -0.2123
  366MPD2    H5 5538   3.546   4.088  14.837 -1.4509  0.2294 -1.7390
  366MPD2    N1 5539   3.258   4.558  14.977  0.1421  0.4286  0.2557
  366MPD2    H7 5540   3.344   4.596  15.016 -0.2346  1.7532 -0.2339
  367TMC3    C1 5541   3.160   0.036  14.990  0.3700  0.1744  0.0105
  367TMC3    C2 5542   3.230   0.063  15.104  0.3875  0.3683  0.5982
  367TMC3    C3 5543   3.254   0.189  15.139 -0.1615 -0.2092  0.0339
  367TMC3    C4 5544   3.110   0.141  14.921  0.0269  1.0786  0.7513
  367TMC3    C5 5545   3.150   0.263  14.952 -0.0494  0.4648  0.4370
  367TMC3    C6 5546   3.211   0.296  15.069 -0.5936 -0.0184  0.7720
  367TMC3     C 5547   3.153   4.639  14.944  0.6049 -0.9301 -0.0483
  367TMC3     O 5548   3.050   4.611  14.884 -0.4221 -0.3947  0.2221
  367TMC3     H 5549   3.269   4.712  15.154  0.7548  0.6700  0.8446
  367TMC3    H1 5550   3.040   0.117  14.842  1.6654  2.6350 -1.1586
  367TMC3    H2 5551   3.233   0.401  15.089 -0.8669  0.4435 -1.3776
  367TMC3    C7 5552   3.070   0.366  14.893 -0.4355  0.5129 -0.8170
  367TMC3    C8 5553   3.315   0.215  15.269 -0.2607  0.5241  0.4306
  367TMC3    O1 5554   3.038   0.457  14.975 -0.4445 -0.3765  0.0042
  367TMC3    O2 5555   3.365   0.113  15.319 -0.2347 -0.0685  0.6021
  368MPD2     C 5556   0.019   1.175  12.730 -0.4583 -0.3605 -0.2824
  368MPD2    C1 5557   4.713   1.234  12.611  1.1279 -0.4145  0.1273
  368MPD2    C2 5558   0.066   1.275  12.519 -0.1253  0.3246 -0.3250
  368MPD2    C3 5559   0.198   1.253  12.537  0.0418 -0.3578 -0.0745
  368MPD2    C4 5560   0.250   1.189  12.647  0.2342  0.3753  0.3012
  368MPD2    C5 5561   0.162   1.154  12.742 -0.3224 -0.1880  0.0612
  368MPD2     H 5562   0.031   1.323  12.428  2.2022  0.8167 -0.9710
  368MPD2    H1 5563   0.355   1.166  12.664  0.2744 -1.9714 -3.1645
  368MPD2    H2 5564   4.690   1.141  12.809 -1.7291 -1.9386 -2.0555
  368MPD2    H3 5565   0.196   1.095  12.826 -1.3369  0.5269  0.9779
  368MPD2     N 5566   0.298   1.307  12.442  0.0942  1.0070 -0.5188
  368MPD2    H5 5567   0.390   1.325  12.480 -0.1739 -0.6547  0.9131
  368MPD2    N1 5568   4.577   1.260  12.593 -0.0077  0.2567 -0.0667
  368MPD2    H7 5569   4.510   1.197  12.636 -0.4383 -0.0740 -1.2220
  369TMC3    C1 5570   4.396   1.416  12.554 -0.5572 -0.5465 -0.0388
  369TMC3    C2 5571   4.370   1.556  12.561 -0.4232 -0.8141  0.9694
  369TMC3    C3 5572   4.247   1.601  12.597 -0.4217 -0.5433  0.2217
  369TMC3    C4 5573   4.294   1.331  12.584 -0.0429 -0.0885 -0.2765
  369TMC3    C5 5574   4.175   1.386  12.615 -0.2838  0.0221  0.6196
  369TMC3    C6 5575   4.140   1.523  12.620 -0.2544 -0.2250  0.3564
  369TMC3     C 5576   4.535   1.375  12.529 -0.0672  0.2535  0.2884
  369TMC3     O 5577   4.602   1.467  12.482  0.1098  0.3248  0.1203
  369TMC3     H 5578   4.457   1.619  12.550 -2.0553  0.9677 -1.4820
  369TMC3    H1 5579   4.307   1.229  12.550 -2.1358 -0.2500 -0.5985
  369TMC3    H2 5580   4.047   1.565  12.657  0.0186 -0.3380  1.1807
  369TMC3    C7 5581   4.071   1.299  12.663 -0.0238 -0.1639  0.5622
  369TMC3    C8 5582   4.236   1.739  12.646 -0.1684  0.0957  0.4486
  369TMC3    O1 5583   3.977   1.350  12.728  0.3236 -0.7280 -0.0912
  369TMC3    O2 5584   4.143   1.808  12.601 -0.4807 -0.3204  0.1472
  370TMC3    C1 5585   4.098   2.647  16.014  0.6246 -0.3277  0.1774
  370TMC3    C2 5586   4.011   2.601  16.116 -0.0795 -0.6795 -0.5063
  370TMC3    C3 5587   3.951   2.480  16.100 -0.0933  0.1214  0.1657
  370TMC3    C4 5588   4.108   2.581  15.888 -0.6089  0.2518 -0.3135
  370TMC3    C5 5589   4.056   2.453  15.896  0.3377  0.0786 -0.1793
  370TMC3    C6 5590   3.983   2.400  15.997 -0.3165  0.2609 -0.5034
  370TMC3     C 5591   4.201   2.743  16.060  0.1277  0.1194 -0.8001
  370TMC3     O 5592   4.222   2.750  16.178 -0.3357  0.6617 -0.4600
  370TMC3     H 5593   3.999   2.659  16.207 -0.5538  1.5206 -1.9718
  370TMC3    H1 5594   4.185   2.600  15.814 -0.6426 -1.1408 -0.7124
  370TMC3    H2 5595   3.941   2.302  15.983  0.2393 -0.1694  0.7780
  370TMC3    C7 5596   4.098   2.372  15.786 -0.2301 -0.2775  0.1856
  370TMC3    C8 5597   3.877   2.410  16.203  0.1192 -0.5805  0.5131
  370TMC3    O1 5598   4.090   2.428  15.677  0.0599  0.0717 -0.0624
  370TMC3    O2 5599   3.874   2.288  16.194 -0.0386  0.0433  0.5900
  371TMC3    C1 5600   0.242   0.730  15.214 -0.8412  0.4339 -0.1636
  371TMC3    C2 5601   0.230   0.735  15.356  0.7502  0.0507  0.8728
  371TMC3    C3 5602   0.230   0.865  15.403 -0.3610  0.0844  0.0459
  371TMC3    C4 5603   0.259   0.837  15.133 -0.8525  0.1784 -0.5725
  371TMC3    C5 5604   0.254   0.957  15.192 -0.5541 -0.1096  0.1270
  371TMC3    C6 5605   0.243   0.974  15.333  0.4462 -0.1683 -0.1528
  371TMC3     C 5606   0.283   0.612  15.145  1.0424 -0.4015  0.3223
  371TMC3     O 5607   0.341   0.631  15.040 -0.5519  0.2563  0.4661
  371TMC3     H 5608   0.199   0.649  15.414 -0.6243  0.9029  1.4004
  371TMC3    H1 5609   0.245   0.831  15.025  2.7972 -0.7397 -0.9955
  371TMC3    H2 5610   0.266   1.073  15.371 -0.2702 -0.4953  1.1447
  371TMC3    C7 5611   0.281   1.080  15.116  0.2975  0.3079  0.3962
  371TMC3    C8 5612   0.231   0.880  15.545  0.2676  0.3727  0.1144
  371TMC3    O1 5613   0.234   1.181  15.161  0.6401  0.3085 -0.3518
  371TMC3    O2 5614   0.279   0.786  15.607 -0.2427 -0.2755 -0.0464
  372MPD2     C 5615   4.325   1.408  12.926  0.6307  0.7362  0.7136
  372MPD2    C1 5616   4.439   1.347  12.978  0.6088 -0.0653 -0.1352
  372MPD2    C2 5617   4.425   1.252  13.070 -0.8191  0.2491  0.3691
  372MPD2    C3 5618   4.300   1.201  13.110  0.4438  0.2805  0.0833
  372MPD2    C4 5619   4.187   1.252  13.054 -0.3300  0.3114  0.5342
  372MPD2    C5 5620   4.200   1.348  12.966  0.0829 -0.4489  0.4409
  372MPD2     H 5621   4.508   1.207  13.125  0.4478 -1.0059 -2.5462
  372MPD2    H1 5622   4.087   1.220  13.079 -0.6284  2.8989  2.6226
  372MPD2    H2 5623   4.329   1.488  12.852  0.3317 -0.1814 -0.2955
  372MPD2    H3 5624   4.108   1.379  12.917  1.5279  1.5502 -1.0077
  372MPD2     N 5625   4.298   1.110  13.216 -0.3052  0.1805 -0.0623
  372MPD2    H5 5626   4.387   1.073  13.248 -0.1357  1.6767  1.1838
  372MPD2    N1 5627   4.565   1.408  12.964  0.0110 -0.1770  0.3018
  372MPD2    H7 5628   4.640   1.352  13.004  0.4856 -0.3337 -0.7974
  373TMC3    C1 5629   4.217   0.991  13.397  0.7369  0.8415 -0.9825
  373TMC3    C2 5630   4.167   1.025  13.522 -0.1226  1.0792 -0.4687
  373TMC3    C3 5631   4.232   0.980  13.636 -0.0571  0.3686  0.8233
  373TMC3    C4 5632   4.324   0.905  13.381 -0.3784 -0.9812 -0.1540
  373TMC3    C5 5633   4.378   0.849  13.500  0.7700  0.8884 -0.3428
  373TMC3    C6 5634   4.336   0.884  13.630  0.5019 -0.6370  0.3572
  373TMC3     C 5635   4.187   1.066  13.288 -0.2912 -0.1635  0.4230
  373TMC3     O 5636   4.079   1.119  13.290 -0.0488  0.9687  0.3444
  373TMC3     H 5637   4.093   1.104  13.526 -2.9643 -1.5689 -0.7769
  373TMC3    H1 5638   4.356   0.879  13.280  1.0998 -1.1634  0.3640
  373TMC3    H2 5639   4.388   0.847  13.717 -1.0499 -0.3876  1.3848
  373TMC3    C7 5640   4.494   0.762  13.482  0.3231 -0.8515  0.3746
  373TMC3    C8 5641   4.243   1.080  13.740  0.0861  0.3677 -0.1957
  373TMC3    O1 5642   4.520   0.751  13.363  0.1337  0.1204  0.0919
  373TMC3    O2 5643   4.266   1.193  13.688  0.3842 -0.7853  0.7933
  374TMC3    C1 5644   0.223   1.615  10.096  0.2404  0.0982 -0.3279
  374TMC3    C2 5645   0.351   1.590  10.052 -0.1815 -0.4106  0.5784
  374TMC3    C3 5646   0.373   1.617   9.918  0.0428 -0.2486 -0.4418
  374TMC3    C4 5647   0.131   1.679  10.014 -0.6653  0.0708  0.1889
  374TMC3    C5 5648   0.161   1.704   9.882  0.1665 -0.6879  0.0367
  374TMC3    C6 5649   0.279   1.673   9.834  0.6584  0.2961  0.0816
  374TMC3     C 5650   0.188   1.639  10.237  0.2309  0.2050 -0.0856
  374TMC3     O 5651   0.069   1.645  10.254  0.4601 -0.0479 -0.0943
  374TMC3     H 5652   0.428   1.547  10.116 -0.2591 -3.2291 -1.2082
  374TMC3    H1 5653   0.025   1.690  10.034 -0.4034  0.6961  1.2185
  374TMC3    H2 5654   0.309   1.711   9.737 -1.3722  0.3644 -0.5347
  374TMC3    C7 5655   0.047   1.727   9.790  0.0723  0.0223  0.7329
  374TMC3    C8 5656   0.511   1.616   9.858 -0.5680 -0.0509 -0.2966
  374TMC3    O1 5657   4.687   1.783   9.841  0.4613  0.1523  0.5037
  374TMC3    O2 5658   0.521   1.633   9.739  0.3077  0.1198 -0.0507
  375MPD2     C 5659   0.629   2.316  16.908 -0.4441  0.2862 -0.3541
  375MPD2    C1 5660   0.573   2.353  16.789  0.0011 -0.2394 -0.1136
  375MPD2    C2 5661   0.644   2.338  16.673  0.1077 -0.4262  0.3319
  375MPD2    C3 5662   0.780   2.300  16.665  0.0272 -0.5408 -0.3978
  375MPD2    C4 5663   0.841   2.273  16.786  0.3053  0.7010 -0.2611
  375MPD2    C5 5664   0.765   2.276  16.901 -0.2742  0.2614  0.0432
  375MPD2     H 5665   0.594   2.361  16.579  1.5789 -0.3114 -0.4268
  375MPD2    H1 5666   0.945   2.249  16.803 -0.2783 -1.2351  0.5645
  375MPD2    H2 5667   0.575   2.331  17.000 -2.0754  1.2081 -1.4603
  375MPD2    H3 5668   0.818   2.251  16.992 -0.0815  0.7931  0.0823
  375MPD2     N 5669   0.859   2.311  16.545  0.0275  0.3024  0.3817
  375MPD2    H5 5670   0.957   2.287  16.556  0.8418  1.9804 -3.2612
  375MPD2    N1 5671   0.449   2.408  16.762 -0.2216 -0.1282  0.2550
  375MPD2    H7 5672   0.424   2.438  16.669 -1.1739  0.4923  0.7038
  376TMC3    C1 5673   0.922   2.314  16.312 -0.0649  0.1073  0.4196
  376TMC3    C2 5674   1.058   2.319  16.350 -0.1012 -0.3124  0.4423
  376TMC3    C3 5675   1.156   2.307  16.251 -0.2395  0.4454  0.8101
  376TMC3    C4 5676   0.889   2.314  16.177 -0.2203 -0.0688  0.8436
  376TMC3    C5 5677   0.995   2.299  16.085 -0.5167  0.3304 -0.2330
  376TMC3    C6 5678   1.129   2.287  16.116  0.0289  0.5068 -0.4065
  376TMC3     C 5679   0.817   2.320  16.414  0.7580  0.1429 -0.4619
  376TMC3     O 5680   0.702   2.336  16.373 -0.2362  0.0870 -0.1767
  376TMC3     H 5681   1.088   2.361  16.446  1.3773  0.3756 -0.3294
  376TMC3    H1 5682   0.786   2.305  16.144  0.0984  0.2306 -0.2096
  376TMC3    H2 5683   1.212   2.276  16.048 -1.0335 -2.1910 -1.2739
  376TMC3    C7 5684   0.951   2.308  15.950  0.1256 -0.2357  0.8871
  376TMC3    C8 5685   1.288   2.365  16.282 -0.3957 -0.5733  0.5454
  376TMC3    O1 5686   0.834   2.334  15.934 -0.3894  0.3703  0.0162
  376TMC3    O2 5687   1.349   2.398  16.182  0.0426  0.6147 -0.3220
  377MPD2     C 5688   3.834   1.727  12.569 -0.0936 -0.1977 -0.3446
  377MPD2    C1 5689   3.737   1.760  12.477 -0.0914  0.0217 -0.0321
  377MPD2    C2 5690   3.604   1.752  12.519  0.2188 -0.1848  0.4286
  377MPD2    C3 5691   3.573   1.697  12.645 -0.4214 -0.0131  0.1344
  377MPD2    C4 5692   3.678   1.652  12.728 -0.3536 -0.3735 -0.7720
  377MPD2    C5 5693   3.808   1.677  12.693  0.3394  0.1791  0.0306
  377MPD2     H 5694   3.528   1.790  12.452 -0.2373  0.6259  1.4054
  377MPD2    H1 5695   3.642   1.614  12.822  1.8625  0.1342  0.2799
  377MPD2    H2 5696   3.936   1.739  12.532  1.2630  1.1539  3.8900
  377MPD2    H3 5697   3.890   1.657  12.762  1.0656  1.3222 -0.5005
  377MPD2     N 5698   3.435   1.684  12.689 -0.2158 -0.4710 -0.4727
  377MPD2    H5 5699   3.415   1.638  12.778  0.9038  1.0679  0.5640
  377MPD2    N1 5700   3.771   1.810  12.346 -0.0488 -0.0922  0.2328
  377MPD2    H7 5701   3.867   1.832  12.319  0.0431 -0.5895  0.1653
  378TMC3    C1 5702   3.666   1.925  11.899  0.0068 -0.1217  0.5932
  378TMC3    C2 5703   3.636   1.866  12.022 -0.2769 -0.2582 -0.5593
  378TMC3    C3 5704   3.726   1.864  12.119  0.5377  0.6380  0.4257
  378TMC3    C4 5705   3.797   1.952  11.867 -0.0045  0.0435  0.6601
  378TMC3    C5 5706   3.887   1.943  11.974 -0.7006 -0.3210 -0.1245
  378TMC3    C6 5707   3.854   1.907  12.100  0.5032 -0.2622 -0.0356
  378TMC3     C 5708   3.552   1.940  11.811 -0.2022 -0.6650  0.0659
  378TMC3     O 5709   3.446   1.886  11.833  0.2532 -0.4883 -0.6718
  378TMC3     H 5710   3.540   1.817  12.036  0.2463 -0.9507  0.6104
  378TMC3    H1 5711   3.818   1.973  11.762 -0.0161 -0.9467  0.4597
  378TMC3    H2 5712   3.930   1.902  12.178  2.7063 -0.0225 -2.1518
  378TMC3    C7 5713   4.023   1.979  11.949  0.2944 -1.5075 -0.4239
  378TMC3    C8 5714   3.678   1.806  12.244 -0.0124  0.1048 -0.2905
  378TMC3    O1 5715   4.095   2.010  12.042  0.5092 -0.3483  0.2893
  378TMC3    O2 5716   3.581   1.732  12.237  0.1597  0.2686  0.0906
  379MPD2     C 5717   3.827   0.358  16.403 -0.1321  0.5139 -0.0574
  379MPD2    C1 5718   3.928   0.324  16.319 -0.2001 -0.4362  0.5393
  379MPD2    C2 5719   4.055   0.324  16.367  0.3737 -0.1228  0.6368
  379MPD2    C3 5720   4.086   0.353  16.498  0.0015 -0.0953 -0.0862
  379MPD2    C4 5721   3.981   0.394  16.575  0.2734 -0.8594  0.5187
  379MPD2    C5 5722   3.854   0.399  16.535 -0.3225 -1.0923 -0.3501
  379MPD2     H 5723   4.137   0.294  16.302  1.3423  2.5586  0.5997
  379MPD2    H1 5724   3.991   0.418  16.680  0.2755  1.1170  0.0708
  379MPD2    H2 5725   3.726   0.372  16.366 -0.1923  0.3044  0.0253
  379MPD2    H3 5726   3.777   0.434  16.603  3.8241  1.5972  2.8653
  379MPD2     N 5727   4.212   0.355  16.563 -0.4990 -0.5175  0.4299
  379MPD2    H5 5728   4.208   0.374  16.663 -0.4903 -1.0445  0.5308
  379MPD2    N1 5729   3.895   0.279  16.189 -0.3543  0.3314 -0.2812
  379MPD2    H7 5730   3.796   0.275  16.170 -0.6973 -0.3659  1.6698
  380TMC3    C1 5731   3.920   0.208  15.974 -0.1305 -0.2710  0.3761
  380TMC3    C2 5732   3.989   0.121  15.890 -0.3056 -0.1727  0.5560
  380TMC3    C3 5733   3.979   0.132  15.752 -1.1658 -0.3483 -0.1405
  380TMC3    C4 5734   3.857   0.320  15.929  0.1690  0.5806 -0.2531
  380TMC3    C5 5735   3.840   0.326  15.792 -0.2079 -0.4578 -0.2226
  380TMC3    C6 5736   3.882   0.222  15.706  0.1294  0.3778 -1.1949
  380TMC3     C 5737   3.983   0.222  16.100  0.4840 -0.5620 -0.5511
  380TMC3     O 5738   4.100   0.179  16.103 -0.5720  0.0414  0.4968
  380TMC3     H 5739   4.046   0.041  15.937  2.1206  1.6511  0.7370
  380TMC3    H1 5740   3.810   0.399  15.986 -2.4760 -0.5334 -0.8815
  380TMC3    H2 5741   3.880   0.238  15.599 -3.2565 -0.0383 -1.1903
  380TMC3    C7 5742   3.741   0.418  15.741 -0.3140 -0.2023 -0.2650
  380TMC3    C8 5743   4.104   0.177  15.698  0.7106 -0.3082  0.2562
  380TMC3    O1 5744   3.717   0.520  15.805 -0.1389 -0.4625  0.4413
  380TMC3    O2 5745   4.109   0.195  15.578 -0.4166  0.1523  0.1736
  381TMC3    C1 5746   3.969   1.658  16.095  0.0973 -0.0684 -0.0906
  381TMC3    C2 5747   4.063   1.751  16.087  0.6024  0.0350  0.2531
  381TMC3    C3 5748   4.033   1.865  16.149 -0.0904 -0.0147  0.3953
  381TMC3    C4 5749   3.854   1.677  16.171  0.7398 -0.5119  0.0772
  381TMC3    C5 5750   3.831   1.796  16.234  0.5948 -0.3851  0.0730
  381TMC3    C6 5751   3.930   1.890  16.230 -0.3143 -0.1616  0.0433
  381TMC3     C 5752   4.001   1.524  16.054 -0.0196  0.3059 -0.5535
  381TMC3     O 5753   3.924   1.430  16.077  0.4775  0.1652  0.1255
  381TMC3     H 5754   4.154   1.741  16.028 -1.6152 -2.1259 -2.7982
  381TMC3    H1 5755   3.776   1.603  16.176  0.2423  0.0645  0.8053
  381TMC3    H2 5756   3.919   1.981  16.288 -1.9499 -0.2028 -0.2168
  381TMC3    C7 5757   3.754   1.766  16.356  0.5447  0.0949 -0.1370
  381TMC3    C8 5758   4.158   1.948  16.171  0.3909  0.0858 -0.4306
  381TMC3    O1 5759   3.774   1.659  16.409  0.5305  0.3254  0.0493
  381TMC3    O2 5760   4.257   1.905  16.116 -0.3217 -0.0204  0.1787
  382MPD2     C 5761   3.388   3.801  17.175 -0.3235  0.1613  0.1186
  382MPD2    C1 5762   3.255   3.816  17.198 -0.2621  0.4042 -0.2732
  382MPD2    C2 5763   3.178   3.707  17.227  0.2630  0.6060  0.6006
  382MPD2    C3 5764   3.227   3.582  17.234  0.5375 -0.7725  0.5314
  382MPD2    C4 5765   3.364   3.567  17.227  0.1065 -0.2870 -0.6663
  382MPD2    C5 5766   3.440   3.675  17.189 -0.3996  0.1375  0.2616
  382MPD2     H 5767   3.073   3.734  17.231  0.1666  0.5401 -1.4372
  382MPD2    H1 5768   3.408   3.468  17.234  0.8240  0.1797  1.3100
  382MPD2    H2 5769   3.452   3.889  17.171 -0.4767  0.1582 -2.7456
  382MPD2    H3 5770   3.545   3.674  17.162 -1.1118 -0.6638 -2.5191
  382MPD2     N 5771   3.142   3.468  17.239  0.7556 -0.3630 -0.3970
  382MPD2    H5 5772   3.178   3.373  17.232 -0.2172 -0.8196  0.7059
  382MPD2    N1 5773   3.190   3.943  17.196 -0.3262 -0.5179  0.2447
  382MPD2    H7 5774   3.093   3.941  17.225 -0.6894  0.6283 -0.8909
  383TMC3    C1 5775   2.939   3.341  17.220 -0.3014  0.0737 -0.1924
  383TMC3    C2 5776   2.807   3.332  17.186 -0.4347 -0.1770  0.7265
  383TMC3    C3 5777   2.732   3.225  17.232 -0.3440 -0.4243 -0.3131
  383TMC3    C4 5778   2.988   3.254  17.314  0.1261  0.5138  0.2636
  383TMC3    C5 5779   2.908   3.165  17.375  0.3296 -0.9294 -0.0711
  383TMC3    C6 5780   2.784   3.140  17.326 -0.7549 -0.1085 -0.6065
  383TMC3     C 5781   3.003   3.474  17.242  0.1955 -0.1792  0.0123
  383TMC3     O 5782   2.927   3.569  17.266 -0.6201  0.7007  0.3672
  383TMC3     H 5783   2.753   3.406  17.128  2.1870 -0.1726 -1.7172
  383TMC3    H1 5784   3.075   3.288  17.369 -1.2277  0.8462  2.1991
  383TMC3    H2 5785   2.738   3.048  17.361  1.4393  0.0981  2.8332
  383TMC3    C7 5786   2.971   3.093  17.485 -1.0458 -0.2694 -0.4066
  383TMC3    C8 5787   2.622   3.175  17.147  0.7812  0.8843  0.2545
  383TMC3    O1 5788   3.083   3.122  17.517  0.1653 -0.4952 -0.4241
  383TMC3    O2 5789   2.553   3.257  17.088 -0.5620  0.3197 -0.1956
  384MPD2     C 5790   4.526   0.035  12.261  0.3842  0.1276 -0.1526
  384MPD2    C1 5791   4.464   4.645  12.270  0.5107 -0.6827  0.3672
  384MPD2    C2 5792   4.510   4.541  12.201  0.5050 -0.3929 -0.4166
  384MPD2    C3 5793   4.635   4.553  12.144 -0.2013  0.1706 -0.0271
  384MPD2    C4 5794   4.712   4.668  12.151 -0.1992 -0.3698 -0.0594
  384MPD2    C5 5795   4.655   0.040  12.210 -0.0975  0.5803  0.7522
  384MPD2     H 5796   4.461   4.445  12.206  1.0510 -0.6186  0.5535
  384MPD2    H1 5797   0.071   4.677  12.103 -0.4412 -2.8872 -1.0169
  384MPD2    H2 5798   4.492   0.123  12.314  0.1877 -1.2786  2.0886
  384MPD2    H3 5799   4.701   0.138  12.205  2.4824 -0.8274 -2.7851
  384MPD2     N 5800   4.697   4.441  12.083  0.1300  0.7523 -0.1770
  384MPD2    H5 5801   0.060   4.432  12.073  0.2463  0.4313  1.1774
  384MPD2    N1 5802   4.347   4.622  12.351 -0.2576 -0.2208  0.0824
  384MPD2    H7 5803   4.326   4.525  12.369 -3.6583  0.6017  0.5802
  385TMC3    C1 5804   4.705   4.206  12.024 -0.0650 -0.3055 -0.2795
  385TMC3    C2 5805   4.650   4.120  11.934  0.6342  0.7502  0.0957
  385TMC3    C3 5806   4.657   3.988  11.966  1.0440 -1.3689  0.0493
  385TMC3    C4 5807   0.012   4.169  12.142  0.0034  0.2943 -0.2193
  385TMC3    C5 5808   4.731   4.040  12.183 -0.0121 -0.5731 -0.5787
  385TMC3    C6 5809   4.696   3.944  12.090  0.8630 -0.0688 -0.0541
  385TMC3     C 5810   4.629   4.323  12.052 -0.6511 -0.0565 -0.2724
  385TMC3     O 5811   4.509   4.307  12.036  0.0143 -0.0979 -0.6422
  385TMC3     H 5812   4.587   4.152  11.852  1.1980 -1.1258 -1.0787
  385TMC3    H1 5813   0.056   4.242  12.209  0.6805 -0.8615  0.5983
  385TMC3    H2 5814   4.708   3.840  12.118  0.3741 -0.7265 -2.3194
  385TMC3    C7 5815   4.672   4.031  12.313  0.1168 -0.6386  0.1452
  385TMC3    C8 5816   4.600   3.890  11.880  0.7240 -0.5496 -0.8240
  385TMC3    O1 5817   4.658   4.140  12.365 -0.5831  0.0500 -0.1928
  385TMC3    O2 5818   4.561   3.794  11.951  0.0950 -0.2131 -0.7110
  386TMC3    C1 5819   4.407   2.352  11.362 -0.4861  0.0520  0.0214
  386TMC3    C2 5820   4.322   2.366  11.261  0.1361 -0.1336  0.2560
  386TMC3    C3 5821   4.194   2.409  11.281 -0.0983 -0.1025 -0.1772
  386TMC3    C4 5822   4.371   2.371  11.491 -0.0646 -0.0757 -0.8873
  386TMC3    C5 5823   4.243   2.406  11.517  0.4443 -0.0158 -0.1676
  386TMC3    C6 5824   4.151   2.417  11.411  0.5073  0.0429  0.1936
  386TMC3     C 5825   4.527   2.274  11.342 -0.0472  0.6492  0.7731
  386TMC3     O 5826   4.515   2.158  11.304 -0.1040  0.2344  0.2125
  386TMC3     H 5827   4.353   2.330  11.164  0.7893  1.1234 -0.0101
  386TMC3    H1 5828   4.443   2.357  11.571 -0.4188 -0.3150 -0.6132
  386TMC3    H2 5829   4.052   2.457  11.432  1.4079  1.8309  1.0211
  386TMC3    C7 5830   4.197   2.401  11.649  0.7143  0.0640  0.0035
  386TMC3    C8 5831   4.088   2.392  11.186  0.1658  0.5992 -0.1191
  386TMC3    O1 5832   4.287   2.435  11.722 -0.4061 -0.7404 -0.2931
  386TMC3    O2 5833   3.977   2.407  11.231 -0.2437  0.7394  0.5383
  387MPD2     C 5834   2.019   2.377   9.727  0.2248  0.3214 -0.1646
  387MPD2    C1 5835   2.119   2.290   9.751  0.4764  0.5957 -0.0461
  387MPD2    C2 5836   2.116   2.167   9.694 -0.1231  0.2140  0.0478
  387MPD2    C3 5837   2.028   2.130   9.603  0.8950 -0.3956 -0.0357
  387MPD2    C4 5838   1.930   2.222   9.578 -0.5011 -0.0555  0.3618
  387MPD2    C5 5839   1.919   2.346   9.637 -0.3561  0.4703  0.2407
  387MPD2     H 5840   2.191   2.097   9.729 -1.4723 -2.1871 -1.8607
  387MPD2    H1 5841   1.856   2.200   9.502  0.6441  0.5036 -0.9149
  387MPD2    H2 5842   2.012   2.477   9.767 -1.7763 -0.5301  1.5891
  387MPD2    H3 5843   1.844   2.422   9.623 -3.4742 -2.6183  0.1396
  387MPD2     N 5844   2.043   2.009   9.535 -0.3294  0.1057  0.3494
  387MPD2    H5 5845   2.121   1.949   9.561  0.9639  1.8380  0.4941
  387MPD2    N1 5846   2.222   2.310   9.842 -0.1398 -0.5028 -0.1704
  387MPD2    H7 5847   2.275   2.224   9.859  0.1328  0.2985  2.8930
  388TMC3    C1 5848   2.384   2.417   9.975 -0.2536  0.1337  0.1138
  388TMC3    C2 5849   2.455   2.534   9.975  0.9911  0.3061 -0.5076
  388TMC3    C3 5850   2.591   2.529  10.010  0.2025 -0.2326 -0.5226
  388TMC3    C4 5851   2.447   2.294   9.984 -0.0234 -0.6105 -0.0271
  388TMC3    C5 5852   2.583   2.290  10.007  0.4991  0.3842  0.0327
  388TMC3    C6 5853   2.657   2.407  10.028 -0.1915 -0.5150  0.1962
  388TMC3     C 5854   2.257   2.430   9.906  0.0500  0.4008 -0.2224
  388TMC3     O 5855   2.206   2.542   9.883 -0.6399 -0.3982  0.0897
  388TMC3     H 5856   2.399   2.626   9.963  2.3150  1.0475 -0.9742
  388TMC3    H1 5857   2.384   2.210  10.009  2.1241 -1.8018  1.3698
  388TMC3    H2 5858   2.755   2.410  10.074  1.3369  0.3217 -3.0976
  388TMC3    C7 5859   2.657   2.196   9.927  0.0424  0.5224 -0.4817
  388TMC3    C8 5860   2.657   2.648  10.052  0.5401 -0.2623 -0.1403
  388TMC3    O1 5861   2.780   2.205   9.921 -0.1771  0.1918 -0.8997
  388TMC3    O2 5862   2.758   2.639  10.125  0.4223 -0.3270 -0.4194
  389MPD2     C 5863   1.821   0.185  10.864  0.7322  0.2325 -0.2645
  389MPD2    C1 5864   1.697   0.159  10.811  0.4903 -0.7618  0.6367
  389MPD2    C2 5865   1.600   0.095  10.898  0.4250 -0.4967  0.4155
  389MPD2    C3 5866   1.632   0.078  11.036  0.0294  0.3203  0.3399
  389MPD2    C4 5867   1.764   0.115  11.083 -0.1196  0.2765  0.1195
  389MPD2    C5 5868   1.853   0.170  10.996 -0.2255  1.0577 -0.1586
  389MPD2     H 5869   1.499   0.072  10.865  0.6514 -0.8190 -0.0480
  389MPD2    H1 5870   1.787   0.116  11.189 -0.5601 -4.1992  0.2529
  389MPD2    H2 5871   1.899   0.240  10.812  0.8213  1.9754  1.6668
  389MPD2    H3 5872   1.943   0.216  11.035  0.9919 -1.6105  0.2273
  389MPD2     N 5873   1.538   0.045  11.142  0.5400  0.4165 -0.2119
  389MPD2    H5 5874   1.581   0.036  11.233  4.5226  0.6035 -2.0251
  389MPD2    N1 5875   1.674   0.192  10.674  0.0577  0.4621  0.4067
  389MPD2    H7 5876   1.744   0.248  10.626 -1.7432 -0.5451 -3.3531
  390TMC3    C1 5877   1.379   4.672  11.260  0.3677 -1.1662  0.1719
  390TMC3    C2 5878   1.349   4.536  11.277  0.4100  0.2262  0.6003
  390TMC3    C3 5879   1.351   4.482  11.403  0.3149 -0.8629  0.1377
  390TMC3    C4 5880   1.415   0.014  11.364  0.1849 -0.1654 -0.4838
  390TMC3    C5 5881   1.407   4.701  11.491  0.0099 -0.0497  0.4010
  390TMC3    C6 5882   1.379   4.569  11.508 -0.2048 -0.7724  0.2795
  390TMC3     C 5883   1.419   4.724  11.126  0.3954 -0.8624 -0.3279
  390TMC3     O 5884   1.370   4.679  11.021 -0.3035  0.3044 -0.2426
  390TMC3     H 5885   1.307   4.483  11.192  1.2805 -0.2124  0.4389
  390TMC3    H1 5886   1.422   0.121  11.354 -0.5013 -0.3990 -3.5051
  390TMC3    H2 5887   1.402   4.528  11.606  2.4417  1.6148  0.6391
  390TMC3    C7 5888   1.328   0.042  11.575 -0.2189 -0.0119 -0.3411
  390TMC3    C8 5889   1.255   4.373  11.439 -0.6153  0.0921 -0.2234
  390TMC3    O1 5890   1.338   0.162  11.576  0.0836 -0.2071 -0.4540
  390TMC3    O2 5891   1.181   4.332  11.347 -0.0005 -0.8757 -0.4092
  391MPD2     C 5892   1.200   1.511  11.248 -0.2811  0.2231  0.2603
  391MPD2    C1 5893   1.307   1.574  11.186 -0.9218 -0.0621  0.0138
  391MPD2    C2 5894   1.305   1.581  11.047 -0.5229 -0.6620 -0.1430
  391MPD2    C3 5895   1.212   1.508  10.980  0.5657  0.0404 -0.4221
  391MPD2    C4 5896   1.112   1.443  11.044  0.1041 -0.7537  0.5619
  391MPD2    C5 5897   1.106   1.442  11.179  0.0972 -0.1075 -0.1708
  391MPD2     H 5898   1.371   1.651  10.997 -0.4775 -1.6206 -1.4089
  391MPD2    H1 5899   1.035   1.386  10.993  2.2554 -4.2378  1.2095
  391MPD2    H2 5900   1.190   1.505  11.356 -0.5913 -2.1358  0.0988
  391MPD2    H3 5901   1.032   1.385  11.233 -1.9456  2.9685  0.2563
  391MPD2     N 5902   1.215   1.515  10.841  0.1206 -0.2206  0.4939
  391MPD2    H5 5903   1.285   1.579  10.802  0.6233 -1.0990 -0.0479
  391MPD2    N1 5904   1.399   1.650  11.256 -0.0775  0.0744  0.0802
  391MPD2    H7 5905   1.459   1.709  11.199 -1.2474  0.0730 -1.1457
  392TMC3    C1 5906   1.176   1.460  10.617  0.2536  0.5633 -0.2395
  392TMC3    C2 5907   1.075   1.450  10.528  0.2776  0.0036 -0.5703
  392TMC3    C3 5908   1.096   1.502  10.399 -0.2844  0.0420 -0.5995
  392TMC3    C4 5909   1.298   1.526  10.590  0.6601 -0.2677 -0.6098
  392TMC3    C5 5910   1.304   1.578  10.464 -0.0699  0.4608  0.0387
  392TMC3    C6 5911   1.210   1.570  10.368  0.8007  0.0363 -0.4831
  392TMC3     C 5912   1.137   1.443  10.757  0.7390 -0.2936  0.0228
  392TMC3     O 5913   1.042   1.377  10.787  0.1577  0.1054  0.0353
  392TMC3     H 5914   0.973   1.425  10.556  1.1088 -3.2731 -0.4759
  392TMC3    H1 5915   1.375   1.548  10.663 -1.7256  0.7952  1.6198
  392TMC3    H2 5916   1.213   1.636  10.283 -1.5976  0.9137  0.1030
  392TMC3    C7 5917   1.423   1.654  10.436  0.3287  0.1775  0.1633
  392TMC3    C8 5918   0.982   1.505  10.310 -0.5294  0.1759  0.3115
  392TMC3    O1 5919   1.466   1.720  10.531  0.0851  0.6057 -0.3439
  392TMC3    O2 5920   0.867   1.496  10.357  0.0114  0.3623  0.2518
  393TMC3    C1 5921   4.460   0.114  10.997 -0.4274 -0.0474 -0.1142
  393TMC3    C2 5922   4.369   0.089  11.092 -0.1016 -0.3077  0.7139
  393TMC3    C3 5923   4.348   4.696  11.132  0.6244 -0.4991  0.3611
  393TMC3    C4 5924   4.543   0.023  10.943 -0.1003  0.6521  0.9806
  393TMC3    C5 5925   4.533   4.630  10.990  0.5317 -0.1122 -0.2083
  393TMC3    C6 5926   4.432   4.593  11.081 -0.5453 -0.1194 -0.1802
  393TMC3     C 5927   4.455   0.251  10.939  0.4852  0.3705 -0.4671
  393TMC3     O 5928   4.417   0.343  11.009 -0.4916  0.2081  0.0516
  393TMC3     H 5929   4.299   0.169  11.112  1.1820  1.1684 -0.7145
  393TMC3    H1 5930   4.615   0.062  10.871 -0.4017 -1.6222 -0.5510
  393TMC3    H2 5931   4.430   4.496  11.130 -1.4713  0.2418  0.4893
  393TMC3    C7 5932   4.638   4.540  10.972 -0.8613  0.0427 -0.6162
  393TMC3    C8 5933   4.289   4.668  11.258 -0.7065  0.5406 -0.1128
  393TMC3    O1 5934   4.636   4.436  11.036 -0.6846  0.2113 -0.3652
  393TMC3    O2 5935   4.299   4.552  11.293 -0.4555  0.8906 -0.5540
  394TMC3    C1 5936   1.552   0.200  10.467  0.6817  0.3508 -0.1015
  394TMC3    C2 5937   1.424   0.194  10.404  0.3870  0.1875 -0.0767
  394TMC3    C3 5938   1.376   0.296  10.324  0.1818  0.2956  0.2352
  394TMC3    C4 5939   1.636   0.302  10.433  0.3591 -0.9093 -0.4296
  394TMC3    C5 5940   1.589   0.397  10.349 -0.0817  0.5245  0.4511
  394TMC3    C6 5941   1.463   0.402  10.301  1.1368 -0.0798 -0.4458
  394TMC3     C 5942   1.557   0.151  10.604 -0.3720 -0.0040 -0.0013
  394TMC3     O 5943   1.480   0.061  10.638  0.6684 -0.3679  0.2415
  394TMC3     H 5944   1.381   0.094  10.400  0.8752 -0.0801  1.4029
  394TMC3    H1 5945   1.739   0.299  10.464  0.0636 -0.0395  0.6157
  394TMC3    H2 5946   1.430   0.478  10.231 -1.3576 -1.3843 -0.6897
  394TMC3    C7 5947   1.663   0.513  10.308 -0.2689 -0.0171 -0.2403
  394TMC3    C8 5948   1.329   0.258  10.189 -0.6274  0.5653 -0.3268
  394TMC3    O1 5949   1.605   0.612  10.272 -0.2901  0.1143 -0.6959
  394TMC3    O2 5950   1.396   0.284  10.090  0.0125  0.4612  0.1941
  395TMC3    C1 5951   1.633   2.411  14.562 -0.5037  0.0506  0.0876
  395TMC3    C2 5952   1.572   2.396  14.440 -0.6326 -0.5791  0.1370
  395TMC3    C3 5953   1.613   2.483  14.335 -0.3973 -0.1287  0.2526
  395TMC3    C4 5954   1.720   2.512  14.585 -0.0616  0.0016  0.1929
  395TMC3    C5 5955   1.751   2.608  14.493 -0.3639 -0.4740  0.1582
  395TMC3    C6 5956   1.694   2.590  14.367 -0.6665  0.2781 -0.3864
  395TMC3     C 5957   1.629   2.299  14.653 -0.0527  0.0455 -0.0270
  395TMC3     O 5958   1.615   2.187  14.607 -0.1486 -0.8241  0.5770
  395TMC3     H 5959   1.521   2.301  14.430  1.1117 -1.3109 -1.7678
  395TMC3    H1 5960   1.772   2.519  14.680 -0.2941  0.3059  0.2957
  395TMC3    H2 5961   1.716   2.661  14.288  0.2516  0.5122  0.0785
  395TMC3    C7 5962   1.812   2.729  14.536 -0.4347  0.6478  0.9542
  395TMC3    C8 5963   1.565   2.469  14.205  0.7687 -0.1255 -0.2886
  395TMC3    O1 5964   1.807   2.761  14.651 -0.6298  0.1867 -0.3793
  395TMC3    O2 5965   1.568   2.559  14.124 -0.0908 -0.1786 -0.1719
  396MPD2     C 5966   1.126   3.462  16.552 -0.5919  0.3829 -0.6534
  396MPD2    C1 5967   1.229   3.522  16.616  0.1940 -0.7341  0.1799
  396MPD2    C2 5968   1.303   3.623  16.560 -0.3075  0.5293  0.6065
  396MPD2    C3 5969   1.285   3.656  16.429  0.1878 -0.8473 -0.6409
  396MPD2    C4 5970   1.186   3.585  16.358 -0.3973  0.1708 -0.1632
  396MPD2    C5 5971   1.107   3.498  16.419 -0.2174 -0.5197 -0.6479
  396MPD2     H 5972   1.374   3.674  16.623 -1.0195 -0.5886  2.3213
  396MPD2    H1 5973   1.173   3.589  16.250 -0.3955  1.6668 -0.1123
  396MPD2    H2 5974   1.048   3.406  16.603 -0.2227 -0.0695 -0.5948
  396MPD2    H3 5975   1.026   3.443  16.371 -2.3099  1.7447  0.3249
  396MPD2     N 5976   1.371   3.746  16.370 -0.4041 -0.2772  0.0302
  396MPD2    H5 5977   1.448   3.785  16.422 -0.2830 -0.1762 -0.2246
  396MPD2    N1 5978   1.253   3.478  16.752 -0.4003  0.8109  0.6111
  396MPD2    H7 5979   1.190   3.405  16.786  0.2174  0.4916  1.0751
  397TMC3    C1 5980   1.326   3.480  16.980  0.1314  0.5484  0.2596
  397TMC3    C2 5981   1.433   3.413  17.020  0.4366 -0.1448  0.0449
  397TMC3    C3 5982   1.421   3.295  17.085 -0.0639 -0.2694 -0.0587
  397TMC3    C4 5983   1.200   3.426  16.993 -0.2926 -0.5521 -0.1491
  397TMC3    C5 5984   1.190   3.303  17.058  0.2045  0.2473 -0.5791
  397TMC3    C6 5985   1.303   3.238  17.105 -0.4811 -0.0551  0.2906
  397TMC3     C 5986   1.347   3.528  16.841  0.6182  0.5453  0.0315
  397TMC3     O 5987   1.446   3.596  16.815 -0.0842  0.7008 -0.1434
  397TMC3     H 5988   1.524   3.471  17.030  1.4841 -2.0069  1.2072
  397TMC3    H1 5989   1.108   3.478  16.967 -0.7499 -0.6326  1.2966
  397TMC3    H2 5990   1.302   3.141  17.153  0.6274  0.2067  0.8411
  397TMC3    C7 5991   1.067   3.265  17.116  0.3408  0.0997  0.2071
  397TMC3    C8 5992   1.532   3.240  17.161  0.3142  0.9175 -0.5463
  397TMC3    O1 5993   0.967   3.287  17.048 -0.2740  0.6303 -0.3186
  397TMC3    O2 5994   1.512   3.182  17.262 -0.1053 -0.8778  0.2235
  398MPD2     C 5995   3.709   0.264   0.318 -0.1453  1.0290  0.0648
  398MPD2    C1 5996   3.844   0.270   0.280 -0.1633  0.4796  0.2174
  398MPD2    C2 5997   3.899   0.385   0.227  0.9245  0.6872  0.2127
  398MPD2    C3 5998   3.822   0.494   0.194  0.0094  0.4305  0.0425
  398MPD2    C4 5999   3.688   0.480   0.216  0.2051  0.0539 -0.0533
  398MPD2    C5 6000   3.630   0.370   0.280  0.0697  0.1475 -0.1765
  398MPD2     H 6001   4.007   0.386   0.214  1.2702  0.2359  3.0423
  398MPD2    H1 6002   3.614   0.550   0.178  0.8673  0.9794  0.3719
  398MPD2    H2 6003   3.656   0.181   0.365  0.4143  0.0459 -1.0240
  398MPD2    H3 6004   3.522   0.365   0.283  0.0918  0.1192  0.5311
  398MPD2     N 6005   3.886   0.605   0.126  0.1078 -0.3075  0.2070
  398MPD2    H5 6006   3.979   0.585   0.091 -0.7067 -3.4389 -0.1985
  398MPD2    N1 6007   3.938   0.169   0.329  0.0081 -0.0672 -0.3647
  398MPD2    H7 6008   4.035   0.181   0.302  0.3365 -0.7977  0.5143
  399TMC3    C1 6009   4.027   4.716   0.418  0.3039 -0.1660 -0.1388
  399TMC3    C2 6010   4.157   0.019   0.392  0.1807 -0.0762 -0.0463
  399TMC3    C3 6011   4.256   4.669   0.427  0.5029 -0.4212 -0.4714
  399TMC3    C4 6012   3.999   4.594   0.473  0.8939 -0.6566  0.1402
  399TMC3    C5 6013   4.102   4.521   0.523  0.5231  0.1098 -0.4468
  399TMC3    C6 6014   4.231   4.560   0.503  0.4753  0.0663 -0.0281
  399TMC3     C 6015   3.910   0.055   0.400 -0.1901  0.1356 -0.6700
  399TMC3     O 6016   3.799   0.008   0.431 -0.0312  0.3353  0.1857
  399TMC3     H 6017   4.179   0.115   0.347 -2.3246 -0.3195 -1.8418
  399TMC3    H1 6018   3.897   4.570   0.498  1.0556 -1.1104  0.3688
  399TMC3    H2 6019   4.314   4.506   0.548  0.1216 -1.2784 -0.9751
  399TMC3    C7 6020   4.083   4.411   0.612  0.4398  0.2351 -0.4609
  399TMC3    C8 6021   4.394   4.673   0.377  0.1618  0.3435  0.1683
  399TMC3    O1 6022   4.162   4.394   0.697  0.8940 -0.3942 -0.2671
  399TMC3    O2 6023   4.490   4.643   0.442 -0.2873 -0.1090  0.4337
  400TMC3    C1 6024   2.969   2.779  17.004  0.0989  0.3347  0.2943
  400TMC3    C2 6025   2.906   2.745  16.890  1.0073 -0.2515 -0.5152
  400TMC3    C3 6026   2.882   2.847  16.802 -0.5852 -0.2578  0.1897
  400TMC3    C4 6027   3.029   2.901  17.028 -0.3144  0.2397 -0.3036
  400TMC3    C5 6028   3.009   2.995  16.934  0.2739  0.2004  0.2326
  400TMC3    C6 6029   2.934   2.974  16.818 -0.8755 -0.0882  0.2082
  400TMC3     C 6030   2.984   2.684  17.111  0.0677 -0.5040 -0.6609
  400TMC3     O 6031   3.021   2.729  17.220 -0.1075 -0.1894  0.0207
  400TMC3     H 6032   2.874   2.646  16.859 -1.3286 -0.0741  1.2804
  400TMC3    H1 6033   3.076   2.927  17.122 -0.2837  0.6405 -0.4277
  400TMC3    H2 6034   2.906   3.054  16.750 -0.2446  0.1839  0.2674
  400TMC3    C7 6035   3.095   3.114  16.946 -0.0374  0.3172  0.1278
  400TMC3    C8 6036   2.745   2.856  16.757 -0.2614 -0.3096  0.0222
  400TMC3    O1 6037   3.190   3.097  17.024  0.0434  0.0200 -0.0928
  400TMC3    O2 6038   2.680   2.957  16.787  0.1135  0.3678 -0.1347
  401MPD2     C 6039   2.098   1.674   0.131 -0.3831  0.4192 -0.5232
  401MPD2    C1 6040   2.128   1.607   0.247  0.1365 -0.1557 -0.0600
  401MPD2    C2 6041   2.050   1.497   0.285 -0.8380 -0.3143  0.3149
  401MPD2    C3 6042   1.946   1.448   0.209  0.5130 -0.4908  0.4324
  401MPD2    C4 6043   1.923   1.512   0.090  0.2536 -0.4761 -0.0697
  401MPD2    C5 6044   1.993   1.626   0.058 -0.7312 -0.0030  0.4627
  401MPD2     H 6045   2.088   1.447   0.373 -1.6506 -0.7338  0.4328
  401MPD2    H1 6046   1.842   1.486   0.023  0.7115 -1.2923 -0.3102
  401MPD2    H2 6047   2.162   1.755   0.098  0.8031  0.7564  2.5740
  401MPD2    H3 6048   1.970   1.674  17.713 -1.7870  1.4362  1.4440
  401MPD2     N 6049   1.881   1.328   0.238 -0.2034  0.1354  0.0816
  401MPD2    H5 6050   1.904   1.296   0.331  1.4629 -0.4682 -0.5382
  401MPD2    N1 6051   2.244   1.642   0.329  0.2502  0.3101 -0.0661
  401MPD2    H7 6052   2.260   1.584   0.410 -0.0235  0.4911  0.1174
  402TMC3    C1 6053   1.739   1.142   0.224 -0.1957 -0.0033  0.6654
  402TMC3    C2 6054   1.813   1.075   0.322  0.8416 -0.2091 -0.3655
  402TMC3    C3 6055   1.794   0.943   0.341 -0.7978 -0.2479 -0.0800
  402TMC3    C4 6056   1.643   1.082   0.146 -0.4899  0.1250 -0.0366
  402TMC3    C5 6057   1.640   0.941   0.161 -0.0726 -0.0114 -0.0738
  402TMC3    C6 6058   1.703   0.879   0.270 -1.0391  0.2828 -0.0003
  402TMC3     C 6059   1.791   1.262   0.162 -0.1649  0.3085 -0.3119
  402TMC3     O 6060   1.745   1.280   0.052  0.2670 -0.3660  0.1617
  402TMC3     H 6061   1.892   1.121   0.381  0.4132  0.3295 -0.2110
  402TMC3    H1 6062   1.599   1.125   0.056  0.0302 -0.3413 -0.5118
  402TMC3    H2 6063   1.673   0.775   0.280 -2.4692  0.6964 -0.0001
  402TMC3    C7 6064   1.549   0.874   0.078 -0.3204 -0.0603  0.5494
  402TMC3    C8 6065   1.845   0.865   0.453  0.2469 -0.4027  0.0311
  402TMC3    O1 6066   1.451   0.932   0.041 -0.4063  0.2672  0.2141
  402TMC3    O2 6067   1.820   0.745   0.448 -0.0303 -0.0329  0.1767
  403MPD2     C 6068   3.597   4.496  12.980  0.4601 -0.0478 -0.3939
  403MPD2    C1 6069   3.704   4.421  13.031 -0.0247 -0.3037  0.3774
  403MPD2    C2 6070   3.790   4.481  13.119  0.2404 -0.2454 -0.5837
  403MPD2    C3 6071   3.781   4.627  13.133 -0.2432  0.4071 -0.7090
  403MPD2    C4 6072   3.683   4.696  13.062  0.0236 -0.2989 -0.2013
  403MPD2    C5 6073   3.594   4.628  12.989 -0.9000 -0.6480 -0.0153
  403MPD2     H 6074   3.875   4.431  13.163  0.5022 -0.4895 -1.3762
  403MPD2    H1 6075   3.673   0.066  13.057  1.4140 -0.0874  1.4737
  403MPD2    H2 6076   3.518   4.456  12.917  2.7121 -3.0776 -1.3210
  403MPD2    H3 6077   3.519   4.684  12.934 -0.7837 -0.3898  0.0911
  403MPD2     N 6078   3.873   4.690  13.221  0.1463  0.7493  0.0814
  403MPD2    H5 6079   3.949   4.629  13.251  2.1265  3.0507 -0.2100
  403MPD2    N1 6080   3.700   4.278  13.010 -0.1217  0.0700  0.1352
  403MPD2    H7 6081   3.626   4.246  12.949  1.4823  0.3800 -1.9670
  404TMC3    C1 6082   3.743   4.053  13.035 -0.4996 -0.3572  0.2247
  404TMC3    C2 6083   3.748   3.964  13.135  0.8592 -0.3574 -0.2280
  404TMC3    C3 6084   3.759   3.832  13.098 -0.1103  1.2745  0.9304
  404TMC3    C4 6085   3.770   4.023  12.904  0.0280  0.1494 -0.2674
  404TMC3    C5 6086   3.779   3.884  12.878  0.3211 -0.1725 -0.2879
  404TMC3    C6 6087   3.785   3.791  12.976 -0.7424  0.5013 -0.3162
  404TMC3     C 6088   3.768   4.190  13.080 -0.2398 -0.2482  0.2359
  404TMC3     O 6089   3.839   4.208  13.177 -0.0934 -0.1714 -1.1094
  404TMC3     H 6090   3.756   3.999  13.237 -0.9908  1.6757 -0.7852
  404TMC3    H1 6091   3.771   4.107  12.834  0.4054 -1.6231 -2.3984
  404TMC3    H2 6092   3.798   3.686  12.952  0.7596  0.5357  0.3989
  404TMC3    C7 6093   3.840   3.848  12.749 -0.7251 -0.5955 -0.2695
  404TMC3    C8 6094   3.805   3.736  13.202 -0.3418  0.2297 -0.0426
  404TMC3    O1 6095   3.897   3.939  12.689 -0.4394  0.1436  0.0179
  404TMC3    O2 6096   3.872   3.644  13.165 -0.2731  0.7162 -0.3988
  405MPD2     C 6097   4.599   0.720  15.264 -0.0379  0.0985 -0.7115
  405MPD2    C1 6098   4.508   0.628  15.223  0.7803 -0.1931  0.7105
  405MPD2    C2 6099   4.409   0.669  15.147 -0.3595  0.6251  0.6450
  405MPD2    C3 6100   4.377   0.801  15.125  0.8434 -0.5044 -0.4009
  405MPD2    C4 6101   4.462   0.893  15.176  0.9001  0.1035 -0.5295
  405MPD2    C5 6102   4.575   0.851  15.235  0.2412  0.8783  0.3945
  405MPD2     H 6103   4.356   0.590  15.097 -1.3204  1.2739  0.6357
  405MPD2    H1 6104   4.447   1.000  15.166  1.5975  0.2437 -0.0470
  405MPD2    H2 6105   4.685   0.692  15.325 -0.6663  3.2830  1.6808
  405MPD2    H3 6106   4.642   0.930  15.267  1.1292  0.4678 -0.4569
  405MPD2     N 6107   4.254   0.829  15.065  0.1740  0.0057  0.5329
  405MPD2    H5 6108   4.209   0.748  15.023 -1.0101 -0.2510  2.3120
  405MPD2    N1 6109   4.513   0.488  15.243  0.2952  0.4041  0.4203
  405MPD2    H7 6110   4.430   0.435  15.218 -1.5950  3.5865 -0.1897
  406TMC3    C1 6111   3.837   1.010  14.956 -0.2419 -0.0751 -0.3262
  406TMC3    C2 6112   3.796   0.873  14.941  0.6601 -0.7518 -0.4964
  406TMC3    C3 6113   3.881   0.778  14.978 -0.0137  0.0856 -0.7548
  406TMC3    C4 6114   3.966   1.044  15.005 -0.8964 -0.2205  0.5383
  406TMC3    C5 6115   4.047   0.935  15.033 -0.0183 -0.7125  0.2565
  406TMC3    C6 6116   4.001   0.803  15.035 -0.5301 -0.1296 -0.2622
  406TMC3     C 6117   3.774   1.096  14.865 -0.2254 -0.4815 -0.1325
  406TMC3     O 6118   3.770   1.215  14.889  0.0199 -0.1513  0.3052
  406TMC3     H 6119   3.699   0.846  14.901 -1.2065  1.9365  2.1600
  406TMC3    H1 6120   4.008   1.143  15.017  0.8527 -0.9233  0.2950
  406TMC3    H2 6121   4.055   0.724  15.087 -0.5756 -0.2157 -0.3474
  406TMC3    C7 6122   4.185   0.952  15.066 -0.0664  0.4975 -0.0101
  406TMC3    C8 6123   3.815   0.649  15.004  0.0445  0.3496  0.8664
  406TMC3    O1 6124   4.228   1.063  15.087 -0.1409  0.3509  0.0756
  406TMC3    O2 6125   3.703   0.642  15.046 -0.0618 -0.3789 -0.3853
  407MPD2     C 6126   1.608   1.738   9.631 -0.1628  0.2781  0.6542
  407MPD2    C1 6127   1.643   1.865   9.579  0.2970 -0.7169  0.4287
  407MPD2    C2 6128   1.711   1.945   9.668  1.1367  0.0342 -0.3613
  407MPD2    C3 6129   1.756   1.915   9.793  1.0636 -0.3725 -0.3893
  407MPD2    C4 6130   1.720   1.792   9.833  0.3588 -0.4363  0.3371
  407MPD2    C5 6131   1.652   1.701   9.755 -0.6144  0.5297  0.9138
  407MPD2     H 6132   1.749   2.041   9.634  0.2528  0.9121  1.1287
  407MPD2    H1 6133   1.744   1.756   9.933 -2.0756  2.2303  1.8885
  407MPD2    H2 6134   1.543   1.665   9.584  0.9928  0.6611 -1.5688
  407MPD2    H3 6135   1.621   1.608   9.802 -4.1153  1.6415  0.7690
  407MPD2     N 6136   1.840   2.004   9.862 -0.5768  0.6648 -0.4967
  407MPD2    H5 6137   1.862   2.094   9.820  0.8138  1.2206  1.4077
  407MPD2    N1 6138   1.601   1.917   9.455 -0.1775 -0.5488  0.4629
  407MPD2    H7 6139   1.635   2.012   9.440 -0.6684 -0.2941  0.9651
  408TMC3    C1 6140   1.559   1.897   9.227 -0.2983  0.8093  0.5026
  408TMC3    C2 6141   1.586   1.802   9.136  0.1771 -0.5897  0.2696
  408TMC3    C3 6142   1.678   1.826   9.042  0.4836  0.2115 -0.4245
  408TMC3    C4 6143   1.613   2.024   9.216  0.8327 -0.2782  0.2979
  408TMC3    C5 6144   1.697   2.049   9.111 -0.1542 -0.1976  0.0026
  408TMC3    C6 6145   1.733   1.950   9.021 -0.1964  0.7002  0.5112
  408TMC3     C 6146   1.535   1.844   9.358  0.3816 -0.0766 -0.0559
  408TMC3     O 6147   1.508   1.725   9.361  0.3684  0.1079  0.4368
  408TMC3     H 6148   1.548   1.701   9.147 -1.2744 -0.1399 -0.5737
  408TMC3    H1 6149   1.576   2.105   9.276  2.1913  0.6265 -0.0836
  408TMC3    H2 6150   1.804   1.968   8.942 -1.0358  0.1508 -0.3739
  408TMC3    C7 6151   1.799   2.151   9.130 -0.4373  0.2651  0.0767
  408TMC3    C8 6152   1.757   1.709   9.010  0.0311 -0.2790 -0.0044
  408TMC3    O1 6153   1.900   2.138   9.064  0.4643  0.0262 -0.4450
  408TMC3    O2 6154   1.710   1.594   9.015  0.0830  0.0708 -0.3954
  409MPD2     C 6155   1.331   2.643  16.749  0.4198 -0.2962  0.0311
  409MPD2    C1 6156   1.429   2.646  16.847  0.1328 -0.7995  0.2407
  409MPD2    C2 6157   1.528   2.744  16.834 -0.1412 -0.2320 -0.0979
  409MPD2    C3 6158   1.519   2.841  16.745  1.0601  0.7234 -1.6797
  409MPD2    C4 6159   1.419   2.842  16.651  1.0188  0.1077 -0.5551
  409MPD2    C5 6160   1.325   2.747  16.656  0.0815  0.3074  0.0686
  409MPD2     H 6161   1.601   2.739  16.914 -1.1074  2.0737  0.9328
  409MPD2    H1 6162   1.410   2.928  16.586 -0.3778  2.0253  2.1477
  409MPD2    H2 6163   1.260   2.561  16.758 -0.3641 -0.1611 -5.0460
  409MPD2    H3 6164   1.237   2.753  16.593 -0.5287 -0.2243  0.8765
  409MPD2     N 6165   1.614   2.946  16.742  0.2983  0.1904  0.6188
  409MPD2    H5 6166   1.595   3.026  16.682  0.7542  0.7209  1.1925
  409MPD2    N1 6167   1.443   2.557  16.959  0.4247  0.1623  0.0250
  409MPD2    H7 6168   1.525   2.561  17.019  0.1133  1.9841  0.3349
  410TMC3    C1 6169   1.830   3.045  16.764  0.1604  0.0135  0.4578
  410TMC3    C2 6170   1.953   3.056  16.840 -0.1538 -0.3404  0.0090
  410TMC3    C3 6171   2.057   3.114  16.769 -0.3050  0.7831 -0.2798
  410TMC3    C4 6172   1.816   3.091  16.635  0.2131 -0.8279  0.1822
  410TMC3    C5 6173   1.930   3.151  16.579 -0.1385 -0.0870  0.0716
  410TMC3    C6 6174   2.043   3.171  16.650  0.1917  0.4328  0.4901
  410TMC3     C 6175   1.718   2.972  16.826 -0.1210 -0.7195 -0.2004
  410TMC3     O 6176   1.747   2.930  16.936  0.4548  0.2928 -0.5642
  410TMC3     H 6177   1.964   3.018  16.941 -0.7024 -2.7965 -0.8387
  410TMC3    H1 6178   1.734   3.067  16.569  0.4131 -1.7511  0.2674
  410TMC3    H2 6179   2.139   3.196  16.606  1.1764 -0.3266  2.1648
  410TMC3    C7 6180   1.903   3.216  16.453 -0.3111  0.3286  0.6383
  410TMC3    C8 6181   2.189   3.098  16.829 -0.1736 -0.6759  1.0790
  410TMC3    O1 6182   1.792   3.214  16.401  0.3240 -0.0613  0.5193
  410TMC3    O2 6183   2.282   3.172  16.796  0.2715  0.3157  0.2524
  411MPD2     C 6184   1.823   3.253  14.270 -0.1385 -0.3485 -0.1630
  411MPD2    C1 6185   1.776   3.332  14.367 -0.2245  0.6927 -0.4873
  411MPD2    C2 6186   1.689   3.273  14.458  0.6232  0.3381  0.3589
  411MPD2    C3 6187   1.649   3.143  14.447  0.1526  0.4036 -0.8022
  411MPD2    C4 6188   1.690   3.072  14.334  0.0884 -0.4151 -0.1729
  411MPD2    C5 6189   1.786   3.121  14.252  0.4509  0.5928 -0.1546
  411MPD2     H 6190   1.649   3.336  14.536  0.9592  1.0039 -0.0024
  411MPD2    H1 6191   1.669   2.966  14.334  1.7805 -0.7482 -2.3939
  411MPD2    H2 6192   1.901   3.279  14.199 -0.0905 -0.2229 -0.0630
  411MPD2    H3 6193   1.823   3.063  14.168  1.1235  1.1187 -0.2252
  411MPD2     N 6194   1.564   3.079  14.537 -0.5358 -0.1884  0.2611
  411MPD2    H5 6195   1.540   2.984  14.510  0.4576  0.1611 -1.8701
  411MPD2    N1 6196   1.814   3.469  14.357 -0.0117 -0.8120  0.3318
  411MPD2    H7 6197   1.848   3.514  14.273  0.8480 -1.4788  0.3207
  412TMC3    C1 6198   1.406   3.038  14.714 -0.7209 -0.2088 -0.4322
  412TMC3    C2 6199   1.270   3.058  14.692  0.0777 -0.2392  0.0598
  412TMC3    C3 6200   1.184   2.953  14.693 -0.3454  0.3605 -0.1180
  412TMC3    C4 6201   1.454   2.913  14.718  0.0780  0.4941  0.4297
  412TMC3    C5 6202   1.373   2.803  14.699 -0.0654 -0.1248 -1.0922
  412TMC3    C6 6203   1.234   2.823  14.709  1.5528 -0.0626  0.3476
  412TMC3     C 6204   1.485   3.134  14.639 -0.4550  0.0474  0.4716
  412TMC3     O 6205   1.469   3.249  14.670 -0.0951 -0.2975  0.7964
  412TMC3     H 6206   1.230   3.156  14.666 -0.7136 -0.7444 -0.6613
  412TMC3    H1 6207   1.561   2.899  14.721  0.1830  0.9366 -1.2309
  412TMC3    H2 6208   1.162   2.742  14.708 -0.0153  1.3317 -0.1093
  412TMC3    C7 6209   1.398   2.730  14.578  0.2914  0.5744 -0.1626
  412TMC3    C8 6210   1.097   2.955  14.578  0.8351  0.5566 -0.4435
  412TMC3    O1 6211   1.481   2.778  14.500  0.0110  0.1264  0.3724
  412TMC3    O2 6212   1.142   3.016  14.478 -0.5146 -0.4420 -0.4891
  413MPD2     C 6213   3.463   2.135  15.114 -0.2598  0.3200 -0.1095
  413MPD2    C1 6214   3.438   2.054  15.003 -0.1880 -0.1042  0.4509
  413MPD2    C2 6215   3.550   1.997  14.936 -0.4632 -0.2934 -1.0446
  413MPD2    C3 6216   3.677   2.008  14.996  0.4921 -0.1130  0.0246
  413MPD2    C4 6217   3.699   2.102  15.099 -0.4765 -0.9261  0.0002
  413MPD2    C5 6218   3.591   2.165  15.145  0.1372 -1.3388 -0.5927
  413MPD2     H 6219   3.528   1.914  14.870  1.5504 -0.3995 -1.5845
  413MPD2    H1 6220   3.800   2.123  15.132 -0.0645 -1.1716 -1.1054
  413MPD2    H2 6221   3.383   2.189  15.164 -0.5436  0.0771 -0.3019
  413MPD2    H3 6222   3.605   2.246  15.215 -0.8534  0.1496 -2.1135
  413MPD2     N 6223   3.780   1.921  14.950  0.3213  0.6088 -0.0490
  413MPD2    H5 6224   3.755   1.844  14.889  0.6644  0.3359  0.1532
  413MPD2    N1 6225   3.300   2.029  14.968  0.5817  0.2271 -0.0479
  413MPD2    H7 6226   3.232   2.079  15.024 -0.3682  1.8265 -2.6623
  414TMC3    C1 6227   3.961   1.793  14.959 -0.2431  0.1663 -1.1995
  414TMC3    C2 6228   4.026   1.725  15.061 -0.0537 -0.0796  0.5121
  414TMC3    C3 6229   4.023   1.585  15.048 -0.1719  0.3665  0.5492
  414TMC3    C4 6230   3.913   1.730  14.845 -0.1646  0.4071  0.1677
  414TMC3    C5 6231   3.927   1.596  14.836  0.2410 -0.3868  0.4625
  414TMC3    C6 6232   3.965   1.522  14.940 -0.4368 -0.5306 -0.0623
  414TMC3     C 6233   3.910   1.923  14.988  0.1216 -0.5431  0.1705
  414TMC3     O 6234   3.976   2.009  15.044  0.1373  0.0643 -0.2520
  414TMC3     H 6235   4.063   1.786  15.143  0.4650 -0.9738  0.9401
  414TMC3    H1 6236   3.868   1.789  14.766  2.2977  0.0800 -1.4777
  414TMC3    H2 6237   3.960   1.415  14.929  0.3953 -0.4529 -1.1243
  414TMC3    C7 6238   3.841   1.537  14.743 -0.3436 -0.6531  0.5069
  414TMC3    C8 6239   4.097   1.510  15.140  0.0443 -0.4355  0.0921
  414TMC3    O1 6240   3.730   1.590  14.741 -0.1422  0.5216  0.1148
  414TMC3    O2 6241   4.049   1.399  15.161 -0.2078 -0.1710 -0.1590
  415TMC3    C1 6242   4.448   4.012  10.063  0.0237 -0.0830  0.4218
  415TMC3    C2 6243   4.569   4.011   9.999  0.4825  0.3193  0.1157
  415TMC3    C3 6244   4.642   3.897   9.992  0.0620 -0.7534  0.1376
  415TMC3    C4 6245   4.395   3.903  10.123  0.4136  0.5661  0.0596
  415TMC3    C5 6246   4.464   3.786  10.103 -0.0147 -0.2442 -0.1299
  415TMC3    C6 6247   4.592   3.781  10.047  0.8493  0.7412 -0.2830
  415TMC3     C 6248   4.395   4.143  10.106  0.2678 -0.1416 -0.3098
  415TMC3     O 6249   4.482   4.224  10.149 -0.2712  0.3776 -0.1851
  415TMC3     H 6250   4.599   4.109   9.965 -1.3549  1.6380  2.2958
  415TMC3    H1 6251   4.305   3.917  10.181  0.2251  0.5042 -0.2156
  415TMC3    H2 6252   4.649   3.689  10.036  1.2081  1.3015 -2.9612
  415TMC3    C7 6253   4.414   3.662  10.151  0.9181  0.3431 -0.5690
  415TMC3    C8 6254   0.035   3.901   9.924 -0.3900 -0.8089  0.2879
  415TMC3    O1 6255   4.498   3.573  10.176 -0.1241  0.4711  0.2820
  415TMC3    O2 6256   0.078   3.796   9.888  0.0553 -0.1410 -0.0029
  416MPD2     C 6257   0.956   2.979  11.269  0.5433 -0.0394 -0.2961
  416MPD2    C1 6258   0.880   2.876  11.314  0.0423 -0.6116 -0.6542
  416MPD2    C2 6259   0.891   2.746  11.267 -0.5869  0.4939  0.0097
  416MPD2    C3 6260   0.977   2.724  11.154 -0.1846 -0.8679  0.2927
  416MPD2    C4 6261   1.060   2.823  11.111 -0.4768 -0.3070  0.2941
  416MPD2    C5 6262   1.049   2.954  11.169  0.1942  0.2683 -0.3585
  416MPD2     H 6263   0.834   2.665  11.312 -2.5156  0.2663 -2.8057
  416MPD2    H1 6264   1.127   2.802  11.028  0.5433 -0.6142  1.1855
  416MPD2    H2 6265   0.947   3.075  11.320  0.6742 -0.9461  1.4399
  416MPD2    H3 6266   1.120   3.028  11.133 -0.8128  0.9871 -0.8650
  416MPD2     N 6267   0.986   2.601  11.082 -0.0416  0.0532  0.2601
  416MPD2    H5 6268   1.031   2.614  10.992 -1.4123 -0.0423 -0.4263
  416MPD2    N1 6269   0.789   2.917  11.414 -0.3197 -0.1105 -0.2138
  416MPD2    H7 6270   0.788   3.018  11.428  0.0940 -0.2890  1.0988
  417TMC3    C1 6271   0.626   2.894  11.589 -0.2884  0.0463 -0.0458
  417TMC3    C2 6272   0.661   2.900  11.725 -0.2811 -0.4563 -0.3236
  417TMC3    C3 6273   0.628   3.013  11.790  0.5139  0.0316 -0.1383
  417TMC3    C4 6274   0.554   2.996  11.526 -0.0549 -0.2579  0.5249
  417TMC3    C5 6275   0.504   3.093  11.603  0.4969 -0.6012  0.2187
  417TMC3    C6 6276   0.544   3.110  11.734 -0.1176 -0.0003 -0.2918
  417TMC3     C 6277   0.724   2.829  11.498 -0.6191  0.3244  0.1574
  417TMC3     O 6278   0.764   2.720  11.537 -0.3818  0.1536  1.1642
  417TMC3     H 6279   0.725   2.822  11.764  2.2001  1.1547 -1.1866
  417TMC3    H1 6280   0.536   2.986  11.420 -0.3736 -0.7615  0.6283
  417TMC3    H2 6281   0.533   3.212  11.769 -0.7800 -0.5402  1.1223
  417TMC3    C7 6282   0.426   3.192  11.535 -0.3565 -0.4110  0.5295
  417TMC3    C8 6283   0.685   3.046  11.918  0.0393 -0.1216 -0.5776
  417TMC3    O1 6284   0.435   3.194  11.413  0.0742 -0.5031 -0.4058
  417TMC3    O2 6285   0.626   3.125  11.997  0.4044  0.1383  0.2258
  418TMC3    C1 6286   4.098   0.847  17.683 -0.0626  0.2980  0.0258
  418TMC3    C2 6287   3.986   0.778  17.709 -1.1514 -0.1598  0.5867
  418TMC3    C3 6288   3.893   0.833   0.045  0.6461  1.2523  0.3369
  418TMC3    C4 6289   4.123   0.969  17.734 -0.7813 -0.4966 -0.0373
  418TMC3    C5 6290   4.023   1.029   0.061  0.0288  0.4633 -0.1161
  418TMC3    C6 6291   3.908   0.961   0.092  0.4842 -0.0471 -0.4886
  418TMC3     C 6292   4.201   0.801  17.593  0.0518  0.5443  0.2010
  418TMC3     O 6293   4.174   0.763  17.481 -0.0819  0.6369  0.6063
  418TMC3     H 6294   3.992   0.676  17.673 -0.3159 -0.0990  0.5576
  418TMC3    H1 6295   4.212   1.026  17.707 -1.1516  1.0084  1.9898
  418TMC3    H2 6296   3.834   0.994   0.164 -0.3552 -1.9045 -0.5148
  418TMC3    C7 6297   4.082   1.118   0.162 -0.4300 -0.5932  0.0816
  418TMC3    C8 6298   3.825   0.724   0.116  0.1368  0.8659  0.4315
  418TMC3    O1 6299   4.201   1.106   0.178  0.0551  0.4879  0.5021
  418TMC3    O2 6300   3.724   0.764   0.170 -0.2838 -0.0542  0.0285
  419MPD2     C 6301   3.035   2.810  12.159  0.5958 -0.1528  0.1584
  419MPD2    C1 6302   2.910   2.814  12.220  0.0961  0.5568 -0.2510
  419MPD2    C2 6303   2.890   2.899  12.320  0.3107 -0.4618  0.2490
  419MPD2    C3 6304   2.990   2.977  12.372  0.1427  0.1455 -0.1834
  419MPD2    C4 6305   3.114   2.980  12.312  0.1420 -0.2141 -0.4053
  419MPD2    C5 6306   3.137   2.898  12.203  0.1484  0.0586 -0.4277
  419MPD2     H 6307   2.796   2.890  12.372  0.4849  0.7914  0.7748
  419MPD2    H1 6308   3.201   3.027  12.357 -1.1052  1.9371 -0.2341
  419MPD2    H2 6309   3.055   2.734  12.085  0.2908 -1.1493  1.1056
  419MPD2    H3 6310   3.235   2.890  12.158 -0.1009 -0.6225 -0.8452
  419MPD2     N 6311   2.954   3.061  12.477  0.3122  0.4047  0.0534
  419MPD2    H5 6312   2.859   3.051  12.511 -0.0253  2.4049 -0.2790
  419MPD2    N1 6313   2.805   2.728  12.183  0.5674  0.1763  0.6348
  419MPD2    H7 6314   2.718   2.739  12.234 -1.4760 -1.7847 -2.3904
  420TMC3    C1 6315   2.956   3.241  12.624 -0.3065  0.6284 -0.1132
  420TMC3    C2 6316   2.818   3.243  12.630  0.8116 -0.8943 -0.3668
  420TMC3    C3 6317   2.762   3.315  12.728  0.5572  0.4263 -0.2304
  420TMC3    C4 6318   3.033   3.300  12.724  0.1027  0.3084  0.2199
  420TMC3    C5 6319   2.977   3.385  12.812  0.3995  0.0564 -0.6252
  420TMC3    C6 6320   2.836   3.384  12.818  1.2239  0.6882 -0.4634
  420TMC3     C 6321   3.029   3.162  12.537  0.3257 -0.3249  0.1192
  420TMC3     O 6322   3.149   3.193  12.513 -0.2453  0.1420  0.8588
  420TMC3     H 6323   2.762   3.216  12.541 -3.3836  1.2999  1.6446
  420TMC3    H1 6324   3.140   3.287  12.720  0.0696 -0.7295  2.2827
  420TMC3    H2 6325   2.785   3.442  12.894  1.4530 -1.1368  1.0937
  420TMC3    C7 6326   3.040   3.372  12.945  0.8137  0.0103 -0.2087
  420TMC3    C8 6327   2.624   3.331  12.724 -0.6431 -0.1596  0.0120
  420TMC3    O1 6328   3.100   3.265  12.967  0.1438 -0.9618 -0.0873
  420TMC3    O2 6329   2.565   3.307  12.617  0.1652  0.0526 -0.0032
  421TMC3    C1 6330   3.979   0.114  13.347  0.5901  0.2670  0.4610
  421TMC3    C2 6331   3.947   0.178  13.465 -0.5337 -0.2952  0.1696
  421TMC3    C3 6332   4.044   0.193  13.557 -0.5226 -1.1634  0.3225
  421TMC3    C4 6333   4.100   0.047  13.325  0.8288 -0.0754 -0.4692
  421TMC3    C5 6334   4.190   0.061  13.432  0.1258  0.5324  0.4607
  421TMC3    C6 6335   4.165   0.132  13.544  0.6947 -0.7375 -0.9776
  421TMC3     C 6336   3.866   0.082  13.266 -0.3066 -0.2174 -0.6027
  421TMC3     O 6337   3.762   0.147  13.281  0.2015 -0.4693  0.7581
  421TMC3     H 6338   3.846   0.217  13.477  0.3506  2.0262  0.1908
  421TMC3    H1 6339   4.122   4.733  13.233 -0.7576  0.4201 -1.1276
  421TMC3    H2 6340   4.243   0.152  13.617  0.9276 -1.2849 -1.0728
  421TMC3    C7 6341   4.317   4.726  13.431 -0.1243  0.2507 -1.1683
  421TMC3    C8 6342   4.017   0.244  13.697  0.3037 -0.0579  0.7876
  421TMC3    O1 6343   4.390   0.001  13.525 -0.1568  0.6387 -0.3806
  421TMC3    O2 6344   4.102   0.228  13.782 -0.2612  0.3697  0.1282
  422TMC3    C1 6345   1.882   0.904  12.263  0.0020  0.1760 -0.3530
  422TMC3    C2 6346   1.849   1.030  12.311  0.0834 -0.3017 -0.0856
  422TMC3    C3 6347   1.753   1.039  12.408 -0.3648  0.0320 -0.3223
  422TMC3    C4 6348   1.802   0.797  12.296  0.3588 -0.1434 -0.0784
  422TMC3    C5 6349   1.703   0.814  12.391  0.6446  0.1241 -0.1947
  422TMC3    C6 6350   1.678   0.934  12.453 -0.4132 -0.0019  0.5610
  422TMC3     C 6351   2.002   0.888  12.184  0.1874 -0.5557  0.0791
  422TMC3     O 6352   2.069   0.992  12.186  0.1001  0.1710  0.7854
  422TMC3     H 6353   1.903   1.119  12.282 -0.4492  0.6613  1.8446
  422TMC3    H1 6354   1.826   0.695  12.268 -0.7314 -0.4750  0.2002
  422TMC3    H2 6355   1.609   0.942  12.536 -0.7057 -0.3913  0.3568
  422TMC3    C7 6356   1.633   0.698  12.443  0.1216  0.4393 -0.6291
  422TMC3    C8 6357   1.738   1.168  12.464  0.2759  0.5497 -0.4642
  422TMC3    O1 6358   1.690   0.588  12.446  0.2779 -0.0254  0.5568
  422TMC3    O2 6359   1.834   1.239  12.479 -0.1017  0.4258  0.5208
  423MPD2     C 6360   3.598   2.735   0.425  0.6241 -0.0094  0.4338
  423MPD2    C1 6361   3.639   2.616   0.468  0.2736  0.0483  0.2661
  423MPD2    C2 6362   3.633   2.504   0.381 -0.5045 -0.3772  0.6374
  423MPD2    C3 6363   3.571   2.511   0.255 -0.6750  0.3104 -0.4512
  423MPD2    C4 6364   3.533   2.635   0.211  0.2884 -0.7278  0.3207
  423MPD2    C5 6365   3.542   2.743   0.296 -0.2012 -0.3862 -0.1242
  423MPD2     H 6366   3.676   2.412   0.417  0.7468  0.2600  0.7530
  423MPD2    H1 6367   3.493   2.641   0.111 -0.8977  0.9806  0.8812
  423MPD2    H2 6368   3.600   2.831   0.477 -0.0150  0.5916 -0.6549
  423MPD2    H3 6369   3.509   2.839   0.259  1.0156 -0.1103 -0.5099
  423MPD2     N 6370   3.550   2.401   0.165 -0.0176 -0.3739 -0.1575
  423MPD2    H5 6371   3.507   2.418   0.075 -1.3882 -1.4300  0.2887
  423MPD2    N1 6372   3.692   2.598   0.603 -0.3823 -0.6471 -0.5151
  423MPD2    H7 6373   3.721   2.503   0.623 -0.4089 -0.5894 -0.2042
  424TMC3    C1 6374   3.711   2.632   0.842 -0.6249 -0.2525 -0.1131
  424TMC3    C2 6375   3.801   2.531   0.850  0.1196 -0.2949  0.0714
  424TMC3    C3 6376   3.829   2.485   0.973 -0.7128 -0.4951 -0.1317
  424TMC3    C4 6377   3.653   2.687   0.954  0.1011 -0.5326  0.6964
  424TMC3    C5 6378   3.679   2.633   1.076 -0.8660 -0.5474 -0.3963
  424TMC3    C6 6379   3.771   2.530   1.092  0.6285 -0.4439  0.4258
  424TMC3     C 6380   3.681   2.689   0.704 -0.0126 -0.0378  0.4258
  424TMC3     O 6381   3.639   2.805   0.704 -0.3637  0.2303 -0.2387
  424TMC3     H 6382   3.867   2.502   0.770 -0.6804 -1.1894 -0.2615
  424TMC3    H1 6383   3.573   2.759   0.943  0.7014  0.5827  3.7064
  424TMC3    H2 6384   3.803   2.500   1.192 -0.4186 -1.6964  0.3957
  424TMC3    C7 6385   3.593   2.665   1.184  0.3458 -0.1802  0.1897
  424TMC3    C8 6386   3.905   2.360   0.981 -0.4811  0.7649 -0.0607
  424TMC3    O1 6387   3.631   2.663   1.302  0.0275  0.5544  0.0372
  424TMC3    O2 6388   3.873   2.281   1.073  0.1080  0.0430  0.4706
  425MPD2     C 6389   2.414   1.604  17.014  0.1920 -0.5820 -0.1849
  425MPD2    C1 6390   2.316   1.537  16.945 -0.0590  0.1935  0.1639
  425MPD2    C2 6391   2.183   1.558  16.975 -0.0207 -0.3488  0.5635
  425MPD2    C3 6392   2.151   1.653  17.067 -1.0873 -0.4116  0.0729
  425MPD2    C4 6393   2.249   1.725  17.128  0.4889 -0.3420  0.8287
  425MPD2    C5 6394   2.380   1.701  17.101 -0.5549  0.1455  0.0231
  425MPD2     H 6395   2.103   1.508  16.921  0.9225  1.0184 -2.0756
  425MPD2    H1 6396   2.233   1.808  17.197 -1.4255 -0.4997  0.5743
  425MPD2    H2 6397   2.519   1.604  16.987 -0.0527  3.4501 -1.1048
  425MPD2    H3 6398   2.457   1.762  17.146  0.6947  0.6457 -2.8206
  425MPD2     N 6399   2.012   1.676  17.093 -0.0748  0.0798  0.6584
  425MPD2    H5 6400   1.956   1.617  17.032 -4.1111  2.7765  1.7878
  425MPD2    N1 6401   2.354   1.432  16.864  0.0389  0.0309  0.0726
  425MPD2    H7 6402   2.453   1.431  16.839 -0.1205 -1.9517 -0.5444
  426TMC3    C1 6403   2.366   1.203  16.795  0.3342  0.4939 -0.7799
  426TMC3    C2 6404   2.454   1.227  16.693  0.6052 -0.1997 -0.1984
  426TMC3    C3 6405   2.506   1.123  16.626 -0.2014 -0.9690  0.6011
  426TMC3    C4 6406   2.324   1.072  16.830 -0.1637 -0.4595  0.2911
  426TMC3    C5 6407   2.394   0.971  16.765 -0.4245  0.8923 -0.4400
  426TMC3    C6 6408   2.490   0.989  16.668 -0.0104 -0.0114  0.2917
  426TMC3     C 6409   2.286   1.314  16.851  0.6088  0.0946  0.6317
  426TMC3     O 6410   2.173   1.274  16.891  0.6564 -0.1614 -0.4210
  426TMC3     H 6411   2.470   1.328  16.658 -1.2759  0.2742  0.3728
  426TMC3    H1 6412   2.246   1.061  16.905  0.2980  3.3262  1.3539
  426TMC3    H2 6413   2.548   0.907  16.627  2.9257  0.6918  3.0131
  426TMC3    C7 6414   2.391   0.831  16.803 -0.4356 -0.2817  0.0385
  426TMC3    C8 6415   2.598   1.152  16.527 -0.1722 -0.5642  0.1078
  426TMC3    O1 6416   2.440   0.741  16.736  0.5143  0.4098 -0.0847
  426TMC3    O2 6417   2.636   1.267  16.515  0.1977 -0.0825  0.4636
  427MPD2     C 6418   1.159   3.424  14.622  0.8075 -0.0902 -0.1913
  427MPD2    C1 6419   1.133   3.442  14.757  0.0061 -0.1503  0.0264
  427MPD2    C2 6420   1.000   3.490  14.789  0.1914 -0.4709 -0.1200
  427MPD2    C3 6421   0.902   3.517  14.697  0.5994 -0.0360 -0.1582
  427MPD2    C4 6422   0.934   3.499  14.565 -0.3962  0.4997 -0.0971
  427MPD2    C5 6423   1.059   3.443  14.535 -0.2538 -0.6310  0.6218
  427MPD2     H 6424   0.979   3.511  14.894  2.4307 -1.2242  0.4731
  427MPD2    H1 6425   0.868   3.510  14.479 -1.2982 -0.1079  0.5158
  427MPD2    H2 6426   1.255   3.404  14.577  0.3749 -0.7925 -0.7894
  427MPD2    H3 6427   1.085   3.434  14.430  0.4937  1.2388  0.6498
  427MPD2     N 6428   0.768   3.563  14.726  0.0063 -0.8269  0.3730
  427MPD2    H5 6429   0.698   3.559  14.652  0.8642  1.3097 -0.5678
  427MPD2    N1 6430   1.235   3.416  14.854 -0.0568 -0.1745 -0.2215
  427MPD2    H7 6431   1.332   3.416  14.825  0.5434 -1.9265  1.7069
  428TMC3    C1 6432   1.331   3.346  15.062  0.5441  0.0404 -0.5875
  428TMC3    C2 6433   1.307   3.267  15.171  0.1549  0.3843 -0.8958
  428TMC3    C3 6434   1.420   3.220  15.241  0.1878  0.0558 -0.8441
  428TMC3    C4 6435   1.463   3.394  15.038  0.2767 -0.6054 -0.2800
  428TMC3    C5 6436   1.568   3.350  15.111 -0.7791 -0.0965 -0.0566
  428TMC3    C6 6437   1.551   3.254  15.211 -0.4900 -0.4115 -0.4321
  428TMC3     C 6438   1.213   3.392  14.991 -0.6068 -0.2585  0.1987
  428TMC3     O 6439   1.102   3.393  15.046 -0.0287  0.3170  0.2662
  428TMC3     H 6440   1.207   3.250  15.208  0.3425  1.3804  0.0522
  428TMC3    H1 6441   1.484   3.455  14.951 -0.0355  0.0671  0.1155
  428TMC3    H2 6442   1.630   3.219  15.276 -1.4057 -0.9392  0.3930
  428TMC3    C7 6443   1.685   3.433  15.141 -0.1290 -0.0037  0.1412
  428TMC3    C8 6444   1.406   3.112  15.334 -0.4010 -0.2025  0.5117
  428TMC3    O1 6445   1.732   3.424  15.255  0.1002  0.7836  0.1149
  428TMC3    O2 6446   1.501   3.037  15.342 -0.2532 -0.0515 -0.3111
  429MPD2     C 6447   2.187   3.474  17.045  0.1429  0.2088  0.1228
  429MPD2    C1 6448   2.280   3.441  17.149 -0.6482 -0.1844 -0.1202
  429MPD2    C2 6449   2.383   3.525  17.180  0.3285 -0.7193 -0.4676
  429MPD2    C3 6450   2.395   3.644  17.098 -0.2020  0.5458 -0.2031
  429MPD2    C4 6451   2.292   3.674  17.010 -0.7303 -0.1240  0.1934
  429MPD2    C5 6452   2.190   3.594  16.983  0.8713  0.2042  0.4161
  429MPD2     H 6453   2.455   3.505  17.258 -2.6541  0.8385  2.6748
  429MPD2    H1 6454   2.281   3.756  16.940 -0.9380 -1.3896 -1.2521
  429MPD2    H2 6455   2.103   3.407  17.026  0.9231 -0.5951 -0.4644
  429MPD2    H3 6456   2.126   3.622  16.900  0.1554  0.9733  1.2163
  429MPD2     N 6457   2.500   3.736  17.121 -0.6638 -0.2507  0.0442
  429MPD2    H5 6458   2.588   3.702  17.157  0.2949  0.6436 -1.4403
  429MPD2    N1 6459   2.283   3.314  17.217 -0.1226 -0.5335  0.5055
  429MPD2    H7 6460   2.351   3.297  17.291 -0.1464 -1.9633  0.2155
  430TMC3    C1 6461   2.632   3.933  17.091  0.2490  0.8625  0.4364
  430TMC3    C2 6462   2.635   4.026  16.998  0.5975 -0.0359 -0.1617
  430TMC3    C3 6463   2.729   4.025  16.900 -0.0618 -0.2588 -0.3114
  430TMC3    C4 6464   2.736   3.840  17.101 -0.1411 -0.1887 -0.1051
  430TMC3    C5 6465   2.835   3.840  17.005 -0.0886 -0.2622 -0.3314
  430TMC3    C6 6466   2.825   3.924  16.900  0.4298  0.8285  0.2041
  430TMC3     C 6467   2.503   3.868  17.084  0.3530  0.5026 -0.1481
  430TMC3     O 6468   2.406   3.938  17.056 -0.3295  0.9002  0.1128
  430TMC3     H 6469   2.547   4.087  16.978  0.9156 -0.8470 -3.8784
  430TMC3    H1 6470   2.742   3.777  17.189 -0.1219 -1.5111 -1.0540
  430TMC3    H2 6471   2.888   3.911  16.813 -3.0585 -0.0565 -2.1593
  430TMC3    C7 6472   2.872   3.702  16.976  0.4868 -0.6241  0.0438
  430TMC3    C8 6473   2.683   4.056  16.768  0.2210 -0.0758 -0.5694
  430TMC3    O1 6474   2.790   3.617  16.996  0.1149 -0.3258  0.0169
  430TMC3    O2 6475   2.683   3.967  16.684  0.0499 -0.0599  0.0880
  431MPD2     C 6476   2.752   3.280  12.290  0.4051 -0.3930  0.0566
  431MPD2    C1 6477   2.830   3.227  12.186  0.0956 -0.2491 -0.6966
  431MPD2    C2 6478   2.777   3.124  12.107 -0.5888  0.6533 -0.6248
  431MPD2    C3 6479   2.652   3.074  12.116 -0.6079  0.2798  0.0764
  431MPD2    C4 6480   2.582   3.131  12.217  0.4267  0.1309 -0.2883
  431MPD2    C5 6481   2.625   3.223  12.302 -0.2898 -0.3145  0.2167
  431MPD2     H 6482   2.837   3.084  12.027 -1.0239  2.0890 -1.6868
  431MPD2    H1 6483   2.482   3.092  12.235  0.2595  0.2423 -0.9612
  431MPD2    H2 6484   2.779   3.362  12.356  0.5651 -0.9596  0.6974
  431MPD2    H3 6485   2.564   3.256  12.385  1.3002  1.4094  0.7057
  431MPD2     N 6486   2.593   2.967  12.046  0.3341  0.2868  0.1929
  431MPD2    H5 6487   2.504   2.937  12.084  0.2616  1.7187  1.1440
  431MPD2    N1 6488   2.960   3.283  12.157  0.0077 -0.0282 -0.0693
  431MPD2    H7 6489   3.015   3.241  12.083  0.0031 -1.7473  0.9082
  432TMC3    C1 6490   2.606   2.775  11.911 -0.1106 -0.2994  0.4150
  432TMC3    C2 6491   2.652   2.716  11.795  0.1723 -0.0819  0.3467
  432TMC3    C3 6492   2.701   2.594  11.797  0.7942 -0.9147 -0.2727
  432TMC3    C4 6493   2.611   2.700  12.031 -0.4367  0.2252 -0.3415
  432TMC3    C5 6494   2.681   2.584  12.035  0.3133 -0.1822 -0.2135
  432TMC3    C6 6495   2.707   2.518  11.917  0.0720  0.3110  0.8448
  432TMC3     C 6496   2.653   2.909  11.939 -0.0586 -0.6014 -0.1859
  432TMC3     O 6497   2.736   2.950  11.858 -0.0694 -0.1151  0.7220
  432TMC3     H 6498   2.673   2.778  11.708 -0.1570 -1.1945 -0.5278
  432TMC3    H1 6499   2.566   2.735  12.123 -0.7096  0.7645 -0.6775
  432TMC3    H2 6500   2.742   2.416  11.922  1.9913  0.8960 -0.9295
  432TMC3    C7 6501   2.813   2.626  12.090 -0.2294 -0.5240  0.1114
  432TMC3    C8 6502   2.799   2.552  11.692  0.6237  0.4629  0.1690
  432TMC3    O1 6503   2.908   2.594  12.023 -0.2716 -0.0105 -0.1336
  432TMC3    O2 6504   2.784   2.585  11.570 -0.4686 -0.4412  0.0372
  433MPD2     C 6505   1.858   2.103  10.652 -0.5837 -0.5441 -0.1977
  433MPD2    C1 6506   1.813   1.998  10.720 -0.0208 -0.0092  0.0470
  433MPD2    C2 6507   1.836   1.998  10.854 -0.7610 -0.4126  0.0644
  433MPD2    C3 6508   1.887   2.103  10.927 -0.6657 -0.4806 -0.1978
  433MPD2    C4 6509   1.924   2.215  10.862 -0.1094  0.2523  0.3034
  433MPD2    C5 6510   1.907   2.214  10.728  0.0720  0.0197 -0.4218
  433MPD2     H 6511   1.831   1.903  10.907  0.9117 -0.1470  0.7058
  433MPD2    H1 6512   1.974   2.295  10.915 -2.9585  2.6939 -0.6744
  433MPD2    H2 6513   1.850   2.122  10.546  1.2169 -0.1112 -0.2538
  433MPD2    H3 6514   1.943   2.299  10.671  1.4506  0.9230  1.8463
  433MPD2     N 6515   1.900   2.090  11.068 -0.0942  0.2156  0.4754
  433MPD2    H5 6516   1.871   2.004  11.114  0.3567  0.0231  0.3961
  433MPD2    N1 6517   1.773   1.885  10.647 -0.3755 -0.0803  0.5866
  433MPD2    H7 6518   1.776   1.894  10.546  0.3143 -2.0778  0.4184
  434TMC3    C1 6519   1.754   1.651  10.613  0.2229 -0.1640  0.1081
  434TMC3    C2 6520   1.822   1.545  10.675 -0.7742  0.2500 -1.0244
  434TMC3    C3 6521   1.908   1.473  10.602  0.2269  0.5829 -0.9143
  434TMC3    C4 6522   1.771   1.674  10.480 -0.1291  0.4483  0.6862
  434TMC3    C5 6523   1.841   1.588  10.402 -0.3209  0.0924 -0.1208
  434TMC3    C6 6524   1.917   1.493  10.462 -0.4826 -0.2984 -0.9559
  434TMC3     C 6525   1.738   1.766  10.703 -0.4879  0.6854 -0.2340
  434TMC3     O 6526   1.709   1.745  10.820  0.5077  0.1286 -0.4568
  434TMC3     H 6527   1.820   1.540  10.783 -0.7169  0.8325 -0.9959
  434TMC3    H1 6528   1.712   1.747  10.425 -0.1532  0.1535  0.3173
  434TMC3    H2 6529   1.965   1.421  10.396 -0.6838 -0.1947 -1.2127
  434TMC3    C7 6530   1.744   1.515  10.321  0.2247  0.5934 -0.5888
  434TMC3    C8 6531   1.986   1.389  10.682  1.0332  0.5578  0.2885
  434TMC3    O1 6532   1.735   1.552  10.205 -0.0256  0.1078 -0.5752
  434TMC3    O2 6533   1.931   1.343  10.781 -0.0100  0.1072 -0.0195
  435MPD2     C 6534   4.244   2.476  15.242  0.4579  0.0527 -0.0246
  435MPD2    C1 6535   4.221   2.506  15.375  0.3758 -0.5888 -0.0302
  435MPD2    C2 6536   4.326   2.472  15.470  0.4349 -0.1247  0.2262
  435MPD2    C3 6537   4.435   2.405  15.427 -0.0360  0.4022 -0.5278
  435MPD2    C4 6538   4.450   2.373  15.296 -0.4941 -1.2862  0.1176
  435MPD2    C5 6539   4.364   2.423  15.202  0.2372  0.0321 -0.4713
  435MPD2     H 6540   4.317   2.493  15.576  0.2142  2.4495 -0.2938
  435MPD2    H1 6541   4.535   2.320  15.253 -0.5287 -0.4690 -0.9545
  435MPD2    H2 6542   4.175   2.512  15.166 -1.0685  1.4720  2.0570
  435MPD2    H3 6543   4.382   2.398  15.098  1.8975  0.2463 -0.2352
  435MPD2     N 6544   4.532   2.368  15.531  0.0146  0.4346  0.2801
  435MPD2    H5 6545   4.516   2.407  15.624 -1.9879 -0.6818  0.3986
  435MPD2    N1 6546   4.113   2.577  15.421  0.5170 -0.0425 -0.0669
  435MPD2    H7 6547   4.111   2.590  15.522  2.9351  1.3561 -0.1980
  436TMC3    C1 6548   3.887   2.827  15.654  0.3635  0.0192  0.0818
  436TMC3    C2 6549   3.968   2.752  15.573 -0.2405  0.1157  0.2839
  436TMC3    C3 6550   3.919   2.698  15.456 -0.8109  0.3123 -0.3919
  436TMC3    C4 6551   3.755   2.853  15.620  0.2033 -0.4458  0.4704
  436TMC3    C5 6552   3.711   2.809  15.498 -0.4392  0.4177  0.5838
  436TMC3    C6 6553   3.789   2.730  15.420 -0.4995  0.3781 -0.5675
  436TMC3     C 6554   3.945   2.891  15.770  0.2252 -0.6807  0.1845
  436TMC3     O 6555   4.064   2.872  15.794 -0.8747  0.1169  0.1874
  436TMC3     H 6556   4.069   2.727  15.604  0.2391  2.7539  0.8346
  436TMC3    H1 6557   3.690   2.920  15.676  0.5156 -0.5669  0.9867
  436TMC3    H2 6558   3.754   2.698  15.322  0.0264 -0.5063 -0.4710
  436TMC3    C7 6559   3.579   2.846  15.446  0.3684  0.5661  0.0509
  436TMC3    C8 6560   4.009   2.642  15.361 -0.1185  0.0511 -0.1814
  436TMC3    O1 6561   3.564   2.833  15.325 -0.1508  0.8403  0.2085
  436TMC3    O2 6562   3.973   2.627  15.244 -0.2270 -0.7492 -0.0549
  437TMC3    C1 6563   2.342   4.123  12.085 -0.1941  0.7521  0.3019
  437TMC3    C2 6564   2.325   4.245  12.029  0.2582 -0.0671  0.2997
  437TMC3    C3 6565   2.389   4.269  11.909 -0.0439 -0.4684  0.6934
  437TMC3    C4 6566   2.424   4.023  12.030  0.5705 -0.0296  0.7913
  437TMC3    C5 6567   2.491   4.053  11.915 -0.3610  0.1050  0.6400
  437TMC3    C6 6568   2.482   4.177  11.859 -0.2026  0.4430  0.8249
  437TMC3     C 6569   2.276   4.093  12.212 -1.0362  0.2690  0.1139
  437TMC3     O 6570   2.158   4.133  12.212 -0.2614  0.0079  0.2692
  437TMC3     H 6571   2.255   4.313  12.076 -0.1522 -0.9783  1.0079
  437TMC3    H1 6572   2.427   3.920  12.062  0.0572 -0.7055 -1.3606
  437TMC3    H2 6573   2.543   4.188  11.771  1.5559 -2.6561  1.6302
  437TMC3    C7 6574   2.595   3.965  11.855 -0.7464 -0.0344  0.1676
  437TMC3    C8 6575   2.361   4.394  11.834  0.3299 -0.2858  0.0639
  437TMC3    O1 6576   2.613   3.963  11.734  0.3333 -0.1318 -0.6329
  437TMC3    O2 6577   2.250   4.445  11.840 -0.1481 -1.0038 -0.0349
  438MPD2     C 6578   0.221   0.316  16.322 -0.4180  0.1531 -0.4774
  438MPD2    C1 6579   0.278   0.209  16.393 -0.2713 -0.1178  0.1268
  438MPD2    C2 6580   0.274   0.207  16.528  0.0399  0.0345  0.0150
  438MPD2    C3 6581   0.227   0.312  16.598 -0.0283 -0.2771  0.1429
  438MPD2    C4 6582   0.180   0.421  16.532 -0.7865 -0.4243  0.0279
  438MPD2    C5 6583   0.165   0.414  16.394  0.7618 -0.3203  0.2134
  438MPD2     H 6584   0.310   0.120  16.582  0.4961  0.2429  0.0439
  438MPD2    H1 6585   0.144   0.507  16.588 -0.7701  0.7828 -1.8040
  438MPD2    H2 6586   0.229   0.322  16.215 -3.0484 -0.8287 -0.7391
  438MPD2    H3 6587   0.138   0.500  16.334 -1.4967 -0.8784  0.4291
  438MPD2     N 6588   0.234   0.315  16.737  0.0767 -0.4490  0.3757
  438MPD2    H5 6589   0.234   0.407  16.779 -1.4587 -0.0931 -0.4026
  438MPD2    N1 6590   0.349   0.107  16.334 -0.2738 -0.5331 -0.1094
  438MPD2    H7 6591   0.394   0.044  16.400  0.2849 -0.2173 -0.1921
  439TMC3    C1 6592   0.454   4.723  16.160  0.5640  0.2546  0.2227
  439TMC3    C2 6593   0.453   4.668  16.032  0.7601  0.1715 -0.1403
  439TMC3    C3 6594   0.561   4.591  15.997 -0.2003 -0.3607  1.0794
  439TMC3    C4 6595   0.558   4.694  16.248 -0.3275  0.6851  0.2159
  439TMC3    C5 6596   0.660   4.610  16.205 -0.3343 -0.7862  0.1386
  439TMC3    C6 6597   0.672   4.564  16.079  0.2520 -1.0985 -0.1549
  439TMC3     C 6598   0.350   0.082  16.198  0.5748  0.2418  1.1747
  439TMC3     O 6599   0.264   0.115  16.111  0.2648  0.5151 -0.2420
  439TMC3     H 6600   0.369   4.677  15.964  0.7301 -2.5100 -0.4442
  439TMC3    H1 6601   0.576   4.733  16.348 -0.4476  0.9118  0.1465
  439TMC3    H2 6602   0.758   4.516  16.036  1.5948  1.3173 -0.1878
  439TMC3    C7 6603   0.772   4.590  16.303  0.3707  0.2701 -0.0668
  439TMC3    C8 6604   0.588   4.577  15.858  0.1457  0.3167 -0.0885
  439TMC3    O1 6605   0.744   4.587  16.424  0.5342 -0.1836  0.4345
  439TMC3    O2 6606   0.670   4.492  15.827 -1.0479  0.1961 -0.3380
  440MPD2     C 6607   3.529   0.891  15.225 -0.3828 -0.0670  0.4126
  440MPD2    C1 6608   3.614   0.998  15.223 -0.3782 -0.6313 -0.7215
  440MPD2    C2 6609   3.727   0.998  15.299 -0.3269 -0.0542 -0.4675
  440MPD2    C3 6610   3.769   0.878  15.354  1.0751 -0.5309  0.7132
  440MPD2    C4 6611   3.692   0.767  15.336 -0.1763 -0.5676  0.9853
  440MPD2    C5 6612   3.569   0.775  15.282 -0.0680  0.3672 -0.2009
  440MPD2     H 6613   3.787   1.088  15.301  2.4840 -1.9555  1.0789
  440MPD2    H1 6614   3.722   0.670  15.374 -2.3294 -0.8054  2.0908
  440MPD2    H2 6615   3.426   0.888  15.193 -0.6884 -1.9903  1.5191
  440MPD2    H3 6616   3.512   0.684  15.282  1.2530 -0.4639 -0.0030
  440MPD2     N 6617   3.893   0.865  15.424 -0.4786  0.5425 -0.2040
  440MPD2    H5 6618   3.911   0.776  15.470  3.4463  1.5477  0.1740
  440MPD2    N1 6619   3.584   1.120  15.157 -0.5424 -0.5126  0.4092
  440MPD2    H7 6620   3.660   1.186  15.160 -1.6947  0.8188  0.1574
  441TMC3    C1 6621   4.105   0.909  15.497  0.6401  0.6891  0.6090
  441TMC3    C2 6622   4.179   1.006  15.558 -0.5421 -0.4705  0.5574
  441TMC3    C3 6623   4.312   0.976  15.564  0.3321 -0.0213  0.5193
  441TMC3    C4 6624   4.150   0.791  15.447  0.7651 -1.0180 -0.0037
  441TMC3    C5 6625   4.284   0.767  15.453 -0.5532 -0.3485  0.3476
  441TMC3    C6 6626   4.360   0.853  15.525  0.1072 -0.0130 -0.0345
  441TMC3     C 6627   3.981   0.962  15.435  0.0319  1.2987 -0.4113
  441TMC3     O 6628   3.982   1.076  15.400  0.3460  0.3454  0.2395
  441TMC3     H 6629   4.126   1.091  15.600  2.1644  1.5253 -0.0563
  441TMC3    H1 6630   4.086   0.732  15.382  2.4534  0.6981 -3.2809
  441TMC3    H2 6631   4.469   0.853  15.517  0.1591  1.0971  0.6794
  441TMC3    C7 6632   4.307   0.628  15.479  0.0689 -0.8697  0.5956
  441TMC3    C8 6633   4.392   1.090  15.543 -0.5397 -0.4622 -0.1830
  441TMC3    O1 6634   4.227   0.548  15.432 -0.5006  0.0128 -0.6226
  441TMC3    O2 6635   4.509   1.086  15.575 -0.4789  0.4286  0.3319
  442MPD2     C 6636   2.087   0.930  16.132 -0.5069  0.0782  0.1035
  442MPD2    C1 6637   1.984   0.853  16.189  0.1064 -0.5496 -0.2371
  442MPD2    C2 6638   1.950   0.728  16.133  0.1196  0.4491 -0.3957
  442MPD2    C3 6639   2.031   0.677  16.031  0.1482  0.9041 -0.8841
  442MPD2    C4 6640   2.138   0.750  15.982 -0.0703  0.5931 -0.7074
  442MPD2    C5 6641   2.159   0.871  16.031 -0.0663  0.3106  0.3106
  442MPD2     H 6642   1.860   0.673  16.158  0.4206 -0.4628 -1.3272
  442MPD2    H1 6643   2.197   0.713  15.900  1.2231 -0.5750  0.7420
  442MPD2    H2 6644   2.117   1.030  16.159  0.1425 -0.4450  1.3451
  442MPD2    H3 6645   2.239   0.926  15.982  1.1312  0.4251  2.3525
  442MPD2     N 6646   2.009   0.553  15.963 -0.0174  0.1072  0.2814
  442MPD2    H5 6647   2.079   0.528  15.894  0.4390 -1.8107  1.4298
  442MPD2    N1 6648   1.894   0.907  16.288 -0.3118  0.1199 -0.4101
  442MPD2    H7 6649   1.806   0.861  16.303  0.6949 -1.9656 -0.9215
  443TMC3    C1 6650   1.826   1.044  16.468  0.2004  0.0843  0.1618
  443TMC3    C2 6651   1.782   1.171  16.484 -0.4356  0.0784 -0.0578
  443TMC3    C3 6652   1.667   1.191  16.554  0.6707 -0.9023 -0.3019
  443TMC3    C4 6653   1.766   0.939  16.540 -0.6665 -0.7218  0.2732
  443TMC3    C5 6654   1.663   0.970  16.616 -0.0432  0.4752  0.0030
  443TMC3    C6 6655   1.600   1.092  16.614 -0.1843  0.2882  0.1247
  443TMC3     C 6656   1.925   1.023  16.363  0.0954 -0.0522  0.0617
  443TMC3     O 6657   2.017   1.100  16.359  0.0113 -0.4454 -0.1170
  443TMC3     H 6658   1.842   1.253  16.445 -2.5576  0.3476 -2.7594
  443TMC3    H1 6659   1.807   0.839  16.536 -0.7851 -0.8349  1.9345
  443TMC3    H2 6660   1.512   1.111  16.675  0.4999  0.8688  0.9274
  443TMC3    C7 6661   1.622   0.867  16.706 -0.3048  0.1347 -0.6085
  443TMC3    C8 6662   1.607   1.320  16.561  0.9851 -0.4456 -0.2905
  443TMC3    O1 6663   1.629   0.749  16.669  0.6378 -0.5507  0.1612
  443TMC3    O2 6664   1.553   1.346  16.665  0.5891  0.5805  0.0718
  444MPD2     C 6665   2.089   0.841  16.608 -0.0006 -0.0408 -0.2153
  444MPD2    C1 6666   2.041   0.721  16.646  0.1464  0.3495 -0.4574
  444MPD2    C2 6667   2.059   0.609  16.562 -0.4803 -0.1395 -0.0063
  444MPD2    C3 6668   2.143   0.618  16.451 -0.1529 -0.7266 -0.3292
  444MPD2    C4 6669   2.197   0.741  16.415  0.1243 -0.0542  0.3824
  444MPD2    C5 6670   2.163   0.849  16.493  0.7590  0.0799  0.1659
  444MPD2     H 6671   2.011   0.514  16.580 -0.5382 -0.6383 -2.6979
  444MPD2    H1 6672   2.253   0.765  16.326  0.0354 -0.1145  0.3095
  444MPD2    H2 6673   2.077   0.933  16.664 -0.4704 -0.8448  1.0211
  444MPD2    H3 6674   2.222   0.935  16.461  1.2677 -0.3783 -0.1384
  444MPD2     N 6675   2.178   0.494  16.392 -0.0682 -0.5757  0.0789
  444MPD2    H5 6676   2.111   0.419  16.407 -0.1795 -0.6064 -0.5316
  444MPD2    N1 6677   1.960   0.689  16.763  0.0872 -0.1034 -0.5413
  444MPD2    H7 6678   1.950   0.588  16.768 -0.3991  0.1028  2.4326
  445TMC3    C1 6679   2.280   0.345  16.238  0.3314 -0.7854 -0.7830
  445TMC3    C2 6680   2.171   0.265  16.247 -0.6830  0.7756  0.6419
  445TMC3    C3 6681   2.172   0.145  16.180  0.8908 -0.3154  0.7248
  445TMC3    C4 6682   2.396   0.297  16.174 -0.2519  0.3035 -0.4526
  445TMC3    C5 6683   2.393   0.166  16.124 -0.6296 -0.3002  0.0250
  445TMC3    C6 6684   2.280   0.091  16.116 -0.1984 -0.2133  0.5967
  445TMC3     C 6685   2.283   0.472  16.310 -0.8155  0.6034  0.0177
  445TMC3     O 6686   2.381   0.540  16.298  0.1226 -0.0086  0.2087
  445TMC3     H 6687   2.081   0.301  16.295 -2.2452 -1.8597 -0.3523
  445TMC3    H1 6688   2.491   0.347  16.189  0.0413 -0.4148  0.0678
  445TMC3    H2 6689   2.281   4.723  16.093  2.0730  0.5052 -2.5877
  445TMC3    C7 6690   2.519   0.111  16.063 -0.3221  0.4015 -0.6666
  445TMC3    C8 6691   2.053   0.071  16.206 -0.3500  0.0756  0.5952
  445TMC3    O1 6692   2.616   0.183  16.071  0.7744 -0.3318  0.3667
  445TMC3    O2 6693   1.957   0.127  16.254  0.1361  0.5831  1.0471
  446MPD2     C 6694   1.489   1.280  11.114  0.2744 -0.0679  0.2508
  446MPD2    C1 6695   1.528   1.270  10.990 -0.4460  0.6114  0.3631
  446MPD2    C2 6696   1.660   1.311  10.968  0.5216  0.1046  0.1935
  446MPD2    C3 6697   1.738   1.371  11.070  0.3084  0.0764  0.8313
  446MPD2    C4 6698   1.687   1.378  11.200 -0.5870  0.1815  0.5953
  446MPD2    C5 6699   1.559   1.330  11.217  0.2339  0.2310 -0.1171
  446MPD2     H 6700   1.693   1.308  10.865  0.0872  2.0457  0.0023
  446MPD2    H1 6701   1.734   1.425  11.286  1.0128  0.4655 -0.4447
  446MPD2    H2 6702   1.384   1.270  11.138 -0.2468  0.3946 -1.8502
  446MPD2    H3 6703   1.507   1.331  11.313  0.1669 -1.3283 -0.1368
  446MPD2     N 6704   1.870   1.405  11.037  0.7139 -0.0795  0.6835
  446MPD2    H5 6705   1.890   1.395  10.938 -3.2096 -1.7040  0.0407
  446MPD2    N1 6706   1.441   1.214  10.890 -0.2186  0.3200 -0.1209
  446MPD2    H7 6707   1.347   1.191  10.920  0.0652  0.5697  0.9363
  447TMC3    C1 6708   2.085   1.493  11.045  0.3643  0.3715 -0.4946
  447TMC3    C2 6709   2.076   1.570  10.933  0.4766  0.1066  0.5980
  447TMC3    C3 6710   2.187   1.628  10.883  0.1441 -0.0061  0.5210
  447TMC3    C4 6711   2.211   1.459  11.092  0.3304 -0.3944 -0.5937
  447TMC3    C5 6712   2.318   1.503  11.026  0.6598 -0.1977  0.0258
  447TMC3    C6 6713   2.310   1.599  10.933  0.5220 -0.1143  0.2122
  447TMC3     C 6714   1.966   1.452  11.118  0.6236  0.3395  0.3313
  447TMC3     O 6715   1.986   1.419  11.231  0.0496 -0.1176 -0.0595
  447TMC3     H 6716   1.979   1.609  10.905  0.8463 -2.1136 -3.8507
  447TMC3    H1 6717   2.231   1.412  11.188  2.5822  1.3017 -0.2474
  447TMC3    H2 6718   2.391   1.647  10.879  0.2067  0.7887  0.5352
  447TMC3    C7 6719   2.449   1.453  11.070  0.5651  0.3104  0.0492
  447TMC3    C8 6720   2.166   1.731  10.787  0.0614 -0.0963 -0.0899
  447TMC3    O1 6721   2.449   1.345  11.124  0.3257  0.8535  0.3221
  447TMC3    O2 6722   2.072   1.719  10.714  0.0183  0.4403  0.2111
  448TMC3    C1 6723   1.234   1.583  16.665 -0.3723 -0.2012 -0.3920
  448TMC3    C2 6724   1.111   1.536  16.631  0.8198 -0.5160  0.3889
  448TMC3    C3 6725   1.041   1.465  16.728 -0.2589  0.7820 -0.5149
  448TMC3    C4 6726   1.279   1.584  16.792  0.3294  0.0608  0.5520
  448TMC3    C5 6727   1.206   1.519  16.890  0.5812  1.1114 -0.1657
  448TMC3    C6 6728   1.083   1.455  16.854  0.1613 -0.1698  0.1872
  448TMC3     C 6729   1.318   1.612  16.550  0.2046  0.3676  0.6848
  448TMC3     O 6730   1.304   1.547  16.445  0.0514  0.4288 -0.7211
  448TMC3     H 6731   1.077   1.541  16.528 -0.1248 -2.9286  0.5998
  448TMC3    H1 6732   1.376   1.624  16.818  0.7975 -1.4508  1.0586
  448TMC3    H2 6733   1.024   1.398  16.925 -2.2400  0.0933 -1.6030
  448TMC3    C7 6734   1.251   1.525  17.027 -0.7644  0.0113 -0.3739
  448TMC3    C8 6735   0.934   1.372  16.683 -0.3959 -0.5791 -0.1361
  448TMC3    O1 6736   1.300   1.631  17.066 -0.0071  0.2006  0.4076
  448TMC3    O2 6737   0.910   1.269  16.744  0.2341  0.4522 -0.1678
  449MPD2     C 6738   1.450   4.140  13.899  0.0134 -0.9167 -0.0183
  449MPD2    C1 6739   1.384   4.260  13.874  0.3821 -0.0459  0.7676
  449MPD2    C2 6740   1.253   4.278  13.911  0.7552 -0.0253 -0.4620
  449MPD2    C3 6741   1.192   4.168  13.970 -0.4348  0.0286  0.3305
  449MPD2    C4 6742   1.251   4.050  14.001 -0.0631 -0.4591  0.2818
  449MPD2    C5 6743   1.381   4.035  13.963 -0.4750  0.4823  0.7941
  449MPD2     H 6744   1.190   4.362  13.886 -1.2159 -0.8050  1.9141
  449MPD2    H1 6745   1.199   3.965  14.042  1.8945 -1.9838 -0.3596
  449MPD2    H2 6746   1.552   4.124  13.867  0.9426  2.1355  1.4621
  449MPD2    H3 6747   1.435   3.943  13.985  0.3107  0.7076 -0.1832
  449MPD2     N 6748   1.058   4.194  14.005  0.0964 -0.4063 -0.3231
  449MPD2    H5 6749   1.028   4.289  13.984 -0.7680 -0.6806 -0.3234
  449MPD2    N1 6750   1.450   4.360  13.795  0.2028 -0.0120  0.1514
  449MPD2    H7 6751   1.402   4.450  13.797 -1.5320 -0.9673  1.0134
  450TMC3    C1 6752   1.580   4.493  13.655  0.3644 -0.3434  0.2988
  450TMC3    C2 6753   1.590   4.488  13.521 -0.4103  0.1739 -0.3108
  450TMC3    C3 6754   1.504   4.575  13.451 -0.0457 -0.0780  0.7743
  450TMC3    C4 6755   1.501   4.590  13.720  0.2051  0.0337  0.4258
  450TMC3    C5 6756   1.410   4.664  13.647 -0.1162  0.1943  0.3340
  450TMC3    C6 6757   1.416   4.654  13.517  0.1150 -1.1925 -0.3095
  450TMC3     C 6758   1.566   4.362  13.725  0.0410  0.2025 -0.0521
  450TMC3     O 6759   1.633   4.261  13.696 -0.2434  0.1193 -0.1368
  450TMC3     H 6760   1.647   4.407  13.478 -0.4761  0.3279 -0.6901
  450TMC3    H1 6761   1.498   4.590  13.829 -0.3199 -0.4319  0.4130
  450TMC3    H2 6762   1.334   4.698  13.461  1.3649  0.3579 -0.9359
  450TMC3    C7 6763   1.273   4.666  13.696  0.7281  0.0491 -0.4759
  450TMC3    C8 6764   1.510   4.576  13.308 -0.2929 -0.4726 -0.0132
  450TMC3    O1 6765   1.264   4.590  13.792  0.5830 -0.4420  0.4120
  450TMC3    O2 6766   1.427   4.645  13.256  0.3121 -0.4261 -0.1170
  451MPD2     C 6767   2.886   3.024   1.304 -0.1359 -0.5252 -0.2814
  451MPD2    C1 6768   2.886   3.052   1.174  0.3713  0.5817  0.5496
  451MPD2    C2 6769   3.011   3.040   1.108  0.3693 -0.4494 -0.0472
  451MPD2    C3 6770   3.128   3.040   1.181  0.2251 -0.1252  0.8409
  451MPD2    C4 6771   3.120   3.031   1.323  0.8758 -0.3360  0.8235
  451MPD2    C5 6772   2.995   3.026   1.379 -0.4592  0.4632 -0.3763
  451MPD2     H 6773   3.015   3.047   0.999 -2.2581  2.4514  0.0349
  451MPD2    H1 6774   3.211   3.021   1.381  1.7793 -0.5660 -0.6433
  451MPD2    H2 6775   2.790   3.021   1.355 -1.3933  2.4696 -2.4139
  451MPD2    H3 6776   2.977   3.009   1.484  0.4453  0.0148 -0.2902
  451MPD2     N 6777   3.255   3.045   1.125 -0.1094  0.3443  0.2880
  451MPD2    H5 6778   3.333   3.074   1.183  0.1545 -0.6650  0.4414
  451MPD2    N1 6779   2.771   3.080   1.102 -0.0818 -0.0633  0.4854
  451MPD2    H7 6780   2.683   3.062   1.149 -0.6883 -2.4867 -1.5722
  452TMC3    C1 6781   3.428   3.063   0.953  0.1463  0.0764  0.7918
  452TMC3    C2 6782   3.458   3.040   0.819 -0.3984 -0.9241  0.6297
  452TMC3    C3 6783   3.530   3.126   0.744  0.5689 -0.6106 -0.9646
  452TMC3    C4 6784   3.483   3.172   1.021 -0.1159  0.5816  0.0634
  452TMC3    C5 6785   3.566   3.249   0.938  0.3971  0.7358 -0.3725
  452TMC3    C6 6786   3.589   3.235   0.808 -0.6126  0.8407  0.6280
  452TMC3     C 6787   3.290   3.028   0.991 -0.3723 -0.4733 -0.0939
  452TMC3     O 6788   3.215   2.985   0.909 -0.0436  0.5493 -0.3884
  452TMC3     H 6789   3.402   2.966   0.763 -0.4263 -0.5005  0.0938
  452TMC3    H1 6790   3.439   3.219   1.108  0.3897  0.4228  0.4042
  452TMC3    H2 6791   3.661   3.298   0.755  0.9474 -1.2505  0.2766
  452TMC3    C7 6792   3.639   3.348   1.006 -0.7860  0.3289  0.1657
  452TMC3    C8 6793   3.501   3.125   0.599  0.3671  0.1463  0.7852
  452TMC3    O1 6794   3.707   3.423   0.943 -0.4825 -0.0292  0.3956
  452TMC3    O2 6795   3.418   3.045   0.563 -0.3460  0.2641  0.0170
  453TMC3    C1 6796   4.321   0.831  11.995  0.6241  0.1290 -0.5953
  453TMC3    C2 6797   4.223   0.766  12.060 -0.3525  0.1027  0.0099
  453TMC3    C3 6798   4.094   0.778  12.007 -0.4408  0.8056  0.2889
  453TMC3    C4 6799   4.290   0.936  11.907  1.1839  0.6806 -0.2449
  453TMC3    C5 6800   4.163   0.954  11.869 -0.5640 -0.2264 -0.1713
  453TMC3    C6 6801   4.060   0.882  11.923 -0.1307  0.6594  0.0695
  453TMC3     C 6802   4.458   0.779  11.972 -0.3916  0.3140 -0.9349
  453TMC3     O 6803   4.543   0.852  11.923  0.2053  0.6065  0.0531
  453TMC3     H 6804   4.258   0.684  12.120  0.4213  0.6962  0.3687
  453TMC3    H1 6805   4.372   0.989  11.860 -0.6931  0.0629 -4.1759
  453TMC3    H2 6806   3.961   0.886  11.879 -0.8775 -1.1863  1.6016
  453TMC3    C7 6807   4.143   0.985  11.731  0.2326  0.0730 -1.3893
  453TMC3    C8 6808   3.995   0.674  12.025 -0.6042  0.1354 -0.2608
  453TMC3    O1 6809   4.085   0.902  11.662  0.2586 -0.1652  0.1156
  453TMC3    O2 6810   3.877   0.711  12.017  0.4255  0.5347 -0.0684
  454MPD2     C 6811   3.002   0.248  15.415 -0.7348 -0.4210  0.6373
  454MPD2    C1 6812   2.875   0.282  15.362 -0.2670  0.9456  0.6188
  454MPD2    C2 6813   2.809   0.393  15.414  0.4414 -0.0685  0.0975
  454MPD2    C3 6814   2.856   0.471  15.511  0.1767  0.8997  0.4317
  454MPD2    C4 6815   2.980   0.439  15.564 -0.0627  0.2333 -0.2042
  454MPD2    C5 6816   3.047   0.329  15.522 -0.1990  0.5435  0.0530
  454MPD2     H 6817   2.709   0.401  15.373  0.3560  1.9085  0.6690
  454MPD2    H1 6818   3.016   0.501  15.645  2.1771  1.2326 -1.9871
  454MPD2    H2 6819   3.052   0.161  15.375 -1.0852 -0.1655 -0.3669
  454MPD2    H3 6820   3.141   0.305  15.569 -0.4077 -1.2559 -0.4368
  454MPD2     N 6821   2.783   0.576  15.578 -0.0224  0.0128  0.6199
  454MPD2    H5 6822   2.811   0.601  15.672 -1.0632 -0.7534  1.1293
  454MPD2    N1 6823   2.817   0.210  15.252  0.0769 -0.0360 -0.5600
  454MPD2    H7 6824   2.731   0.239  15.206 -0.3176 -1.5381 -0.7753
  455TMC3    C1 6825   2.584   0.682  15.638 -0.0794  0.3452  0.3519
  455TMC3    C2 6826   2.641   0.722  15.751  0.0899 -0.9434 -0.3204
  455TMC3    C3 6827   2.580   0.703  15.867  0.3430  0.2123  0.5645
  455TMC3    C4 6828   2.477   0.594  15.647  0.3524  0.1736  0.5739
  455TMC3    C5 6829   2.423   0.571  15.763  0.0228  1.5787 -0.1268
  455TMC3    C6 6830   2.468   0.625  15.879  1.0861  1.1213  0.6497
  455TMC3     C 6831   2.670   0.628  15.531  0.2951  0.0630 -0.1816
  455TMC3     O 6832   2.616   0.611  15.418  0.1106  0.2403 -0.1583
  455TMC3     H 6833   2.727   0.789  15.751 -1.0399  0.5090  0.0790
  455TMC3    H1 6834   2.436   0.553  15.556 -0.5452 -0.7079  1.3673
  455TMC3    H2 6835   2.420   0.608  15.974  0.2321 -3.3471 -0.5769
  455TMC3    C7 6836   2.414   0.425  15.768 -0.2883 -0.6735  0.8306
  455TMC3    C8 6837   2.627   0.766  15.995 -0.6684 -0.4990  0.0730
  455TMC3    O1 6838   2.300   0.384  15.778 -0.1379  0.0541 -0.3715
  455TMC3    O2 6839   2.585   0.712  16.096  0.1756 -0.3041  0.3558
  456MPD2     C 6840   0.378   0.484  15.839  0.6018 -0.2036 -0.7773
  456MPD2    C1 6841   0.471   0.419  15.916  0.1800 -0.0590 -0.4485
  456MPD2    C2 6842   0.481   0.438  16.054  0.8650  0.3153 -0.3549
  456MPD2    C3 6843   0.402   0.536  16.114 -0.7785 -0.7381 -0.1182
  456MPD2    C4 6844   0.297   0.588  16.039  0.3224 -0.5451 -0.4468
  456MPD2    C5 6845   0.286   0.560  15.902 -0.5303 -0.3517 -0.2680
  456MPD2     H 6846   0.556   0.390  16.115  0.7064 -1.5063 -1.6210
  456MPD2    H1 6847   0.220   0.651  16.082 -0.2937 -1.8225  0.3386
  456MPD2    H2 6848   0.375   0.454  15.735  2.5853  1.3588 -1.2767
  456MPD2    H3 6849   0.201   0.595  15.844  0.2383  0.9199 -0.6265
  456MPD2     N 6850   0.435   0.578  16.238 -0.1811 -0.0563  0.2499
  456MPD2    H5 6851   0.503   0.532  16.297 -1.6491 -1.4714  0.8352
  456MPD2    N1 6852   0.550   0.322  15.853  0.1827  0.0262  0.2577
  456MPD2    H7 6853   0.544   0.329  15.752  0.3711  0.5253  0.2809
  457TMC3    C1 6854   0.448   0.712  16.425 -0.4036  0.2001 -1.1773
  457TMC3    C2 6855   0.456   0.840  16.458  0.8772  0.1381 -0.5044
  457TMC3    C3 6856   0.498   0.864  16.588 -0.1499 -0.1413  0.0887
  457TMC3    C4 6857   0.487   0.604  16.502 -0.4973 -0.3291  0.1726
  457TMC3    C5 6858   0.518   0.634  16.635  0.0596  0.4871  0.5170
  457TMC3    C6 6859   0.536   0.766  16.674  0.3844 -0.5734  0.5335
  457TMC3     C 6860   0.390   0.688  16.296  0.0075 -0.1584 -0.4955
  457TMC3     O 6861   0.314   0.771  16.251 -0.7781  0.0236  0.1003
  457TMC3     H 6862   0.437   0.923  16.391 -1.7523 -1.6516 -1.9752
  457TMC3    H1 6863   0.461   0.505  16.465 -2.1783 -0.3050  1.3088
  457TMC3    H2 6864   0.566   0.776  16.778  0.2115  0.2386  0.5008
  457TMC3    C7 6865   0.609   0.546  16.705  0.5343  0.2154 -0.0982
  457TMC3    C8 6866   0.557   0.992  16.609 -0.0304 -0.9849  0.6775
  457TMC3    O1 6867   0.557   0.486  16.798 -0.3758 -0.2627 -0.1030
  457TMC3    O2 6868   0.652   0.989  16.688  0.5878  0.2304 -0.2197
  458MPD2     C 6869   3.048   3.733  11.886 -0.4836  0.4509  0.3643
  458MPD2    C1 6870   3.011   3.776  12.012  0.2245 -0.1191  0.6128
  458MPD2    C2 6871   2.884   3.834  12.035 -0.4898 -0.3962 -0.3651
  458MPD2    C3 6872   2.798   3.846  11.933  0.3414 -0.4820  0.3549
  458MPD2    C4 6873   2.833   3.785  11.809  0.6180  0.0976  0.1497
  458MPD2    C5 6874   2.954   3.740  11.782  0.7031  0.7884  0.1373
  458MPD2     H 6875   2.857   3.877  12.131  0.2056 -2.2072  0.6243
  458MPD2    H1 6876   2.754   3.781  11.734  1.0147  0.5004 -0.2883
  458MPD2    H2 6877   3.149   3.700  11.869 -1.5456 -1.0099 -3.2070
  458MPD2    H3 6878   2.992   3.707  11.686 -1.0037  1.0616 -0.6358
  458MPD2     N 6879   2.670   3.907  11.953 -0.1258  0.0911  0.3521
  458MPD2    H5 6880   2.653   3.931  12.050 -1.2460 -0.8110  0.3659
  458MPD2    N1 6881   3.096   3.769  12.121 -0.2618  0.4988  0.6098
  458MPD2    H7 6882   3.193   3.749  12.098 -1.0874 -0.9645 -1.6810
  459TMC3    C1 6883   3.180   3.788  12.332 -0.9212 -0.4056 -0.2766
  459TMC3    C2 6884   3.279   3.882  12.290 -0.2698  0.1094  0.2711
  459TMC3    C3 6885   3.381   3.924  12.381  0.3061  0.1795  0.1659
  459TMC3    C4 6886   3.174   3.749  12.459  0.0768 -0.6607 -0.2291
  459TMC3    C5 6887   3.262   3.800  12.548  0.3003 -0.3759  0.3377
  459TMC3    C6 6888   3.369   3.881  12.514 -0.3336  0.3965 -0.4047
  459TMC3     C 6889   3.061   3.769  12.252  0.3249  0.2606 -0.9477
  459TMC3     O 6890   2.951   3.733  12.304 -0.8738  0.2552 -0.0569
  459TMC3     H 6891   3.281   3.912  12.186 -2.0944  0.7035  0.4210
  459TMC3    H1 6892   3.090   3.689  12.493 -0.8381  0.4456 -0.5585
  459TMC3    H2 6893   3.444   3.904  12.588  0.0175 -2.2955  0.0457
  459TMC3    C7 6894   3.242   3.747  12.685  0.0040  0.1411 -0.3573
  459TMC3    C8 6895   3.459   4.041  12.361 -0.2148  0.2069  0.1111
  459TMC3    O1 6896   3.155   3.661  12.702  0.3863  0.1694 -0.0860
  459TMC3    O2 6897   3.564   4.040  12.429  0.1131  0.1391 -0.3071
  460MPD2     C 6898   2.357   2.041  10.764  0.3712 -0.9388  0.2563
  460MPD2    C1 6899   2.260   1.951  10.727 -1.0582 -0.6909  0.2690
  460MPD2    C2 6900   2.191   1.975  10.606 -0.3389 -0.7658 -0.3105
  460MPD2    C3 6901   2.226   2.084  10.520 -0.3841 -0.0883 -0.2679
  460MPD2    C4 6902   2.332   2.171  10.565  0.5274 -0.5160  0.3284
  460MPD2    C5 6903   2.399   2.149  10.684 -0.3043 -0.2341  0.1109
  460MPD2     H 6904   2.104   1.918  10.573 -1.9520  2.0367 -0.8834
  460MPD2    H1 6905   2.339   2.262  10.507 -1.1833  0.1840  1.2105
  460MPD2    H2 6906   2.400   2.031  10.864  0.0414 -1.7008  0.3268
  460MPD2    H3 6907   2.452   2.231  10.730  0.3635 -0.2855 -0.5748
  460MPD2     N 6908   2.146   2.102  10.401 -0.4190 -0.5491  0.5020
  460MPD2    H5 6909   2.052   2.063  10.403 -0.2754 -0.9893 -1.3699
  460MPD2    N1 6910   2.244   1.837  10.806  0.0305  0.5176  0.0081
  460MPD2    H7 6911   2.301   1.831  10.889  3.1611  0.3247 -2.1475
  461TMC3    C1 6912   2.099   2.199  10.186  1.1048  0.6750  0.2344
  461TMC3    C2 6913   2.039   2.088  10.140  0.1516  0.0765  0.0685
  461TMC3    C3 6914   1.945   2.110  10.042  0.6954  0.1946 -0.2689
  461TMC3    C4 6915   2.054   2.324  10.165 -0.1846  0.3977 -0.3150
  461TMC3    C5 6916   1.952   2.344  10.070 -0.4787 -0.4388 -0.0188
  461TMC3    C6 6917   1.891   2.237  10.011  0.0539  0.3642  0.6453
  461TMC3     C 6918   2.191   2.180  10.299  0.3289 -0.2511  0.0278
  461TMC3     O 6919   2.304   2.228  10.289 -0.6489 -0.2906 -0.0011
  461TMC3     H 6920   2.087   1.992  10.159 -1.4379 -0.7066  0.0882
  461TMC3    H1 6921   2.107   2.403  10.217 -0.3252 -0.4899  1.1831
  461TMC3    H2 6922   1.823   2.257   9.928  2.1036  1.5859 -0.7281
  461TMC3    C7 6923   1.891   2.475  10.035  0.0585 -0.4119 -0.2996
  461TMC3    C8 6924   1.889   1.993   9.994  0.0198 -0.1135  0.7571
  461TMC3    O1 6925   1.799   2.469   9.959 -0.7655 -0.1852  0.3035
  461TMC3    O2 6926   1.887   1.891  10.058 -0.3725 -0.6057 -0.5400
  462TMC3    C1 6927   2.176   3.528  17.712 -0.8253 -0.2571  0.7881
  462TMC3    C2 6928   2.243   3.419  17.668  0.4344 -0.3433  0.0494
  462TMC3    C3 6929   2.300   3.326  17.748 -0.3656  0.1195  0.0720
  462TMC3    C4 6930   2.141   3.530   0.099 -0.1358  0.4659 -0.5312
  462TMC3    C5 6931   2.189   3.431   0.179 -0.0699  0.1326  0.8996
  462TMC3    C6 6932   2.281   3.342   0.133 -0.4412 -0.8602 -0.2995
  462TMC3     C 6933   2.071   3.566  17.634  0.7309 -0.0897  0.3230
  462TMC3     O 6934   1.966   3.578  17.700 -0.0826  0.3430  0.6096
  462TMC3     H 6935   2.258   3.385  17.567  0.5265  0.3593 -0.1723
  462TMC3    H1 6936   2.093   3.619   0.139 -1.8297 -1.0499  0.8547
  462TMC3    H2 6937   2.295   3.261   0.203  0.9853 -0.1198  0.2666
  462TMC3    C7 6938   2.073   3.354   0.227 -0.6715 -0.5839 -0.3947
  462TMC3    C8 6939   2.239   3.192  17.720  0.1453  0.5255 -0.0277
  462TMC3    O1 6940   2.095   3.261   0.305  0.3912 -0.1770 -0.3138
  462TMC3    O2 6941   2.150   3.187  17.635  0.4445  0.6262  0.1271
  463MPD2     C 6942   4.265   1.551   1.322  0.7526  0.5421 -0.3882
  463MPD2    C1 6943   4.151   1.623   1.353  0.5281 -0.5603 -0.5321
  463MPD2    C2 6944   4.160   1.762   1.358  0.5080 -0.4959  0.5282
  463MPD2    C3 6945   4.276   1.826   1.316  0.1577 -0.0697 -0.4119
  463MPD2    C4 6946   4.387   1.746   1.279 -0.9283  0.7771  0.8808
  463MPD2    C5 6947   4.385   1.614   1.287 -0.3646  0.5286 -0.3235
  463MPD2     H 6948   4.071   1.815   1.390  1.3108  1.0754  0.1638
  463MPD2    H1 6949   4.486   1.784   1.254 -0.8000  1.0394  1.7850
  463MPD2    H2 6950   4.266   1.443   1.322 -0.3924  0.5315  0.3143
  463MPD2    H3 6951   4.475   1.560   1.263 -0.2870  2.0106 -3.4122
  463MPD2     N 6952   4.291   1.963   1.300 -0.9318 -0.3869 -0.6823
  463MPD2    H5 6953   4.380   1.995   1.262  0.5350 -1.4660  1.9023
  463MPD2    N1 6954   4.026   1.564   1.370 -0.2422  0.1067 -0.0371
  463MPD2    H7 6955   3.951   1.627   1.397 -0.4227  0.2603 -0.9054
  464TMC3    C1 6956   3.852   1.403   1.411  0.7362 -0.5492  0.7130
  464TMC3    C2 6957   3.786   1.494   1.494 -0.1004 -0.1858  0.7695
  464TMC3    C3 6958   3.656   1.472   1.525  0.2932 -0.0386 -0.2071
  464TMC3    C4 6959   3.795   1.284   1.373  0.1631  0.2917 -0.6978
  464TMC3    C5 6960   3.663   1.266   1.416  0.5800  0.0136 -0.0867
  464TMC3    C6 6961   3.589   1.361   1.479 -0.2621 -0.1369  0.0490
  464TMC3     C 6962   3.992   1.427   1.378 -0.1122  0.3725  0.3105
  464TMC3     O 6963   4.049   1.337   1.322  0.1068  0.7906  0.2676
  464TMC3     H 6964   3.844   1.580   1.527 -0.3554  0.2282  0.1488
  464TMC3    H1 6965   3.859   1.210   1.327  0.7591 -0.2582  1.0372
  464TMC3    H2 6966   3.486   1.341   1.503  0.1274  0.3978  2.1857
  464TMC3    C7 6967   3.620   1.132   1.413  0.4375 -0.0541 -0.4519
  464TMC3    C8 6968   3.578   1.587   1.534  0.3868  0.1317 -0.6987
  464TMC3    O1 6969   3.704   1.046   1.400  0.0588 -0.4098 -0.0895
  464TMC3    O2 6970   3.628   1.697   1.504  0.6440  0.0428 -0.3403
  465MPD2     C 6971   4.649   0.462  17.040  0.2542 -0.4190 -0.7619
  465MPD2    C1 6972   4.521   0.491  17.077 -0.9660 -0.5301 -0.6202
  465MPD2    C2 6973   4.442   0.548  16.978 -0.5888  0.5138  0.1592
  465MPD2    C3 6974   4.483   0.571  16.852  0.0680 -0.2841 -0.5096
  465MPD2    C4 6975   4.613   0.556  16.822  0.3919 -0.3560  0.0911
  465MPD2    C5 6976   4.694   0.494  16.917  0.3870  0.2544 -0.0247
  465MPD2     H 6977   4.342   0.578  17.008 -0.4598  0.4033  0.7016
  465MPD2    H1 6978   4.661   0.576  16.727  0.0188 -0.0967 -0.0411
  465MPD2    H2 6979   4.717   0.420  17.113 -0.0043  0.1665 -0.1761
  465MPD2    H3 6980   0.062   0.480  16.902  0.6931  1.5103  0.9572
  465MPD2     N 6981   4.389   0.620  16.761  0.6569 -0.2762  0.0279
  465MPD2    H5 6982   4.297   0.643  16.796  0.5401 -3.5590  1.7956
  465MPD2    N1 6983   4.465   0.454  17.201  0.1908  0.2269 -0.5574
  465MPD2    H7 6984   4.365   0.464  17.211  0.4746  0.4187  2.1192
  466TMC3    C1 6985   4.082   0.777  16.585 -0.1985  0.4708 -0.6140
  466TMC3    C2 6986   4.103   0.873  16.491  0.0251 -0.8617 -0.0923
  466TMC3    C3 6987   4.222   0.876  16.423 -0.3366  0.6785 -0.3364
  466TMC3    C4 6988   4.179   0.693  16.629 -0.6552 -0.2126  0.1329
  466TMC3    C5 6989   4.293   0.698  16.560 -0.2905  0.5649  0.6507
  466TMC3    C6 6990   4.319   0.789  16.460 -0.1515 -0.5697  0.2042
  466TMC3     C 6991   3.954   0.760  16.655 -0.2371  0.1932 -0.1995
  466TMC3     O 6992   3.962   0.720  16.769  0.1136 -0.2981  0.1606
  466TMC3     H 6993   4.025   0.944  16.465  1.7723  1.3906  0.8661
  466TMC3    H1 6994   4.154   0.607  16.690 -1.2618 -0.0941  0.0543
  466TMC3    H2 6995   4.420   0.799  16.421 -0.2153 -1.3833 -0.1590
  466TMC3    C7 6996   4.416   0.643  16.624  1.3651  0.8736 -0.0570
  466TMC3    C8 6997   4.270   1.007  16.389  0.0253  0.8255  0.2953
  466TMC3    O1 6998   4.510   0.613  16.548  0.4936  0.9371  0.2416
  466TMC3    O2 6999   4.382   1.011  16.344 -0.2697 -0.4034  0.0489
  467TMC3    C1 7000   0.218   3.718  13.306  0.5060  0.6443  0.5094
  467TMC3    C2 7001   0.212   3.791  13.188  0.3388  0.0922 -0.1301
  467TMC3    C3 7002   0.131   3.752  13.078  1.0097  0.0201 -0.1001
  467TMC3    C4 7003   0.134   3.609  13.320  0.1076  0.0262  0.5503
  467TMC3    C5 7004   0.057   3.581  13.213 -0.1125 -0.4604 -0.3113
  467TMC3    C6 7005   0.068   3.636  13.090 -0.1646 -0.3619 -0.0522
  467TMC3     C 7006   0.353   3.692  13.357 -0.0563 -0.0657  0.2696
  467TMC3     O 7007   0.422   3.787  13.382  0.0276 -0.5402  0.1325
  467TMC3     H 7008   0.282   3.872  13.167  0.7914 -0.3347 -0.2583
  467TMC3    H1 7009   0.144   3.550  13.410  4.2762  1.1981  0.8865
  467TMC3    H2 7010   0.000   3.602  13.012 -1.0630 -1.0111  1.0134
  467TMC3    C7 7011   4.694   3.480  13.230  0.5185  0.2609 -0.1614
  467TMC3    C8 7012   0.178   3.807  12.950  0.3626 -0.5534  0.1595
  467TMC3    O1 7013   4.677   3.407  13.133 -0.0957  0.4842  0.2533
  467TMC3    O2 7014   0.205   3.927  12.959  0.1322 -0.6347  0.3410
  468MPD2     C 7015   3.255   1.609  10.737 -0.3248 -0.1541 -0.5594
  468MPD2    C1 7016   3.383   1.672  10.744 -0.0076 -0.2924 -0.0927
  468MPD2    C2 7017   3.497   1.600  10.715 -0.5701 -0.4338 -0.2127
  468MPD2    C3 7018   3.489   1.460  10.708 -0.0393  0.0584  0.2037
  468MPD2    C4 7019   3.363   1.394  10.719  0.8021 -0.5335 -0.6219
  468MPD2    C5 7020   3.254   1.465  10.734  0.5500 -0.1801  0.1727
  468MPD2     H 7021   3.587   1.658  10.695  0.0187 -1.5774 -0.9030
  468MPD2    H1 7022   3.354   1.286  10.720  1.0259 -0.5721 -2.4168
  468MPD2    H2 7023   3.156   1.653  10.750 -0.6938 -0.9602 -0.6143
  468MPD2    H3 7024   3.160   1.412  10.749  0.0671  0.7271  0.3546
  468MPD2     N 7025   3.598   1.379  10.683 -0.3230  0.0674  0.3812
  468MPD2    H5 7026   3.585   1.278  10.687  0.5827 -0.0374  0.7244
  468MPD2    N1 7027   3.392   1.813  10.745  0.4364  0.0452  0.2546
  468MPD2    H7 7028   3.486   1.851  10.740 -0.2874  1.9207  1.1572
  469TMC3    C1 7029   3.328   2.045  10.755  0.1203  0.0665  0.0017
  469TMC3    C2 7030   3.444   2.099  10.703  0.8881  0.2221 -0.1582
  469TMC3    C3 7031   3.490   2.220  10.749 -0.8267  0.3076  0.0790
  469TMC3    C4 7032   3.255   2.120  10.847  0.9075  0.6175 -0.3862
  469TMC3    C5 7033   3.314   2.234  10.897 -0.1882 -0.4460 -0.8507
  469TMC3    C6 7034   3.429   2.286  10.854 -0.5828  0.0858 -0.5773
  469TMC3     C 7035   3.286   1.900  10.747  0.4061  0.1391  0.3770
  469TMC3     O 7036   3.171   1.884  10.781  0.1823 -0.0242 -0.1184
  469TMC3     H 7037   3.502   2.035  10.637  1.1077  0.4674 -0.2007
  469TMC3    H1 7038   3.155   2.094  10.881  1.1475 -1.2016 -1.0370
  469TMC3    H2 7039   3.472   2.379  10.889  0.6474 -0.0684 -1.6725
  469TMC3    C7 7040   3.226   2.315  10.983 -0.2780 -0.0656 -0.3631
  469TMC3    C8 7041   3.629   2.245  10.714 -0.5871 -0.4563 -0.2023
  469TMC3    O1 7042   3.107   2.297  10.965  0.2613 -0.2653 -0.1245
  469TMC3    O2 7043   3.668   2.228  10.600 -0.4094 -0.4151  0.0922
  470TMC3    C1 7044   1.393   3.084   0.297 -0.4015 -0.4621 -0.1605
  470TMC3    C2 7045   1.418   3.219   0.309  0.3425  0.2119 -1.0129
  470TMC3    C3 7046   1.517   3.255   0.392 -1.0029 -0.2394 -0.1057
  470TMC3    C4 7047   1.441   2.992   0.389 -0.2181 -0.2538 -0.1103
  470TMC3    C5 7048   1.539   3.032   0.476 -0.4500 -0.1321  0.3755
  470TMC3    C6 7049   1.581   3.162   0.477 -0.5518 -0.1914  0.0612
  470TMC3     C 7050   1.301   3.056   0.195 -0.3292  0.3219  0.4548
  470TMC3     O 7051   1.283   3.132   0.101 -0.3443  0.0631 -0.2798
  470TMC3     H 7052   1.385   3.283   0.227 -1.7893  0.6344  0.1893
  470TMC3    H1 7053   1.411   2.888   0.380 -3.6881  0.6130  1.2075
  470TMC3    H2 7054   1.654   3.205   0.544 -0.5811  2.1312 -1.3745
  470TMC3    C7 7055   1.598   2.933   0.563 -0.4707 -0.5249 -0.0639
  470TMC3    C8 7056   1.564   3.395   0.410  0.0621 -0.1466  0.3732
  470TMC3    O1 7057   1.589   2.818   0.517  0.2870  0.1131  0.1838
  470TMC3    O2 7058   1.633   3.416   0.505 -0.6182 -0.2115  0.1588
  471MPD2     C 7059   2.430   4.366  16.453 -0.1400  0.3347  0.1955
  471MPD2    C1 7060   2.445   4.231  16.455  0.2731 -0.2533 -0.2394
  471MPD2    C2 7061   2.527   4.167  16.546  0.4570 -0.0565  0.0041
  471MPD2    C3 7062   2.589   4.240  16.642  0.1548 -0.3882  0.2403
  471MPD2    C4 7063   2.565   4.382  16.648  0.1939  0.8427  0.1815
  471MPD2    C5 7064   2.492   4.441  16.549  0.3622 -0.2713 -0.3348
  471MPD2     H 7065   2.534   4.059  16.532  1.0246  0.1066 -1.0084
  471MPD2    H1 7066   2.614   4.444  16.722 -0.3047 -0.2648  1.4426
  471MPD2    H2 7067   2.360   4.425  16.395  0.0431  1.4915  1.1540
  471MPD2    H3 7068   2.491   4.549  16.551 -1.0951 -0.3090  0.5639
  471MPD2     N 7069   2.648   4.182  16.757  0.0341 -0.1900 -0.0935
  471MPD2    H5 7070   2.659   4.243  16.838  4.0560 -0.0717 -0.7334
  471MPD2    N1 7071   2.375   4.147  16.364  0.6242 -0.1475 -0.1458
  471MPD2    H7 7072   2.385   4.047  16.376 -2.4539 -0.3431  0.6628
  472TMC3    C1 7073   2.217   4.068  16.217  0.2479 -0.1783 -0.0016
  472TMC3    C2 7074   2.138   4.086  16.106  0.2891  0.0773  0.4433
  472TMC3    C3 7075   2.131   3.986  16.017  0.2601 -0.2109 -0.9568
  472TMC3    C4 7076   2.278   3.951  16.242 -0.1285  0.6240 -0.7703
  472TMC3    C5 7077   2.277   3.851  16.147  0.1783  0.4003  0.7238
  472TMC3    C6 7078   2.205   3.873  16.028 -0.3402  0.7654 -0.8830
  472TMC3     C 7079   2.273   4.186  16.278 -0.3964 -0.2910  0.2915
  472TMC3     O 7080   2.221   4.296  16.249 -0.9875 -0.2613  0.2566
  472TMC3     H 7081   2.098   4.184  16.080 -0.6816 -0.6440 -0.8013
  472TMC3    H1 7082   2.305   3.918  16.342  1.0442 -1.0069 -1.6284
  472TMC3    H2 7083   2.193   3.799  15.950 -3.6499 -1.3827  1.6753
  472TMC3    C7 7084   2.261   3.714  16.202 -0.4079 -0.1302  0.3090
  472TMC3    C8 7085   2.006   3.977  15.937  0.4908 -0.6330 -0.4679
  472TMC3    O1 7086   2.287   3.686  16.317  0.3983  0.6678  0.0421
  472TMC3    O2 7087   1.958   4.076  15.888  0.2239 -0.4844 -0.2066
  473MPD2     C 7088   2.247   1.115  13.693 -0.1925  0.8260 -0.1563
  473MPD2    C1 7089   2.174   1.230  13.690  0.7300  0.1325  0.8467
  473MPD2    C2 7090   2.184   1.318  13.798 -0.2154  0.3360 -0.4194
  473MPD2    C3 7091   2.279   1.302  13.894 -0.1775 -0.2084  0.0033
  473MPD2    C4 7092   2.362   1.199  13.891 -0.5557 -0.4936  0.7578
  473MPD2    C5 7093   2.347   1.106  13.791 -0.3028 -0.7323 -0.3394
  473MPD2     H 7094   2.128   1.411  13.793  0.7549  1.0523  1.9698
  473MPD2    H1 7095   2.447   1.185  13.957  0.9479 -0.3288 -1.1309
  473MPD2    H2 7096   2.225   1.035  13.623  1.7929 -1.9177  2.2913
  473MPD2    H3 7097   2.411   1.018  13.793  0.9603  0.0868 -4.0113
  473MPD2     N 7098   2.301   1.405  13.987 -0.8379  0.0697  0.3622
  473MPD2    H5 7099   2.386   1.394  14.041  0.0533 -1.4178 -1.3349
  473MPD2    N1 7100   2.076   1.266  13.597  0.4066 -0.6046  0.9132
  473MPD2    H7 7101   2.023   1.351  13.613 -0.0114 -0.6660 -0.1462
  474TMC3    C1 7102   2.272   1.595  14.121 -0.4626 -0.7361 -0.0476
  474TMC3    C2 7103   2.175   1.679  14.164  0.2942  0.2166 -0.6380
  474TMC3    C3 7104   2.218   1.791  14.225 -0.1422  0.4007 -0.2861
  474TMC3    C4 7105   2.402   1.626  14.131 -0.3577  0.1450  0.7550
  474TMC3    C5 7106   2.447   1.733  14.199  0.8011 -1.1618 -0.1855
  474TMC3    C6 7107   2.354   1.820  14.250  0.4666  0.0473 -0.9057
  474TMC3     C 7108   2.216   1.509  14.021  0.0753  0.4696  0.4741
  474TMC3     O 7109   2.107   1.546  13.976  0.3211  0.2286  0.2190
  474TMC3     H 7110   2.068   1.658  14.161  0.5020 -0.8208 -0.8755
  474TMC3    H1 7111   2.485   1.567  14.092  0.1557  0.6315  1.1116
  474TMC3    H2 7112   2.380   1.919  14.287  1.7356 -0.6683  0.1403
  474TMC3    C7 7113   2.577   1.787  14.197 -0.3710  0.2251  0.2293
  474TMC3    C8 7114   2.117   1.887  14.276 -0.6189  0.0184  0.1204
  474TMC3    O1 7115   2.643   1.765  14.097 -0.0676  0.0044  0.0489
  474TMC3    O2 7116   2.019   1.844  14.343  0.3755  0.1263  0.0667
  475MPD2     C 7117   0.291   4.359  10.681 -0.9956 -0.1468 -0.1588
  475MPD2    C1 7118   0.287   4.392  10.818 -0.0365 -0.5950 -0.3637
  475MPD2    C2 7119   0.171   4.447  10.869 -0.2833 -0.0274 -0.2696
  475MPD2    C3 7120   0.059   4.476  10.794  0.4088  0.4421 -0.7357
  475MPD2    C4 7121   0.069   4.457  10.660 -0.5422 -0.5130  1.0584
  475MPD2    C5 7122   0.179   4.397  10.605  0.0176 -0.4915 -0.1296
  475MPD2     H 7123   0.169   4.471  10.974 -0.6818 -2.3244  0.2459
  475MPD2    H1 7124   4.735   4.489  10.586  1.0627  1.4169  0.3334
  475MPD2    H2 7125   0.374   4.309  10.633  0.0634  0.6280  0.8758
  475MPD2    H3 7126   0.182   4.376  10.499 -1.1994  1.3623 -0.5344
  475MPD2     N 7127   4.682   4.549  10.842 -0.0916  0.2088 -0.3059
  475MPD2    H5 7128   4.618   4.589  10.775  0.4458  0.6019 -0.5808
  475MPD2    N1 7129   0.392   4.379  10.915 -0.1705  0.0042  0.4368
  475MPD2    H7 7130   0.363   4.416  11.005 -2.9347  3.2950 -1.8099
  476TMC3    C1 7131   0.621   4.391  10.978  0.0389  0.8465  0.3233
  476TMC3    C2 7132   0.712   4.442  10.887  0.5061  0.2649  0.2530
  476TMC3    C3 7133   0.721   4.581  10.880 -0.0280  0.4141 -0.4482
  476TMC3    C4 7134   0.574   4.469  11.075 -0.2964 -0.2194 -0.2547
  476TMC3    C5 7135   0.589   4.607  11.072  0.0019  0.6099  0.2208
  476TMC3    C6 7136   0.661   4.663  10.969 -0.6588 -0.3463  0.5412
  476TMC3     C 7137   0.517   4.338  10.887  0.1907  0.6419  0.7858
  476TMC3     O 7138   0.553   4.300  10.779 -1.0214  0.1871  0.4122
  476TMC3     H 7139   0.756   4.372  10.817  2.6964  0.7093  1.1587
  476TMC3    H1 7140   0.496   4.435  11.142  0.1287 -0.3729  0.1596
  476TMC3    H2 7141   0.662   0.027  10.932 -0.0462  0.4932  2.8224
  476TMC3    C7 7142   0.479   4.673  11.143  0.4300  0.0040  1.4378
  476TMC3    C8 7143   0.703   4.634  10.744 -0.1587  0.6670  0.0206
  476TMC3    O1 7144   0.374   4.610  11.155 -0.1951  0.0759 -0.3968
  476TMC3    O2 7145   0.719   0.015  10.720  0.0085 -0.3251  0.4072
  477MPD2     C 7146   2.800   1.086  11.450  0.5147  0.3120 -0.4701
  477MPD2    C1 7147   2.702   0.993  11.469 -0.0418  0.8420  0.8007
  477MPD2    C2 7148   2.740   0.890  11.553  0.7054  0.4027  0.0065
  477MPD2    C3 7149   2.861   0.885  11.623  0.1252  0.3898  0.5277
  477MPD2    C4 7150   2.960   0.971  11.586  0.0543 -0.4583  1.2657
  477MPD2    C5 7151   2.931   1.063  11.490  0.6868 -0.4312  0.0862
  477MPD2     H 7152   2.660   0.825  11.584  1.7945  0.7284  3.5214
  477MPD2    H1 7153   3.059   0.968  11.628 -0.7583  1.4321  3.3433
  477MPD2    H2 7154   2.783   1.160  11.372  0.6216  0.8097 -0.0240
  477MPD2    H3 7155   3.005   1.133  11.452  0.1623 -0.0557 -0.2507
  477MPD2     N 7156   2.879   0.774  11.716  0.5450  0.5115 -0.3824
  477MPD2    H5 7157   2.796   0.720  11.739  1.8469 -2.2295 -2.2180
  477MPD2    N1 7158   2.570   1.008  11.416  0.4747 -0.5746 -0.1689
  477MPD2    H7 7159   2.551   1.086  11.355 -0.5645 -1.4355 -0.9258
  478TMC3    C1 7160   2.346   0.993  11.390  0.5013  0.4913  0.5179
  478TMC3    C2 7161   2.257   1.029  11.486 -0.1300  0.1990  0.1960
  478TMC3    C3 7162   2.153   1.102  11.437  0.3508  0.0293 -0.2403
  478TMC3    C4 7163   2.345   1.028  11.263  0.7264  0.2913  0.0264
  478TMC3    C5 7164   2.235   1.102  11.221 -0.1654  0.3323  0.0851
  478TMC3    C6 7165   2.134   1.142  11.311  0.1573 -0.2840 -0.0642
  478TMC3     C 7166   2.460   0.931  11.442  0.2806 -0.1859  0.5341
  478TMC3     O 7167   2.441   0.848  11.528  0.0049  0.4327  0.1354
  478TMC3     H 7168   2.274   1.015  11.592 -1.9800 -0.0683  0.4667
  478TMC3    H1 7169   2.436   1.013  11.206 -0.4687 -1.3253 -1.4619
  478TMC3    H2 7170   2.040   1.182  11.276  0.0323  0.6374  1.3086
  478TMC3    C7 7171   2.202   1.134  11.080  0.2370  0.6833  0.4838
  478TMC3    C8 7172   2.078   1.173  11.538  0.4984 -0.4617 -0.0365
  478TMC3    O1 7173   2.087   1.173  11.063 -0.0621 -0.1588 -0.1679
  478TMC3    O2 7174   2.071   1.115  11.646 -0.4798  0.0635 -0.1108
  479MPD2     C 7175   1.842   3.706  14.948 -0.4001 -0.2263 -0.0001
  479MPD2    C1 7176   1.812   3.635  15.059  0.2741  0.0966  0.5441
  479MPD2    C2 7177   1.876   3.670  15.180 -0.0719 -0.0431  0.5177
  479MPD2    C3 7178   1.918   3.801  15.191  0.5662 -0.0751  0.5272
  479MPD2    C4 7179   1.969   3.866  15.077 -0.4598  0.1189  0.1155
  479MPD2    C5 7180   1.926   3.811  14.959 -0.6249  0.6141  0.0476
  479MPD2     H 7181   1.867   3.608  15.269  1.4102  2.1330  2.1951
  479MPD2    H1 7182   2.026   3.958  15.078  0.0467 -0.1896 -0.7317
  479MPD2    H2 7183   1.797   3.683  14.852 -0.3331  0.9826 -0.3327
  479MPD2    H3 7184   1.938   3.868  14.868  0.1977  0.3894  0.0159
  479MPD2     N 7185   1.930   3.866  15.315  0.6246 -0.0773 -0.3236
  479MPD2    H5 7186   1.987   3.951  15.317  0.8742 -0.3011  1.4340
  479MPD2    N1 7187   1.719   3.533  15.045  0.2347  0.1960  0.1159
  479MPD2    H7 7188   1.687   3.518  14.950 -0.1106 -0.4370  0.3347
  480TMC3    C1 7189   1.656   3.579  15.569 -0.1503  0.3418 -0.1692
  480TMC3    C2 7190   1.549   3.594  15.485 -0.7112  0.6371 -0.3344
  480TMC3    C3 7191   1.544   3.689  15.388 -0.9491 -0.2143 -0.4774
  480TMC3    C4 7192   1.763   3.656  15.550 -0.2481  0.1844  0.5657
  480TMC3    C5 7193   1.758   3.749  15.449 -0.4097 -0.3730  0.0707
  480TMC3    C6 7194   1.655   3.762  15.360  0.1663 -0.7081  0.1472
  480TMC3     C 7195   1.672   3.462  15.656  0.0979 -0.1091  0.4005
  480TMC3     O 7196   1.781   3.442  15.703 -0.5043 -0.4587 -0.6560
  480TMC3     H 7197   1.459   3.536  15.499 -0.5369  0.4620  0.0522
  480TMC3    H1 7198   1.856   3.652  15.604 -0.1885  1.9463  0.5977
  480TMC3    H2 7199   1.660   3.839  15.284  0.3567  0.2405  1.1341
  480TMC3    C7 7200   1.872   3.837  15.435 -0.3963  0.3180  0.8444
  480TMC3    C8 7201   1.427   3.681  15.295 -0.2199 -0.3278  0.0036
  480TMC3    O1 7202   1.913   3.876  15.546  0.2473 -0.5214 -0.4951
  480TMC3    O2 7203   1.331   3.609  15.326  0.2483 -0.6693  0.0587
  481MPD2     C 7204   3.384   2.644  13.867  0.2421 -0.6386  0.5342
  481MPD2    C1 7205   3.319   2.756  13.897  0.4422 -0.5638 -0.0962
  481MPD2    C2 7206   3.341   2.830  14.013 -0.2174 -0.3471 -0.5646
  481MPD2    C3 7207   3.422   2.773  14.106  0.6270  0.4021 -0.1865
  481MPD2    C4 7208   3.495   2.659  14.071 -0.3761 -0.7362 -0.1422
  481MPD2    C5 7209   3.480   2.597  13.954 -0.8269  0.5459  0.8193
  481MPD2     H 7210   3.295   2.928  14.015  0.4379 -0.0315 -1.0156
  481MPD2    H1 7211   3.555   2.612  14.148  0.4076 -0.4030 -0.5430
  481MPD2    H2 7212   3.373   2.588  13.774 -0.7807  0.6700 -0.1382
  481MPD2    H3 7213   3.537   2.507  13.933 -1.0818  1.2031 -2.6927
  481MPD2     N 7214   3.435   2.811  14.243 -0.2281 -0.1019 -0.1118
  481MPD2    H5 7215   3.502   2.767  14.305 -2.1250  0.1549  2.1497
  481MPD2    N1 7216   3.229   2.796  13.799  0.6198  0.1863  0.4754
  481MPD2    H7 7217   3.219   2.738  13.717  4.2958 -1.3689  1.1169
  482TMC3    C1 7218   3.045   2.894  13.696  0.6694  0.2097  0.1933
  482TMC3    C2 7219   2.963   2.787  13.677 -0.8788  0.1266  0.4018
  482TMC3    C3 7220   2.887   2.784  13.559  0.1012  0.2101  0.6224
  482TMC3    C4 7221   3.043   3.001  13.604  0.3913 -0.5324  0.2533
  482TMC3    C5 7222   2.952   3.005  13.507  0.6871 -0.8581 -0.2241
  482TMC3    C6 7223   2.881   2.891  13.473  0.1013 -0.2474  0.3317
  482TMC3     C 7224   3.148   2.904  13.808 -0.4246  0.1058 -0.4173
  482TMC3     O 7225   3.172   3.017  13.853 -0.3610  0.0540 -0.0441
  482TMC3     H 7226   2.977   2.698  13.737 -0.6029  2.1500  3.3262
  482TMC3    H1 7227   3.118   3.077  13.624  1.5022 -1.5276 -0.0902
  482TMC3    H2 7228   2.823   2.897  13.381  1.1381 -1.5738 -0.4029
  482TMC3    C7 7229   2.967   3.108  13.404 -0.4457  0.0935  0.6213
  482TMC3    C8 7230   2.804   2.662  13.541  0.1034 -0.5508  0.4810
  482TMC3    O1 7231   2.935   3.086  13.285  1.1946 -0.2339  0.1957
  482TMC3    O2 7232   2.816   2.580  13.630 -0.2419 -0.0288  0.4732
  483TMC3    C1 7233   2.415   1.766   0.413  0.2724  0.1695  0.0237
  483TMC3    C2 7234   2.445   1.899   0.436 -0.7565 -0.5761  0.2677
  483TMC3    C3 7235   2.496   1.923   0.563 -0.4911  0.0277 -0.6666
  483TMC3    C4 7236   2.444   1.663   0.495 -0.1542  0.2119  0.3562
  483TMC3    C5 7237   2.505   1.694   0.617 -0.0751 -0.3670  0.1347
  483TMC3    C6 7238   2.519   1.829   0.656  0.1274 -0.3733 -0.4013
  483TMC3     C 7239   2.332   1.742   0.301  0.5418  0.5987 -0.5223
  483TMC3     O 7240   2.344   1.827   0.212  0.0965 -0.0829 -0.1693
  483TMC3     H 7241   2.419   1.974   0.361 -1.5026 -1.9579 -0.8640
  483TMC3    H1 7242   2.433   1.563   0.457  0.4269  0.1624  0.3191
  483TMC3    H2 7243   2.533   1.851   0.762 -1.5202  2.4716 -0.7481
  483TMC3    C7 7244   2.503   1.580   0.704  0.5053  0.2610  0.0465
  483TMC3    C8 7245   2.494   2.059   0.612 -0.9265 -0.0612  0.3172
  483TMC3    O1 7246   2.441   1.482   0.663 -0.0271 -0.1145  0.0514
  483TMC3    O2 7247   2.583   2.098   0.683  0.9886  0.7292 -0.3215
  484MPD2     C 7248   3.426   4.330  12.139 -0.6682  0.1169 -0.1330
  484MPD2    C1 7249   3.478   4.249  12.240 -0.2669 -0.4527  0.2945
  484MPD2    C2 7250   3.606   4.281  12.284  0.0861  0.3403 -0.2881
  484MPD2    C3 7251   3.676   4.399  12.245  0.1339 -0.8927 -0.3522
  484MPD2    C4 7252   3.613   4.480  12.153  0.2129  0.8397  0.7232
  484MPD2    C5 7253   3.496   4.448  12.106  0.0672  0.1429  0.0224
  484MPD2     H 7254   3.657   4.218  12.357 -1.1223 -0.7404 -0.3724
  484MPD2    H1 7255   3.664   4.567  12.113 -1.0749  0.5670 -1.5483
  484MPD2    H2 7256   3.337   4.306  12.081 -1.9748 -2.3207  2.9332
  484MPD2    H3 7257   3.459   4.506  12.021 -1.6534 -2.6470 -1.1423
  484MPD2     N 7258   3.795   4.427  12.313 -0.4537  0.1252 -0.3397
  484MPD2    H5 7259   3.831   4.350  12.368 -0.7574 -0.7082 -1.3020
  484MPD2    N1 7260   3.405   4.136  12.276 -0.4437  0.1097 -0.1333
  484MPD2    H7 7261   3.309   4.118  12.248 -0.1589 -2.0113  0.2727
  485TMC3    C1 7262   3.992   4.536  12.361  1.0077 -0.8572  0.0119
  485TMC3    C2 7263   4.032   4.419  12.410 -0.1702  0.7731 -0.3331
  485TMC3    C3 7264   4.142   4.411  12.493  0.1072 -0.4359 -0.1614
  485TMC3    C4 7265   4.055   4.654  12.397 -0.5516  0.0763 -0.0900
  485TMC3    C5 7266   4.161   4.652  12.477  0.2330 -0.2591 -0.2696
  485TMC3    C6 7267   4.203   4.530  12.529 -0.2660 -0.2514 -0.4266
  485TMC3     C 7268   3.867   4.542  12.290 -0.9945  0.7713 -0.5069
  485TMC3     O 7269   3.841   4.644  12.226 -0.3231 -0.1326  0.0710
  485TMC3     H 7270   3.996   4.329  12.362 -0.8720  1.2101 -0.6176
  485TMC3    H1 7271   4.021   0.006  12.347 -0.7548  1.6346  2.8171
  485TMC3    H2 7272   4.292   4.531  12.591  0.8080 -0.6910 -1.9836
  485TMC3    C7 7273   4.270   4.717  12.399  0.8669 -0.4296  0.2171
  485TMC3    C8 7274   4.237   4.307  12.465  0.0780 -0.6598  0.4530
  485TMC3    O1 7275   4.249   0.088  12.346  0.6836  0.4301 -0.1401
  485TMC3    O2 7276   4.347   4.346  12.448 -0.0146 -0.0113 -0.3165
  486MPD2     C 7277   1.493   3.157  12.762  0.2496 -0.3718  0.4061
  486MPD2    C1 7278   1.361   3.150  12.723  0.8946  0.3537 -0.7757
  486MPD2    C2 7279   1.310   3.267  12.661 -0.3879  0.8311  0.2874
  486MPD2    C3 7280   1.372   3.390  12.662  0.5343  0.2679  0.6393
  486MPD2    C4 7281   1.502   3.396  12.716  0.7711  0.3844  1.0516
  486MPD2    C5 7282   1.553   3.279  12.760  0.2201  0.1427  0.2546
  486MPD2     H 7283   1.210   3.254  12.620  0.1634 -0.5393 -0.6085
  486MPD2    H1 7284   1.556   3.490  12.718  0.3603  0.6703 -0.7655
  486MPD2    H2 7285   1.544   3.075  12.811  0.6541  0.6534  1.7172
  486MPD2    H3 7286   1.658   3.276  12.789 -0.2444  0.3209  1.9498
  486MPD2     N 7287   1.308   3.506  12.610  0.1224  0.0683  0.2720
  486MPD2    H5 7288   1.226   3.491  12.552 -0.0214  1.3012  0.1613
  486MPD2    N1 7289   1.290   3.030  12.728 -0.2995 -0.0227  0.3939
  486MPD2    H7 7290   1.338   2.960  12.784  2.8025  0.8562 -1.1483
  487TMC3    C1 7291   1.126   2.866  12.707 -0.4163  0.2695 -0.7700
  487TMC3    C2 7292   1.038   2.806  12.625 -0.3034 -0.1134  0.4567
  487TMC3    C3 7293   0.977   2.695  12.666  0.9619 -0.6785  0.4204
  487TMC3    C4 7294   1.126   2.841  12.840  0.5193 -0.8022 -0.0904
  487TMC3    C5 7295   1.048   2.734  12.884  0.4825  0.5616  1.0538
  487TMC3    C6 7296   0.980   2.655  12.797  0.0914  0.6377 -0.2253
  487TMC3     C 7297   1.175   2.992  12.661 -0.0292  0.2196  0.3659
  487TMC3     O 7298   1.109   3.058  12.588  0.5080 -0.3177  0.4984
  487TMC3     H 7299   1.024   2.846  12.525  1.7915  4.0071  1.8107
  487TMC3    H1 7300   1.185   2.890  12.916 -0.7270  0.6740 -0.0610
  487TMC3    H2 7301   0.965   2.553  12.830  0.5271 -0.0102 -1.9839
  487TMC3    C7 7302   1.036   2.715  13.028  0.5886 -0.4020  0.4433
  487TMC3    C8 7303   0.835   2.694  12.631  0.3470 -0.1376 -0.3128
  487TMC3    O1 7304   1.123   2.755  13.105 -0.0347 -0.5870  0.1534
  487TMC3    O2 7305   0.801   2.662  12.517 -0.4931 -0.6902  0.5494
  488MPD2     C 7306   1.355   0.280  16.105 -0.0563 -0.3464 -0.0191
  488MPD2    C1 7307   1.389   0.396  16.176 -0.0869  0.1739 -0.3041
  488MPD2    C2 7308   1.356   0.391  16.312  0.6024 -0.0958 -0.0555
  488MPD2    C3 7309   1.295   0.285  16.371 -0.6148  1.5664 -0.6571
  488MPD2    C4 7310   1.268   0.174  16.297  0.0924  0.2731  0.0702
  488MPD2    C5 7311   1.294   0.173  16.160 -0.7704 -0.0206 -0.3856
  488MPD2     H 7312   1.384   0.468  16.383  2.6029 -0.8038 -0.0635
  488MPD2    H1 7313   1.229   0.083  16.341 -0.7487  0.5526 -0.0972
  488MPD2    H2 7314   1.378   0.276  15.999 -1.9169  0.2568 -0.4392
  488MPD2    H3 7315   1.291   0.082  16.100 -1.9434 -0.4753  0.3631
  488MPD2     N 7316   1.281   0.285  16.510  0.2457  0.6364  0.0285
  488MPD2    H5 7317   1.305   0.376  16.549  2.0268  0.2740 -0.2270
  488MPD2    N1 7318   1.462   0.505  16.123 -0.0369  0.7919 -0.2107
  488MPD2    H7 7319   1.486   0.576  16.192 -1.1624  1.2768 -0.3129
  489TMC3    C1 7320   1.226   0.211  16.731  0.4771 -0.0670 -0.4878
  489TMC3    C2 7321   1.337   0.273  16.768 -0.0636  0.5358  0.0918
  489TMC3    C3 7322   1.352   0.301  16.898 -0.5136 -0.0089  0.6798
  489TMC3    C4 7323   1.131   0.174  16.823 -0.7545  0.0071 -0.4069
  489TMC3    C5 7324   1.154   0.196  16.955  0.1685 -0.2703 -0.1348
  489TMC3    C6 7325   1.266   0.263  17.000 -0.3724 -0.2701  0.3079
  489TMC3     C 7326   1.206   0.196  16.590 -0.3770 -0.2665  0.2795
  489TMC3     O 7327   1.135   0.105  16.552  0.2529 -0.0655 -0.8798
  489TMC3     H 7328   1.412   0.304  16.697 -1.2233  1.5341 -0.6794
  489TMC3    H1 7329   1.048   0.113  16.788 -2.3031  2.9157 -1.7913
  489TMC3    H2 7330   1.278   0.296  17.103 -1.5391  0.7567  0.1095
  489TMC3    C7 7331   1.059   0.150  17.055 -0.2288  0.3002 -0.8219
  489TMC3    C8 7332   1.440   0.413  16.930 -0.1814  0.2585  0.6613
  489TMC3    O1 7333   0.947   0.132  17.019 -0.2530  0.1327 -0.1592
  489TMC3    O2 7334   1.525   0.431  16.846 -0.0537  0.0556  0.1398
  490MPD2     C 7335   2.254   0.070  16.690 -1.1130 -0.1512  0.6108
  490MPD2    C1 7336   2.293   0.017  16.814 -0.0220 -0.2648 -0.2725
  490MPD2    C2 7337   2.373   0.092  16.896  0.4357 -0.5042 -0.1561
  490MPD2    C3 7338   2.400   0.225  16.869 -0.5782  0.0573  0.0948
  490MPD2    C4 7339   2.366   0.276  16.748 -0.1464  0.0872 -0.0114
  490MPD2    C5 7340   2.300   0.194  16.657 -0.5615 -0.3095 -0.1416
  490MPD2     H 7341   2.408   0.052  16.990 -0.5426 -0.4789  0.2180
  490MPD2    H1 7342   2.387   0.378  16.719 -2.0707  0.7923  1.0562
  490MPD2    H2 7343   2.199   0.022  16.610 -0.7864  1.0493 -0.3254
  490MPD2    H3 7344   2.261   0.236  16.565  1.9446 -1.4944 -1.7406
  490MPD2     N 7345   2.477   0.296  16.961 -0.4770  0.0474 -0.0044
  490MPD2    H5 7346   2.523   0.379  16.925  1.3378 -1.4665 -1.1792
  490MPD2    N1 7347   2.267   4.624  16.854  0.0692 -0.4886 -0.1391
  490MPD2    H7 7348   2.284   4.602  16.951 -0.4638 -3.0996 -0.6424
  491TMC3    C1 7349   2.214   4.395  16.810  0.1376  0.4111  0.2452
  491TMC3    C2 7350   2.219   4.368  16.946  0.2240 -1.0275 -0.0628
  491TMC3    C3 7351   2.219   4.234  16.976  0.5377  0.1835 -0.1591
  491TMC3    C4 7352   2.240   4.301  16.715  0.1119  0.4487 -0.0374
  491TMC3    C5 7353   2.242   4.170  16.750  0.3499 -0.5262  0.0881
  491TMC3    C6 7354   2.227   4.137  16.880 -0.0815 -0.2019 -0.4496
  491TMC3     C 7355   2.229   4.530  16.762  0.1758  0.1114 -0.2403
  491TMC3     O 7356   2.209   4.543  16.642 -0.0122  0.0668  0.2628
  491TMC3     H 7357   2.179   4.432  17.023  0.6384  1.5252 -1.9486
  491TMC3    H1 7358   2.240   4.326  16.610 -1.2032 -2.5567 -0.7745
  491TMC3    H2 7359   2.205   4.037  16.915 -1.7723  1.6210  3.7307
  491TMC3    C7 7360   2.182   4.083  16.654  0.5819  0.0706 -0.0319
  491TMC3    C8 7361   2.131   4.203  17.088  0.4050  0.5002  0.2682
  491TMC3    O1 7362   2.106   4.144  16.578  0.5659 -0.2299 -0.3101
  491TMC3    O2 7363   2.057   4.294  17.128 -0.6224  0.1602 -0.2426
  492MPD2     C 7364   2.533   4.496  10.804  0.0106 -0.4942 -0.6242
  492MPD2    C1 7365   2.401   4.476  10.759  0.0690 -0.1831 -0.8440
  492MPD2    C2 7366   2.313   4.410  10.843 -0.5357  0.1135 -0.2480
  492MPD2    C3 7367   2.354   4.352  10.964  0.1773  0.6143 -0.2030
  492MPD2    C4 7368   2.486   4.360  10.997  0.1694  0.9645  0.0404
  492MPD2    C5 7369   2.571   4.440  10.926 -0.1600  0.5442 -0.8974
  492MPD2     H 7370   2.212   4.407  10.805  0.5114  1.1496 -3.1391
  492MPD2    H1 7371   2.529   4.312  11.084 -1.8894 -0.1499  0.4449
  492MPD2    H2 7372   2.597   4.564  10.750  0.0576  1.9238  2.4484
  492MPD2    H3 7373   2.671   4.467  10.958  0.2516 -0.2455 -1.5320
  492MPD2     N 7374   2.273   4.263  11.042  0.1258 -0.0873  0.0032
  492MPD2    H5 7375   2.320   4.235  11.128 -1.2550  4.1563  2.1533
  492MPD2    N1 7376   2.367   4.535  10.637  0.0845 -0.1596  0.1975
  492MPD2    H7 7377   2.438   4.569  10.573  0.1732 -0.4016  0.1696
  493TMC3    C1 7378   2.239   4.654  10.493 -0.7631 -0.3350  0.0396
  493TMC3    C2 7379   2.344   0.001  10.466 -0.6102 -0.8556  0.4558
  493TMC3    C3 7380   2.328   0.131  10.435 -0.2983 -0.6704  0.3122
  493TMC3    C4 7381   2.119   4.708  10.464 -0.8431 -0.4196 -0.4569
  493TMC3    C5 7382   2.101   0.099  10.419 -0.7891  0.2708 -0.6628
  493TMC3    C6 7383   2.207   0.185  10.403 -0.2307  0.0599 -0.1757
  493TMC3     C 7384   2.243   4.562  10.599 -0.3565 -0.6126  0.0533
  493TMC3     O 7385   2.134   4.529  10.650  0.0517  0.1588  0.2008
  493TMC3     H 7386   2.444   4.699  10.482 -0.5099 -0.9376 -0.3590
  493TMC3    H1 7387   2.038   4.635  10.469 -0.3871 -0.7958  1.4201
  493TMC3    H2 7388   2.199   0.292  10.390  0.5478  0.0558 -0.6955
  493TMC3    C7 7389   1.988   0.126  10.337 -0.2482  0.6091  0.0299
  493TMC3    C8 7390   2.454   0.207  10.423  0.1024  0.1831  0.8491
  493TMC3    O1 7391   1.993   0.228  10.265 -0.0871  0.7432  0.4578
  493TMC3    O2 7392   2.548   0.166  10.486  0.6249 -0.3844  0.1632
  494TMC3    C1 7393   3.251   2.065   0.371  0.5740  0.2019  1.0008
  494TMC3    C2 7394   3.245   1.928   0.364 -0.1158  0.2403 -0.2402
  494TMC3    C3 7395   3.196   1.870   0.255 -0.3416  0.5392 -0.4876
  494TMC3    C4 7396   3.208   2.144   0.273  0.3848 -0.4630 -0.0372
  494TMC3    C5 7397   3.163   2.078   0.163  0.5690 -1.2102 -0.2768
  494TMC3    C6 7398   3.138   1.945   0.158 -0.2033 -0.0455 -0.5030
  494TMC3     C 7399   3.299   2.126   0.497 -0.4556  0.2348 -0.1917
  494TMC3     O 7400   3.244   2.229   0.538 -0.4057 -0.4686  0.8752
  494TMC3     H 7401   3.280   1.861   0.442  0.5118 -0.8081 -1.4120
  494TMC3    H1 7402   3.206   2.251   0.291 -0.6709 -0.3765 -0.6632
  494TMC3    H2 7403   3.120   1.906   0.059 -1.5526 -1.9007  0.4669
  494TMC3    C7 7404   3.172   2.141   0.032 -0.3732 -0.6984  0.5298
  494TMC3    C8 7405   3.189   1.724   0.254 -0.3564  0.5298 -0.0701
  494TMC3    O1 7406   3.218   2.067  17.693 -0.4508 -0.5557 -0.2915
  494TMC3    O2 7407   3.280   1.670   0.313  0.1367 -0.1428  0.5264
  495TMC3    C1 7408   1.733   3.676  14.442 -0.0345  0.6582  0.0008
  495TMC3    C2 7409   1.657   3.671  14.324 -0.0192 -0.0345  0.4122
  495TMC3    C3 7410   1.543   3.745  14.321 -0.2827 -0.2799 -0.1725
  495TMC3    C4 7411   1.698   3.757  14.548  0.1480  0.3143 -0.8673
  495TMC3    C5 7412   1.581   3.827  14.546 -0.9438  0.0243 -0.0705
  495TMC3    C6 7413   1.503   3.830  14.430 -0.6073 -0.6021  0.8677
  495TMC3     C 7414   1.802   3.555  14.470 -0.5774 -1.0967 -0.5150
  495TMC3     O 7415   1.819   3.526  14.588 -0.2651  0.1166  0.1507
  495TMC3     H 7416   1.702   3.632  14.233  2.3865  0.3980  1.4288
  495TMC3    H1 7417   1.752   3.746  14.642 -1.2958  0.9531  0.0323
  495TMC3    H2 7418   1.404   3.874  14.437 -1.1891 -1.6278 -1.1342
  495TMC3    C7 7419   1.530   3.871  14.675  0.6071 -0.0975 -0.1321
  495TMC3    C8 7420   1.439   3.695  14.230 -0.2081  0.3501  0.5538
  495TMC3    O1 7421   1.613   3.912  14.752 -0.3602  0.1662  0.1046
  495TMC3    O2 7422   1.341   3.762  14.211  0.0322 -0.2632 -0.0103
  496MPD2     C 7423   3.610   4.259  15.259 -0.1192  0.1790  0.3602
  496MPD2    C1 7424   3.607   4.131  15.194 -0.2205  0.5617  0.1713
  496MPD2    C2 7425   3.490   4.056  15.176  0.1755  0.2972  0.1920
  496MPD2    C3 7426   3.369   4.121  15.196  0.3852 -0.1902  0.2948
  496MPD2    C4 7427   3.368   4.242  15.263  0.0827  0.4152  0.5701
  496MPD2    C5 7428   3.487   4.301  15.300 -0.4214  0.2517  0.0467
  496MPD2     H 7429   3.494   3.964  15.119 -1.5393  0.2913  0.1089
  496MPD2    H1 7430   3.271   4.287  15.278  0.8440  1.4823  2.2840
  496MPD2    H2 7431   3.697   4.319  15.279 -2.1974  2.9052  1.2685
  496MPD2    H3 7432   3.489   4.402  15.339  2.1803  0.6197 -1.0459
  496MPD2     N 7433   3.244   4.064  15.159  0.4273 -0.2138  0.5669
  496MPD2    H5 7434   3.169   4.124  15.194 -1.0767 -1.7745  0.0101
  496MPD2    N1 7435   3.736   4.083  15.153  0.2039  0.6066  0.7606
  496MPD2    H7 7436   3.816   4.133  15.189 -0.2797  1.7991  0.1873
  497TMC3    C1 7437   3.078   3.922  15.056  0.3486 -0.0987  0.0466
  497TMC3    C2 7438   3.055   3.789  15.030  0.0177 -0.3655  0.3254
  497TMC3    C3 7439   2.936   3.730  15.068 -0.2167 -0.3214  0.4442
  497TMC3    C4 7440   2.988   3.986  15.137  0.1571 -0.2462 -0.2620
  497TMC3    C5 7441   2.880   3.923  15.189 -0.2805  0.6517 -0.0337
  497TMC3    C6 7442   2.843   3.797  15.138 -0.2199 -0.0781  0.8774
  497TMC3     C 7443   3.220   3.948  15.087  0.0657 -0.6593 -0.4106
  497TMC3     O 7444   3.302   3.873  15.045 -0.5707 -0.1177  0.1918
  497TMC3     H 7445   3.121   3.733  14.965  1.8879  0.5190  1.4603
  497TMC3    H1 7446   3.007   4.089  15.165 -0.6194 -0.8992  2.6925
  497TMC3    H2 7447   2.746   3.754  15.156  0.4128 -1.0535  1.9799
  497TMC3    C7 7448   2.875   3.916  15.334  0.3957  0.2111 -0.7270
  497TMC3    C8 7449   2.901   3.592  15.036  0.0372  0.2958  0.2474
  497TMC3    O1 7450   2.794   3.834  15.380 -0.3598 -0.4231  0.8868
  497TMC3    O2 7451   2.783   3.564  15.019  0.3033  0.0545 -0.4650
  498MPD2     C 7452   0.501   4.113   9.930  0.8340  0.7472  0.3012
  498MPD2    C1 7453   0.403   4.211   9.927  0.0090 -0.1555 -0.4415
  498MPD2    C2 7454   0.270   4.175   9.918 -0.4552 -0.1667 -0.3244
  498MPD2    C3 7455   0.233   4.044   9.924 -0.5169  0.5149  0.6461
  498MPD2    C4 7456   0.324   3.943   9.931  0.4190  0.3886 -0.6835
  498MPD2    C5 7457   0.460   3.981   9.934 -0.9054 -0.0713  0.4437
  498MPD2     H 7458   0.202   4.256   9.895  0.1328 -0.2649 -2.3928
  498MPD2    H1 7459   0.312   3.837   9.948  2.0380  0.3787  0.3424
  498MPD2    H2 7460   0.608   4.133   9.925  0.3195  3.3542 -0.2436
  498MPD2    H3 7461   0.521   3.894   9.954 -0.9209  0.0278  0.9210
  498MPD2     N 7462   0.093   4.021   9.940  0.2934  1.2837  0.4031
  498MPD2    H5 7463   0.029   4.098   9.958 -1.5842  0.0693 -1.2141
  498MPD2    N1 7464   0.428   4.349   9.923 -0.1360  0.2865  0.2787
  498MPD2    H7 7465   0.347   4.409   9.911 -0.0816  0.4494  0.7462
  499TMC3    C1 7466   0.564   4.548   9.924 -0.4270  0.5284  0.1595
  499TMC3    C2 7467   0.661   4.603  10.005 -0.1605 -0.1793 -0.6381
  499TMC3    C3 7468   0.649   0.002  10.018  0.0987 -0.0432 -0.2145
  499TMC3    C4 7469   0.458   4.612   9.866 -0.3591 -0.0826 -0.3015
  499TMC3    C5 7470   0.476   0.006   9.853 -0.5854  0.2895  0.6307
  499TMC3    C6 7471   0.565   0.072   9.932 -0.3099 -0.4753 -0.5619
  499TMC3     C 7472   0.553   4.402   9.938  0.3963 -0.4605  0.4141
  499TMC3     O 7473   0.652   4.346   9.978  0.1385  0.0902 -0.0651
  499TMC3     H 7474   0.732   4.548  10.066 -1.0880  0.2981  0.8721
  499TMC3    H1 7475   0.385   4.560   9.804 -1.0833 -1.0917  1.4088
  499TMC3    H2 7476   0.570   0.180   9.936  1.3874 -0.5568 -0.5162
  499TMC3    C7 7477   0.378   0.091   9.780 -0.0165  0.9952 -0.8940
  499TMC3    C8 7478   0.730   0.081  10.107  0.5003 -0.7751 -0.2665
  499TMC3    O1 7479   0.412   0.208   9.761  0.7274  0.0980  0.0936
  499TMC3    O2 7480   0.728   0.204  10.102 -0.4663  0.4010  0.4436
  500MPD2     C 7481   1.136   0.538  10.723 -0.1646 -0.3470 -0.3769
  500MPD2    C1 7482   1.179   0.594  10.612  0.5251  0.1261 -0.2192
  500MPD2    C2 7483   1.095   0.646  10.518 -0.2982 -0.3904 -0.3705
  500MPD2    C3 7484   0.955   0.635  10.531  0.4522 -0.3861  0.2333
  500MPD2    C4 7485   0.909   0.572  10.645  0.4813  0.8637 -0.0435
  500MPD2    C5 7486   0.997   0.528  10.743 -0.5817 -0.4828  0.3324
  500MPD2     H 7487   1.139   0.692  10.431 -1.3066  3.1072  0.9723
  500MPD2    H1 7488   0.806   0.552  10.672  0.0807  1.4740 -1.1466
  500MPD2    H2 7489   1.199   0.513  10.808 -0.4309 -0.0283 -0.0840
  500MPD2    H3 7490   0.950   0.474  10.824  0.9665 -2.8273 -0.3015
  500MPD2     N 7491   0.867   0.676  10.430 -0.4381  0.5441  0.4562
  500MPD2    H5 7492   0.769   0.652  10.436 -0.8100  1.4922 -1.7045
  500MPD2    N1 7493   1.314   0.615  10.600 -0.5656  0.2773 -0.2906
  500MPD2    H7 7494   1.337   0.660  10.513  1.2480  0.3567  0.2270
  501TMC3    C1 7495   1.535   0.626  10.667 -0.3745  0.1113 -0.4681
  501TMC3    C2 7496   1.541   0.758  10.618 -0.2997 -0.0472 -0.1819
  501TMC3    C3 7497   1.673   0.804  10.609  0.9611  0.0897  0.3586
  501TMC3    C4 7498   1.649   0.550  10.699  0.2350 -0.2975 -0.2695
  501TMC3    C5 7499   1.774   0.601  10.688  0.3371 -0.1177 -0.1273
  501TMC3    C6 7500   1.784   0.729  10.636 -0.3312 -0.0158  0.2140
  501TMC3     C 7501   1.410   0.560  10.684  0.0326  0.0537  0.0017
  501TMC3     O 7502   1.402   0.467  10.765  0.0422  0.0323 -0.4519
  501TMC3     H 7503   1.454   0.815  10.587  0.0476  1.9116  2.4110
  501TMC3    H1 7504   1.630   0.446  10.721 -1.0836 -0.5039 -2.3851
  501TMC3    H2 7505   1.882   0.770  10.614 -0.2205 -0.7586 -0.6697
  501TMC3    C7 7506   1.889   0.511  10.676  0.5196  0.4378 -0.0851
  501TMC3    C8 7507   1.697   0.917  10.525 -0.5184 -0.2125 -0.2747
  501TMC3    O1 7508   1.859   0.400  10.633 -0.2974 -0.1057 -0.3168
  501TMC3    O2 7509   1.796   0.986  10.549 -0.3045 -0.0355  0.2027
  502TMC3    C1 7510   1.093   4.229  14.382  0.0626  0.5429  0.0949
  502TMC3    C2 7511   1.098   4.351  14.316  0.4856 -0.1451  0.4624
  502TMC3    C3 7512   1.004   4.443  14.349 -0.1882 -1.3383  0.6995
  502TMC3    C4 7513   0.996   4.188  14.462  0.4947  0.3435 -0.2434
  502TMC3    C5 7514   0.898   4.286  14.493  0.9988  0.2304 -0.0856
  502TMC3    C6 7515   0.909   4.416  14.443 -0.5493  1.1026  0.1830
  502TMC3     C 7516   1.221   4.208  14.440  0.0498  0.4409 -0.1189
  502TMC3     O 7517   1.318   4.231  14.370  0.6873  0.4088  0.4807
  502TMC3     H 7518   1.178   4.378  14.248  1.6948 -3.2783  0.6427
  502TMC3    H1 7519   1.005   4.092  14.510 -0.3892  0.8854  0.9978
  502TMC3    H2 7520   0.847   4.493  14.489  0.1622  0.9009  1.4738
  502TMC3    C7 7521   0.842   4.285  14.627 -0.2914 -0.2544  0.3420
  502TMC3    C8 7522   1.061   4.574  14.365  0.1965 -0.1860 -0.2576
  502TMC3    O1 7523   0.932   4.244  14.701 -0.9697 -0.6207  0.0078
  502TMC3    O2 7524   0.985   4.668  14.346  0.2268 -0.5156 -0.2298
  503MPD2     C 7525   3.211   0.855  16.906  0.3412  0.1008  0.3741
  503MPD2    C1 7526   3.212   0.882  17.040 -0.6019 -0.5889 -0.3493
  503MPD2    C2 7527   3.285   0.803  17.121  0.1346 -0.0060 -0.7401
  503MPD2    C3 7528   3.371   0.712  17.057 -0.1510  0.7674 -0.2942
  503MPD2    C4 7529   3.358   0.681  16.928 -0.0135 -0.0742  0.1588
  503MPD2    C5 7530   3.278   0.753  16.846  0.4381  0.3362 -0.7668
  503MPD2     H 7531   3.285   0.831  17.226  0.3346  5.4569 -2.2151
  503MPD2    H1 7532   3.417   0.601  16.884 -1.3066 -1.4566  0.9322
  503MPD2    H2 7533   3.152   0.910  16.833  0.1488  0.7181  0.9927
  503MPD2    H3 7534   3.270   0.737  16.739 -0.6961  0.4437 -0.6998
  503MPD2     N 7535   3.453   0.639  17.142 -0.0471 -0.0591  0.1609
  503MPD2    H5 7536   3.426   0.655  17.239 -0.2008 -3.0601  0.5944
  503MPD2    N1 7537   3.136   0.989  17.101 -0.1630  0.0612 -0.1500
  503MPD2    H7 7538   3.140   0.996  17.202  3.5486  1.8523 -0.4196
  504TMC3    C1 7539   3.602   0.482  17.217  0.5593  0.1520  0.4967
  504TMC3    C2 7540   3.519   0.413  17.303 -0.1759 -0.4997 -0.2864
  504TMC3    C3 7541   3.560   0.288  17.346  0.1728 -0.3588 -0.0382
  504TMC3    C4 7542   3.732   0.431  17.191 -0.2756 -0.0142 -0.4651
  504TMC3    C5 7543   3.773   0.314  17.248  0.2909  0.4723 -0.7398
  504TMC3    C6 7544   3.682   0.237  17.323 -0.1655 -0.6484 -0.1905
  504TMC3     C 7545   3.546   0.547  17.105  0.2085  0.2795 -0.2623
  504TMC3     O 7546   3.589   0.518  16.994  0.2679  0.7283  0.5445
  504TMC3     H 7547   3.415   0.446  17.306 -0.6131 -1.8121 -0.7931
  504TMC3    H1 7548   3.795   0.483  17.119  2.4030  0.5772  2.3071
  504TMC3    H2 7549   3.710   0.146  17.375 -0.3121  0.3620  1.6355
  504TMC3    C7 7550   3.915   0.279  17.220  0.2495  0.7019 -0.1771
  504TMC3    C8 7551   3.474   0.208  17.431 -1.0879 -0.2459 -0.7842
  504TMC3    O1 7552   3.970   0.344  17.134 -0.0387 -0.5634 -0.3165
  504TMC3    O2 7553   3.484   0.085  17.431 -0.6183  0.7910 -0.5651
  505MPD2     C 7554   3.626   3.751   9.648  0.6228 -0.5126 -0.0261
  505MPD2    C1 7555   3.563   3.737   9.772  0.7470 -0.0174  0.6640
  505MPD2    C2 7556   3.511   3.853   9.828 -0.2112 -0.3776 -0.6089
  505MPD2    C3 7557   3.530   3.983   9.771 -0.2555  0.4271  0.0988
  505MPD2    C4 7558   3.591   3.991   9.641  0.0609 -0.3579 -0.0600
  505MPD2    C5 7559   3.637   3.876   9.591  0.7147  0.1729 -0.1034
  505MPD2     H 7560   3.460   3.845   9.923 -1.1770 -0.6684 -1.1417
  505MPD2    H1 7561   3.613   4.086   9.594  1.2932 -0.4628  0.3060
  505MPD2    H2 7562   3.666   3.665   9.594 -1.3087 -0.9121 -0.8125
  505MPD2    H3 7563   3.701   3.881   9.503  0.4615 -0.6641 -0.3340
  505MPD2     N 7564   3.482   4.094   9.846 -0.2496 -0.1060 -0.1807
  505MPD2    H5 7565   3.427   4.073   9.929  2.0245  1.0840  1.6228
  505MPD2    N1 7566   3.548   3.615   9.834 -0.2856 -0.0345 -0.1164
  505MPD2    H7 7567   3.616   3.542   9.816  0.8209  0.7064  1.0857
  506TMC3    C1 7568   3.489   3.456   9.988 -0.3155 -0.2333 -0.3832
  506TMC3    C2 7569   3.621   3.436  10.028 -0.7965 -0.0082 -0.0673
  506TMC3    C3 7570   3.633   3.368  10.145 -0.4770 -0.1883 -0.0171
  506TMC3    C4 7571   3.381   3.416  10.052  0.6598  0.6968  0.0739
  506TMC3    C5 7572   3.399   3.359  10.178 -0.4016  0.0083 -0.1293
  506TMC3    C6 7573   3.528   3.326  10.223  0.7365  0.4812 -0.1263
  506TMC3     C 7574   3.460   3.584   9.930 -0.7243 -0.6699 -0.4863
  506TMC3     O 7575   3.353   3.639   9.962  0.8302 -0.5333  0.1195
  506TMC3     H 7576   3.706   3.449   9.962 -1.2630  2.2778 -0.1876
  506TMC3    H1 7577   3.280   3.432  10.016  1.1058  0.0361 -1.4877
  506TMC3    H2 7578   3.538   3.271  10.315  1.7912  2.1749  0.7752
  506TMC3    C7 7579   3.327   3.434  10.283  0.5727 -0.0745  0.3712
  506TMC3    C8 7580   3.762   3.340  10.192 -0.4179 -0.2411  0.3987
  506TMC3    O1 7581   3.331   3.378  10.391 -0.7117 -0.7126  0.1929
  506TMC3    O2 7582   3.770   3.258  10.283 -0.1683  0.4896 -0.0571
  507TMC3    C1 7583   4.456   0.159  15.493  0.0536  0.3177 -0.0867
  507TMC3    C2 7584   4.346   0.141  15.409 -0.4205 -0.1044 -0.1727
  507TMC3    C3 7585   4.362   0.186  15.284  0.3693 -0.3443 -0.2265
  507TMC3    C4 7586   4.562   0.238  15.461 -0.0574  0.2759  0.0520
  507TMC3    C5 7587   4.582   0.280  15.332  0.2660  0.1306 -0.0263
  507TMC3    C6 7588   4.485   0.242  15.242 -0.8036  0.7901  0.0255
  507TMC3     C 7589   4.464   0.084  15.617  0.3420  0.3530 -0.0726
  507TMC3     O 7590   4.556   0.114  15.694  1.0289  0.4929  0.1394
  507TMC3     H 7591   4.261   0.089  15.453  0.5174 -0.0016  1.7402
  507TMC3    H1 7592   4.637   0.268  15.533 -0.4631 -4.1478  2.3061
  507TMC3    H2 7593   4.502   0.275  15.140 -3.4009  2.2805  0.0890
  507TMC3    C7 7594   4.611   0.419  15.317 -0.2633 -0.1759 -0.2603
  507TMC3    C8 7595   4.255   0.246  15.214  0.6046 -0.1778  0.3493
  507TMC3    O1 7596   4.721   0.459  15.357  0.8804 -0.0666 -0.1191
  507TMC3    O2 7597   4.287   0.329  15.133  0.3024  0.0619 -0.2749
  508MPD2     C 7598   1.130   2.215  15.651  0.0991 -0.1777  0.2394
  508MPD2    C1 7599   1.049   2.293  15.726 -0.4009  0.9657 -0.8935
  508MPD2    C2 7600   0.963   2.382  15.672 -0.5551  0.2149 -0.5336
  508MPD2    C3 7601   0.973   2.401  15.531 -0.7115  0.4228 -0.1630
  508MPD2    C4 7602   1.052   2.320  15.455  0.7667  0.2625 -0.1319
  508MPD2    C5 7603   1.134   2.224  15.514 -0.4041 -0.3513 -0.0729
  508MPD2     H 7604   0.910   2.455  15.733 -0.3880  2.5128 -3.1137
  508MPD2    H1 7605   1.067   2.322  15.347  0.5369 -1.0112 -0.1894
  508MPD2    H2 7606   1.190   2.142  15.704  0.3022 -1.0467 -1.1884
  508MPD2    H3 7607   1.198   2.161  15.453 -0.8079  0.1246 -1.0009
  508MPD2     N 7608   0.916   2.519  15.478  0.7659  0.1412 -0.2333
  508MPD2    H5 7609   0.875   2.574  15.552  0.0503 -0.5599 -0.1068
  508MPD2    N1 7610   1.049   2.260  15.861  0.4795 -0.0960  0.3620
  508MPD2    H7 7611   1.134   2.222  15.901  1.7222  0.9064 -1.3670
  509TMC3    C1 7612   0.692   2.837  15.230 -0.0977 -1.1336 -0.1043
  509TMC3    C2 7613   0.709   2.938  15.324  0.0015  0.4650  0.5149
  509TMC3    C3 7614   0.783   2.898  15.435 -0.7318  0.0140 -0.1062
  509TMC3    C4 7615   0.757   2.712  15.242 -0.0251 -0.3021 -0.1134
  509TMC3    C5 7616   0.831   2.683  15.351  0.2749 -0.0995  0.7941
  509TMC3    C6 7617   0.846   2.772  15.451  0.5655 -0.1765 -0.4359
  509TMC3     C 7618   0.623   2.851  15.098  0.2125 -0.2385 -0.1185
  509TMC3     O 7619   0.645   2.774  15.007  0.3288  1.1601 -0.2859
  509TMC3     H 7620   0.644   3.025  15.320 -2.3009 -1.3440 -1.0928
  509TMC3    H1 7621   0.733   2.639  15.166 -2.0084 -3.3563  3.4520
  509TMC3    H2 7622   0.903   2.748  15.539 -0.8807 -1.3574  0.1854
  509TMC3    C7 7623   0.909   2.563  15.350 -0.2006 -0.1211  0.0711
  509TMC3    C8 7624   0.796   2.994  15.540 -0.3783 -0.2554  0.3253
  509TMC3    O1 7625   0.935   2.504  15.245  0.0189 -0.1717 -0.3976
  509TMC3    O2 7626   0.777   2.947  15.651 -0.0304  0.1065 -0.4139
  510MPD2     C 7627   3.104   4.142  14.395  0.3148 -0.5896 -0.6339
  510MPD2    C1 7628   3.140   4.024  14.456 -0.3096 -0.4765  0.8790
  510MPD2    C2 7629   3.266   3.966  14.432  0.2971  0.1161  0.3374
  510MPD2    C3 7630   3.354   4.025  14.353 -0.1533 -0.7614  0.6713
  510MPD2    C4 7631   3.323   4.152  14.300  0.6441 -0.3988  0.6571
  510MPD2    C5 7632   3.196   4.203  14.320  0.3802 -0.0197 -0.9186
  510MPD2     H 7633   3.295   3.878  14.489  1.1178 -0.3712 -0.8350
  510MPD2    H1 7634   3.394   4.205  14.238  1.3241 -0.1787  1.6454
  510MPD2    H2 7635   3.007   4.189  14.411 -0.6678 -2.3156 -1.4947
  510MPD2    H3 7636   3.163   4.295  14.274  0.6426 -0.1497 -1.3738
  510MPD2     N 7637   3.474   3.954  14.317 -0.1266  0.5973 -0.1795
  510MPD2    H5 7638   3.507   3.873  14.369  1.3906 -0.7074 -3.1890
  510MPD2    N1 7639   3.056   3.958  14.545  0.3021 -0.4461  0.1824
  510MPD2    H7 7640   3.080   3.865  14.577 -0.1916 -0.6627 -0.0833
  511TMC3    C1 7641   2.880   3.918  14.683  0.0963  0.1131 -0.0922
  511TMC3    C2 7642   2.812   3.975  14.787  0.3079  0.3567  0.2591
  511TMC3    C3 7643   2.707   3.906  14.828  0.3476  0.6223  0.2996
  511TMC3    C4 7644   2.856   3.795  14.633  0.1104 -0.0829  0.3078
  511TMC3    C5 7645   2.745   3.726  14.685 -0.8165 -0.1852 -0.5438
  511TMC3    C6 7646   2.668   3.786  14.779 -0.0425 -0.1394  0.9494
  511TMC3     C 7647   2.950   4.015  14.601 -0.0113 -0.1499  0.1112
  511TMC3     O 7648   2.919   4.130  14.626 -0.1325 -0.2802  0.3125
  511TMC3     H 7649   2.843   4.072  14.823 -0.9361  0.9625 -0.3029
  511TMC3    H1 7650   2.912   3.750  14.551 -2.3103  0.4161 -1.6342
  511TMC3    H2 7651   2.574   3.739  14.803 -0.0495  0.1934  1.5987
  511TMC3    C7 7652   2.702   3.607  14.614 -0.0669 -0.2463 -0.2043
  511TMC3    C8 7653   2.639   3.962  14.940  0.5796  0.3208 -0.0924
  511TMC3    O1 7654   2.732   3.604  14.495  0.0885 -0.1410  0.6115
  511TMC3    O2 7655   2.651   4.080  14.966 -0.0157  0.5109 -0.4944
  512TMC3    C1 7656   1.414   3.028  13.259 -0.5215 -0.4897 -0.1014
  512TMC3    C2 7657   1.427   2.954  13.373  0.0633 -1.0081 -0.4841
  512TMC3    C3 7658   1.453   2.818  13.357 -0.0608 -0.5938  0.7021
  512TMC3    C4 7659   1.428   2.976  13.134  0.2243 -0.4006 -0.3439
  512TMC3    C5 7660   1.443   2.840  13.128 -0.5581 -0.3598 -0.7479
  512TMC3    C6 7661   1.448   2.756  13.234  0.1172 -0.2460 -0.0402
  512TMC3     C 7662   1.400   3.166  13.274 -0.4637  0.3807  0.5292
  512TMC3     O 7663   1.342   3.201  13.375 -0.8584  0.3767 -0.1461
  512TMC3     H 7664   1.420   2.997  13.473 -1.4115 -2.4078  0.0094
  512TMC3    H1 7665   1.406   3.035  13.046 -0.4751  0.2118  0.2414
  512TMC3    H2 7666   1.450   2.648  13.230 -3.5723 -0.3293  0.2657
  512TMC3    C7 7667   1.453   2.782  12.994 -0.4483 -0.0626  0.1203
  512TMC3    C8 7668   1.560   2.772  13.441  0.0019 -0.2443  0.2658
  512TMC3    O1 7669   1.427   2.855  12.899 -0.3704 -0.2651  0.3110
  512TMC3    O2 7670   1.586   2.651  13.466  0.3402 -0.3908 -0.3060
  513MPD2     C 7671   3.681   2.957  13.260 -0.2298  0.4336  0.3290
  513MPD2    C1 7672   3.692   2.887  13.147 -0.4873 -0.2227  0.1949
  513MPD2    C2 7673   3.800   2.910  13.065  0.7021 -0.1501  0.3079
  513MPD2    C3 7674   3.901   2.997  13.110 -0.2120 -0.0518  0.7174
  513MPD2    C4 7675   3.892   3.064  13.227  0.4194 -0.4893  0.4144
  513MPD2    C5 7676   3.780   3.045  13.298 -0.3340 -0.4113 -0.1764
  513MPD2     H 7677   3.814   2.860  12.970  2.3791 -0.9928  1.0047
  513MPD2    H1 7678   3.955   3.148  13.254 -1.5758  1.4229 -0.9364
  513MPD2    H2 7679   3.599   2.945  13.330 -0.6450  1.4461  0.0199
  513MPD2    H3 7680   3.769   3.100  13.391  2.2386  2.5949 -1.6336
  513MPD2     N 7681   4.006   3.017  13.020 -0.4548  0.0158  0.6437
  513MPD2    H5 7682   3.997   2.969  12.931  1.1908 -0.1424  0.5633
  513MPD2    N1 7683   3.593   2.797  13.092  0.6665 -0.2188 -0.0629
  513MPD2    H7 7684   3.620   2.758  13.003  6.9264  0.6463  1.5061
  514TMC3    C1 7685   3.438   2.632  13.094  0.9815 -0.3607 -0.4627
  514TMC3    C2 7686   3.321   2.609  13.023  0.2372  0.5190 -0.0515
  514TMC3    C3 7687   3.309   2.501  12.945  0.1901  0.5072 -0.3635
  514TMC3    C4 7688   3.543   2.543  13.080 -0.0103  0.0939  0.0149
  514TMC3    C5 7689   3.522   2.428  13.005 -0.1911 -0.2122  0.0615
  514TMC3    C6 7690   3.410   2.409  12.929  0.3515  0.0452 -0.0864
  514TMC3     C 7691   3.476   2.751  13.154  0.0909 -0.1179 -0.2093
  514TMC3     O 7692   3.431   2.771  13.267  0.1008 -0.1842  0.1676
  514TMC3     H 7693   3.248   2.689  13.019 -0.4996 -0.0715  1.3545
  514TMC3    H1 7694   3.629   2.545  13.146 -1.1880 -0.1174  1.5640
  514TMC3    H2 7695   3.415   2.324  12.863  0.5835  2.1060 -2.7049
  514TMC3    C7 7696   3.643   2.359  12.968 -0.6846  0.3969  0.4871
  514TMC3    C8 7697   3.218   2.508  12.832  0.5054 -0.7076 -0.7586
  514TMC3    O1 7698   3.640   2.237  12.957 -0.0369  0.4925 -0.1383
  514TMC3    O2 7699   3.122   2.581  12.839  0.1081 -0.1399 -0.3456
  515MPD2     C 7700   2.079   0.717  14.151  0.0814  0.5748  0.5184
  515MPD2    C1 7701   2.028   0.658  14.265 -0.0687  0.5426 -0.1476
  515MPD2    C2 7702   2.094   0.680  14.385  0.0803 -0.0657 -0.0315
  515MPD2    C3 7703   2.190   0.782  14.397  0.1056  0.4359 -0.3363
  515MPD2    C4 7704   2.236   0.844  14.284  0.3799  0.2077 -0.1578
  515MPD2    C5 7705   2.181   0.813  14.163 -0.5750 -0.0384  0.3107
  515MPD2     H 7706   2.055   0.624  14.469 -3.0427  1.5611 -0.4013
  515MPD2    H1 7707   2.316   0.918  14.286 -1.4053  2.2168 -3.5216
  515MPD2    H2 7708   2.047   0.690  14.050 -1.6715  2.1696  0.6519
  515MPD2    H3 7709   2.219   0.847  14.068  0.8395 -2.8410 -0.1052
  515MPD2     N 7710   2.258   0.811  14.517  0.0714 -0.3289 -0.0066
  515MPD2    H5 7711   2.346   0.860  14.505  1.0415 -1.8320  0.9844
  515MPD2    N1 7712   1.924   0.561  14.261 -0.0592 -0.0629  0.2990
  515MPD2    H7 7713   1.893   0.528  14.352 -1.1284  0.4064  0.1053
  516TMC3    C1 7714   1.741   0.434  14.189  0.3660 -0.5057 -0.5611
  516TMC3    C2 7715   1.621   0.478  14.136  0.2355 -0.5156  0.7408
  516TMC3    C3 7716   1.516   0.393  14.150  0.3143  0.3743  0.4516
  516TMC3    C4 7717   1.767   0.308  14.231 -1.0059 -0.4006  0.3350
  516TMC3    C5 7718   1.657   0.227  14.239  0.1285 -0.3401 -0.4266
  516TMC3    C6 7719   1.530   0.272  14.208 -0.0943  0.0991  0.1711
  516TMC3     C 7720   1.853   0.505  14.155 -0.8369 -0.3631  0.4097
  516TMC3     O 7721   1.872   0.528  14.038 -0.1353  0.3785 -0.3644
  516TMC3     H 7722   1.634   0.572  14.085  1.6512  1.3274  4.4506
  516TMC3    H1 7723   1.866   0.268  14.251 -1.2514  0.2752  2.8506
  516TMC3    H2 7724   1.446   0.205  14.219  1.2256 -2.2562 -4.2666
  516TMC3    C7 7725   1.690   0.089  14.253 -0.0042  0.5021  0.3460
  516TMC3    C8 7726   1.384   0.446  14.122 -0.3980  0.7436 -0.2010
  516TMC3    O1 7727   1.793   0.065  14.311  0.1719  0.0428 -0.5964
  516TMC3    O2 7728   1.296   0.361  14.114  0.3905 -0.2759  0.1830
  517MPD2     C 7729   1.405   2.127  17.508  0.2722 -0.0103  0.2331
  517MPD2    C1 7730   1.537   2.100  17.525 -0.1895  0.6796 -0.6634
  517MPD2    C2 7731   1.613   2.174  17.607  0.5733 -0.1491 -0.6703
  517MPD2    C3 7732   1.551   2.286  17.679  0.3671  0.4806 -0.2058
  517MPD2    C4 7733   1.417   2.307  17.655 -1.0511  0.0439 -0.8919
  517MPD2    C5 7734   1.348   2.231  17.571  0.0419 -0.5756 -0.1163
  517MPD2     H 7735   1.721   2.173  17.623  0.2638 -2.1160  1.3138
  517MPD2    H1 7736   1.363   2.384  17.708 -1.0797 -0.7793  0.2825
  517MPD2    H2 7737   1.343   2.073  17.437  1.0028 -0.1560 -0.2944
  517MPD2    H3 7738   1.242   2.254  17.570 -0.2148 -1.7788 -0.0620
  517MPD2     N 7739   1.617   2.381   0.013 -0.1214  0.1197  0.4762
  517MPD2    H5 7740   1.561   2.461   0.039  0.1922  0.5369 -0.1221
  517MPD2    N1 7741   1.603   1.991  17.457  0.7704 -0.0899 -0.0683
  517MPD2    H7 7742   1.704   1.991  17.461  0.7965  1.4112 -0.4673
  518TMC3    C1 7743   1.618   1.804  17.315  0.0375 -0.2029 -0.0658
  518TMC3    C2 7744   1.562   1.681  17.281 -0.0491  0.7684 -0.0080
  518TMC3    C3 7745   1.633   1.605  17.196  0.1324 -0.4593 -0.3498
  518TMC3    C4 7746   1.742   1.841  17.268 -0.7529  0.0763 -0.7516
  518TMC3    C5 7747   1.814   1.757  17.190  0.0395  0.2711 -0.0379
  518TMC3    C6 7748   1.753   1.641  17.147  0.3212  0.3091 -0.2862
  518TMC3     C 7749   1.531   1.901  17.381  0.0193  0.3084  0.0689
  518TMC3     O 7750   1.413   1.871  17.387 -0.1928 -0.1615 -0.8386
  518TMC3     H 7751   1.459   1.653  17.299  0.3210 -0.7404 -0.2189
  518TMC3    H1 7752   1.787   1.935  17.296  0.8420 -0.8763 -0.1160
  518TMC3    H2 7753   1.811   1.559  17.106 -1.9464 -1.9228  1.0108
  518TMC3    C7 7754   1.957   1.776  17.171  1.1598 -0.3013 -0.1211
  518TMC3    C8 7755   1.601   1.464  17.187 -0.4462  0.0569 -0.4078
  518TMC3    O1 7756   2.009   1.869  17.228  0.3519  0.2746  0.2827
  518TMC3    O2 7757   1.624   1.414  17.079 -0.6729  0.4990  0.9639
  519MPD2     C 7758   3.317   0.420  13.483  0.3008 -0.5110  0.4812
  519MPD2    C1 7759   3.297   0.342  13.370  0.1823  0.2030  0.8659
  519MPD2    C2 7760   3.364   0.216  13.363 -0.3564 -0.3334 -0.8216
  519MPD2    C3 7761   3.445   0.166  13.464  0.1736 -0.0658 -0.6556
  519MPD2    C4 7762   3.451   0.236  13.582  0.3637  0.3465 -0.0773
  519MPD2    C5 7763   3.390   0.367  13.590  0.2282 -0.0774 -0.7931
  519MPD2     H 7764   3.353   0.159  13.271  1.4777 -0.7860 -0.7552
  519MPD2    H1 7765   3.503   0.199  13.669 -0.2242  0.3015  0.2562
  519MPD2    H2 7766   3.266   0.514  13.500  3.9250  1.8209 -1.6303
  519MPD2    H3 7767   3.406   0.421  13.683 -0.0200 -2.4917  0.6751
  519MPD2     N 7768   3.499   0.040  13.445 -0.2696 -0.2869  0.2316
  519MPD2    H5 7769   3.478   4.735  13.356  0.2565 -1.4355  0.6605
  519MPD2    N1 7770   3.209   0.391  13.269  0.7463 -0.1107 -0.5739
  519MPD2    H7 7771   3.172   0.484  13.282  1.3622  0.2334 -1.2630
  520TMC3    C1 7772   3.606   4.577  13.485  0.5128  0.4068 -0.2657
  520TMC3    C2 7773   3.520   4.513  13.399  0.0641 -0.1562 -0.5504
  520TMC3    C3 7774   3.544   4.383  13.361  0.2944 -0.1585 -0.4441
  520TMC3    C4 7775   3.730   4.513  13.521  1.1936  0.1354 -0.0837
  520TMC3    C5 7776   3.752   4.388  13.478 -0.0838  0.9351  0.3168
  520TMC3    C6 7777   3.659   4.323  13.406  0.0927  0.4742  0.5942
  520TMC3     C 7778   3.580   4.716  13.535  0.6439 -0.1379 -0.5085
  520TMC3     O 7779   3.644   0.016  13.635 -0.0211 -0.0734  0.0684
  520TMC3     H 7780   3.419   4.550  13.380  0.6249  0.8834 -1.5152
  520TMC3    H1 7781   3.801   4.566  13.583  0.7135  1.0184 -0.2882
  520TMC3    H2 7782   3.678   4.223  13.370 -2.4403  1.1403 -2.6929
  520TMC3    C7 7783   3.844   4.307  13.549 -0.4208 -0.2354 -0.3770
  520TMC3    C8 7784   3.444   4.291  13.313 -0.7077  0.6289  1.0450
  520TMC3    O1 7785   3.889   4.354  13.650  0.2567 -0.5138  0.1069
  520TMC3    O2 7786   3.483   4.186  13.268  0.2763  0.9313  0.1595
  521MPD2     C 7787   4.150   2.687  16.994 -0.1320  0.4138 -0.2760
  521MPD2    C1 7788   4.205   2.778  16.904 -0.3119  0.4075  0.3390
  521MPD2    C2 7789   4.327   2.749  16.844  0.1853  0.9151  0.0740
  521MPD2    C3 7790   4.402   2.650  16.899 -0.2417  0.4295  1.0427
  521MPD2    C4 7791   4.352   2.563  16.995  0.2586  0.1179 -0.6352
  521MPD2    C5 7792   4.223   2.580  17.028  0.1711 -0.6748  0.0735
  521MPD2     H 7793   4.362   2.813  16.764  2.5961  0.5376  0.8477
  521MPD2    H1 7794   4.410   2.476  17.024  1.7113  0.9589 -1.0255
  521MPD2    H2 7795   4.060   2.707  17.050  0.0642 -0.1233  0.2290
  521MPD2    H3 7796   4.175   2.516  17.101  0.9295  0.1808  1.3210
  521MPD2     N 7797   4.535   2.643  16.853  0.0564 -0.0840 -0.6024
  521MPD2    H5 7798   4.553   2.704  16.774 -0.7333 -1.3474 -1.7585
  521MPD2    N1 7799   4.128   2.892  16.866 -0.2306 -0.0978  0.1937
  521MPD2    H7 7800   4.037   2.910  16.907  1.2136  1.8744  2.5246
  522TMC3    C1 7801   0.015   2.565  16.809 -0.3016 -0.4594  0.1119
  522TMC3    C2 7802   0.123   2.498  16.858  0.9313  0.3881  0.2042
  522TMC3    C3 7803   0.245   2.497  16.794 -0.0245  0.5384  0.2426
  522TMC3    C4 7804   0.028   2.647  16.702 -0.4038 -0.5178  0.3827
  522TMC3    C5 7805   0.153   2.647  16.643  0.1940  0.5295  0.0129
  522TMC3    C6 7806   0.263   2.575  16.683  0.4041 -0.3578  0.1633
  522TMC3     C 7807   4.630   2.554  16.891 -0.0160 -0.8800  0.8658
  522TMC3     O 7808   4.634   2.466  16.976  0.2162  0.4002  0.3952
  522TMC3     H 7809   0.108   2.417  16.929  1.2612  0.6860  0.6111
  522TMC3    H1 7810   4.683   2.698  16.654  1.3946  0.1588 -2.0017
  522TMC3    H2 7811   0.361   2.608  16.650 -0.6567 -0.5929 -3.2543
  522TMC3    C7 7812   0.177   2.719  16.513  0.6278 -0.5196  0.0498
  522TMC3    C8 7813   0.347   2.413  16.855  0.9041 -0.5496  0.6436
  522TMC3    O1 7814   0.264   2.675  16.439  0.4001 -0.5058  0.2375
  522TMC3    O2 7815   0.329   2.347  16.955 -0.6543 -0.6688 -0.0695
  523MPD2     C 7816   2.045   2.803  10.114  0.0062  0.0757  0.1887
  523MPD2    C1 7817   1.945   2.716  10.069  1.0791  0.1756  0.5485
  523MPD2    C2 7818   1.836   2.766  10.004 -0.5493 -0.3635  0.1556
  523MPD2    C3 7819   1.826   2.909   9.992 -0.5244  0.7478  0.4606
  523MPD2    C4 7820   1.923   2.989  10.041 -0.7282  0.0289 -0.2489
  523MPD2    C5 7821   2.030   2.937  10.108  0.1998 -0.2039 -0.0499
  523MPD2     H 7822   1.750   2.704   9.981  0.2782 -0.8348 -1.6485
  523MPD2    H1 7823   1.920   3.096  10.024  1.5161  0.3512  1.3271
  523MPD2    H2 7824   2.135   2.766  10.163 -0.2800 -1.1140 -0.1745
  523MPD2    H3 7825   2.112   2.994  10.150  0.5871 -1.1111  0.4311
  523MPD2     N 7826   1.718   2.977   9.945  0.0680 -0.4077 -0.4675
  523MPD2    H5 7827   1.731   3.077   9.953  0.9425 -0.4326 -1.5511
  523MPD2    N1 7828   1.958   2.581  10.084  0.2857  0.6041  0.3597
  523MPD2    H7 7829   2.045   2.555  10.130  0.1738  1.3801  1.0150
  524TMC3    C1 7830   1.522   3.029   9.830 -0.2533  0.7650  0.4484
  524TMC3    C2 7831   1.435   2.986   9.732  0.0800 -0.5028  0.0767
  524TMC3    C3 7832   1.359   3.079   9.667  0.6444  0.2547  0.3340
  524TMC3    C4 7833   1.531   3.161   9.863  0.0814  0.1706 -0.3070
  524TMC3    C5 7834   1.452   3.250   9.799 -0.0906  0.2355  0.3548
  524TMC3    C6 7835   1.368   3.217   9.693 -0.4227  0.2241 -0.1693
  524TMC3     C 7836   1.603   2.924   9.891  0.7081 -0.5924  0.1852
  524TMC3     O 7837   1.568   2.813   9.872  0.3506 -0.5174 -0.1222
  524TMC3     H 7838   1.408   2.881   9.731 -0.7996 -0.2695 -0.1892
  524TMC3    H1 7839   1.606   3.189   9.936  0.7298  0.5062 -1.1090
  524TMC3    H2 7840   1.317   3.292   9.635 -1.8261 -0.7513 -0.1928
  524TMC3    C7 7841   1.451   3.380   9.867  0.3706 -0.5820  0.1183
  524TMC3    C8 7842   1.256   3.039   9.582 -0.1626  1.0367 -0.7910
  524TMC3    O1 7843   1.544   3.411   9.938  0.6651 -0.8710  0.7397
  524TMC3    O2 7844   1.168   3.123   9.560 -0.5728 -0.2412 -0.3811
  525MPD2     C 7845   4.643   4.300  14.173 -0.6092  0.0711 -0.1244
  525MPD2    C1 7846   0.008   4.327  14.256 -0.0751  0.0545 -0.2841
  525MPD2    C2 7847   0.078   4.443  14.227  0.5385 -0.8602 -0.2329
  525MPD2    C3 7848   0.032   4.536  14.139 -0.4865  0.3063  0.4778
  525MPD2    C4 7849   4.661   4.509  14.067 -1.0096 -0.1752 -0.1784
  525MPD2    C5 7850   4.611   4.381  14.072 -0.6014 -0.0664  0.6663
  525MPD2     H 7851   0.171   4.455  14.281  0.6548  0.4288 -0.7199
  525MPD2    H1 7852   4.619   4.579  13.995 -1.4805 -0.3830 -0.1048
  525MPD2    H2 7853   4.591   4.205  14.178 -1.0370  0.0266 -4.7261
  525MPD2    H3 7854   4.538   4.343  14.000 -0.5412 -2.7790  2.0626
  525MPD2     N 7855   0.092   4.657  14.123  0.1881  0.1505  0.0956
  525MPD2    H5 7856   0.047   4.720  14.057  1.6714  0.8660 -0.2458
  525MPD2    N1 7857   0.050   4.233  14.351  0.8175 -0.0629 -0.3006
  525MPD2    H7 7858   0.137   4.250  14.402  1.1672 -0.1332 -0.8735
  526TMC3    C1 7859   0.047   4.061  14.501  0.2939  0.0408 -1.0228
  526TMC3    C2 7860   4.712   4.040  14.614 -0.0527 -0.1627 -0.1057
  526TMC3    C3 7861   0.040   4.019  14.731  0.1306 -0.0419  0.7406
  526TMC3    C4 7862   0.183   4.067  14.507 -0.6263 -0.2376  0.3567
  526TMC3    C5 7863   0.251   4.044  14.617 -0.0391 -0.6977  0.4980
  526TMC3    C6 7864   0.181   4.023  14.731 -0.4845 -0.4816 -0.1489
  526TMC3     C 7865   4.724   4.115  14.380 -0.9063 -0.2076  0.5773
  526TMC3     O 7866   4.616   4.062  14.357 -0.4073 -0.7687 -0.0016
  526TMC3     H 7867   4.605   4.056  14.618  0.1147  0.9919 -0.3250
  526TMC3    H1 7868   0.237   4.092  14.416 -0.0937 -0.1804  0.6860
  526TMC3    H2 7869   0.235   4.017  14.824 -1.8380 -0.7140  0.6286
  526TMC3    C7 7870   0.392   4.027  14.616  0.0878 -0.4834  0.0045
  526TMC3    C8 7871   4.727   4.051  14.861 -0.7634  0.5669  0.5877
  526TMC3    O1 7872   0.438   4.038  14.728 -0.0664  0.0359  0.4054
  526TMC3    O2 7873   0.064   4.021  14.952 -0.0714  0.3055 -0.1284
  527MPD2     C 7874   3.099   2.670   1.350  0.1553 -0.2480  0.0620
  527MPD2    C1 7875   3.107   2.688   1.211 -0.3259 -0.0715 -0.4160
  527MPD2    C2 7876   3.230   2.701   1.145 -0.5458  0.2233  0.3272
  527MPD2    C3 7877   3.346   2.689   1.212 -0.1825  0.7351 -0.5219
  527MPD2    C4 7878   3.341   2.673   1.354 -0.1404  0.1522 -0.0628
  527MPD2    C5 7879   3.217   2.668   1.415  0.0325  0.3440 -0.9817
  527MPD2     H 7880   3.219   2.724   1.040  3.3816 -0.4327 -0.2356
  527MPD2    H1 7881   3.424   2.627   1.406  0.3878  1.7944  0.5645
  527MPD2    H2 7882   3.008   2.651   1.405  0.2924  0.4804  0.5332
  527MPD2    H3 7883   3.206   2.644   1.520 -0.5113  1.6966 -0.7234
  527MPD2     N 7884   3.467   2.687   1.140 -0.8644  0.5785  0.4233
  527MPD2    H5 7885   3.450   2.686   1.040 -3.5017 -2.1883  0.9082
  527MPD2    N1 7886   2.992   2.689   1.133  0.2340  0.8888 -0.3954
  527MPD2    H7 7887   3.003   2.689   1.032 -1.8479 -2.0357 -0.6318
  528TMC3    C1 7888   2.764   2.660   1.073 -0.1504 -0.0842 -0.0977
  528TMC3    C2 7889   2.772   2.738   0.961 -0.7240 -0.2210 -0.2566
  528TMC3    C3 7890   2.677   2.728   0.860 -0.1402  0.7054  0.1931
  528TMC3    C4 7891   2.657   2.575   1.087  0.4466 -0.2813 -0.4464
  528TMC3    C5 7892   2.575   2.561   0.973 -0.5251 -0.3148  1.5860
  528TMC3    C6 7893   2.580   2.639   0.863  0.1001 -0.2508 -0.4927
  528TMC3     C 7894   2.858   2.671   1.176  0.3568  0.5568  0.0181
  528TMC3     O 7895   2.812   2.651   1.286  0.1469 -0.1591 -0.1413
  528TMC3     H 7896   2.828   2.831   0.955 -0.0246 -0.6643 -0.6653
  528TMC3    H1 7897   2.651   2.498   1.163  0.3810  0.8161  0.6607
  528TMC3    H2 7898   2.534   2.605   0.770 -1.2384 -2.3835  0.9344
  528TMC3    C7 7899   2.488   2.445   0.970  0.2724  0.3177  0.3862
  528TMC3    C8 7900   2.690   2.820   0.755  0.3747 -0.1032  0.2443
  528TMC3    O1 7901   2.518   2.346   1.037  0.3267  0.0523  0.4857
  528TMC3    O2 7902   2.803   2.858   0.727 -0.7900 -0.3308 -0.3088
  529MPD2     C 7903   1.374   0.556   0.538 -1.0200  0.2743 -0.6034
  529MPD2    C1 7904   1.248   0.617   0.543  0.2711  0.2894 -0.6801
  529MPD2    C2 7905   1.192   0.673   0.433  0.0832  0.1923 -0.6483
  529MPD2    C3 7906   1.249   0.645   0.309 -0.9719  0.1247 -0.2789
  529MPD2    C4 7907   1.367   0.578   0.301  1.3644 -0.1332  0.8336
  529MPD2    C5 7908   1.434   0.535   0.416 -0.1773 -0.1336  0.4633
  529MPD2     H 7909   1.104   0.735   0.444 -0.8344 -1.3466  0.7096
  529MPD2    H1 7910   1.404   0.562   0.200 -0.2125 -1.7001  0.4932
  529MPD2    H2 7911   1.416   0.508   0.626 -1.9390  1.4666  0.4808
  529MPD2    H3 7912   1.527   0.480   0.412  1.6347  2.9247  0.3398
  529MPD2     N 7913   1.186   0.696   0.191  0.2362 -0.3428  0.0286
  529MPD2    H5 7914   1.211   0.647   0.105 -3.0013 -0.6589 -0.7284
  529MPD2    N1 7915   1.170   0.626   0.665 -0.5622 -0.4283 -0.1174
  529MPD2    H7 7916   1.085   0.681   0.668 -1.4475 -1.8556  1.2555
  530TMC3    C1 7917   1.087   0.557   0.872  0.4453 -0.6991  0.0080
  530TMC3    C2 7918   1.128   0.520   0.999 -1.0675 -0.2680 -0.2467
  530TMC3    C3 7919   1.034   0.463   1.079  0.7057  0.1059  0.1913
  530TMC3    C4 7920   0.964   0.526   0.827 -0.1897  0.7570 -0.0437
  530TMC3    C5 7921   0.875   0.456   0.904 -0.2435  0.1334  0.0896
  530TMC3    C6 7922   0.913   0.421   1.033 -0.0538 -0.8350  0.1200
  530TMC3     C 7923   1.199   0.572   0.783 -0.1530  0.6484 -0.3139
  530TMC3     O 7924   1.302   0.513   0.809 -0.4353 -0.6480 -0.3350
  530TMC3     H 7925   1.229   0.540   1.033 -1.7897  2.0341  0.5958
  530TMC3    H1 7926   0.938   0.548   0.724 -2.9581  2.7064  1.0692
  530TMC3    H2 7927   0.851   0.351   1.088  0.2501 -1.9004 -0.8962
  530TMC3    C7 7928   0.736   0.445   0.846  0.1394 -0.1453 -0.1789
  530TMC3    C8 7929   1.072   0.420   1.209 -0.3856 -0.3620 -0.4422
  530TMC3    O1 7930   0.708   0.509   0.746 -0.3035 -0.0121 -0.0660
  530TMC3    O2 7931   0.984   0.392   1.293  0.1290  0.0772  0.0544
  531MPD2     C 7932   4.157   2.377  12.971  0.0914 -0.2098  0.3848
  531MPD2    C1 7933   4.104   2.499  12.941 -0.3815  0.3757  0.2183
  531MPD2    C2 7934   3.965   2.517  12.937  0.2489  0.4824 -0.1496
  531MPD2    C3 7935   3.883   2.416  12.959  0.9173  0.1063 -0.7207
  531MPD2    C4 7936   3.937   2.288  12.987  0.0849  0.1569 -0.2989
  531MPD2    C5 7937   4.069   2.271  12.995  0.0997 -0.5654 -0.0128
  531MPD2     H 7938   3.912   2.609  12.912  0.5917  0.3386 -1.4013
  531MPD2    H1 7939   3.879   2.198  13.004 -0.7049  0.5362 -1.0338
  531MPD2    H2 7940   4.263   2.357  12.963 -0.0083 -0.0033 -1.5996
  531MPD2    H3 7941   4.108   2.175  13.025  1.9006 -0.1556 -1.0351
  531MPD2     N 7942   3.747   2.446  12.956 -0.6092  0.2339 -1.0766
  531MPD2    H5 7943   3.717   2.540  12.934  1.3053  1.0455 -0.1546
  531MPD2    N1 7944   4.196   2.603  12.916 -1.0469  0.5708  0.4840
  531MPD2    H7 7945   4.287   2.593  12.959 -1.6878  2.0016  2.1979
  532TMC3    C1 7946   4.235   2.839  12.895 -0.4901  0.1231 -0.3620
  532TMC3    C2 7947   4.177   2.960  12.867  0.8336  0.4612 -0.4303
  532TMC3    C3 7948   4.214   3.068  12.942 -0.3645  0.2885  0.6027
  532TMC3    C4 7949   4.349   2.830  12.964 -0.1698  0.2262 -0.2671
  532TMC3    C5 7950   4.390   2.942  13.026 -0.1380 -0.5094 -0.0051
  532TMC3    C6 7951   4.320   3.058  13.022  0.2092  0.1798  0.5973
  532TMC3     C 7952   4.156   2.725  12.861  0.6771  0.1785  0.5015
  532TMC3     O 7953   4.050   2.753  12.801 -0.2881  0.5136 -0.5710
  532TMC3     H 7954   4.102   2.982  12.792 -0.0559 -0.0219  0.3255
  532TMC3    H1 7955   4.405   2.737  12.966 -0.1091  0.2017 -2.3059
  532TMC3    H2 7956   4.358   3.146  13.073 -0.2034  1.9997 -2.1863
  532TMC3    C7 7957   4.513   2.934  13.109 -0.0304 -0.7015 -0.7313
  532TMC3    C8 7958   4.108   3.113  13.033  0.2208  0.1980 -0.5146
  532TMC3    O1 7959   4.621   2.971  13.063 -0.2421  0.3624  0.1113
  532TMC3    O2 7960   4.137   3.202  13.112 -0.2093  0.0820 -0.4164
  533TMC3    C1 7961   0.212   0.110  14.174  0.2332 -0.1976 -0.5817
  533TMC3    C2 7962   0.337   0.150  14.208 -0.5449 -0.8410 -0.8072
  533TMC3    C3 7963   0.358   0.264  14.287 -0.6279  0.1139 -0.0249
  533TMC3    C4 7964   0.105   0.180  14.219  0.6056  0.5392 -1.0000
  533TMC3    C5 7965   0.123   0.283  14.307  0.6719 -0.3838 -0.5314
  533TMC3    C6 7966   0.249   0.324  14.342  0.0322  0.4803 -0.9166
  533TMC3     C 7967   0.198   4.705  14.188  0.3271  0.2124 -0.5055
  533TMC3     O 7968   0.266   4.655  14.277  0.3105  0.5001 -0.3026
  533TMC3     H 7969   0.420   0.098  14.163  1.8965  0.9677  1.5895
  533TMC3    H1 7970   0.005   0.140  14.217  1.4692 -1.7609  1.3342
  533TMC3    H2 7971   0.258   0.412  14.405  1.2210  0.9740 -1.7888
  533TMC3    C7 7972   0.020   0.296  14.416  0.6414  0.3688 -0.3555
  533TMC3    C8 7973   0.484   0.331  14.290 -0.5209  0.0586 -0.1344
  533TMC3    O1 7974   4.662   0.216  14.412 -0.2789  0.3169  0.4554
  533TMC3    O2 7975   0.583   0.263  14.273  0.3447  0.2908  0.2959
  534MPD2     C 7976   3.476   0.872   1.389  0.1499 -0.1843  0.1826
  534MPD2    C1 7977   3.426   0.995   1.350  0.0327 -0.5943 -0.2867
  534MPD2    C2 7978   3.294   0.998   1.300  0.5381  0.9589  0.5371
  534MPD2    C3 7979   3.230   0.875   1.276 -0.4352 -0.3764 -0.4983
  534MPD2    C4 7980   3.282   0.757   1.318  0.4422  0.7034  0.1265
  534MPD2    C5 7981   3.407   0.752   1.369 -0.2044  0.6881 -0.1407
  534MPD2     H 7982   3.242   1.089   1.273 -0.9774  0.0069  0.1899
  534MPD2    H1 7983   3.237   0.662   1.295 -0.8148  1.1338  0.8220
  534MPD2    H2 7984   3.574   0.857   1.433 -0.2605  0.2681  1.2413
  534MPD2    H3 7985   3.448   0.659   1.407 -2.8962 -0.2791  0.4155
  534MPD2     N 7986   3.106   0.859   1.207  0.4417  0.7761  0.3093
  534MPD2    H5 7987   3.069   0.765   1.197  2.8617 -0.3592  1.8525
  534MPD2    N1 7988   3.488   1.125   1.381 -0.3009  0.8323  0.0773
  534MPD2    H7 7989   3.425   1.202   1.362 -2.0021 -0.4271  0.6252
  535TMC3    C1 7990   2.919   0.924   1.089  0.3854  0.0087  0.1206
  535TMC3    C2 7991   2.872   0.803   1.121  0.1669 -0.0870  0.0376
  535TMC3    C3 7992   2.765   0.774   1.047  0.2390  0.0772 -0.5479
  535TMC3    C4 7993   2.861   1.014   1.001  0.1505  0.5747 -0.1528
  535TMC3    C5 7994   2.765   0.969   0.917 -1.0203  0.8563  0.1040
  535TMC3    C6 7995   2.709   0.851   0.947 -0.1978  0.3176  0.5669
  535TMC3     C 7996   3.037   0.966   1.157  0.2580  0.1113 -0.0098
  535TMC3     O 7997   3.062   1.085   1.153  0.2202  0.1410  0.3209
  535TMC3     H 7998   2.912   0.743   1.202  1.3354 -2.3181 -2.2034
  535TMC3    H1 7999   2.910   1.107   0.975  1.0069 -0.0654 -0.8467
  535TMC3    H2 8000   2.643   0.809   0.872 -2.7128 -0.2489  3.1317
  535TMC3    C7 8001   2.708   1.053   0.809 -0.4592  0.6516 -0.3934
  535TMC3    C8 8002   2.691   0.648   1.064 -0.5497 -0.4867 -0.1415
  535TMC3    O1 8003   2.624   1.000   0.739 -0.0188 -0.6101  0.3868
  535TMC3    O2 8004   2.589   0.643   0.999  0.1476  0.1163 -0.0566
  536MPD2     C 8005   1.777   4.295  15.723 -1.4481 -0.5624  0.5308
  536MPD2    C1 8006   1.654   4.240  15.764  0.0229  0.5247  0.4249
  536MPD2    C2 8007   1.548   4.268  15.682 -0.4559  0.7795  0.6563
  536MPD2    C3 8008   1.555   4.352  15.573 -0.7288  0.7580  0.0743
  536MPD2    C4 8009   1.681   4.401  15.534  0.0308  0.8900 -0.0190
  536MPD2    C5 8010   1.789   4.368  15.603 -0.0482  0.8056 -0.2844
  536MPD2     H 8011   1.454   4.216  15.695  0.7619 -1.1418  1.7656
  536MPD2    H1 8012   1.704   4.475  15.458  1.9113 -1.5150 -1.7744
  536MPD2    H2 8013   1.857   4.272  15.792 -1.5532  0.6744  1.0694
  536MPD2    H3 8014   1.885   4.414  15.581 -0.9137  2.0160 -1.4835
  536MPD2     N 8015   1.447   4.394  15.488  0.4852 -0.2547  0.2936
  536MPD2    H5 8016   1.465   4.439  15.399  1.3520  0.5946  0.8887
  536MPD2    N1 8017   1.646   4.160  15.880  0.2758  0.4763  0.3470
  536MPD2    H7 8018   1.734   4.141  15.927  0.9440  3.2128  0.2382
  537TMC3    C1 8019   1.557   4.036  16.049 -0.0927 -0.3487  0.3662
  537TMC3    C2 8020   1.678   4.030  16.112 -0.4618 -0.1061 -0.5268
  537TMC3    C3 8021   1.692   3.948  16.220 -0.8456 -0.5898  0.9052
  537TMC3    C4 8022   1.455   3.959  16.095 -0.3659 -0.2783  0.4147
  537TMC3    C5 8023   1.478   3.879  16.208 -0.2536 -0.5171  0.6039
  537TMC3    C6 8024   1.593   3.876  16.277  0.9177 -0.3411  0.2228
  537TMC3     C 8025   1.529   4.126  15.940 -0.3208  0.0783  0.2138
  537TMC3     O 8026   1.415   4.128  15.891 -0.2328 -0.0461 -0.5346
  537TMC3     H 8027   1.763   4.090  16.082 -0.0779 -0.1420  0.4945
  537TMC3    H1 8028   1.360   3.944  16.046  0.4538 -0.3475 -1.1699
  537TMC3    H2 8029   1.618   3.805  16.355 -0.1847 -1.0696 -0.0913
  537TMC3    C7 8030   1.363   3.794  16.240  1.0694  0.1325 -0.4020
  537TMC3    C8 8031   1.820   3.942  16.300 -0.4544  0.0748  0.3641
  537TMC3    O1 8032   1.286   3.762  16.151  0.4962 -0.2619 -0.1170
  537TMC3    O2 8033   1.880   4.046  16.297  0.2152 -0.0092  0.3779
  538TMC3    C1 8034   2.600   2.455  10.670 -0.0631  0.7791 -0.1083
  538TMC3    C2 8035   2.676   2.363  10.610  0.9521  0.5322  0.4062
  538TMC3    C3 8036   2.653   2.339  10.478 -0.0756 -0.3693  0.2740
  538TMC3    C4 8037   2.495   2.521  10.614  0.4135  0.5613  0.1113
  538TMC3    C5 8038   2.479   2.497  10.479 -0.1987 -0.3578  0.2784
  538TMC3    C6 8039   2.556   2.406  10.409  0.4911 -0.2937  1.1263
  538TMC3     C 8040   2.609   2.476  10.814  0.2674 -0.0812 -0.4043
  538TMC3     O 8041   2.559   2.580  10.857  0.6404  0.1813  0.4216
  538TMC3     H 8042   2.745   2.296  10.661 -0.4880 -0.3592  1.1986
  538TMC3    H1 8043   2.421   2.572  10.675 -0.5920 -0.4612 -0.2646
  538TMC3    H2 8044   2.534   2.396  10.303  1.0067  0.8121  0.9135
  538TMC3    C7 8045   2.374   2.573  10.414 -0.1150  0.1489  0.3168
  538TMC3    C8 8046   2.742   2.251  10.410 -0.2135  0.2242  0.0858
  538TMC3    O1 8047   2.332   2.527  10.312  0.2611  0.0961  0.3510
  538TMC3    O2 8048   2.686   2.192  10.316 -0.3239  0.1166 -0.1449
  539MPD2     C 8049   1.990   1.378  11.728 -0.0827 -0.0243  0.3819
  539MPD2    C1 8050   2.004   1.398  11.598 -0.6120  0.3001 -0.2133
  539MPD2    C2 8051   1.968   1.525  11.548  0.1191 -0.8878 -0.0167
  539MPD2    C3 8052   1.946   1.636  11.626  0.6124  0.0644 -0.7045
  539MPD2    C4 8053   1.941   1.610  11.766 -0.2248 -0.9962 -0.1397
  539MPD2    C5 8054   1.956   1.478  11.815  0.1076 -0.4107  0.2083
  539MPD2     H 8055   1.978   1.543  11.442  0.0982 -0.1806  0.0980
  539MPD2    H1 8056   1.917   1.684  11.842 -1.4801  1.8545 -3.3054
  539MPD2    H2 8057   1.989   1.275  11.763  0.7273 -0.3007 -0.3901
  539MPD2    H3 8058   1.968   1.452  11.920 -1.3047 -2.1334 -0.0674
  539MPD2     N 8059   1.937   1.772  11.577 -0.3662  0.3171  0.0437
  539MPD2    H5 8060   1.931   1.851  11.641  1.3040  0.3014  0.2169
  539MPD2    N1 8061   2.054   1.306  11.507 -0.0374  0.1518 -0.1947
  539MPD2    H7 8062   2.071   1.336  11.412 -1.1727 -1.6336 -0.9561
  540TMC3    C1 8063   1.950   1.952  11.443  0.8857 -0.4240 -0.4987
  540TMC3    C2 8064   1.955   2.005  11.310 -0.4237 -0.2934 -0.0018
  540TMC3    C3 8065   1.936   2.145  11.296 -0.6464  0.5889  0.0993
  540TMC3    C4 8066   1.932   2.035  11.546  0.3588 -0.5962 -0.6540
  540TMC3    C5 8067   1.924   2.170  11.528 -0.1349 -0.1884 -0.1429
  540TMC3    C6 8068   1.924   2.233  11.401 -0.1263  0.2444 -0.4017
  540TMC3     C 8069   1.949   1.807  11.446 -0.0678 -0.9174  0.1244
  540TMC3     O 8070   1.959   1.745  11.340 -0.1202  0.3857 -0.2838
  540TMC3     H 8071   1.995   1.936  11.236  2.9752  2.3622 -0.6526
  540TMC3    H1 8072   1.907   1.995  11.643 -1.0269  1.2015 -0.2738
  540TMC3    H2 8073   1.918   2.341  11.395  1.8030  0.2310 -2.2724
  540TMC3    C7 8074   1.869   2.248  11.637 -0.2917  0.2110  0.0740
  540TMC3    C8 8075   1.934   2.192  11.158  0.3788  0.0994 -0.6269
  540TMC3    O1 8076   1.799   2.187  11.716  0.1275  0.7196  0.0248
  540TMC3    O2 8077   1.950   2.313  11.139 -0.9294 -0.1177 -0.0041
  541MPD2     C 8078   0.936   3.042  13.411  0.0662  0.0506  0.2359
  541MPD2    C1 8079   0.834   2.995  13.328 -0.2776  0.2570 -0.7757
  541MPD2    C2 8080   0.857   3.030  13.194  0.0953  0.9061 -0.2862
  541MPD2    C3 8081   0.967   3.099  13.140  0.2431 -0.4654 -0.0476
  541MPD2    C4 8082   1.058   3.151  13.229 -0.3372  0.3653  1.0786
  541MPD2    C5 8083   1.029   3.134  13.360 -0.6167  0.1193  0.0494
  541MPD2     H 8084   0.785   3.001  13.117 -0.0151 -1.3305  0.6707
  541MPD2    H1 8085   1.148   3.206  13.206  0.0182 -0.7267 -0.1547
  541MPD2    H2 8086   0.934   3.022  13.518 -0.3975  1.9076  0.5694
  541MPD2    H3 8087   1.102   3.169  13.432 -0.6054 -0.9540  0.5627
  541MPD2     N 8088   0.973   3.133  13.004 -0.5072 -0.1305 -0.3392
  541MPD2    H5 8089   1.040   3.203  12.974  0.8259 -1.4235 -0.3702
  541MPD2    N1 8090   0.717   2.941  13.378 -0.0199  0.1697 -0.4322
  541MPD2    H7 8091   0.695   2.942  13.477  3.7660  0.1399  0.4253
  542TMC3    C1 8092   0.875   3.176  12.790  0.0793 -0.6576  0.3510
  542TMC3    C2 8093   0.820   3.124  12.674  0.3270 -0.2344 -0.1075
  542TMC3    C3 8094   0.761   3.199  12.583  0.5388 -0.1004 -0.5326
  542TMC3    C4 8095   0.872   3.310  12.813 -0.2141  0.1383 -0.1274
  542TMC3    C5 8096   0.811   3.387  12.720 -0.4195 -0.3888  0.7581
  542TMC3    C6 8097   0.757   3.338  12.605 -0.1390 -0.4503  0.0512
  542TMC3     C 8098   0.890   3.087  12.906 -0.6491  0.1790  0.4997
  542TMC3     O 8099   0.827   2.981  12.908 -0.0658  0.5056 -0.2429
  542TMC3     H 8100   0.815   3.018  12.651  2.1752 -0.7608  1.9426
  542TMC3    H1 8101   0.904   3.345  12.911 -0.2297  1.0348 -0.4437
  542TMC3    H2 8102   0.731   3.404  12.523 -0.0995 -0.1313  0.2969
  542TMC3    C7 8103   0.830   3.525  12.719  0.4478  0.9503  0.0553
  542TMC3    C8 8104   0.772   3.159  12.441 -0.2617  0.1676  0.0304
  542TMC3    O1 8105   0.740   3.593  12.683  0.2707 -0.6962  0.6306
  542TMC3    O2 8106   0.680   3.177  12.366  0.2312 -0.0547 -0.7220
  543TMC3    C1 8107   0.255   0.225  16.949 -0.3545  0.2366 -0.8516
  543TMC3    C2 8108   0.179   0.143  17.028 -0.1588 -0.3449 -0.3579
  543TMC3    C3 8109   0.153   0.180  17.160  0.2150  0.1965 -0.5399
  543TMC3    C4 8110   0.315   0.339  17.002  0.2057 -0.6004 -0.0292
  543TMC3    C5 8111   0.296   0.367  17.136 -0.6192  0.6958 -0.2257
  543TMC3    C6 8112   0.223   0.289  17.214  1.3048  0.3380 -0.0914
  543TMC3     C 8113   0.247   0.198  16.809  0.3400  0.2270  0.7488
  543TMC3     O 8114   0.207   0.084  16.777 -0.5966 -0.9078 -0.4624
  543TMC3     H 8115   0.134   0.053  16.987 -1.5852  0.1275  0.1734
  543TMC3    H1 8116   0.364   0.413  16.940 -2.5550  1.5222  0.2858
  543TMC3    H2 8117   0.203   0.326  17.313  0.4105  0.4828 -0.3308
  543TMC3    C7 8118   0.348   0.492  17.191  0.3875  0.7772 -0.0394
  543TMC3    C8 8119   0.087   0.087  17.255  0.0554 -0.3103  0.3677
  543TMC3    O1 8120   0.299   0.534  17.292 -0.9087 -0.0510  0.0792
  543TMC3    O2 8121   0.135   0.079  17.365  0.2358 -0.3059 -0.1866
  544MPD2     C 8122   4.561   4.384  17.330 -0.2468  0.2609 -0.2859
  544MPD2    C1 8123   4.658   4.447  17.407 -0.1223  0.1088 -0.0678
  544MPD2    C2 8124   4.710   4.568  17.370 -1.0175  0.1481  0.4260
  544MPD2    C3 8125   4.685   4.618  17.242  0.1685  0.0142 -0.0612
  544MPD2    C4 8126   4.603   4.540  17.161  0.3182 -0.0734  0.2902
  544MPD2    C5 8127   4.542   4.433  17.209 -0.2267  0.2007  1.2257
  544MPD2     H 8128   0.033   4.629  17.435 -1.4422  1.1713 -0.1301
  544MPD2    H1 8129   4.581   4.574  17.061 -2.6307  0.1338  1.0260
  544MPD2    H2 8130   4.515   4.292  17.365  1.6776 -0.6531 -0.1339
  544MPD2    H3 8131   4.463   4.396  17.145  2.6911 -2.9077 -0.5445
  544MPD2     N 8132   0.007   4.738  17.189  0.4863 -0.0113  0.0753
  544MPD2    H5 8133   4.712   0.027  17.096  0.2024  1.2050  0.5345
  544MPD2    N1 8134   4.694   4.384  17.529 -0.1115  0.2856  0.0475
  544MPD2    H7 8135   4.656   4.292  17.549  2.1418 -0.0436  2.8570
  545TMC3    C1 8136   0.053   4.349  17.740 -0.3151  0.3487 -0.1751
  545TMC3    C2 8137   0.110   4.394   0.107  0.7530  0.1656 -0.0329
  545TMC3    C3 8138   0.125   4.313   0.215 -0.1032 -0.5605 -0.7221
  545TMC3    C4 8139   0.031   4.210  17.729 -0.0401 -0.1957 -0.2421
  545TMC3    C5 8140   0.051   4.131   0.085  0.3154  0.0585 -0.0002
  545TMC3    C6 8141   0.094   4.182   0.205  0.2412 -0.0915  0.0003
  545TMC3     C 8142   0.044   4.437  17.625 -0.1656  0.3059  1.0557
  545TMC3     O 8143   0.103   4.543  17.618 -0.5320  0.4722 -0.2145
  545TMC3     H 8144   0.126   4.501   0.116 -0.5214  0.3049  0.4827
  545TMC3    H1 8145   0.008   4.176  17.629  0.9953 -0.2923 -0.4483
  545TMC3    H2 8146   0.102   4.124   0.296 -0.1690 -0.5258 -0.2405
  545TMC3    C7 8147   4.737   3.991   0.086  0.2305 -0.8056  0.7898
  545TMC3    C8 8148   0.138   4.379   0.345  0.0540  0.4641  0.0942
  545TMC3    O1 8149   4.667   3.963  17.740 -0.2293  0.4227  0.1914
  545TMC3    O2 8150   0.097   4.329   0.451  0.0452  0.4940  0.8860
  546MPD2     C 8151   1.765   4.697  16.858 -0.5315  0.0811 -0.1649
  546MPD2    C1 8152   1.660   0.011  16.930  0.5142  0.0782 -0.0090
  546MPD2    C2 8153   1.685   0.127  17.001 -0.3580  0.2705  0.3392
  546MPD2    C3 8154   1.808   0.192  17.001  0.4123  0.1274 -0.8371
  546MPD2    C4 8155   1.914   0.128  16.942  0.0004  0.3716 -0.1081
  546MPD2    C5 8156   1.890   0.016  16.865 -0.2172  0.0324 -0.3620
  546MPD2     H 8157   1.601   0.165  17.059  0.1977 -0.6606  1.7272
  546MPD2    H1 8158   2.012   0.171  16.954 -0.2526  0.8032  0.3634
  546MPD2    H2 8159   1.765   4.603  16.803 -2.7034 -1.7964  3.0549
  546MPD2    H3 8160   1.969   4.707  16.807  1.0709  0.2180  1.2565
  546MPD2     N 8161   1.834   0.324  17.045  0.3260  0.5057  0.2653
  546MPD2    H5 8162   1.904   0.369  16.987  0.6285 -1.0321 -0.5633
  546MPD2    N1 8163   1.547   4.666  16.934 -0.4718 -0.7166  0.0071
  546MPD2    H7 8164   1.552   4.584  16.874 -0.7625  0.5858 -1.7795
  547TMC3    C1 8165   1.339   4.580  17.006  0.0001  0.0468 -0.3248
  547TMC3    C2 8166   1.295   4.549  16.884  0.3437 -0.0589 -0.2783
  547TMC3    C3 8167   1.168   4.498  16.865 -0.8915  0.3980 -0.7428
  547TMC3    C4 8168   1.270   4.548  17.113  0.0974 -0.0291 -0.4873
  547TMC3    C5 8169   1.147   4.484  17.094 -0.3484  0.3166 -0.4379
  547TMC3    C6 8170   1.092   4.467  16.971 -0.4560  0.6507  0.0237
  547TMC3     C 8171   1.445   4.676  17.025  0.3489 -0.5873 -0.2406
  547TMC3     O 8172   1.424   0.022  17.114  0.0626 -0.7044 -0.0484
  547TMC3     H 8173   1.347   4.605  16.808  0.5698  1.4869  1.0201
  547TMC3    H1 8174   1.314   4.564  17.211 -1.8310 -1.4660  0.6122
  547TMC3    H2 8175   1.011   4.400  16.942 -1.1305  2.0815 -1.4204
  547TMC3    C7 8176   1.088   4.426  17.219  0.2308 -0.2569  0.6999
  547TMC3    C8 8177   1.106   4.512  16.734  0.3913 -0.4544  0.5770
  547TMC3    O1 8178   1.159   4.402  17.316 -0.0123  0.0856 -0.0166
  547TMC3    O2 8179   0.983   4.523  16.733  0.3306 -0.0050  0.1544
  548MPD2     C 8180   0.868   4.620  12.265  0.4742  0.3626 -0.1322
  548MPD2    C1 8181   0.922   4.518  12.350 -0.2542 -0.8322  0.7807
  548MPD2    C2 8182   1.036   4.459  12.300  0.0451 -0.2314 -0.2243
  548MPD2    C3 8183   1.104   4.498  12.183  0.1203 -0.2356  0.0109
  548MPD2    C4 8184   1.046   4.606  12.109 -0.2487  0.0196 -0.2355
  548MPD2    C5 8185   0.929   4.659  12.155 -0.3558  0.4485  0.1175
  548MPD2     H 8186   1.087   4.385  12.361  1.1444  2.2396  1.8725
  548MPD2    H1 8187   1.099   4.640  12.021  0.9698 -0.7435  0.2172
  548MPD2    H2 8188   0.774   4.665  12.294 -0.1544  0.7283 -2.8291
  548MPD2    H3 8189   0.889   0.006  12.101 -0.0701  0.4067 -0.1624
  548MPD2     N 8190   1.225   4.435  12.154 -0.4359  0.1461  0.7914
  548MPD2    H5 8191   1.243   4.345  12.197  0.0602 -1.2159 -2.2161
  548MPD2    N1 8192   0.877   4.497  12.480  0.4615  0.2836  0.6584
  548MPD2    H7 8193   0.792   4.547  12.502  0.9620 -0.5080  4.4406
  549TMC3    C1 8194   0.950   4.542  12.695  0.1585  0.7114 -0.4585
  549TMC3    C2 8195   0.900   4.670  12.662 -0.2850 -0.5190  0.2870
  549TMC3    C3 8196   0.983   0.039  12.654  0.0558  0.2034 -0.1612
  549TMC3    C4 8197   1.079   4.541  12.733  0.8034 -0.0703 -0.3792
  549TMC3    C5 8198   1.162   4.654  12.721  0.0518 -0.3322  0.0326
  549TMC3    C6 8199   1.113   0.035  12.686 -0.1642  0.7350  0.5489
  549TMC3     C 8200   0.948   4.444  12.587 -0.3777  0.0424  0.2694
  549TMC3     O 8201   1.048   4.373  12.588 -0.0104  0.5997  0.1558
  549TMC3     H 8202   0.792   4.683  12.655 -0.5849 -1.8670  2.7071
  549TMC3    H1 8203   1.127   4.457  12.781 -0.3563 -0.3425  0.2916
  549TMC3    H2 8204   1.188   0.110  12.664 -0.3775  0.8348  0.1624
  549TMC3    C7 8205   1.290   4.628  12.666 -0.1714 -0.6908  0.4473
  549TMC3    C8 8206   0.935   0.144  12.560 -0.8074  0.3508  0.6693
  549TMC3    O1 8207   1.384   4.711  12.672  0.4799  0.1638 -0.3519
  549TMC3    O2 8208   0.816   0.146  12.539 -0.0180 -0.0611 -0.3908
  550TMC3    C1 8209   4.517   2.661  11.239 -0.4792  0.7028 -0.0533
  550TMC3    C2 8210   4.639   2.704  11.284 -1.0440 -0.3567 -0.5418
  550TMC3    C3 8211   4.636   2.788  11.393 -0.2340  0.9508  0.0793
  550TMC3    C4 8212   4.402   2.703  11.298  0.4099  0.1303  0.6413
  550TMC3    C5 8213   4.408   2.790  11.403 -0.3498  0.3064 -0.3745
  550TMC3    C6 8214   4.522   2.839  11.451 -0.1386  0.3439 -0.2003
  550TMC3     C 8215   4.505   2.602  11.106  0.4311 -0.1294  0.8893
  550TMC3     O 8216   4.580   2.507  11.095 -0.0187 -0.4104  0.0990
  550TMC3     H 8217   4.729   2.658  11.244  0.4301 -0.1432  2.5758
  550TMC3    H1 8218   4.301   2.679  11.266  1.3390 -0.2389 -1.9457
  550TMC3    H2 8219   4.520   2.883  11.550 -1.6430 -2.3239  0.9790
  550TMC3    C7 8220   4.290   2.813  11.484  0.2000  0.2566  0.3487
  550TMC3    C8 8221   0.022   2.817  11.456  0.0591 -0.0654  0.3594
  550TMC3    O1 8222   4.190   2.750  11.454 -0.2298 -0.2218 -0.1945
  550TMC3    O2 8223   0.104   2.730  11.467 -0.3786 -0.1854  0.3487
  551TMC3    C1 8224   2.282   0.882  12.935 -0.0401  0.2533  0.1944
  551TMC3    C2 8225   2.373   0.882  12.837  0.0495 -0.2078  0.1274
  551TMC3    C3 8226   2.495   0.948  12.862 -0.0608  0.0490 -0.1327
  551TMC3    C4 8227   2.294   0.955  13.052 -0.1558  0.3397 -0.2259
  551TMC3    C5 8228   2.410   1.014  13.071  0.0107  0.1588  0.6635
  551TMC3    C6 8229   2.518   1.008  12.983 -0.8832 -0.0681  0.2892
  551TMC3     C 8230   2.201   0.765  12.932  0.4108  0.1138  0.5401
  551TMC3     O 8231   2.169   0.731  12.818  0.0055 -0.8527 -0.1888
  551TMC3     H 8232   2.365   0.829  12.743  1.0910  0.5734 -0.3976
  551TMC3    H1 8233   2.210   0.972  13.119  2.5597  2.8158  2.5551
  551TMC3    H2 8234   2.600   1.076  13.004 -0.9302  0.0848 -0.0232
  551TMC3    C7 8235   2.432   1.090  13.190  0.8272 -0.5868 -0.1696
  551TMC3    C8 8236   2.591   0.961  12.761 -0.2414  0.1302 -0.5530
  551TMC3    O1 8237   2.551   1.081  13.227 -0.3105 -0.2790  0.1469
  551TMC3    O2 8238   2.601   0.877  12.670  0.6156 -0.0516  0.1466
  552MPD2     C 8239   4.362   2.892  13.622 -0.0618 -0.0130  0.1572
  552MPD2    C1 8240   4.286   2.836  13.730 -0.1548  0.6391  0.2893
  552MPD2    C2 8241   4.332   2.835  13.861 -0.0697 -1.1587  0.1570
  552MPD2    C3 8242   4.463   2.870  13.875  0.2793  0.0451 -0.4105
  552MPD2    C4 8243   4.541   2.914  13.773 -0.4559  0.3477 -0.6746
  552MPD2    C5 8244   4.489   2.929  13.648  0.1822 -0.4111  0.1078
  552MPD2     H 8245   4.275   2.796  13.944  1.9073 -0.9594  1.5992
  552MPD2    H1 8246   4.644   2.944  13.786 -0.6523  0.2876  1.0758
  552MPD2    H2 8247   4.332   2.897  13.518  2.2745 -0.9241 -0.5727
  552MPD2    H3 8248   4.559   2.952  13.568  0.4043  2.2458  1.0641
  552MPD2     N 8249   4.532   2.871  13.999 -0.0425  0.5650  0.1346
  552MPD2    H5 8250   4.630   2.897  13.990 -0.0055  0.2884 -0.2392
  552MPD2    N1 8251   4.154   2.803  13.702 -0.6454 -0.4412 -0.2048
  552MPD2    H7 8252   4.104   2.741  13.765 -0.5761 -1.3237 -0.9968
  553TMC3    C1 8253   3.959   2.764  13.585 -0.9006 -0.1358 -0.1162
  553TMC3    C2 8254   3.914   2.748  13.459 -0.3271 -0.1244 -0.0020
  553TMC3    C3 8255   3.844   2.633  13.436 -0.0949 -0.2759  0.1738
  553TMC3    C4 8256   3.916   2.690  13.693  0.2313  0.4423  0.2132
  553TMC3    C5 8257   3.831   2.590  13.661 -0.1444 -0.4723  0.4564
  553TMC3    C6 8258   3.775   2.571  13.540  0.3051  0.8645 -0.1517
  553TMC3     C 8259   4.087   2.838  13.592 -0.3526  0.1119 -0.0677
  553TMC3     O 8260   4.107   2.922  13.504 -0.1145 -0.3973  0.5596
  553TMC3     H 8261   3.958   2.800  13.375 -0.5619 -0.2124 -0.1782
  553TMC3    H1 8262   3.958   2.695  13.793 -0.5142  2.8219  0.4045
  553TMC3    H2 8263   3.709   2.487  13.522 -0.0521  1.1367 -0.1015
  553TMC3    C7 8264   3.802   2.477  13.753  0.6601 -0.6560  0.8060
  553TMC3    C8 8265   3.915   2.536  13.361  0.2329  0.2905  0.1406
  553TMC3    O1 8266   3.688   2.440  13.748 -0.2678 -0.2762  0.3436
  553TMC3    O2 8267   4.030   2.562  13.327  0.1762 -0.1535  0.9258
  554TMC3    C1 8268   1.603   1.798  11.641 -0.4198 -0.9488 -0.4000
  554TMC3    C2 8269   1.567   1.700  11.562  0.4084  0.2807  0.5660
  554TMC3    C3 8270   1.523   1.736  11.438 -0.6645  0.4506 -1.0409
  554TMC3    C4 8271   1.593   1.929  11.607  0.0889  0.3205  0.9255
  554TMC3    C5 8272   1.556   1.960  11.479 -0.4155 -0.1442  0.4164
  554TMC3    C6 8273   1.513   1.860  11.387  0.1694  1.0652 -0.5181
  554TMC3     C 8274   1.625   1.765  11.777 -0.2904  0.3556 -0.1196
  554TMC3     O 8275   1.679   1.846  11.850 -0.1287  0.4207 -0.4810
  554TMC3     H 8276   1.579   1.594  11.583  0.3313  0.3454  0.9352
  554TMC3    H1 8277   1.631   2.010  11.670 -1.0031  1.7984 -0.3135
  554TMC3    H2 8278   1.465   1.881  11.292 -0.1547  0.4631 -0.4850
  554TMC3    C7 8279   1.547   2.098  11.446  0.0694 -0.3510 -0.0734
  554TMC3    C8 8280   1.413   1.649  11.391 -0.0160 -0.2182  0.5382
  554TMC3    O1 8281   1.554   2.179  11.537 -0.0124 -0.3081  0.1523
  554TMC3    O2 8282   1.376   1.568  11.479 -0.2590 -0.0060  0.8483
  555TMC3    C1 8283   0.440   1.926  14.814  0.5724  0.0570  0.2110
  555TMC3    C2 8284   0.484   1.998  14.919 -0.2441 -0.0769 -0.6152
  555TMC3    C3 8285   0.504   1.933  15.042  0.1706 -0.4342  0.2167
  555TMC3    C4 8286   0.419   1.790  14.820 -0.3747  1.5473 -0.0825
  555TMC3    C5 8287   0.439   1.724  14.940 -0.2067 -0.0474 -0.1880
  555TMC3    C6 8288   0.487   1.795  15.043 -0.0144 -0.2869 -0.4546
  555TMC3     C 8289   0.424   1.992  14.689  0.0122  0.6991 -0.1744
  555TMC3     O 8290   0.477   2.099  14.686 -0.2374 -0.3483  0.0624
  555TMC3     H 8291   0.479   2.106  14.920  1.8305  0.0207 -2.4795
  555TMC3    H1 8292   0.395   1.731  14.732  1.6493  0.8883 -0.1957
  555TMC3    H2 8293   0.513   1.735  15.130 -1.8947 -0.9831 -0.3687
  555TMC3    C7 8294   0.440   1.583  14.953 -0.2443  0.0464 -0.6861
  555TMC3    C8 8295   0.566   2.017  15.147 -0.5552 -0.8064 -0.0735
  555TMC3    O1 8296   0.432   1.537  15.068 -0.2721  0.3558  0.1291
  555TMC3    O2 8297   0.585   2.135  15.129  0.8968 -0.4469 -0.0158
  556MPD2     C 8298   3.241   3.060  10.314 -0.6880 -0.0412  0.1200
  556MPD2    C1 8299   3.189   2.949  10.374  0.5397 -0.4047  0.1816
  556MPD2    C2 8300   3.134   2.848  10.296 -1.0896  0.2010 -0.0240
  556MPD2    C3 8301   3.134   2.849  10.154  0.3377 -0.0840  0.5226
  556MPD2    C4 8302   3.181   2.965  10.099  0.2358  0.3773 -0.3351
  556MPD2    C5 8303   3.229   3.067  10.176 -0.2879  0.0799  0.0115
  556MPD2     H 8304   3.107   2.756  10.346  1.6877  0.1679  1.4294
  556MPD2    H1 8305   3.183   2.982   9.992 -1.1954 -0.1259 -0.4447
  556MPD2    H2 8306   3.284   3.143  10.369  3.4746 -0.8254 -1.9703
  556MPD2    H3 8307   3.248   3.159  10.123  1.0692 -0.0191  0.3360
  556MPD2     N 8308   3.089   2.738  10.079 -0.7294 -0.4632  0.3775
  556MPD2    H5 8309   3.064   2.655  10.131 -0.5568 -0.9467 -0.3096
  556MPD2    N1 8310   3.184   2.919  10.512  0.3678 -0.2667  0.0728
  556MPD2    H7 8311   3.125   2.841  10.539  0.2401 -0.4904 -0.8322
  557TMC3    C1 8312   3.030   2.608   9.902  0.6438 -0.6038 -1.2716
  557TMC3    C2 8313   2.926   2.599   9.810 -0.3696 -0.3256  0.1084
  557TMC3    C3 8314   2.906   2.475   9.752  0.0924  0.3327  0.0512
  557TMC3    C4 8315   3.102   2.503   9.938  0.1855 -0.0996 -0.0549
  557TMC3    C5 8316   3.076   2.381   9.879  0.2452  0.5613 -0.0244
  557TMC3    C6 8317   2.981   2.360   9.780  0.2024  0.2523  0.2361
  557TMC3     C 8318   3.073   2.735   9.945  0.5958 -0.3663 -0.1802
  557TMC3     O 8319   3.094   2.812   9.853 -0.1170  0.5245 -0.1607
  557TMC3     H 8320   2.883   2.693   9.778  0.1496  0.1788  0.9024
  557TMC3    H1 8321   3.190   2.512  10.000 -0.1785 -1.7852  0.7281
  557TMC3    H2 8322   2.940   2.264   9.752 -1.5770  0.8332  0.8749
  557TMC3    C7 8323   3.131   2.262   9.947 -0.2807  0.0893 -0.2543
  557TMC3    C8 8324   2.774   2.464   9.697  0.1167 -0.9090 -0.1230
  557TMC3    O1 8325   3.248   2.277   9.971 -0.0582  0.9928  0.3491
  557TMC3    O2 8326   2.697   2.557   9.721  0.1609  0.1405 -0.5773
  558TMC3    C1 8327   0.782   0.770  10.236 -0.2931  0.7510 -0.5338
  558TMC3    C2 8328   0.654   0.755  10.282  0.3423 -0.2909 -0.1209
  558TMC3    C3 8329   0.550   0.799  10.208  0.8830 -0.0361 -0.0879
  558TMC3    C4 8330   0.804   0.835  10.119 -0.2582  0.0130  0.3559
  558TMC3    C5 8331   0.700   0.873  10.042 -0.7980  0.2930 -0.1034
  558TMC3    C6 8332   0.568   0.852  10.086  0.1020 -0.2125 -0.1277
  558TMC3     C 8333   0.899   0.760  10.325  0.2333  0.0948  0.0687
  558TMC3     O 8334   1.006   0.805  10.289  0.2349 -0.0370 -0.0253
  558TMC3     H 8335   0.643   0.703  10.376 -0.3365 -0.1432 -0.1178
  558TMC3    H1 8336   0.903   0.841  10.077 -0.1195 -1.7655  0.4236
  558TMC3    H2 8337   0.488   0.908  10.037  0.4038  3.3919  3.4090
  558TMC3    C7 8338   0.722   0.901   9.901  0.8981 -0.3745 -0.0453
  558TMC3    C8 8339   0.415   0.810  10.262  0.2479 -0.2221 -0.0897
  558TMC3    O1 8340   0.838   0.918   9.867  0.5472  0.3696  0.2561
  558TMC3    O2 8341   0.320   0.841  10.190 -0.4124 -0.0315 -0.3776
  559MPD2     C 8342   0.729   1.226  10.110 -0.5523 -0.6923 -0.0383
  559MPD2    C1 8343   0.687   1.169  10.228 -0.8633 -0.2099 -0.2051
  559MPD2    C2 8344   0.793   1.133  10.314  1.1634 -0.1297 -0.5314
  559MPD2    C3 8345   0.922   1.150  10.283  0.8668  0.2035  0.1474
  559MPD2    C4 8346   0.955   1.200  10.158 -0.2495 -0.4216 -0.3256
  559MPD2    C5 8347   0.858   1.223  10.068 -0.1800 -0.4721  0.0364
  559MPD2     H 8348   0.777   1.098  10.415 -1.3135 -0.9296 -1.1848
  559MPD2    H1 8349   1.057   1.190  10.123  1.6899 -0.8413  5.4494
  559MPD2    H2 8350   0.652   1.272  10.049 -0.0749 -3.2496 -2.5968
  559MPD2    H3 8351   0.874   1.262   9.968 -1.7563 -3.4038 -1.3603
  559MPD2     N 8352   1.019   1.106  10.375  0.3200  0.3422  0.0687
  559MPD2    H5 8353   0.984   1.059  10.458 -3.1687  1.3821 -0.8236
  559MPD2    N1 8354   0.552   1.168  10.258 -0.1805 -0.5832  0.1458
  559MPD2    H7 8355   0.491   1.195  10.182 -1.6128  0.9220  1.8466
  560TMC3    C1 8356   1.217   1.080  10.493 -0.4834  0.1477  0.6959
  560TMC3    C2 8357   1.159   0.980  10.569  0.4640  0.0137 -0.6651
  560TMC3    C3 8358   1.203   0.955  10.690 -0.6320 -0.4190 -0.1695
  560TMC3    C4 8359   1.323   1.155  10.554 -0.7773 -0.1243  0.2428
  560TMC3    C5 8360   1.359   1.124  10.684 -0.3880  0.3960  0.4376
  560TMC3    C6 8361   1.296   1.026  10.752  0.2763  0.0405 -0.3621
  560TMC3     C 8362   1.154   1.125  10.369  0.6278  0.0246  0.0663
  560TMC3     O 8363   1.217   1.203  10.297 -0.0389 -0.5467 -0.1637
  560TMC3     H 8364   1.082   0.920  10.521  1.4115 -1.0720 -0.8356
  560TMC3    H1 8365   1.369   1.238  10.501  0.7507 -1.3542 -0.3502
  560TMC3    H2 8366   1.318   1.009  10.857  0.7367  0.5193 -0.3797
  560TMC3    C7 8367   1.455   1.218  10.749 -0.2922 -0.2971 -0.7137
  560TMC3    C8 8368   1.097   0.889  10.765  0.2901 -0.0842  0.2992
  560TMC3    O1 8369   1.528   1.287  10.676 -0.4113 -0.1168 -0.3419
  560TMC3    O2 8370   0.985   0.889  10.714  0.0991 -0.3456 -0.1232
  561TMC3    C1 8371   3.910   0.264  11.171 -0.1395  0.0704 -0.2397
  561TMC3    C2 8372   3.865   0.195  11.277 -0.6882 -0.3939  0.4141
  561TMC3    C3 8373   3.829   0.262  11.395 -0.4920  1.0163 -0.0198
  561TMC3    C4 8374   3.922   0.401  11.178  0.3788  0.1163  0.2042
  561TMC3    C5 8375   3.889   0.465  11.297  0.0143  0.7941 -0.2052
  561TMC3    C6 8376   3.841   0.393  11.410  0.0747 -0.3070  0.2559
  561TMC3     C 8377   3.965   0.180  11.068 -0.0635  0.0406  0.1142
  561TMC3     O 8378   3.939   0.063  11.071  0.1253 -0.0535 -0.8449
  561TMC3     H 8379   3.865   0.086  11.274 -1.1335 -0.3676 -0.5218
  561TMC3    H1 8380   3.985   0.453  11.107  0.4191 -0.8953 -0.5103
  561TMC3    H2 8381   3.829   0.449  11.502 -1.1411  0.0781 -0.1412
  561TMC3    C7 8382   3.911   0.604  11.318  0.4153 -0.0195  0.3300
  561TMC3    C8 8383   3.758   0.190  11.492  0.1199  0.1338 -0.0691
  561TMC3    O1 8384   3.915   0.642  11.433  0.4811  0.2695 -0.1092
  561TMC3    O2 8385   3.745   0.069  11.482 -0.1434  0.4758  0.0225
  562TMC3    C1 8386   0.602   2.030  16.083  0.5132  0.8847  0.1720
  562TMC3    C2 8387   0.535   2.147  16.122 -0.2827 -0.4197 -0.2047
  562TMC3    C3 8388   0.431   2.193  16.043  0.0047  0.6029  0.4359
  562TMC3    C4 8389   0.563   1.952  15.981 -0.0357  0.3753  0.2510
  562TMC3    C5 8390   0.449   1.994  15.916  0.4634  0.0448  0.5019
  562TMC3    C6 8391   0.383   2.111  15.943 -0.3884  0.1677  0.5223
  562TMC3     C 8392   0.695   1.984  16.181  0.3894 -0.2786  0.0591
  562TMC3     O 8393   0.661   1.970  16.298  0.6648  0.1826  0.6146
  562TMC3     H 8394   0.570   2.193  16.214  0.2650  0.2413 -0.7322
  562TMC3    H1 8395   0.620   1.863  15.958  0.0406  0.4129  0.2938
  562TMC3    H2 8396   0.293   2.135  15.888 -0.4831  1.0704  1.0687
  562TMC3    C7 8397   0.420   1.946  15.785 -0.3112 -0.1589  0.2191
  562TMC3    C8 8398   0.383   2.336  16.058  0.0805 -0.0617 -0.7417
  562TMC3    O1 8399   0.374   2.026  15.704 -0.1968  0.0029  0.3590
  562TMC3    O2 8400   0.400   2.388  16.165 -0.1497  0.5106 -0.1442
  563MPD2     C 8401   2.784   3.507  15.429  0.7830 -0.1308 -0.1321
  563MPD2    C1 8402   2.792   3.526  15.569 -0.0939  0.5546  0.7136
  563MPD2    C2 8403   2.915   3.500  15.629  1.3048  0.4376  0.2578
  563MPD2    C3 8404   3.015   3.448  15.555 -0.3089  0.5494 -0.2863
  563MPD2    C4 8405   3.002   3.414  15.425 -0.4558 -0.0737 -0.3134
  563MPD2    C5 8406   2.887   3.452  15.362  0.6868 -0.0949 -0.4488
  563MPD2     H 8407   2.928   3.527  15.733  2.6970 -0.7160  0.3823
  563MPD2    H1 8408   3.084   3.380  15.362 -0.3832  0.9517 -0.7749
  563MPD2    H2 8409   2.696   3.527  15.370  0.1184 -1.5410  0.3910
  563MPD2    H3 8410   2.876   3.448  15.254  0.8935 -1.5117 -0.4110
  563MPD2     N 8411   3.139   3.444  15.624  0.8841 -0.3069 -0.2024
  563MPD2    H5 8412   3.141   3.474  15.721 -2.1467  3.6078 -1.3493
  563MPD2    N1 8413   2.671   3.573  15.632  0.0343  0.4596 -0.5362
  563MPD2    H7 8414   2.589   3.553  15.576 -0.8633 -1.2939  1.3969
  564TMC3    C1 8415   2.555   3.612  15.828 -0.4983  0.0585  0.2324
  564TMC3    C2 8416   2.509   3.482  15.824  0.0536  0.0755  0.1321
  564TMC3    C3 8417   2.494   3.409  15.934 -0.4607  0.8533  0.2576
  564TMC3    C4 8418   2.565   3.672  15.950 -0.1524  0.0778  0.1437
  564TMC3    C5 8419   2.548   3.594  16.060  0.7108  0.5176  0.2238
  564TMC3    C6 8420   2.519   3.459  16.054  0.1593  0.9772  0.5409
  564TMC3     C 8421   2.673   3.648  15.744  0.5215 -0.3605 -0.2662
  564TMC3     O 8422   2.763   3.704  15.805  0.3980 -0.1844 -0.0329
  564TMC3     H 8423   2.489   3.443  15.725  1.2551  0.7254 -0.3728
  564TMC3    H1 8424   2.598   3.775  15.959 -1.1476  0.1358  3.4842
  564TMC3    H2 8425   2.525   3.393  16.140  0.1456  1.7416  1.1269
  564TMC3    C7 8426   2.607   3.640  16.189 -0.5208 -0.3217  0.5420
  564TMC3    C8 8427   2.512   3.262  15.926 -0.5629  0.6240  0.1984
  564TMC3    O1 8428   2.583   3.752  16.230 -0.3212 -0.3816 -0.4437
  564TMC3    O2 8429   2.469   3.192  16.016 -0.2592 -0.2498  0.3118
  565TMC3    C1 8430   2.562   4.671   9.792 -0.2418  0.7271 -0.0516
  565TMC3    C2 8431   2.640   4.588   9.861  0.7393  0.2168 -0.6355
  565TMC3    C3 8432   2.591   4.461   9.881  0.2505 -0.0110 -0.1800
  565TMC3    C4 8433   2.433   4.636   9.740 -0.6304  0.2737  0.6343
  565TMC3    C5 8434   2.389   4.509   9.768 -0.0720  0.0015 -0.2424
  565TMC3    C6 8435   2.461   4.426   9.854 -0.0659 -0.6709 -0.0579
  565TMC3     C 8436   2.632   0.038   9.726  0.6758  0.1168 -0.7905
  565TMC3     O 8437   2.724   0.096   9.781  0.4262  0.5300 -0.2444
  565TMC3     H 8438   2.739   4.624   9.883  0.2236  0.6222  1.0684
  565TMC3    H1 8439   2.372   4.705   9.682  0.2369  2.0718  1.8665
  565TMC3    H2 8440   2.428   4.325   9.874 -3.3226  0.5851  0.8989
  565TMC3    C7 8441   2.246   4.487   9.740  0.0918  0.6223  0.4543
  565TMC3    C8 8442   2.670   4.358   9.962 -0.1761  0.0460 -0.5428
  565TMC3    O1 8443   2.196   4.558   9.655 -0.1529  0.4894 -0.0938
  565TMC3    O2 8444   2.614   4.250   9.977 -0.2052  0.1080  0.5596
  566MPD2     C 8445   4.366   1.223  14.209  0.9137 -0.4888 -0.2176
  566MPD2    C1 8446   4.404   1.282  14.088 -0.1505 -0.9523  0.5531
  566MPD2    C2 8447   4.359   1.223  13.969 -0.1112  0.5506  1.0876
  566MPD2    C3 8448   4.286   1.105  13.975 -1.0694  0.0951 -0.1565
  566MPD2    C4 8449   4.247   1.056  14.096 -0.5702  0.4217  0.2387
  566MPD2    C5 8450   4.291   1.110  14.212  0.4737  0.0230  0.0108
  566MPD2     H 8451   4.392   1.256  13.871 -0.3335 -0.6108  0.6213
  566MPD2    H1 8452   4.184   0.969  14.108  1.4105 -1.1782 -0.9000
  566MPD2    H2 8453   4.391   1.270  14.304  3.5901 -0.2975 -1.0104
  566MPD2    H3 8454   4.261   1.067  14.306 -1.5939 -1.1497 -1.1991
  566MPD2     N 8455   4.241   1.030  13.866 -0.4220 -0.4496 -0.3371
  566MPD2    H5 8456   4.212   0.934  13.882 -1.4575 -0.2797 -1.2063
  566MPD2    N1 8457   4.510   1.379  14.082  0.0242 -0.1347  0.8054
  566MPD2    H7 8458   4.577   1.388  14.157 -0.8386  2.4793  1.2586
  567TMC3    C1 8459   4.688   1.438  13.941 -0.2835  0.3832 -0.7319
  567TMC3    C2 8460   4.736   1.457  13.812 -0.9269  1.0437  0.2232
  567TMC3    C3 8461   0.115   1.406  13.778  1.0448  0.2054 -0.4682
  567TMC3    C4 8462   0.032   1.370  14.029  0.2935  0.0806  0.0879
  567TMC3    C5 8463   0.154   1.330  13.995  0.1128  0.3996 -0.0842
  567TMC3    C6 8464   0.200   1.352  13.870 -0.6052 -0.3079  0.4065
  567TMC3     C 8465   4.546   1.429  13.963 -0.1100  0.1601 -0.3334
  567TMC3     O 8466   4.475   1.456  13.864 -0.5212  0.2500  0.5529
  567TMC3     H 8467   4.674   1.506  13.737 -0.6963 -0.6170 -1.0431
  567TMC3    H1 8468   4.735   1.330  14.123  0.6601 -1.3843 -0.4012
  567TMC3    H2 8469   0.295   1.308  13.842  0.0659  0.8735  0.8011
  567TMC3    C7 8470   0.229   1.248  14.093 -0.8693 -0.2220  0.2994
  567TMC3    C8 8471   0.148   1.418  13.643  0.3123 -0.4552  0.1645
  567TMC3    O1 8472   0.322   1.178  14.055  0.2312  0.1186 -0.2832
  567TMC3    O2 8473   0.058   1.412  13.560  0.1796 -0.1274 -0.5772
  568MPD2     C 8474   2.330   1.732  16.062  0.2076 -0.0951  0.4346
  568MPD2    C1 8475   2.350   1.817  16.166 -0.0626 -0.6665 -0.0224
  568MPD2    C2 8476   2.338   1.951  16.144 -0.1053 -0.6345  0.1865
  568MPD2    C3 8477   2.350   1.996  16.018 -0.3978  0.3987 -0.7760
  568MPD2    C4 8478   2.358   1.912  15.908 -0.5296 -0.0759  0.2511
  568MPD2    C5 8479   2.331   1.782  15.931  0.3634  0.0112  0.6553
  568MPD2     H 8480   2.326   2.022  16.225 -0.9594 -1.3030  0.6410
  568MPD2    H1 8481   2.346   1.950  15.807  2.1772 -1.2667 -0.5180
  568MPD2    H2 8482   2.311   1.626  16.072 -0.7550  0.1990  1.6525
  568MPD2    H3 8483   2.310   1.721  15.843  1.2427 -0.6362  0.8960
  568MPD2     N 8484   2.363   2.140  16.003 -0.3676 -0.5400 -0.5510
  568MPD2    H5 8485   2.354   2.195  16.089 -1.0633 -0.6178 -0.5744
  568MPD2    N1 8486   2.357   1.774  16.297  0.2629 -0.0214  0.1422
  568MPD2    H7 8487   2.325   1.678  16.311 -1.6792  0.5578 -0.3902
  569TMC3    C1 8488   2.396   2.347  15.921  0.9327  0.3123 -1.0618
  569TMC3    C2 8489   2.347   2.389  16.043 -0.1665 -0.2322 -0.5348
  569TMC3    C3 8490   2.395   2.513  16.093 -0.2868  0.0389 -0.3367
  569TMC3    C4 8491   2.498   2.414  15.859 -0.3612 -0.7254  0.2721
  569TMC3    C5 8492   2.541   2.533  15.909  0.2138  0.1916  0.2972
  569TMC3    C6 8493   2.497   2.582  16.033  0.0306  0.0318  0.6575
  569TMC3     C 8494   2.382   2.208  15.887  0.1724 -0.0311 -0.0536
  569TMC3     O 8495   2.427   2.175  15.780 -0.0792  0.6981 -0.2040
  569TMC3     H 8496   2.270   2.334  16.096  0.0165 -0.2409 -0.2822
  569TMC3    H1 8497   2.537   2.380  15.764  0.9777  0.5418  0.3722
  569TMC3    H2 8498   2.536   2.674  16.075 -0.2694  0.2822  0.3846
  569TMC3    C7 8499   2.613   2.618  15.821 -0.9535  0.1597  0.1258
  569TMC3    C8 8500   2.357   2.531  16.231  0.4778  0.1595  0.2847
  569TMC3    O1 8501   2.657   2.578  15.713 -0.1357 -0.1232 -0.2354
  569TMC3    O2 8502   2.248   2.492  16.281  0.5273  0.1274 -0.7433
  570TMC3    C1 8503   1.563   0.650  15.955  0.2543  0.1926  0.1006
  570TMC3    C2 8504   1.636   0.657  15.837  0.1249 -1.2031  0.8647
  570TMC3    C3 8505   1.702   0.778  15.824 -0.6124 -0.2662 -0.1053
  570TMC3    C4 8506   1.559   0.751  16.049 -0.3600  0.1060 -0.6325
  570TMC3    C5 8507   1.625   0.863  16.028  0.0793 -0.1825  0.4267
  570TMC3    C6 8508   1.699   0.879  15.915 -0.1725  0.0041 -0.2700
  570TMC3     C 8509   1.492   0.530  15.990  0.0627 -0.1581  0.4639
  570TMC3     O 8510   1.480   0.460  15.891  0.1371 -0.2456  0.3200
  570TMC3     H 8511   1.653   0.573  15.771 -1.7454 -0.4661 -0.5756
  570TMC3    H1 8512   1.502   0.740  16.141  1.9607  1.4170  0.9663
  570TMC3    H2 8513   1.755   0.970  15.897  1.2714 -0.4641  1.7642
  570TMC3    C7 8514   1.603   0.977  16.117  0.2932 -0.1602  0.1685
  570TMC3    C8 8515   1.786   0.812  15.711 -0.2841 -0.3862  0.0610
  570TMC3    O1 8516   1.574   0.951  16.239 -0.4656  0.5738 -0.4570
  570TMC3    O2 8517   1.874   0.899  15.719 -0.2767 -0.0123 -0.8043
  571MPD2     C 8518   4.271   2.984   0.460  0.4266  0.5954 -0.0946
  571MPD2    C1 8519   4.169   3.068   0.433  0.1628 -1.0145  0.4842
  571MPD2    C2 8520   4.200   3.203   0.435  0.2166  0.2732  0.6727
  571MPD2    C3 8521   4.322   3.254   0.466  0.7121 -0.5367  0.0729
  571MPD2    C4 8522   4.419   3.166   0.510  0.1155 -0.3502 -0.5193
  571MPD2    C5 8523   4.387   3.031   0.503  0.6817 -0.5901 -0.8878
  571MPD2     H 8524   4.116   3.270   0.415 -0.4216 -1.1637 -1.4278
  571MPD2    H1 8525   4.521   3.185   0.541 -0.8290  3.2891  0.3673
  571MPD2    H2 8526   4.273   2.877   0.441  1.8440  0.6086 -0.0094
  571MPD2    H3 8527   4.463   2.960   0.533  0.2653 -0.0691  1.4854
  571MPD2     N 8528   4.340   3.391   0.473  0.0726 -0.2116  0.2808
  571MPD2    H5 8529   4.431   3.424   0.505  0.0045  1.0292 -0.8323
  571MPD2    N1 8530   4.056   3.006   0.374  0.3068 -0.2043  0.0999
  571MPD2    H7 8531   4.060   2.905   0.382 -0.4663 -0.2166  0.2930
  572TMC3    C1 8532   4.333   3.621   0.468 -0.0463  0.2580 -0.5871
  572TMC3    C2 8533   4.435   3.627   0.565 -0.1682  0.1379  0.2441
  572TMC3    C3 8534   4.511   3.740   0.573 -0.2103 -0.1987 -0.0186
  572TMC3    C4 8535   4.320   3.727   0.379 -0.5060 -0.1352 -0.1360
  572TMC3    C5 8536   4.401   3.833   0.388 -0.7844  0.1684  0.4989
  572TMC3    C6 8537   4.504   3.844   0.484 -0.9250  0.0041 -0.4244
  572TMC3     C 8538   4.253   3.494   0.452 -0.2074 -0.0197 -0.0656
  572TMC3     O 8539   4.141   3.506   0.412 -0.0103 -0.6148 -0.1223
  572TMC3     H 8540   4.435   3.545   0.637  0.8933 -1.4856 -1.5824
  572TMC3    H1 8541   4.249   3.723   0.298 -1.6492 -0.1381  0.8751
  572TMC3    H2 8542   4.581   3.920   0.481 -0.9253 -0.0213 -1.1405
  572TMC3    C7 8543   4.385   3.934   0.288  0.3670 -0.2076  0.4288
  572TMC3    C8 8544   4.633   3.736   0.654 -0.2394 -0.4953 -0.0374
  572TMC3    O1 8545   4.301   3.910   0.201 -0.3107 -0.6729 -0.2068
  572TMC3    O2 8546   4.713   3.826   0.637  0.0214 -0.0617  0.8570
  573MPD2     C 8547   0.809   3.604   0.452  0.9786 -0.4171  0.7748
  573MPD2    C1 8548   0.759   3.627   0.572 -0.4920 -0.2570  0.3436
  573MPD2    C2 8549   0.669   3.539   0.624  0.5446 -0.0294 -0.5350
  573MPD2    C3 8550   0.609   3.454   0.537 -0.4325  0.0243  0.0297
  573MPD2    C4 8551   0.656   3.429   0.412 -0.2961 -0.1142 -0.0914
  573MPD2    C5 8552   0.769   3.492   0.376 -0.4841 -0.1138  0.7035
  573MPD2     H 8553   0.628   3.546   0.724  0.6050  1.4481 -0.6144
  573MPD2    H1 8554   0.616   3.344   0.358  3.5366 -1.8899 -0.1452
  573MPD2    H2 8555   0.880   3.670   0.403  1.0885 -1.1517 -0.0620
  573MPD2    H3 8556   0.816   3.471   0.281 -1.6175  1.4416 -0.1969
  573MPD2     N 8557   0.492   3.382   0.578 -0.1448 -0.1612 -0.2062
  573MPD2    H5 8558   0.448   3.318   0.513  0.3147  0.7782 -1.4333
  573MPD2    N1 8559   0.807   3.732   0.659 -0.0356 -0.2212  0.2066
  573MPD2    H7 8560   0.781   3.729   0.758  1.7539 -2.1191  0.6263
  574TMC3    C1 8561   0.302   3.321   0.701 -0.0232  0.5469 -0.4439
  574TMC3    C2 8562   0.220   3.359   0.599  0.7739 -0.5796 -0.8266
  574TMC3    C3 8563   0.088   3.339   0.614  0.2817  0.3913 -0.1807
  574TMC3    C4 8564   0.253   3.281   0.827  0.3415 -0.2288 -0.2747
  574TMC3    C5 8565   0.120   3.258   0.834 -0.0632 -0.2561 -0.0847
  574TMC3    C6 8566   0.031   3.293   0.733 -0.2736  0.3695 -0.2007
  574TMC3     C 8567   0.435   3.380   0.705 -0.5295 -0.1607  0.6527
  574TMC3     O 8568   0.473   3.419   0.814 -0.0791 -0.4654 -0.1798
  574TMC3     H 8569   0.250   3.396   0.502  2.0896 -1.4512 -0.7636
  574TMC3    H1 8570   0.322   3.261   0.908  0.4775 -0.4162 -0.4352
  574TMC3    H2 8571   4.664   3.265   0.728 -0.4022  0.3732  2.5743
  574TMC3    C7 8572   0.085   3.158   0.929  0.7481  0.6910  0.5041
  574TMC3    C8 8573   0.004   3.398   0.510  0.1518  0.0926 -0.4430
  574TMC3    O1 8574   0.175   3.095   0.982 -0.1385  0.1689  0.3235
  574TMC3    O2 8575   4.622   3.381   0.525  0.5740 -0.0889  0.2748
  575TMC3    C1 8576   2.882   3.611  10.392  0.1911 -0.2205 -0.4837
  575TMC3    C2 8577   2.937   3.521  10.304  0.0962 -0.1888  0.2966
  575TMC3    C3 8578   2.954   3.562  10.179 -0.0182 -0.3354 -0.4265
  575TMC3    C4 8579   2.867   3.743  10.358  0.8280 -0.0044 -0.7210
  575TMC3    C5 8580   2.893   3.783  10.232  0.1902 -0.4173 -0.3284
  575TMC3    C6 8581   2.923   3.691  10.136  0.1557 -0.7317  0.6878
  575TMC3     C 8582   2.872   3.573  10.531  0.0088 -0.1365 -0.4269
  575TMC3     O 8583   2.862   3.660  10.615 -0.3204  0.5489 -0.5119
  575TMC3     H 8584   2.978   3.424  10.330  1.5803  0.7295  1.3804
  575TMC3    H1 8585   2.810   3.803  10.429  0.1526 -0.5248 -0.8262
  575TMC3    H2 8586   2.939   3.715  10.031 -2.4621 -0.6020  0.3367
  575TMC3    C7 8587   2.874   3.920  10.183  0.1869 -0.4714 -0.2013
  575TMC3    C8 8588   3.013   3.456  10.087  0.3825 -0.1884 -0.0386
  575TMC3    O1 8589   2.858   3.932  10.063 -0.0525  0.0073  0.3182
  575TMC3    O2 8590   3.055   3.351  10.131 -0.5997 -0.2582 -0.4533
  576MPD2     C 8591   2.475   0.409  12.181  0.2403 -0.1677  0.1913
  576MPD2    C1 8592   2.533   0.530  12.140  0.0157  0.3914 -0.3502
  576MPD2    C2 8593   2.490   0.653  12.185 -0.0376 -0.6706  0.1181
  576MPD2    C3 8594   2.378   0.660  12.269  0.1992 -0.2088 -0.0096
  576MPD2    C4 8595   2.319   0.540  12.306 -0.2118  0.2530 -0.6837
  576MPD2    C5 8596   2.364   0.416  12.264  0.1268 -0.0888 -0.5454
  576MPD2     H 8597   2.534   0.744  12.147 -0.7936  0.3604  1.6904
  576MPD2    H1 8598   2.233   0.541  12.371  0.5311  2.2528  0.2561
  576MPD2    H2 8599   2.511   0.315  12.141  0.0064  0.3795 -1.3360
  576MPD2    H3 8600   2.326   0.321  12.301 -0.4119  0.9289  1.5111
  576MPD2     N 8601   2.343   0.781  12.323  0.1178 -0.1975 -0.0789
  576MPD2    H5 8602   2.397   0.857  12.283  1.6047 -1.1226  0.1579
  576MPD2    N1 8603   2.655   0.531  12.078  0.0683 -0.4033 -0.7949
  576MPD2    H7 8604   2.688   0.622  12.046  1.7180 -0.5356  0.5483
  577TMC3    C1 8605   2.863   0.463  11.971  0.3805 -0.3454  0.0911
  577TMC3    C2 8606   2.959   0.369  11.975  0.3967 -0.3287 -0.1356
  577TMC3    C3 8607   3.079   0.413  11.915  0.5241  0.5804  0.9061
  577TMC3    C4 8608   2.873   0.587  11.910  0.3876 -0.1422  0.7569
  577TMC3    C5 8609   2.995   0.619  11.861  0.1608  0.0273  0.2091
  577TMC3    C6 8610   3.106   0.538  11.860  0.2508 -0.5460 -0.2058
  577TMC3     C 8611   2.746   0.433  12.059  0.9332  0.3604  0.3065
  577TMC3     O 8612   2.747   0.325  12.112 -0.3047  0.3878 -0.1654
  577TMC3     H 8613   2.950   0.269  12.015  2.0105 -0.5917 -0.4443
  577TMC3    H1 8614   2.799   0.664  11.927  1.1203  0.3587  1.6814
  577TMC3    H2 8615   3.199   0.565  11.811 -0.4436  0.1645 -1.1280
  577TMC3    C7 8616   3.000   0.739  11.782 -0.4933 -0.2214  0.1477
  577TMC3    C8 8617   3.183   0.315  11.920  0.0524  1.0298  0.9993
  577TMC3    O1 8618   3.113   0.786  11.761  0.5346  0.8347  0.0549
  577TMC3    O2 8619   3.157   0.205  11.969 -0.1217  0.6208  0.3696
  578MPD2     C 8620   1.948   0.999   0.773  0.4602 -0.4254 -0.4474
  578MPD2    C1 8621   1.929   0.901   0.680  0.4113 -0.1821  0.3386
  578MPD2    C2 8622   1.923   0.771   0.725  0.4378  0.1015  0.1194
  578MPD2    C3 8623   1.943   0.739   0.864  0.7296  0.4933 -0.0907
  578MPD2    C4 8624   1.959   0.847   0.958 -0.4372  0.1542 -0.1220
  578MPD2    C5 8625   1.963   0.977   0.910  0.3769  0.0765  0.6887
  578MPD2     H 8626   1.895   0.690   0.658 -0.5350 -0.1148  0.7822
  578MPD2    H1 8627   1.994   0.832   1.060 -2.7110 -0.7207  0.5280
  578MPD2    H2 8628   1.952   1.104   0.747  0.7632 -0.2101  0.4651
  578MPD2    H3 8629   1.979   1.063   0.974 -0.1590  0.1834  0.6802
  578MPD2     N 8630   1.961   0.602   0.894 -0.1953 -0.6578 -0.4213
  578MPD2    H5 8631   1.955   0.544   0.812  2.4606 -1.3076 -0.1683
  578MPD2    N1 8632   1.896   0.944   0.549  0.7528 -0.4036 -0.0714
  578MPD2    H7 8633   1.912   1.043   0.530 -1.0028  0.2369  1.8225
  579TMC3    C1 8634   1.995   0.408   1.015  0.0558 -0.4887 -0.1892
  579TMC3    C2 8635   2.077   0.357   1.117 -0.3248 -0.0808 -0.9770
  579TMC3    C3 8636   2.111   0.221   1.116  0.4408 -0.6153 -0.2019
  579TMC3    C4 8637   1.942   0.328   0.919  0.3675  0.1566 -0.8543
  579TMC3    C5 8638   1.984   0.200   0.921  0.2341 -0.3251 -0.4315
  579TMC3    C6 8639   2.070   0.142   1.010 -0.4345  0.7488 -0.0629
  579TMC3     C 8640   1.969   0.548   1.016  0.4817 -0.3681  0.2764
  579TMC3     O 8641   1.979   0.612   1.118 -0.1591 -0.2544  0.0875
  579TMC3     H 8642   2.107   0.418   1.201 -2.7433  1.2075 -1.0595
  579TMC3    H1 8643   1.868   0.370   0.851  0.1878  1.2022 -0.0269
  579TMC3    H2 8644   2.116   0.050   0.976  0.2214  0.8973  0.4331
  579TMC3    C7 8645   1.955   0.124   0.795  0.1621 -0.2661 -0.6262
  579TMC3    C8 8646   2.243   0.181   1.166  0.2264 -0.0352 -0.1593
  579TMC3    O1 8647   2.014   0.023   0.763  0.8108  0.4025 -0.1268
  579TMC3    O2 8648   2.257   0.067   1.210 -0.2902  0.4722  0.8641
  580TMC3    C1 8649   0.409   4.379  11.889 -0.2640 -0.6948 -0.5485
  580TMC3    C2 8650   0.508   4.442  11.827 -0.1800 -0.1517 -0.5339
  580TMC3    C3 8651   0.632   4.448  11.878  0.3182 -0.0633 -0.4588
  580TMC3    C4 8652   0.439   4.327  12.014 -0.3349  0.1760 -0.4889
  580TMC3    C5 8653   0.562   4.332  12.062 -0.3058  0.3080  0.0891
  580TMC3    C6 8654   0.663   4.392  12.000 -0.4486  1.0452  0.2571
  580TMC3     C 8655   0.289   4.457  11.890  0.4061  0.1939 -0.4593
  580TMC3     O 8656   0.188   4.398  11.925  0.0178  0.3805  0.0010
  580TMC3     H 8657   0.508   4.489  11.729  1.2560  0.9232 -0.0155
  580TMC3    H1 8658   0.357   4.288  12.074 -2.1079  2.8991 -1.1438
  580TMC3    H2 8659   0.759   4.406  12.047 -0.8130 -0.9031  1.5653
  580TMC3    C7 8660   0.606   4.238  12.159 -0.1327  0.4244 -0.6695
  580TMC3    C8 8661   0.698   4.569  11.850  0.4934 -0.0684  0.1635
  580TMC3    O1 8662   0.719   4.255  12.192  0.0790 -0.1044  0.1745
  580TMC3    O2 8663   0.625   4.661  11.815 -0.4582  0.2122 -0.0514
  581MPD2     C 8664   3.426   4.472  14.277 -0.1316 -0.4578 -0.7111
  581MPD2    C1 8665   3.372   4.541  14.382  0.1967 -0.0315  0.8673
  581MPD2    C2 8666   3.249   4.607  14.367 -0.8102  0.4543  0.3892
  581MPD2    C3 8667   3.173   4.599  14.250  0.4442 -0.3882  0.2430
  581MPD2    C4 8668   3.231   4.520  14.144  0.1095 -0.4630 -0.0337
  581MPD2    C5 8669   3.355   4.466  14.158  0.1218 -0.2637  0.1214
  581MPD2     H 8670   3.207   4.657  14.453 -2.5845  0.8408 -0.7018
  581MPD2    H1 8671   3.185   4.512  14.046  2.1808 -0.7459 -0.9953
  581MPD2    H2 8672   3.521   4.421  14.294 -0.4276  0.4618  3.5789
  581MPD2    H3 8673   3.393   4.420  14.067 -0.2929  0.3235 -0.3395
  581MPD2     N 8674   3.041   4.660  14.244  0.3632 -0.2238 -0.2845
  581MPD2    H5 8675   3.004   4.711  14.323  0.3009  0.8772 -1.0208
  581MPD2    N1 8676   3.436   4.526  14.507  0.0576 -0.5639  0.2276
  581MPD2    H7 8677   3.511   4.458  14.510  1.3707  0.9073  0.5388
  582TMC3    C1 8678   3.522   4.557  14.711  0.4778  0.6700  1.6383
  582TMC3    C2 8679   3.564   4.643  14.811 -1.4115 -0.2865 -0.1038
  582TMC3    C3 8680   3.652   4.606  14.911  0.2354 -0.6601 -1.1533
  582TMC3    C4 8681   3.571   4.433  14.706 -0.1907 -0.5302 -0.1932
  582TMC3    C5 8682   3.662   4.395  14.803 -0.4780  0.6974  0.7129
  582TMC3    C6 8683   3.711   4.482  14.900  0.4173  0.1600 -0.6848
  582TMC3     C 8684   3.419   4.597  14.619  0.3709 -0.3982  0.3231
  582TMC3     O 8685   3.352   4.692  14.642  0.4298 -0.3555  0.3304
  582TMC3     H 8686   3.530   0.008  14.809 -3.0672 -0.8140  1.3072
  582TMC3    H1 8687   3.523   4.357  14.646 -1.0977 -1.1980  1.4020
  582TMC3    H2 8688   3.755   4.439  14.990 -2.1577  1.6439  1.2711
  582TMC3    C7 8689   3.666   4.254  14.830  0.1345 -0.1004  0.0198
  582TMC3    C8 8690   3.621   4.639  15.050  0.4490  0.7219  0.1834
  582TMC3    O1 8691   3.774   4.199  14.805  0.5572  0.2995  0.1300
  582TMC3    O2 8692   3.507   4.665  15.082 -0.1870 -0.4466  0.1546
  583MPD2     C 8693   3.538   1.731  16.543 -0.3769 -0.5303  0.1250
  583MPD2    C1 8694   3.588   1.856  16.510  0.0709  0.5251  0.3304
  583MPD2    C2 8695   3.537   1.964  16.577  0.2345  0.8252 -0.0757
  583MPD2    C3 8696   3.464   1.947  16.690  0.7894 -0.0261 -0.4940
  583MPD2    C4 8697   3.423   1.820  16.722  0.5441  0.1732 -0.2744
  583MPD2    C5 8698   3.471   1.718  16.657  0.1596 -0.2627 -0.3448
  583MPD2     H 8699   3.589   2.057  16.562  2.4204 -0.1100  1.7300
  583MPD2    H1 8700   3.358   1.800  16.806  1.9718 -1.2172  0.4820
  583MPD2    H2 8701   3.570   1.639  16.495 -3.0211 -1.0720 -0.6046
  583MPD2    H3 8702   3.454   1.615  16.688 -0.4565 -0.1028 -0.1406
  583MPD2     N 8703   3.429   2.059  16.761  0.1306  0.8489 -0.1669
  583MPD2    H5 8704   3.457   2.152  16.729 -1.1113  1.1013 -0.5084
  583MPD2    N1 8705   3.678   1.870  16.400 -0.2498  0.1694 -0.0680
  583MPD2    H7 8706   3.691   1.958  16.352  0.6553  0.3989  0.6109
  584TMC3    C1 8707   3.360   2.187  16.946 -0.2407  0.2106 -0.1657
  584TMC3    C2 8708   3.355   2.305  16.873 -0.5984 -0.1997 -0.0465
  584TMC3    C3 8709   3.371   2.422  16.940 -0.0554 -0.4539 -0.1111
  584TMC3    C4 8710   3.356   2.187  17.077  0.3383 -0.0279  0.1665
  584TMC3    C5 8711   3.368   2.303  17.148  0.3596  0.7991 -0.0376
  584TMC3    C6 8712   3.379   2.423  17.077  0.6826 -0.9301 -0.2437
  584TMC3     C 8713   3.348   2.062  16.874 -0.2327 -0.2163 -0.2732
  584TMC3     O 8714   3.298   1.976  16.943  0.4728 -0.3722 -0.4783
  584TMC3     H 8715   3.338   2.293  16.767 -0.6195  0.2633 -0.0947
  584TMC3    H1 8716   3.358   2.089  17.125 -0.7355 -0.2054 -0.1311
  584TMC3    H2 8717   3.408   2.516  17.125 -1.3009 -0.1938 -0.4584
  584TMC3    C7 8718   3.309   2.295  17.280 -1.1975  0.7960  0.9574
  584TMC3    C8 8719   3.335   2.542  16.863 -0.4302  0.3472  0.5085
  584TMC3    O1 8720   3.307   2.183  17.331  0.1318  0.1506  0.0146
  584TMC3    O2 8721   3.264   2.538  16.761 -0.3951 -0.6822 -0.5301
  585MPD2     C 8722   2.383   0.648   0.173 -0.3355  0.3617  0.4470
  585MPD2    C1 8723   2.388   0.742   0.066  0.5827 -0.0568  0.6416
  585MPD2    C2 8724   2.430   0.701  17.692 -0.2623  0.2172  0.2095
  585MPD2    C3 8725   2.451   0.566  17.661 -0.1286 -0.1309 -1.0663
  585MPD2    C4 8726   2.428   0.477   0.009 -0.8287 -0.1195  0.9738
  585MPD2    C5 8727   2.406   0.515   0.144  0.3470  0.3594 -0.0969
  585MPD2     H 8728   2.451   0.774  17.614  3.2356  0.7034  1.5974
  585MPD2    H1 8729   2.429   0.371  17.735  1.3974  0.0026  0.5438
  585MPD2    H2 8730   2.358   0.687   0.271 -2.8839  1.7239 -0.7440
  585MPD2    H3 8731   2.393   0.441   0.223  2.4502  1.6778  1.4781
  585MPD2     N 8732   2.489   0.520  17.532 -0.8213 -0.3772  0.1998
  585MPD2    H5 8733   2.497   0.420  17.515 -1.7354 -0.7318  1.7982
  585MPD2    N1 8734   2.367   0.879   0.092 -0.5229 -0.2652 -0.6972
  585MPD2    H7 8735   2.348   0.904   0.189 -1.4275 -2.3475 -0.3244
  586TMC3    C1 8736   2.604   0.520  17.343  0.6482  0.1508 -0.2488
  586TMC3    C2 8737   2.727   0.546  17.300  0.3318 -0.2799  0.4890
  586TMC3    C3 8738   2.771   0.479  17.186  0.5437 -0.1848 -0.2351
  586TMC3    C4 8739   2.521   0.434  17.282  0.2107 -0.5164 -0.2931
  586TMC3    C5 8740   2.566   0.373  17.168  0.3978  0.2598 -0.2814
  586TMC3    C6 8741   2.694   0.391  17.121 -0.1468 -0.1358  0.0112
  586TMC3     C 8742   2.553   0.604  17.440 -0.3084 -0.4323 -0.2216
  586TMC3     O 8743   2.575   0.721  17.432  0.5714 -0.2486  0.1548
  586TMC3     H 8744   2.792   0.615  17.354  1.0886 -1.0380  0.5544
  586TMC3    H1 8745   2.415   0.416  17.293  0.0585  0.8094  0.3013
  586TMC3    H2 8746   2.711   0.364  17.018 -4.2135  1.2265 -1.0097
  586TMC3    C7 8747   2.476   0.279  17.096 -0.1239  0.6075 -0.0786
  586TMC3    C8 8748   2.915   0.470  17.159  0.4860  0.2312  0.6961
  586TMC3    O1 8749   2.403   0.201  17.163  0.1507 -0.6161 -0.0099
  586TMC3    O2 8750   2.997   0.552  17.205  0.5321  1.2067 -0.4116
  587TMC3    C1 8751   4.682   4.131  16.005  0.0863  0.0748 -0.3085
  587TMC3    C2 8752   0.012   4.193  16.107 -0.6703  0.1060  0.1496
  587TMC3    C3 8753   0.149   4.195  16.090  0.7214 -1.1497  0.0945
  587TMC3    C4 8754   4.736   4.062  15.903 -0.3459 -0.5228 -0.4516
  587TMC3    C5 8755   0.134   4.054  15.900 -0.4316  0.6256  0.0214
  587TMC3    C6 8756   0.212   4.114  15.991 -0.0462 -0.6246 -0.7660
  587TMC3     C 8757   4.532   4.124  15.999  0.5131 -0.3936  0.0191
  587TMC3     O 8758   4.480   4.085  15.893  0.6854 -0.7970  0.3017
  587TMC3     H 8759   4.696   4.257  16.177  0.9976 -0.0200  1.5481
  587TMC3    H1 8760   4.676   4.022  15.822 -0.8603 -2.8655  1.0952
  587TMC3    H2 8761   0.321   4.111  15.992 -0.1033 -1.7375  1.7217
  587TMC3    C7 8762   0.194   3.962  15.805  0.4466 -0.5079 -0.0595
  587TMC3    C8 8763   0.236   4.272  16.168 -0.1368 -0.7223 -0.1292
  587TMC3    O1 8764   0.301   3.912  15.832 -0.0413 -0.4592  0.5006
  587TMC3    O2 8765   0.357   4.270  16.162  0.4673  0.0353 -0.3618
  588TMC3    C1 8766   2.022   1.848   9.365 -0.0547 -0.2667  0.0976
  588TMC3    C2 8767   1.975   1.730   9.380 -0.2591  0.3499  0.3779
  588TMC3    C3 8768   2.059   1.619   9.367 -0.0723  0.7316  0.1166
  588TMC3    C4 8769   2.152   1.866   9.348 -0.0431 -0.5373  0.0201
  588TMC3    C5 8770   2.240   1.761   9.339 -1.5029 -0.2464 -0.6139
  588TMC3    C6 8771   2.192   1.631   9.342 -0.5618  0.5047 -0.2565
  588TMC3     C 8772   1.964   1.962   9.435 -0.2268  0.4609 -0.6295
  588TMC3     O 8773   1.860   2.007   9.388  0.3728 -0.4999  0.2006
  588TMC3     H 8774   1.869   1.721   9.405 -0.7178  1.8190 -1.0906
  588TMC3    H1 8775   2.189   1.963   9.316  1.5927 -0.9972  0.4714
  588TMC3    H2 8776   2.252   1.546   9.311  1.1246  0.6595  2.5698
  588TMC3    C7 8777   2.378   1.774   9.390 -0.2265 -0.0253 -0.3018
  588TMC3    C8 8778   2.007   1.490   9.409  0.0487  0.3930  0.3147
  588TMC3    O1 8779   2.468   1.696   9.354 -0.3444  0.1204  0.2194
  588TMC3    O2 8780   1.891   1.474   9.386  0.2945 -0.2223 -0.2309
  589TMC3    C1 8781   1.704   4.126   0.916 -0.6837 -0.1290  0.1353
  589TMC3    C2 8782   1.750   4.068   1.028  0.4248  0.3290 -0.0357
  589TMC3    C3 8783   1.794   3.937   1.021 -0.6046 -0.9647  0.2093
  589TMC3    C4 8784   1.693   4.067   0.795  0.1834  0.7369  0.1891
  589TMC3    C5 8785   1.730   3.931   0.796  0.4243  0.4699  0.5951
  589TMC3    C6 8786   1.776   3.864   0.906 -0.4329  0.1071 -0.5473
  589TMC3     C 8787   1.683   4.264   0.920 -0.1329 -0.3183  0.5497
  589TMC3     O 8788   1.718   4.326   0.821 -0.7796 -0.8901 -0.3028
  589TMC3     H 8789   1.765   4.131   1.115  0.9337  0.1346  0.0140
  589TMC3    H1 8790   1.630   4.107   0.716  1.6255  1.1306 -0.7604
  589TMC3    H2 8791   1.807   3.761   0.893  1.7508  0.6241  0.4488
  589TMC3    C7 8792   1.687   3.843   0.681 -0.2235 -0.2505  0.6342
  589TMC3    C8 8793   1.877   3.878   1.123 -0.0586  0.2612 -0.3087
  589TMC3    O1 8794   1.747   3.740   0.678  0.4923  0.2031 -0.3536
  589TMC3    O2 8795   1.865   3.913   1.239 -0.4555 -0.2744  0.0978
  590MPD2     C 8796   1.498   2.340  16.571 -0.1255 -0.3628 -0.1398
  590MPD2    C1 8797   1.449   2.404  16.460 -0.5424  0.7840 -0.4980
  590MPD2    C2 8798   1.519   2.507  16.401  0.4247  0.4883  0.5368
  590MPD2    C3 8799   1.642   2.554  16.458  0.0552  0.3904  0.2307
  590MPD2    C4 8800   1.687   2.486  16.575 -0.4019 -0.5735  0.6680
  590MPD2    C5 8801   1.613   2.382  16.634  0.0817  0.1275 -0.0121
  590MPD2     H 8802   1.479   2.557  16.314  2.0067 -1.3227 -1.2516
  590MPD2    H1 8803   1.780   2.514  16.624  0.1639  2.4735 -2.1776
  590MPD2    H2 8804   1.443   2.253  16.608 -0.0146  0.0822  1.0761
  590MPD2    H3 8805   1.656   2.333  16.720 -1.4316 -0.4313  0.4310
  590MPD2     N 8806   1.717   2.659  16.403  0.1359  0.1703  0.0352
  590MPD2    H5 8807   1.674   2.698  16.320  2.4244  1.4922 -0.5325
  590MPD2    N1 8808   1.323   2.371  16.413  0.2823  0.7748  0.0608
  590MPD2    H7 8809   1.268   2.310  16.472  3.3518  1.3618  3.4988
  591TMC3    C1 8810   1.891   2.797  16.354 -0.3254  0.0150 -0.1725
  591TMC3    C2 8811   1.999   2.763  16.279  0.7330  0.1550  0.2940
  591TMC3    C3 8812   2.015   2.837  16.166  0.0892 -0.7823  0.7137
  591TMC3    C4 8813   1.805   2.895  16.323  0.1159  0.2971 -0.1316
  591TMC3    C5 8814   1.825   2.959  16.209 -0.2648  0.2355  0.6646
  591TMC3    C6 8815   1.933   2.937  16.124  0.7458  0.2556 -0.2885
  591TMC3     C 8816   1.847   2.696  16.439 -0.3046  0.1518 -0.2146
  591TMC3     O 8817   1.927   2.639  16.509 -0.2221 -0.1444 -0.3392
  591TMC3     H 8818   2.060   2.676  16.301  0.5239  0.1886  0.9890
  591TMC3    H1 8819   1.724   2.917  16.392  0.3139 -0.9399  0.5165
  591TMC3    H2 8820   1.957   2.990  16.033  1.2434  0.3039 -0.1261
  591TMC3    C7 8821   1.711   3.021  16.144 -0.2002 -0.2735 -0.3939
  591TMC3    C8 8822   2.094   2.768  16.066  0.6131 -0.0457 -0.1171
  591TMC3    O1 8823   1.610   3.015  16.209  0.5374  0.4169  0.3648
  591TMC3    O2 8824   2.082   2.646  16.065 -0.5913  0.0810 -0.0490
  592MPD2     C 8825   1.281   3.617  11.358 -0.5986  0.3869  0.1846
  592MPD2    C1 8826   1.275   3.703  11.469 -0.3700  0.4183 -0.6921
  592MPD2    C2 8827   1.206   3.665  11.584 -0.0953  0.7472  0.0461
  592MPD2    C3 8828   1.150   3.536  11.595 -0.1274  0.3593 -0.1049
  592MPD2    C4 8829   1.163   3.453  11.485 -0.2371 -0.2398  0.3512
  592MPD2    C5 8830   1.222   3.494  11.372 -0.4443 -0.7024  0.0325
  592MPD2     H 8831   1.193   3.732  11.668  1.6727 -1.3543  2.0285
  592MPD2    H1 8832   1.136   3.349  11.497  1.5854 -0.6377  1.0018
  592MPD2    H2 8833   1.321   3.649  11.262 -0.9575  1.4214  0.3792
  592MPD2    H3 8834   1.232   3.423  11.290 -3.2091 -0.5649 -0.4189
  592MPD2     N 8835   1.094   3.494  11.719  0.3102  0.9552 -0.4571
  592MPD2    H5 8836   1.104   3.561  11.794 -1.5538 -2.0894  2.4984
  592MPD2    N1 8837   1.342   3.829  11.461 -0.3591  0.0476  0.3574
  592MPD2    H7 8838   1.399   3.838  11.377  0.5067 -1.1974  0.8096
  593TMC3    C1 8839   1.463   4.011  11.545 -0.4379  0.1319  0.5396
  593TMC3    C2 8840   1.480   4.102  11.649 -0.4893  0.6665  0.0275
  593TMC3    C3 8841   1.602   4.156  11.673 -0.0247  0.3842 -0.0103
  593TMC3    C4 8842   1.565   3.984  11.457  0.5350 -0.3257 -0.2421
  593TMC3    C5 8843   1.685   4.051  11.477  0.4176 -0.6045 -0.1421
  593TMC3    C6 8844   1.709   4.131  11.583 -0.1391  0.7261  0.4787
  593TMC3     C 8845   1.343   3.926  11.553  0.3166 -0.3732  0.3523
  593TMC3     O 8846   1.250   3.964  11.628 -0.0325 -0.0533 -0.0271
  593TMC3     H 8847   1.408   4.114  11.728 -1.1217 -1.4716 -0.2138
  593TMC3    H1 8848   1.541   3.950  11.357  1.2211 -1.5551  0.0028
  593TMC3    H2 8849   1.796   4.195  11.576  0.4624 -0.2424 -0.9836
  593TMC3    C7 8850   1.747   4.104  11.358  0.2533 -0.3147  0.6253
  593TMC3    C8 8851   1.596   4.295  11.719  0.1718  0.6512  0.2374
  593TMC3    O1 8852   1.865   4.134  11.354  0.2013  0.4478 -0.3045
  593TMC3    O2 8853   1.483   4.339  11.743  0.0521  0.0865 -0.3423
  594MPD2     C 8854   0.494   3.037  14.325  0.6526 -0.5797 -0.3868
  594MPD2    C1 8855   0.390   3.106  14.263 -0.1708 -0.0638  0.1798
  594MPD2    C2 8856   0.418   3.204  14.162 -0.0898  0.1220  0.1157
  594MPD2    C3 8857   0.549   3.226  14.118  0.4575 -0.1567  0.1638
  594MPD2    C4 8858   0.651   3.150  14.173 -0.4584 -0.0903 -0.1337
  594MPD2    C5 8859   0.617   3.062  14.272  0.5584  0.1018 -0.3494
  594MPD2     H 8860   0.341   3.257  14.108  1.2316  0.2025 -1.7128
  594MPD2    H1 8861   0.756   3.168  14.154 -0.9500  1.6765 -1.1902
  594MPD2    H2 8862   0.481   2.954  14.393 -0.2546 -0.1730 -0.0631
  594MPD2    H3 8863   0.699   3.015  14.325  0.2994 -1.3896 -1.2559
  594MPD2     N 8864   0.571   3.332  14.025  0.4815  0.2366  0.1951
  594MPD2    H5 8865   0.492   3.386  13.990  0.0713 -0.6524 -0.2370
  594MPD2    N1 8866   0.257   3.068  14.307 -0.1581 -0.6050 -0.7391
  594MPD2    H7 8867   0.257   2.984  14.364  2.0975 -0.6351 -0.7876
  595TMC3    C1 8868   0.891   3.627  13.855 -0.3228 -0.1128 -0.5791
  595TMC3    C2 8869   0.822   3.507  13.837  0.1221  0.1981 -0.1574
  595TMC3    C3 8870   0.693   3.489  13.887  0.6717 -0.0973  0.0691
  595TMC3    C4 8871   0.831   3.729  13.919  0.5193  0.6364  0.1666
  595TMC3    C5 8872   0.698   3.702  13.973  0.1848 -0.0972 -0.1839
  595TMC3    C6 8873   0.631   3.592  13.946  0.0250  0.0759 -0.9455
  595TMC3     C 8874   1.037   3.621  13.882 -0.6140 -0.0796 -0.6422
  595TMC3     O 8875   1.084   3.727  13.921 -0.2131  0.2670  0.0150
  595TMC3     H 8876   0.872   3.423  13.791  1.0130  0.2690  0.6719
  595TMC3    H1 8877   0.886   3.822  13.929 -2.1633  2.2690 -0.1649
  595TMC3    H2 8878   0.534   3.579  13.994 -0.3954  1.7362 -1.3293
  595TMC3    C7 8879   0.651   3.790  14.080 -0.3500  0.1188 -0.7954
  595TMC3    C8 8880   0.690   3.368  13.965  0.3473 -0.1968 -0.5459
  595TMC3    O1 8881   0.532   3.811  14.092  0.4451 -0.1745 -0.1492
  595TMC3    O2 8882   0.796   3.304  13.973 -0.2125 -0.3337  0.2329
  596MPD2     C 8883   4.339   1.686  16.756  0.5231  0.0853  0.8207
  596MPD2    C1 8884   4.356   1.805  16.686  0.4616  0.7618 -0.7199
  596MPD2    C2 8885   4.426   1.797  16.561 -0.2200  0.0782 -0.2003
  596MPD2    C3 8886   4.472   1.677  16.503 -1.4472  0.0093  0.3739
  596MPD2    C4 8887   4.450   1.566  16.579 -0.2150  0.6700  0.1196
  596MPD2    C5 8888   4.385   1.572  16.701 -0.2348  0.0929  0.5102
  596MPD2     H 8889   4.449   1.885  16.501  2.1863 -0.6454 -0.3301
  596MPD2    H1 8890   4.480   1.470  16.539  0.7102  1.1034 -0.2230
  596MPD2    H2 8891   4.300   1.683  16.857  0.6689 -1.4092  0.8313
  596MPD2    H3 8892   4.388   1.481  16.759  2.0058 -0.8771 -1.1214
  596MPD2     N 8893   4.534   1.655  16.375  0.6923 -0.1168 -0.3508
  596MPD2    H5 8894   4.567   1.560  16.364  1.7209  0.5652 -3.0261
  596MPD2    N1 8895   4.305   1.934  16.727 -0.5411 -0.7571 -0.1887
  596MPD2    H7 8896   4.332   2.010  16.665 -1.5943  0.6661  1.0957
  597TMC3    C1 8897   4.157   2.099  16.824  1.0401  0.3106  0.0089
  597TMC3    C2 8898   4.194   2.187  16.730 -0.1125  0.0530  0.0221
  597TMC3    C3 8899   4.151   2.318  16.749 -0.1153 -0.2451 -0.0429
  597TMC3    C4 8900   4.070   2.128  16.925 -0.0952 -0.5182  0.4287
  597TMC3    C5 8901   4.037   2.256  16.944 -0.5756  0.0364 -0.2000
  597TMC3    C6 8902   4.071   2.352  16.851  0.2127 -0.1953  0.2969
  597TMC3     C 8903   4.210   1.960  16.822  0.5190 -0.7665  0.1172
  597TMC3     O 8904   4.181   1.884  16.913  0.3533  0.1384 -0.2499
  597TMC3     H 8905   4.253   2.158  16.644  0.6701  0.1778  0.5274
  597TMC3    H1 8906   4.046   2.049  16.996 -0.4795 -0.6267  0.1774
  597TMC3    H2 8907   4.040   2.454  16.866 -0.3049 -0.4805  1.1308
  597TMC3    C7 8908   3.964   2.284  17.064 -0.3770  0.0438  0.8640
  597TMC3    C8 8909   4.194   2.429  16.672  0.1692  0.2536  0.3539
  597TMC3    O1 8910   3.962   2.204  17.158 -0.3884  0.2735  0.2319
  597TMC3    O2 8911   4.129   2.535  16.669 -0.0419  0.2280  0.7421
  598TMC3    C1 8912   2.413   2.844  15.133 -0.1610 -0.9929 -0.7954
  598TMC3    C2 8913   2.314   2.755  15.154 -0.2623 -0.1670  0.1732
  598TMC3    C3 8914   2.226   2.750  15.053 -0.4896 -0.6317 -0.4537
  598TMC3    C4 8915   2.430   2.926  15.026  0.5551  0.8435 -0.1006
  598TMC3    C5 8916   2.324   2.933  14.932 -0.2376  0.2533 -0.1063
  598TMC3    C6 8917   2.226   2.838  14.948  0.2924 -0.0179 -0.5489
  598TMC3     C 8918   2.517   2.837  15.232 -0.3016  0.4023  0.2689
  598TMC3     O 8919   2.497   2.841  15.355 -0.3036 -0.0584 -0.0894
  598TMC3     H 8920   2.313   2.697  15.246 -3.0980  1.1478  0.9746
  598TMC3    H1 8921   2.518   2.989  15.010  3.4877 -3.0598  0.6788
  598TMC3    H2 8922   2.151   2.832  14.871 -0.6696  2.4557  0.1884
  598TMC3    C7 8923   2.314   3.029  14.817  0.2474  0.4370 -0.2376
  598TMC3    C8 8924   2.095   2.698  15.101  0.1939  0.3409 -0.6869
  598TMC3    O1 8925   2.231   3.001  14.729  0.0895 -0.4390  0.3669
  598TMC3    O2 8926   2.007   2.709  15.020  0.0156 -0.5478 -0.5208
  599MPD2     C 8927   2.352   0.458  15.198 -0.8673  0.6662  0.5940
  599MPD2    C1 8928   2.349   0.325  15.248 -0.0125 -0.1468 -0.2118
  599MPD2    C2 8929   2.262   0.298  15.344  0.1835 -0.0986 -0.0118
  599MPD2    C3 8930   2.182   0.397  15.405 -0.9324 -0.9641 -0.3757
  599MPD2    C4 8931   2.194   0.526  15.363 -0.1972  0.5593  0.2120
  599MPD2    C5 8932   2.272   0.553  15.256 -0.3111  0.8847  0.0232
  599MPD2     H 8933   2.269   0.202  15.393 -0.9015  1.2207  2.7439
  599MPD2    H1 8934   2.143   0.611  15.407 -3.4917 -1.0820 -0.3907
  599MPD2    H2 8935   2.417   0.494  15.119  1.6866 -0.9480  1.9557
  599MPD2    H3 8936   2.277   0.654  15.215 -3.2660  0.6183 -1.0165
  599MPD2     N 8937   2.115   0.373  15.532 -0.3387 -0.5295 -0.2764
  599MPD2    H5 8938   2.068   0.448  15.580 -1.0457 -0.9998 -0.2394
  599MPD2    N1 8939   2.433   0.234  15.180  0.5106  0.0189 -0.1166
  599MPD2    H7 8940   2.515   0.264  15.129 -1.6116  1.3246 -2.8154
  600TMC3    C1 8941   2.006   0.249  15.710 -0.7035 -0.2411  0.3944
  600TMC3    C2 8942   1.915   0.146  15.723  0.5058 -0.6039  0.1089
  600TMC3    C3 8943   1.834   0.154  15.830 -0.1931 -0.2291  0.1686
  600TMC3    C4 8944   2.007   0.356  15.800 -0.3421  0.4555 -0.6114
  600TMC3    C5 8945   1.915   0.359  15.900 -0.0561 -0.4095 -0.3283
  600TMC3    C6 8946   1.824   0.257  15.921 -0.0570  0.6170  0.4910
  600TMC3     C 8947   2.092   0.248  15.589  0.3248  0.1796  0.0498
  600TMC3     O 8948   2.119   0.135  15.546  0.1011  0.4910 -0.4778
  600TMC3     H 8949   1.929   0.069  15.649  1.1537 -0.4141  0.0378
  600TMC3    H1 8950   2.073   0.438  15.775  0.3179 -0.4337 -1.7964
  600TMC3    H2 8951   1.740   0.252  15.990 -0.3274 -1.2409  0.0241
  600TMC3    C7 8952   1.907   0.475  15.981 -0.0350 -0.7369 -0.6286
  600TMC3    C8 8953   1.742   0.043  15.844  0.1391 -0.4855  0.4324
  600TMC3    O1 8954   1.821   0.474  16.068  0.2586 -0.1719  0.4582
  600TMC3    O2 8955   1.802   4.671  15.844 -1.1157  0.2376  0.0060
  601MPD2     C 8956   4.454   4.391   0.084  0.1556 -0.2424  0.1020
  601MPD2    C1 8957   4.399   4.278   0.025 -0.2661  0.2617  0.1649
  601MPD2    C2 8958   4.415   4.164   0.100  0.1948 -1.0234 -0.3476
  601MPD2    C3 8959   4.466   4.162   0.229  0.6299 -0.6755 -0.4780
  601MPD2    C4 8960   4.522   4.276   0.279 -0.0339 -0.6793 -0.5982
  601MPD2    C5 8961   4.514   4.389   0.205  0.9364  0.0457 -0.1649
  601MPD2     H 8962   4.388   4.070   0.054 -1.3173 -0.5290 -0.4474
  601MPD2    H1 8963   4.564   4.274   0.379  1.5861 -0.3336 -1.2735
  601MPD2    H2 8964   4.459   4.480   0.023 -0.7611 -1.4232 -1.7169
  601MPD2    H3 8965   4.554   4.482   0.243  0.5022 -0.1789  0.8390
  601MPD2     N 8966   4.466   4.046   0.312 -0.3384 -0.1291  0.8647
  601MPD2    H5 8967   4.512   4.055   0.401  0.2121  0.2329  0.5420
  601MPD2    N1 8968   4.350   4.266  17.642  0.4754 -0.3151 -0.0248
  601MPD2    H7 8969   4.329   4.171  17.614  0.2394 -0.0410 -0.7659
  602TMC3    C1 8970   4.207   4.335  17.472 -1.3108  0.4441  0.0972
  602TMC3    C2 8971   4.257   4.241  17.384 -0.2298 -0.5603 -0.0444
  602TMC3    C3 8972   4.200   4.221  17.266 -0.4372 -0.0253 -0.4543
  602TMC3    C4 8973   4.101   4.419  17.436 -0.0833 -0.2244 -0.0154
  602TMC3    C5 8974   4.058   4.405  17.307  0.8709  0.1993  0.3002
  602TMC3    C6 8975   4.107   4.308  17.218 -0.2614  0.2632  1.0701
  602TMC3     C 8976   4.291   4.377  17.581  0.0634  0.3377 -0.6796
  602TMC3     O 8977   4.279   4.488  17.633 -0.2159  0.5305 -0.4044
  602TMC3     H 8978   4.345   4.187  17.418  0.5811  1.0276  0.3714
  602TMC3    H1 8979   4.060   4.496  17.500  1.1169 -2.1391  3.0491
  602TMC3    H2 8980   4.054   4.285  17.126  0.5455 -0.3284  0.7437
  602TMC3    C7 8981   3.954   4.490  17.275  0.1210 -0.7403 -0.2959
  602TMC3    C8 8982   4.280   4.162  17.165 -0.5923  0.2597  0.2104
  602TMC3    O1 8983   3.874   4.526  17.361 -0.0613 -0.0494 -0.4066
  602TMC3    O2 8984   4.366   4.087  17.209 -0.1240  0.2896 -0.0444
  603TMC3    C1 8985   2.469   3.466  10.615  0.0906 -0.4914  0.3953
  603TMC3    C2 8986   2.525   3.449  10.735 -0.1714 -0.7751  0.0607
  603TMC3    C3 8987   2.564   3.562  10.801 -0.2428  0.6256 -0.9180
  603TMC3    C4 8988   2.421   3.595  10.576 -0.5373 -0.3280 -0.2382
  603TMC3    C5 8989   2.461   3.704  10.648  0.3895 -0.3161 -0.7213
  603TMC3    C6 8990   2.541   3.697  10.760 -0.4589  0.2011 -0.7715
  603TMC3     C 8991   2.467   3.360  10.511 -0.1801 -0.3844  0.3520
  603TMC3     O 8992   2.433   3.391  10.398 -0.3771 -0.1892  0.0379
  603TMC3     H 8993   2.551   3.355  10.782  0.9540  0.0929  1.1953
  603TMC3    H1 8994   2.374   3.602  10.479 -0.9536 -0.6070 -0.0598
  603TMC3    H2 8995   2.538   3.787  10.820  0.7078 -0.6438  0.5663
  603TMC3    C7 8996   2.445   3.841  10.595  0.1156 -0.1450 -0.2359
  603TMC3    C8 8997   2.610   3.543  10.937  0.1321  0.8914 -0.3541
  603TMC3    O1 8998   2.534   3.915  10.631  0.0102 -0.0384 -0.2868
  603TMC3    O2 8999   2.618   3.428  10.978 -0.5352 -0.2540 -0.5684
  604MPD2     C 9000   3.921   3.105  16.241  0.9255  0.0681 -0.6070
  604MPD2    C1 9001   3.793   3.082  16.197  0.7523 -0.0510 -0.1010
  604MPD2    C2 9002   3.775   3.025  16.069  0.6412  0.5588 -0.0290
  604MPD2    C3 9003   3.883   2.990  15.989 -0.7295 -0.8675 -0.1157
  604MPD2    C4 9004   4.014   3.029  16.038 -0.5778  0.1085  0.8242
  604MPD2    C5 9005   4.030   3.079  16.158 -0.3372 -0.3045 -0.1606
  604MPD2     H 9006   3.680   2.987  16.033  0.8472 -1.4897  1.5780
  604MPD2    H1 9007   4.103   3.011  15.978 -0.9616  1.6601 -0.2213
  604MPD2    H2 9008   3.941   3.140  16.342 -1.8219 -1.3436  0.4389
  604MPD2    H3 9009   4.133   3.092  16.191 -0.1749 -0.7034 -0.5153
  604MPD2     N 9010   3.855   2.934  15.862 -0.2558 -1.2984 -0.7392
  604MPD2    H5 9011   3.756   2.928  15.841 -0.4065 -2.3824  0.2507
  604MPD2    N1 9012   3.690   3.109  16.287 -0.3938  0.3929 -0.0671
  604MPD2    H7 9013   3.712   3.141  16.380 -1.4082 -0.4651  0.4601
  605TMC3    C1 9014   3.504   3.194  16.362 -0.1724  0.1573 -0.5746
  605TMC3    C2 9015   3.581   3.254  16.458  0.0195  0.8615 -0.0198
  605TMC3    C3 9016   3.529   3.350  16.534  0.2087 -0.5721 -0.1906
  605TMC3    C4 9017   3.373   3.222  16.347  0.0028 -0.1161 -0.0542
  605TMC3    C5 9018   3.330   3.330  16.415  0.3716  0.6410  0.4729
  605TMC3    C6 9019   3.400   3.395  16.517  0.5833 -0.3377 -0.3517
  605TMC3     C 9020   3.556   3.110  16.257 -0.0944 -0.7555 -0.2485
  605TMC3     O 9021   3.500   3.074  16.161 -0.0263 -0.7601  0.1019
  605TMC3     H 9022   3.671   3.204  16.493 -1.3675 -0.8695  1.0906
  605TMC3    H1 9023   3.316   3.165  16.274 -2.4420  1.4297  0.6743
  605TMC3    H2 9024   3.364   3.477  16.579 -1.2077  0.2023 -2.1308
  605TMC3    C7 9025   3.189   3.373  16.396  0.2106 -0.3825  0.4589
  605TMC3    C8 9026   3.627   3.444  16.592 -0.6095 -0.2940  0.4563
  605TMC3    O1 9027   3.130   3.305  16.313  0.3661 -0.0060 -0.7433
  605TMC3    O2 9028   3.585   3.526  16.671 -0.2287 -0.0847  0.0830
  606TMC3    C1 9029   4.710   1.059  17.280 -0.0702 -0.3899  0.0920
  606TMC3    C2 9030   0.084   1.028  17.344 -0.7883 -0.6767  0.1880
  606TMC3    C3 9031   0.087   1.066  17.478  0.1697  0.0684 -0.6732
  606TMC3    C4 9032   4.598   1.117  17.340  0.9569 -0.2121 -0.5727
  606TMC3    C5 9033   4.616   1.163  17.468 -0.6373 -0.4321  0.4266
  606TMC3    C6 9034   4.729   1.136  17.544 -0.6216 -0.4085  0.8150
  606TMC3     C 9035   4.690   0.995  17.155 -0.7932  0.2224 -0.1431
  606TMC3     O 9036   0.020   0.898  17.126  0.1718 -0.0858  0.3323
  606TMC3     H 9037   0.169   0.998  17.284  0.2323 -0.0717  1.3212
  606TMC3    H1 9038   4.506   1.143  17.289 -1.7483 -1.3250  3.6869
  606TMC3    H2 9039   4.720   1.149  17.651 -0.2239 -0.4949  0.8581
  606TMC3    C7 9040   4.498   1.202  17.537  0.3860 -0.4320  0.6410
  606TMC3    C8 9041   0.210   1.040  17.547  0.7033 -0.2730  0.4462
  606TMC3    O1 9042   4.519   1.251  17.649 -0.8399 -0.1482  0.5017
  606TMC3    O2 9043   0.302   0.999  17.472  0.0471  0.5986 -0.2762
  607MPD2     C 9044   1.717   3.605  11.198 -0.2495 -0.1322  0.3889
  607MPD2    C1 9045   1.775   3.687  11.292 -0.0964  0.0907 -0.6060
  607MPD2    C2 9046   1.740   3.671  11.429  0.4557  0.1657 -0.4775
  607MPD2    C3 9047   1.642   3.575  11.471 -0.3741  0.2655  0.2206
  607MPD2    C4 9048   1.594   3.486  11.371  0.1768  0.6848 -0.9168
  607MPD2    C5 9049   1.628   3.511  11.242  0.1352 -0.1759  0.2158
  607MPD2     H 9050   1.784   3.748  11.491  2.0711 -1.4692  0.4315
  607MPD2    H1 9051   1.513   3.418  11.395 -0.2345  2.0037  1.3736
  607MPD2    H2 9052   1.721   3.611  11.090  2.0296  1.6885  0.5760
  607MPD2    H3 9053   1.582   3.454  11.162  0.4055  0.4255 -0.3732
  607MPD2     N 9054   1.592   3.590  11.606  0.4915 -0.0574  0.0365
  607MPD2    H5 9055   1.641   3.662  11.659  1.7477 -0.6713 -0.2715
  607MPD2    N1 9056   1.879   3.777  11.267 -0.0014 -0.4267 -0.5691
  607MPD2    H7 9057   1.925   3.809  11.351 -2.8264  3.7569 -0.5964
  608TMC3    C1 9058   2.038   3.910  11.165 -0.1125 -1.2261 -0.4899
  608TMC3    C2 9059   2.081   3.932  11.289 -0.4430  0.0613  0.1386
  608TMC3    C3 9060   2.142   4.051  11.328 -0.4137 -0.2832 -0.5512
  608TMC3    C4 9061   2.056   4.009  11.071 -0.6959 -0.3544  0.1283
  608TMC3    C5 9062   2.119   4.125  11.117 -0.5137  0.6237 -0.0922
  608TMC3    C6 9063   2.180   4.140  11.238 -0.0641 -0.7179  0.5498
  608TMC3     C 9064   1.928   3.824  11.145  0.3393  0.0478  0.0816
  608TMC3     O 9065   1.871   3.809  11.039  0.1713 -0.2715  0.1337
  608TMC3     H 9066   2.081   3.853  11.364 -1.3044  1.2593  1.4047
  608TMC3    H1 9067   2.019   3.993  10.970  0.9650  0.3069 -0.5988
  608TMC3    H2 9068   2.199   4.244  11.262 -0.6134 -0.2516 -1.0570
  608TMC3    C7 9069   2.145   4.215  11.015  0.3650 -0.8340 -0.4846
  608TMC3    C8 9070   2.140   4.096  11.467  0.0268 -0.3333 -0.2006
  608TMC3    O1 9071   2.083   4.214  10.910 -0.2519  0.0020 -0.9278
  608TMC3    O2 9072   2.180   4.213  11.487  0.3536 -0.5017  0.7638
  609TMC3    C1 9073   0.017   2.572   9.663 -0.2938  0.1232  0.1231
  609TMC3    C2 9074   4.652   2.482   9.648 -0.2765 -0.3177  0.4262
  609TMC3    C3 9075   4.676   2.363   9.587  0.6030  0.5637  0.4979
  609TMC3    C4 9076   0.142   2.546   9.614 -0.1282  0.3304 -0.0543
  609TMC3    C5 9077   0.163   2.429   9.548 -0.3433 -0.2429 -0.6654
  609TMC3    C6 9078   0.065   2.327   9.535 -0.0279  0.5238 -0.0020
  609TMC3     C 9079   4.723   2.693   9.735  0.0061 -0.1754  0.0187
  609TMC3     O 9080   4.609   2.733   9.732 -0.5339 -0.1283 -0.6450
  609TMC3     H 9081   4.560   2.516   9.692  0.3239  1.7079  0.1132
  609TMC3    H1 9082   0.222   2.619   9.614 -0.4496  0.6792  0.6079
  609TMC3    H2 9083   0.088   2.229   9.495 -1.9835  0.3642 -0.7077
  609TMC3    C7 9084   0.294   2.393   9.515 -0.2371  0.2954 -0.0303
  609TMC3    C8 9085   4.562   2.290   9.536  0.1875 -0.4366  0.0017
  609TMC3    O1 9086   0.383   2.448   9.584 -0.2398 -0.1882 -0.2708
  609TMC3    O2 9087   4.576   2.214   9.443 -0.1726  0.1451  0.4651
  610TMC3    C1 9088   1.796   3.799  12.580 -0.1121 -0.3259  0.1411
  610TMC3    C2 9089   1.843   3.812  12.454  0.0943 -0.5744  0.7085
  610TMC3    C3 9090   1.954   3.732  12.419  0.6439 -0.4689  0.1026
  610TMC3    C4 9091   1.830   3.690  12.658 -0.9195  0.1998  0.2369
  610TMC3    C5 9092   1.937   3.620  12.620 -0.0646  0.2799  0.3517
  610TMC3    C6 9093   1.997   3.631  12.502  0.2628  0.4879 -0.1937
  610TMC3     C 9094   1.706   3.898  12.629  0.0712  1.2693 -0.4310
  610TMC3     O 9095   1.670   3.974  12.541  0.6041 -0.5882  0.6953
  610TMC3     H 9096   1.810   3.891  12.388 -0.4772 -1.3822  0.0315
  610TMC3    H1 9097   1.782   3.671  12.752  0.5383 -1.5311  0.6279
  610TMC3    H2 9098   2.082   3.575  12.466  0.9107  0.4001  1.4759
  610TMC3    C7 9099   1.986   3.524  12.716  0.3694  0.3751  0.1439
  610TMC3    C8 9100   2.009   3.744  12.280  0.2720  0.1756  0.5551
  610TMC3    O1 9101   1.903   3.483  12.798 -0.0050  0.0945 -0.1396
  610TMC3    O2 9102   1.936   3.797  12.197  0.2901  0.0417 -0.6309
  611MPD2     C 9103   0.976   3.954  10.454  0.0904  0.2624  0.5041
  611MPD2    C1 9104   1.099   3.906  10.509  0.0878  0.4749 -0.5903
  611MPD2    C2 9105   1.221   3.957  10.465  0.0015  1.0581 -0.7294
  611MPD2    C3 9106   1.221   4.028  10.348 -0.5072  0.0892  0.2738
  611MPD2    C4 9107   1.105   4.065  10.290  0.7116 -0.1752  0.8659
  611MPD2    C5 9108   0.984   4.040  10.348 -0.4978 -0.1852  0.0598
  611MPD2     H 9109   1.312   3.920  10.511 -1.7472 -0.6867  1.3708
  611MPD2    H1 9110   1.096   4.113  10.193 -3.2040  1.4427  2.0370
  611MPD2    H2 9111   0.883   3.917  10.496  0.3284  1.0346  1.7055
  611MPD2    H3 9112   0.893   4.082  10.308  0.9998  1.1365 -1.9626
  611MPD2     N 9113   1.341   4.068  10.282 -0.1321  0.4728 -0.0956
  611MPD2    H5 9114   1.323   4.136  10.209 -2.8683  0.2396  0.3307
  611MPD2    N1 9115   1.083   3.810  10.610  0.2105  0.1232 -0.4475
  611MPD2    H7 9116   0.995   3.760  10.616  0.1104  0.0873 -2.2289
  612TMC3    C1 9117   1.574   4.137  10.255  0.5554 -0.2043  0.0002
  612TMC3    C2 9118   1.706   4.124  10.292  0.5192  0.2713  0.4562
  612TMC3    C3 9119   1.782   4.236  10.254 -0.0375  0.1947  0.1290
  612TMC3    C4 9120   1.523   4.238  10.180  0.1412 -1.0041 -0.4626
  612TMC3    C5 9121   1.609   4.335  10.128 -0.3971  0.2838  0.2190
  612TMC3    C6 9122   1.737   4.341  10.176 -0.2591 -0.1755 -0.2912
  612TMC3     C 9123   1.478   4.041  10.312  0.1113 -0.4619  0.8937
  612TMC3     O 9124   1.519   3.974  10.404  0.2838 -0.1242 -0.1358
  612TMC3     H 9125   1.740   4.033  10.339  0.8737 -0.4611 -1.2386
  612TMC3    H1 9126   1.429   4.222  10.128 -0.2121 -1.2491  0.2541
  612TMC3    H2 9127   1.802   4.426  10.156 -2.4243  1.2791 -1.0928
  612TMC3    C7 9128   1.558   4.427  10.032 -0.6118 -0.2896  0.3916
  612TMC3    C8 9129   1.909   4.258  10.324 -0.0071  0.6051  0.3685
  612TMC3    O1 9130   1.442   4.444  10.019 -0.3781 -0.3023  0.3916
  612TMC3    O2 9131   1.948   4.376  10.333 -0.4711 -0.4403 -0.0718
  613MPD2     C 9132   0.907   1.189  16.208  0.1772 -0.0613 -0.1671
  613MPD2    C1 9133   0.851   1.282  16.119 -0.6329 -0.1664  0.4431
  613MPD2    C2 9134   0.740   1.250  16.046 -0.2189  0.0010  0.5132
  613MPD2    C3 9135   0.680   1.125  16.057 -0.0190  0.0024  0.2002
  613MPD2    C4 9136   0.726   1.038  16.157  0.0838 -0.5525  0.5680
  613MPD2    C5 9137   0.837   1.072  16.230 -0.1159  0.2764 -0.4550
  613MPD2     H 9138   0.708   1.311  15.962  1.1682 -1.0158 -0.7625
  613MPD2    H1 9139   0.672   0.945  16.172 -0.4338 -0.1634  1.1314
  613MPD2    H2 9140   0.998   1.209  16.263  0.9068  0.1867 -1.4404
  613MPD2    H3 9141   0.882   1.004  16.303 -1.1667  1.8040  1.6196
  613MPD2     N 9142   0.584   1.081  15.963 -0.1109 -0.0546  0.2078
  613MPD2    H5 9143   0.571   0.981  15.954 -0.5291  0.2006 -1.8687
  613MPD2    N1 9144   0.922   1.404  16.104 -0.1789  0.1693 -0.0774
  613MPD2    H7 9145   1.008   1.415  16.157  2.7972 -1.4704 -4.6249
  614TMC3    C1 9146   0.961   1.613  16.011  0.5160 -0.0567  0.0757
  614TMC3    C2 9147   1.065   1.545  15.948  0.0095  0.4995 -0.0430
  614TMC3    C3 9148   1.091   1.575  15.819 -0.2255 -0.7699  0.0202
  614TMC3    C4 9149   0.897   1.722  15.951  0.6614 -0.4120  0.0328
  614TMC3    C5 9150   0.923   1.749  15.826  0.5255 -0.0768  0.2586
  614TMC3    C6 9151   1.019   1.675  15.757  0.6340  0.1093  0.2308
  614TMC3     C 9152   0.864   1.516  16.046 -0.1243  0.4750 -0.6151
  614TMC3     O 9153   0.757   1.523  15.992  0.1143  0.6192  0.2282
  614TMC3     H 9154   1.115   1.459  15.991  0.8669  0.7425 -0.5511
  614TMC3    H1 9155   0.813   1.767  16.002  1.3075  0.0069  0.7192
  614TMC3    H2 9156   1.043   1.713  15.658 -0.5890  0.8245  0.2131
  614TMC3    C7 9157   0.887   1.874  15.778  0.3515  0.5222 -0.4835
  614TMC3    C8 9158   1.128   1.464  15.738  0.0149  0.0534  0.3401
  614TMC3    O1 9159   0.871   1.968  15.853 -0.1374  0.5229  0.6644
  614TMC3    O2 9160   1.111   1.356  15.795  0.4694 -0.1746 -0.2698
  615MPD2     C 9161   0.521   2.546  15.404  0.0164 -0.0181 -0.4477
  615MPD2    C1 9162   0.464   2.655  15.470  0.6026 -0.0957 -0.3002
  615MPD2    C2 9163   0.384   2.745  15.403  0.5138 -0.2771  0.6865
  615MPD2    C3 9164   0.345   2.718  15.270 -0.6432  0.2210 -0.2500
  615MPD2    C4 9165   0.408   2.607  15.205  0.0123 -0.2976 -0.2292
  615MPD2    C5 9166   0.490   2.525  15.273  0.2543  0.0674 -0.1490
  615MPD2     H 9167   0.345   2.829  15.460 -0.0455  0.2251 -0.4424
  615MPD2    H1 9168   0.380   2.585  15.103  0.0566  1.5245 -0.6216
  615MPD2    H2 9169   0.581   2.471  15.454 -1.2193 -0.1641  0.8199
  615MPD2    H3 9170   0.515   2.444  15.206 -0.2885  1.6509 -2.2556
  615MPD2     N 9171   0.263   2.811  15.200 -0.2294  0.0948 -0.3178
  615MPD2    H5 9172   0.239   2.793  15.103 -2.2723 -1.3229  0.4558
  615MPD2    N1 9173   0.491   2.692  15.606  0.4776 -0.3866  0.1021
  615MPD2    H7 9174   0.435   2.770  15.637 -0.0231  0.6057 -3.3798
  616TMC3    C1 9175   0.605   2.710  15.814  0.3417  0.0387 -0.2582
  616TMC3    C2 9176   0.703   2.655  15.890 -0.0207 -0.6211  0.8214
  616TMC3    C3 9177   0.746   2.727  15.997 -0.3045 -0.3159  0.3055
  616TMC3    C4 9178   0.543   2.827  15.838 -0.6688 -0.2012 -0.1754
  616TMC3    C5 9179   0.596   2.902  15.944  0.0828  0.1315 -0.9705
  616TMC3    C6 9180   0.688   2.845  16.026  0.5559  0.5540 -0.4137
  616TMC3     C 9181   0.591   2.643  15.688  0.1288 -0.4721 -0.2161
  616TMC3     O 9182   0.661   2.543  15.665  0.3583  0.1106  0.3001
  616TMC3     H 9183   0.745   2.557  15.869 -0.3310 -0.5981  0.0973
  616TMC3    H1 9184   0.453   2.860  15.788 -1.1144  1.0111  1.4148
  616TMC3    H2 9185   0.712   2.900  16.117 -0.2757 -0.0119  0.1534
  616TMC3    C7 9186   0.581   3.041  15.949 -0.5242  0.2997  0.4346
  616TMC3    C8 9187   0.872   2.695  16.063 -0.0679  0.0896  0.2423
  616TMC3    O1 9188   0.619   3.096  16.052  0.2629 -0.1861  0.3547
  616TMC3    O2 9189   0.911   2.581  16.056 -0.1798  0.0858 -0.5791
  617MPD2     C 9190   3.025   0.580  12.686 -0.0732 -0.1770 -0.4446
  617MPD2    C1 9191   3.052   0.615  12.818  0.0211  0.1971  0.0419
  617MPD2    C2 9192   2.949   0.641  12.905 -0.2430 -0.9633  0.0877
  617MPD2    C3 9193   2.815   0.627  12.857  0.1572 -0.6119 -0.2111
  617MPD2    C4 9194   2.787   0.577  12.730  0.3791  0.3482 -0.6374
  617MPD2    C5 9195   2.897   0.566  12.640 -0.6494 -0.1836 -0.3914
  617MPD2     H 9196   2.966   0.667  13.009 -0.1468 -1.0914  0.1052
  617MPD2    H1 9197   2.691   0.574  12.680  0.1786 -1.3604 -0.1505
  617MPD2    H2 9198   3.105   0.574  12.614 -1.9095 -0.8652 -2.4332
  617MPD2    H3 9199   2.877   0.553  12.534  1.9730 -2.4499 -0.6073
  617MPD2     N 9200   2.699   0.657  12.940  0.2231 -0.5704  0.4939
  617MPD2    H5 9201   2.608   0.630  12.904  1.2316 -0.0055 -2.4988
  617MPD2    N1 9202   3.190   0.616  12.853 -0.6707 -0.5218  0.1144
  617MPD2    H7 9203   3.256   0.590  12.780 -0.8125  1.0526 -0.5752
  618TMC3    C1 9204   3.382   0.589  12.989  0.0250  0.0837 -0.2801
  618TMC3    C2 9205   3.440   0.596  13.115 -0.8319 -0.1811  0.8836
  618TMC3    C3 9206   3.537   0.509  13.155 -0.0691  0.6381  0.2187
  618TMC3    C4 9207   3.417   0.482  12.899 -0.5011 -0.3673  0.0621
  618TMC3    C5 9208   3.520   0.409  12.937  0.0476  0.8872  0.2617
  618TMC3    C6 9209   3.578   0.417  13.064 -0.4524 -0.2708 -0.4310
  618TMC3     C 9210   3.244   0.633  12.979  0.3273 -0.5508 -0.2530
  618TMC3     O 9211   3.182   0.669  13.078  0.4869 -0.7136  0.9056
  618TMC3     H 9212   3.408   0.678  13.177 -2.7604 -0.6571  0.5197
  618TMC3    H1 9213   3.391   0.466  12.794  0.5226 -1.5737 -0.0084
  618TMC3    H2 9214   3.654   0.346  13.094  0.8210  0.7812 -1.2445
  618TMC3    C7 9215   3.569   0.315  12.836 -0.1368  0.1097 -0.7919
  618TMC3    C8 9216   3.616   0.541  13.272 -0.2417 -0.0685 -0.0916
  618TMC3    O1 9217   3.483   0.260  12.767  0.5738 -0.1323 -0.3192
  618TMC3    O2 9218   3.566   0.619  13.352  0.5007  0.0344  0.5136
  619MPD2     C 9219   4.211   2.025  14.082  0.3203  0.1250 -0.0751
  619MPD2    C1 9220   4.168   2.061  13.957  0.0618 -0.3966  0.6970
  619MPD2    C2 9221   4.032   2.041  13.909 -0.1844  0.0931  0.3727
  619MPD2    C3 9222   3.945   1.980  13.992  0.0921  0.1029  0.2810
  619MPD2    C4 9223   3.987   1.941  14.120  0.8458  0.8217  0.3123
  619MPD2    C5 9224   4.118   1.969  14.168  0.7439 -0.0181  0.1202
  619MPD2     H 9225   4.000   2.067  13.809  0.6568 -1.9598 -0.4271
  619MPD2    H1 9226   3.918   1.879  14.177  2.2872  0.8039  2.0353
  619MPD2    H2 9227   4.314   2.044  14.111  0.3587  0.0784 -0.1809
  619MPD2    H3 9228   4.140   1.945  14.271  0.2394  0.3491  0.3147
  619MPD2     N 9229   3.821   1.935  13.944  0.4757 -0.1273 -0.7811
  619MPD2    H5 9230   3.785   1.849  13.985 -0.0537  1.3218  1.7825
  619MPD2    N1 9231   4.254   2.107  13.855  0.0119 -0.6385 -0.3927
  619MPD2    H7 9232   4.212   2.094  13.764 -0.2795 -2.4334 -0.0000
  620TMC3    C1 9233   4.440   2.179  13.729  0.1547  0.0990  0.6495
  620TMC3    C2 9234   4.383   2.123  13.614 -0.4054  0.2263  0.5920
  620TMC3    C3 9235   4.430   2.164  13.493 -0.1383  0.3235 -0.3525
  620TMC3    C4 9236   4.547   2.264  13.723  0.3865  0.4449 -0.0377
  620TMC3    C5 9237   4.602   2.286  13.595  0.2611 -0.0844  0.4241
  620TMC3    C6 9238   4.548   2.232  13.482  0.3724  0.1149 -0.3934
  620TMC3     C 9239   4.390   2.150  13.867 -0.6923 -0.7152 -0.4818
  620TMC3     O 9240   4.465   2.163  13.962 -0.4715  0.2424  0.4257
  620TMC3     H 9241   4.289   2.069  13.625 -1.0472  1.5523  1.6902
  620TMC3    H1 9242   4.580   2.317  13.811  2.3597 -1.0805  0.1408
  620TMC3    H2 9243   4.582   2.271  13.387  0.2399 -0.1991 -0.5699
  620TMC3    C7 9244   4.666   2.408  13.582 -0.1595  1.0836 -0.0603
  620TMC3    C8 9245   4.334   2.205  13.400  0.0411  0.1242 -0.5984
  620TMC3    O1 9246   0.017   2.446  13.655  0.2092  0.2490  0.0871
  620TMC3    O2 9247   4.343   2.325  13.369 -0.0151 -0.3008  0.5868
  621MPD2     C 9248   0.131   2.074  10.191 -0.4484  0.0466 -0.5143
  621MPD2    C1 9249   0.122   2.192  10.258  0.0817  0.3191 -0.8383
  621MPD2    C2 9250   0.241   2.258  10.284 -0.3773 -0.0621 -0.2188
  621MPD2    C3 9251   0.362   2.192  10.272 -0.1514  0.4965 -0.3402
  621MPD2    C4 9252   0.363   2.069  10.213 -0.5472 -0.3113  0.6561
  621MPD2    C5 9253   0.253   2.012  10.168 -0.4547 -0.1582  0.6083
  621MPD2     H 9254   0.244   2.361  10.320  1.8331  0.0732 -0.7954
  621MPD2    H1 9255   0.447   2.003  10.195 -0.8566 -0.4376 -0.3051
  621MPD2    H2 9256   0.045   2.023  10.149 -1.1527  0.4325  0.4517
  621MPD2    H3 9257   0.266   1.924  10.105  1.6382  2.2542 -2.3126
  621MPD2     N 9258   0.480   2.258  10.317 -0.1779  0.1781  0.2750
  621MPD2    H5 9259   0.473   2.352  10.355 -0.2522 -0.9050  2.8697
  621MPD2    N1 9260   4.734   2.250  10.306 -0.4790 -0.7823  0.6364
  621MPD2    H7 9261   0.014   2.334  10.359  2.1358 -0.2399 -1.0838
  622TMC3    C1 9262   4.489   2.255  10.348  0.0846 -0.0762  0.1789
  622TMC3    C2 9263   4.464   2.381  10.303  0.3287  0.1316 -0.2738
  622TMC3    C3 9264   4.336   2.421  10.320 -0.0122  0.1417  0.4619
  622TMC3    C4 9265   4.399   2.163  10.382 -0.0322 -0.3174  0.5437
  622TMC3    C5 9266   4.269   2.199  10.378  0.4104 -0.2348 -0.2800
  622TMC3    C6 9267   4.236   2.331  10.355 -0.6308 -0.2942 -0.0177
  622TMC3     C 9268   4.608   2.196  10.283 -0.1353  0.0860 -0.8668
  622TMC3     O 9269   4.579   2.084  10.232  0.6587 -0.1203  0.3545
  622TMC3     H 9270   4.539   2.451  10.267 -0.7017  1.5344  0.3116
  622TMC3    H1 9271   4.423   2.064  10.419  0.9507  0.0960  1.0020
  622TMC3    H2 9272   4.133   2.357  10.336 -1.1371 -1.3781  1.1853
  622TMC3    C7 9273   4.169   2.101  10.333 -0.1822  0.2800  0.0758
  622TMC3    C8 9274   4.307   2.559  10.294 -0.3032 -0.5813 -0.1149
  622TMC3    O1 9275   4.053   2.133  10.350 -0.6036 -0.3875 -0.2100
  622TMC3    O2 9276   4.393   2.622  10.232  0.4830 -0.0392  0.3874
  623MPD2     C 9277   3.984   3.191  15.596 -0.1095 -0.1898 -0.2022
  623MPD2    C1 9278   3.930   3.234  15.719 -0.3991 -0.3365 -0.6021
  623MPD2    C2 9279   4.016   3.273  15.816 -0.2366  0.4467  0.5375
  623MPD2    C3 9280   4.148   3.279  15.800  0.7529 -0.2115 -0.1094
  623MPD2    C4 9281   4.200   3.238  15.674 -0.0849  0.5716  0.0479
  623MPD2    C5 9282   4.117   3.197  15.576  0.6303  0.6524 -0.7822
  623MPD2     H 9283   3.973   3.306  15.910 -3.1521 -0.7274 -0.4014
  623MPD2    H1 9284   4.306   3.232  15.656 -0.6350 -1.2723 -2.4648
  623MPD2    H2 9285   3.926   3.168  15.507 -0.3613  1.9491 -0.5710
  623MPD2    H3 9286   4.152   3.172  15.476  0.6429  0.5136 -0.7424
  623MPD2     N 9287   4.221   3.329  15.908  0.2841  0.3148 -0.4937
  623MPD2    H5 9288   4.164   3.342  15.991 -3.1392 -0.1402 -2.7643
  623MPD2    N1 9289   3.787   3.233  15.746  0.2504  0.4760  0.1572
  623MPD2    H7 9290   3.755   3.260  15.839  0.4501 -1.3114  0.7426
  624TMC3    C1 9291   4.496   3.345  16.228 -0.2998 -0.5780  0.4184
  624TMC3    C2 9292   4.415   3.420  16.299 -0.0373 -1.2914  0.8547
  624TMC3    C3 9293   4.317   3.495  16.238  0.5319  0.1044 -0.3061
  624TMC3    C4 9294   4.496   3.348  16.094  0.8822  0.0818 -0.1669
  624TMC3    C5 9295   4.395   3.419  16.032  0.0604 -0.6890  0.4470
  624TMC3    C6 9296   4.308   3.486  16.103 -1.1586  0.5130 -0.7231
  624TMC3     C 9297   4.583   3.251  16.300 -0.1013  0.1421 -0.7326
  624TMC3     O 9298   4.533   3.195  16.399 -0.5426  0.4849  0.5516
  624TMC3     H 9299   4.406   3.415  16.407  1.0117 -0.6195  0.9751
  624TMC3    H1 9300   4.545   3.276  16.029 -1.8036 -0.6837 -1.3374
  624TMC3    H2 9301   4.231   3.541  16.051 -0.4585  1.8452 -0.3475
  624TMC3    C7 9302   4.352   3.365  15.903  0.6161 -0.0732 -0.3146
  624TMC3    C8 9303   4.189   3.496  16.301  0.0950  0.4675 -0.1365
  624TMC3    O1 9304   4.435   3.361  15.812  0.4418  0.2645  0.4901
  624TMC3    O2 9305   4.097   3.460  16.230 -0.2088 -0.2137  0.3664
  625MPD2     C 9306   3.681   0.357   0.891 -0.1851 -0.7758 -0.3231
  625MPD2    C1 9307   3.677   0.458   0.803  0.6219  0.1331 -1.0197
  625MPD2    C2 9308   3.782   0.546   0.791  0.9113  0.2240 -0.4340
  625MPD2    C3 9309   3.884   0.539   0.884  0.7149 -0.0767  0.8721
  625MPD2    C4 9310   3.901   0.432   0.964  0.0805  0.6565  0.2328
  625MPD2    C5 9311   3.792   0.353   0.967 -0.4817 -0.6121 -0.1364
  625MPD2     H 9312   3.781   0.633   0.726 -0.2859  1.1025  0.7781
  625MPD2    H1 9313   3.985   0.404   1.025 -0.4930 -1.7625 -0.1040
  625MPD2    H2 9314   3.602   0.283   0.891 -1.6308  0.7798  0.1826
  625MPD2    H3 9315   3.785   0.267   1.032 -0.1557 -1.1041 -0.7412
  625MPD2     N 9316   3.986   0.637   0.894 -0.3347 -0.2443 -0.0030
  625MPD2    H5 9317   3.972   0.717   0.834 -0.0949  1.9812  2.8698
  625MPD2    N1 9318   3.562   0.460   0.723  0.0898  0.2035 -0.1463
  625MPD2    H7 9319   3.500   0.380   0.734  0.6602 -0.3623 -1.0911
  626TMC3    C1 9320   3.397   0.534   0.573 -0.0455 -0.6799 -0.7383
  626TMC3    C2 9321   3.375   0.575   0.444 -0.8939 -0.0782  0.2120
  626TMC3    C3 9322   3.264   0.523   0.381 -0.2772 -0.9583  0.6182
  626TMC3    C4 9323   3.312   0.455   0.639 -0.2466  0.1523 -0.3607
  626TMC3    C5 9324   3.197   0.417   0.578 -0.4159 -0.0370  0.4723
  626TMC3    C6 9325   3.172   0.448   0.447 -0.5278 -0.1146 -0.7408
  626TMC3     C 9326   3.526   0.562   0.634  0.3400  0.2027 -0.4499
  626TMC3     O 9327   3.589   0.665   0.606 -0.6507 -0.1921 -0.2167
  626TMC3     H 9328   3.458   0.621   0.392 -0.3799 -0.9669  0.2548
  626TMC3    H1 9329   3.314   0.450   0.747  1.5735  2.6506 -0.2907
  626TMC3    H2 9330   3.082   0.412   0.398  0.0303 -1.4329 -0.7888
  626TMC3    C7 9331   3.102   0.345   0.660  0.3432  0.6226  0.5535
  626TMC3    C8 9332   3.292   0.494   0.238  0.4359 -0.0295  0.0238
  626TMC3    O1 9333   3.133   0.296   0.765 -0.0134  0.0412 -0.6790
  626TMC3    O2 9334   3.373   0.561   0.178  0.5931  0.3188  0.3873
  627MPD2     C 9335   2.333   4.502  13.812 -0.7131 -0.4260 -0.0143
  627MPD2    C1 9336   2.397   4.467  13.929 -0.0358 -0.1647  0.2808
  627MPD2    C2 9337   2.347   4.342  13.985  0.1162 -0.7050  0.5914
  627MPD2    C3 9338   2.242   4.265  13.932 -0.3743 -0.0814 -0.3442
  627MPD2    C4 9339   2.188   4.314  13.812  0.3345 -0.1629 -0.0496
  627MPD2    C5 9340   2.237   4.426  13.755  0.4367  1.1026 -0.4829
  627MPD2     H 9341   2.394   4.309  14.077 -1.0663 -3.2617  0.2593
  627MPD2    H1 9342   2.118   4.251  13.760 -0.4444  0.8374 -0.2122
  627MPD2    H2 9343   2.365   4.588  13.754  1.4348 -0.8922  0.4555
  627MPD2    H3 9344   2.204   4.433  13.652  0.9433  0.9252 -0.6623
  627MPD2     N 9345   2.198   4.153  14.000  0.1727 -0.1234 -0.1948
  627MPD2    H5 9346   2.232   4.126  14.092  0.0671 -0.3273 -0.2154
  627MPD2    N1 9347   2.485   4.551  14.002 -0.4746 -0.1517 -0.5415
  627MPD2    H7 9348   2.516   4.524  14.095  0.1669  1.3232 -0.3300
  628TMC3    C1 9349   2.633   4.737  14.045 -0.6836  0.5740 -0.5359
  628TMC3    C2 9350   2.729   4.650  14.096 -0.2258  0.0352  0.0582
  628TMC3    C3 9351   2.837   4.718  14.142  0.5767  0.2502  0.3904
  628TMC3    C4 9352   2.643   0.136  14.041 -0.3583 -0.5803  0.0195
  628TMC3    C5 9353   2.747   0.192  14.109 -0.0706  0.0477 -0.1515
  628TMC3    C6 9354   2.845   0.115  14.165 -0.1242 -0.2710  0.3410
  628TMC3     C 9355   2.518   4.680  13.964 -0.2598 -1.0258  0.0234
  628TMC3     O 9356   2.462   0.025  13.888 -0.3506 -0.4125  0.3620
  628TMC3     H 9357   2.731   4.543  14.084 -0.0776 -0.2619  2.7115
  628TMC3    H1 9358   2.565   0.198  14.001 -1.3700 -1.2720  0.9282
  628TMC3    H2 9359   2.943   0.162  14.173  0.6240 -1.6927 -0.4802
  628TMC3    C7 9360   2.782   0.326  14.069 -0.3680 -0.1570  0.3853
  628TMC3    C8 9361   2.963   4.648  14.130 -0.7371  0.4983  0.6780
  628TMC3    O1 9362   2.869   0.387  14.125  0.0719  0.3156  0.2313
  628TMC3    O2 9363   2.984   4.600  14.018 -0.1839  0.1543  0.3455
  629MPD2     C 9364   1.321   2.813  16.291  0.4182  0.3823 -0.3436
  629MPD2    C1 9365   1.272   2.929  16.221 -0.4558 -0.2846 -0.3154
  629MPD2    C2 9366   1.154   2.929  16.146  0.1999  0.5185  0.1162
  629MPD2    C3 9367   1.079   2.807  16.142  0.1113  0.3856 -0.8116
  629MPD2    C4 9368   1.131   2.698  16.203 -0.5888  0.4551  0.1593
  629MPD2    C5 9369   1.250   2.699  16.275  0.2288 -1.0410 -0.6790
  629MPD2     H 9370   1.110   3.022  16.113  0.7339  1.0330  0.8651
  629MPD2    H1 9371   1.082   2.602  16.206 -0.0473  0.1744  0.1198
  629MPD2    H2 9372   1.406   2.825  16.358  0.0847 -3.8794  0.8071
  629MPD2    H3 9373   1.277   2.608  16.328  0.7176 -2.3409 -3.1987
  629MPD2     N 9374   0.951   2.808  16.089 -0.1149  0.1935 -0.1075
  629MPD2    H5 9375   0.922   2.895  16.047 -2.0593 -1.2499 -1.7714
  629MPD2    N1 9376   1.328   3.044  16.263 -0.0700  0.1403  0.4021
  629MPD2    H7 9377   1.416   3.045  16.314  0.4081  0.9864 -0.4293
  630TMC3    C1 9378   1.374   3.276  16.283 -0.5347  0.2749  0.2258
  630TMC3    C2 9379   1.423   3.374  16.199  0.2012 -0.3135 -0.2960
  630TMC3    C3 9380   1.530   3.447  16.256 -0.6588 -0.1190 -0.3873
  630TMC3    C4 9381   1.415   3.255  16.411 -0.2903 -0.2856  0.1144
  630TMC3    C5 9382   1.502   3.343  16.465  0.1900 -0.1200  0.2280
  630TMC3    C6 9383   1.562   3.440  16.390 -0.1971 -0.5429  0.2676
  630TMC3     C 9384   1.291   3.171  16.225 -0.2363 -0.1825  0.0474
  630TMC3     O 9385   1.217   3.212  16.136  0.0745 -0.3205  0.1929
  630TMC3     H 9386   1.404   3.377  16.093 -0.8861  0.3231 -0.0842
  630TMC3    H1 9387   1.352   3.198  16.478 -0.7893 -0.1454 -0.2386
  630TMC3    H2 9388   1.632   3.505  16.441 -0.2940  1.6923 -2.4497
  630TMC3    C7 9389   1.545   3.301  16.598 -0.4664 -0.7943  0.5466
  630TMC3    C8 9390   1.616   3.536  16.174 -0.3649 -0.0934  0.2504
  630TMC3    O1 9391   1.507   3.196  16.647  0.8467  0.4155  0.6894
  630TMC3    O2 9392   1.713   3.572  16.239 -0.0433  0.0961 -0.1087
  631MPD2     C 9393   4.303   3.597  15.441 -0.5528  0.4728  0.1666
  631MPD2    C1 9394   4.299   3.582  15.304 -0.2603  0.4002 -0.2515
  631MPD2    C2 9395   4.381   3.484  15.241  0.2855 -0.2704 -0.3784
  631MPD2    C3 9396   4.432   3.382  15.317  0.1256  0.5665 -0.0996
  631MPD2    C4 9397   4.437   3.398  15.449  0.2177 -0.7177  0.2668
  631MPD2    C5 9398   4.380   3.510  15.510 -0.3391 -0.2509 -0.3539
  631MPD2     H 9399   4.389   3.472  15.134  1.4198  2.5129 -0.6181
  631MPD2    H1 9400   4.500   3.338  15.514  0.6084 -0.6033 -0.0100
  631MPD2    H2 9401   4.260   3.677  15.499 -1.5989 -0.1753  0.2772
  631MPD2    H3 9402   4.383   3.523  15.617 -2.0891 -0.5524 -0.2791
  631MPD2     N 9403   4.502   3.279  15.252 -0.3159  0.1227  0.3781
  631MPD2    H5 9404   4.519   3.305  15.155  0.0654 -0.7628  0.2052
  631MPD2    N1 9405   4.215   3.657  15.224 -0.0019  0.0299  0.1504
  631MPD2    H7 9406   4.222   3.649  15.123 -1.5655  1.8789 -0.1062
  632TMC3    C1 9407   4.080   3.842  15.160 -0.0051  0.2770 -0.0225
  632TMC3    C2 9408   3.962   3.912  15.173 -0.2666 -0.0585 -0.1146
  632TMC3    C3 9409   3.898   3.945  15.056  0.1606 -0.1861 -0.7385
  632TMC3    C4 9410   4.143   3.834  15.038 -0.4429  0.2587  0.0282
  632TMC3    C5 9411   4.081   3.893  14.928 -0.1516  0.4606  0.1681
  632TMC3    C6 9412   3.950   3.937  14.936  0.3801  0.4685 -0.1161
  632TMC3     C 9413   4.126   3.756  15.271  0.1057 -0.2092  0.5545
  632TMC3     O 9414   4.087   3.789  15.383 -0.5115  0.3250 -0.1901
  632TMC3     H 9415   3.903   3.914  15.264  1.0546  1.3292  0.7136
  632TMC3    H1 9416   4.228   3.768  15.026 -1.8130 -1.0656 -2.3961
  632TMC3    H2 9417   3.890   3.936  14.846  0.7537 -0.0673 -0.3525
  632TMC3    C7 9418   4.132   3.867  14.796  0.8917 -0.1023  0.0101
  632TMC3    C8 9419   3.755   3.966  15.075  0.3874 -0.0328 -0.3190
  632TMC3    O1 9420   4.054   3.881  14.700 -0.2208 -0.3829 -0.0935
  632TMC3    O2 9421   3.681   3.868  15.053 -1.1831 -0.1326  0.5098
  633MPD2     C 9422   3.735   1.733  17.289 -0.3108 -0.2003 -0.6106
  633MPD2    C1 9423   3.702   1.647  17.187 -1.0262 -0.5116  0.2761
  633MPD2    C2 9424   3.627   1.534  17.213  0.0447 -0.9334 -0.1391
  633MPD2    C3 9425   3.588   1.510  17.345  0.4260 -1.0224  0.3816
  633MPD2    C4 9426   3.636   1.591  17.447  0.5365  0.0589  0.0831
  633MPD2    C5 9427   3.711   1.698  17.420 -0.4037 -0.2544 -0.0198
  633MPD2     H 9428   3.602   1.465  17.132  0.2074 -1.8418  0.5841
  633MPD2    H1 9429   3.603   1.581  17.550  1.3999 -0.8258  0.2760
  633MPD2    H2 9430   3.795   1.823  17.278 -1.4136  0.6335  0.2332
  633MPD2    H3 9431   3.757   1.746  17.506  1.4782  0.5103 -1.4469
  633MPD2     N 9432   3.506   1.401  17.377 -0.3349  0.3891  0.4441
  633MPD2    H5 9433   3.516   1.366  17.471  0.3484 -0.8827 -0.1171
  633MPD2    N1 9434   3.744   1.677  17.054  0.1359 -0.5180  0.3548
  633MPD2    H7 9435   3.724   1.606  16.984 -1.8736 -0.8286  1.2379
  634TMC3    C1 9436   3.813   1.777  16.852 -0.9336  0.2890 -0.1092
  634TMC3    C2 9437   3.886   1.670  16.800 -0.8089 -0.0874 -0.2889
  634TMC3    C3 9438   3.945   1.682  16.678  0.8583 -0.2284  0.7917
  634TMC3    C4 9439   3.818   1.898  16.783  0.0199 -0.1164 -0.5596
  634TMC3    C5 9440   3.894   1.914  16.672  0.1654 -0.7936 -0.1458
  634TMC3    C6 9441   3.956   1.805  16.617  0.5101  0.5003  0.0949
  634TMC3     C 9442   3.793   1.791  16.998  0.2259 -0.5224  0.5343
  634TMC3     O 9443   3.786   1.910  17.032  0.3788  0.2999 -0.3169
  634TMC3     H 9444   3.867   1.574  16.848 -0.0126 -0.2853 -0.3713
  634TMC3    H1 9445   3.759   1.975  16.830 -0.4886 -1.0552  0.3364
  634TMC3    H2 9446   4.023   1.821  16.534  0.5872 -0.6028 -0.0513
  634TMC3    C7 9447   3.918   2.040  16.606  0.3892 -0.5775 -0.1485
  634TMC3    C8 9448   4.001   1.565  16.623 -0.0066 -0.2866  0.4560
  634TMC3    O1 9449   3.985   2.039  16.503  0.0276 -0.3170 -0.4490
  634TMC3    O2 9450   4.002   1.466  16.693  0.4000  0.0082 -0.0273
  635TMC3    C1 9451   3.844   2.993   0.258  0.0787  0.0458 -0.3313
  635TMC3    C2 9452   3.870   2.868   0.211  0.5819  0.5563  0.1802
  635TMC3    C3 9453   3.809   2.826   0.097  0.1323 -0.0757 -0.6922
  635TMC3    C4 9454   3.741   3.063   0.204 -0.9935 -0.5162 -0.1932
  635TMC3    C5 9455   3.673   3.014   0.098 -0.1582  0.9724  0.0843
  635TMC3    C6 9456   3.712   2.904   0.038 -0.6663 -0.4703  0.0786
  635TMC3     C 9457   3.938   3.067   0.337 -0.2059  0.3045  0.9625
  635TMC3     O 9458   3.914   3.186   0.350  0.1178  0.2885  0.6207
  635TMC3     H 9459   3.959   2.816   0.243  0.1605  0.1222  0.6373
  635TMC3    H1 9460   3.713   3.161   0.243 -0.2772 -0.2526 -0.3290
  635TMC3    H2 9461   3.652   2.862  17.708  0.3328 -1.8035  0.0245
  635TMC3    C7 9462   3.561   3.091   0.030  0.1416 -0.3386 -0.6947
  635TMC3    C8 9463   3.826   2.698   0.038 -0.1471  0.1867 -0.1069
  635TMC3    O1 9464   3.476   3.020  17.731  0.2915  0.0491 -0.0475
  635TMC3    O2 9465   3.767   2.662  17.688  0.4150  0.5765 -0.1828
  636MPD2     C 9466   0.422   1.795  15.533 -0.4592  0.2260 -0.5351
  636MPD2    C1 9467   0.462   1.743  15.655 -0.1983 -0.9877  1.1602
  636MPD2    C2 9468   0.509   1.612  15.646 -0.4828 -0.3479 -0.3072
  636MPD2    C3 9469   0.485   1.536  15.535 -0.0326 -0.1005  0.1016
  636MPD2    C4 9470   0.452   1.600  15.415  0.2711  0.0631 -0.7730
  636MPD2    C5 9471   0.413   1.729  15.415 -0.9362 -0.3804  0.1928
  636MPD2     H 9472   0.547   1.568  15.737  1.0996 -0.1856 -0.9023
  636MPD2    H1 9473   0.440   1.539  15.325 -0.3661 -0.0952 -0.5801
  636MPD2    H2 9474   0.406   1.901  15.518 -0.7342  0.2673  0.0604
  636MPD2    H3 9475   0.385   1.776  15.321 -1.0891 -1.9658 -0.5628
  636MPD2     N 9476   0.492   1.394  15.544 -0.2030  0.0551 -0.2982
  636MPD2    H5 9477   0.516   1.362  15.636 -1.8487 -0.7468 -0.1464
  636MPD2    N1 9478   0.471   1.819  15.770 -0.1751  0.3075  0.1347
  636MPD2    H7 9479   0.506   1.770  15.852 -0.6164  2.1802  1.4266
  637TMC3    C1 9480   0.472   1.176  15.517  0.1310  0.0183  0.0113
  637TMC3    C2 9481   0.434   1.180  15.650  0.1884  0.2403  0.6227
  637TMC3    C3 9482   0.498   1.095  15.739  0.0202  0.9111  0.2019
  637TMC3    C4 9483   0.563   1.083  15.475  0.1821  1.1800 -0.0502
  637TMC3    C5 9484   0.650   1.022  15.562  0.0870  0.8774 -0.4381
  637TMC3    C6 9485   0.609   1.017  15.693  0.0745  0.5530 -0.3235
  637TMC3     C 9486   0.469   1.301  15.447  0.5965 -0.1642  0.0113
  637TMC3     O 9487   0.476   1.312  15.328 -0.7243  0.2523  0.0231
  637TMC3     H 9488   0.362   1.250  15.691  0.4523 -0.5505  2.4444
  637TMC3    H1 9489   0.589   1.087  15.370  0.7842  3.0095  0.1727
  637TMC3    H2 9490   0.675   0.969  15.765  0.0197  1.4948  0.3714
  637TMC3    C7 9491   0.783   1.083  15.549  0.9123 -0.0185 -0.3016
  637TMC3    C8 9492   0.516   1.161  15.871  0.2474 -0.2358 -0.4562
  637TMC3    O1 9493   0.853   1.075  15.647 -0.3774 -0.0212 -0.9944
  637TMC3    O2 9494   0.499   1.281  15.882 -0.8336 -0.3946 -0.2271
  638MPD2     C 9495   0.093   0.430  14.750  0.6507  0.6257 -0.2223
  638MPD2    C1 9496   0.030   0.348  14.655 -0.4842 -0.0679 -0.5450
  638MPD2    C2 9497   4.697   0.240  14.702  0.1808  0.1638 -0.2680
  638MPD2    C3 9498   4.702   0.203  14.841  0.4153 -0.5957  0.1191
  638MPD2    C4 9499   0.029   0.285  14.933 -0.6355  0.5313 -0.0295
  638MPD2    C5 9500   0.093   0.398  14.883 -0.5903 -0.1560 -0.1793
  638MPD2     H 9501   4.638   0.178  14.635 -1.7382 -1.0953  2.5400
  638MPD2    H1 9502   0.027   0.268  15.040 -0.0423 -0.8069 -0.2297
  638MPD2    H2 9503   0.146   0.518  14.716 -0.5529  0.9117 -1.3545
  638MPD2    H3 9504   0.139   0.473  14.947 -1.8530  0.6257 -0.1833
  638MPD2     N 9505   4.647   0.080  14.885  0.4569 -0.4681  0.4681
  638MPD2    H5 9506   4.609   0.021  14.812 -2.9693 -0.0848  1.9355
  638MPD2    N1 9507   0.053   0.378  14.518  0.1290  0.4350  0.1979
  638MPD2    H7 9508   0.114   0.458  14.503 -0.0932  1.0219  2.4972
  639TMC3    C1 9509   4.660   4.608  14.989 -0.1373  0.2210 -0.2492
  639TMC3    C2 9510   4.606   4.564  14.869  0.2906 -0.7873 -0.2463
  639TMC3    C3 9511   4.670   4.467  14.796 -0.6299 -0.9875  0.8833
  639TMC3    C4 9512   0.032   4.548  15.035 -0.0161 -0.6658 -0.1433
  639TMC3    C5 9513   0.102   4.463  14.954  0.3947  0.6514 -0.6220
  639TMC3    C6 9514   0.055   4.418  14.827  0.2198 -0.1024 -0.6256
  639TMC3     C 9515   4.667   0.017  15.008 -0.4128 -0.1013  0.2483
  639TMC3     O 9516   4.707   0.057  15.118 -0.2060 -0.3695  0.1531
  639TMC3     H 9517   4.513   4.597  14.825  0.8690  0.9062 -0.1906
  639TMC3    H1 9518   0.078   4.593  15.122  0.1426  0.2310 -0.6845
  639TMC3    H2 9519   0.099   4.343  14.762  1.2047  0.9022 -1.1220
  639TMC3    C7 9520   0.245   4.448  14.989  0.5101 -0.8784 -0.3968
  639TMC3    C8 9521   4.599   4.404  14.682 -0.3038  0.1529 -0.4665
  639TMC3    O1 9522   0.287   4.509  15.088  0.1112  0.4037 -0.1673
  639TMC3    O2 9523   4.669   4.340  14.607 -0.0903  0.3022 -0.0804
  640MPD2     C 9524   0.750   3.650  10.065 -0.4592 -0.5391 -0.3104
  640MPD2    C1 9525   0.624   3.608  10.038  0.5726 -0.5527  0.0271
  640MPD2    C2 9526   0.526   3.669  10.117 -0.2994 -0.1515 -0.1536
  640MPD2    C3 9527   0.548   3.779  10.193 -0.6644  0.2710  0.3116
  640MPD2    C4 9528   0.683   3.820  10.207  0.0558 -0.5468 -0.4111
  640MPD2    C5 9529   0.782   3.758  10.137 -0.0341  0.6565 -0.5996
  640MPD2     H 9530   0.425   3.629  10.109 -0.3769  0.2292 -1.0435
  640MPD2    H1 9531   0.704   3.913  10.259  2.2849 -1.6837  0.7138
  640MPD2    H2 9532   0.836   3.593  10.032  1.5857  2.2631  0.0759
  640MPD2    H3 9533   0.884   3.793  10.141  0.0066  0.6354 -1.5524
  640MPD2     N 9534   0.456   3.864  10.247 -0.0151 -0.6788 -0.3811
  640MPD2    H5 9535   0.497   3.935  10.306  0.2956 -0.1404 -1.2337
  640MPD2    N1 9536   0.594   3.502   9.954 -0.3330  0.6124 -0.3287
  640MPD2    H7 9537   0.670   3.453   9.909 -1.3290 -0.5317 -0.7626
  641TMC3    C1 9538   0.483   3.325   9.845 -1.2183  0.5382  0.3969
  641TMC3    C2 9539   0.607   3.262   9.838 -0.0163 -0.2963 -0.1676
  641TMC3    C3 9540   0.609   3.177   9.731  0.3958  0.2581  0.0877
  641TMC3    C4 9541   0.376   3.307   9.762  0.4909 -0.0439 -0.2869
  641TMC3    C5 9542   0.388   3.220   9.657 -0.2320  0.1932  0.6419
  641TMC3    C6 9543   0.506   3.148   9.641 -0.6317 -0.0882 -0.1590
  641TMC3     C 9544   0.469   3.445   9.925 -0.8834  0.9500 -0.2177
  641TMC3     O 9545   0.357   3.477   9.951  0.2201  0.4556 -0.7312
  641TMC3     H 9546   0.685   3.265   9.913 -1.1289  0.9533  0.9284
  641TMC3    H1 9547   0.286   3.363   9.785  0.5852  0.5931 -1.4594
  641TMC3    H2 9548   0.514   3.070   9.565  1.9451 -1.0061  1.0499
  641TMC3    C7 9549   0.270   3.186   9.573  0.3813  0.2588  0.3951
  641TMC3    C8 9550   0.713   3.066   9.748 -0.2903 -0.5242  0.1102
  641TMC3    O1 9551   0.284   3.096   9.494  0.2456  0.0800  0.7409
  641TMC3    O2 9552   0.683   2.957   9.700 -0.0604 -0.1792  0.3667
  642TMC3    C1 9553   1.443   4.397  12.077  0.2946 -0.6131 -0.5656
  642TMC3    C2 9554   1.554   4.475  12.080 -0.1952 -0.8829  0.3751
  642TMC3    C3 9555   1.676   4.406  12.089  0.2322 -0.0057 -0.0954
  642TMC3    C4 9556   1.446   4.261  12.060  0.0034  0.2767  0.0100
  642TMC3    C5 9557   1.563   4.193  12.061  0.2709 -0.7913 -0.1783
  642TMC3    C6 9558   1.679   4.269  12.086 -0.2994 -0.9555 -0.0695
  642TMC3     C 9559   1.321   4.474  12.063  0.8605  0.1914 -0.0377
  642TMC3     O 9560   1.323   4.570  11.985  0.3321  0.3739  0.1219
  642TMC3     H 9561   1.540   4.582  12.089  3.6178 -0.3529 -0.0915
  642TMC3    H1 9562   1.352   4.207  12.063 -0.0229  0.2780 -0.8171
  642TMC3    H2 9563   1.777   4.223  12.094  0.0192 -0.2973 -0.1684
  642TMC3    C7 9564   1.570   4.062  12.122  0.4178  0.0415  0.6546
  642TMC3    C8 9565   1.794   4.479  12.136  0.2870  0.7948 -0.1546
  642TMC3    O1 9566   1.673   4.040  12.180  0.3441  0.2064  0.5499
  642TMC3    O2 9567   1.895   4.414  12.172  0.2400  0.5691  0.0771
  643TMC3    C1 9568   0.958   4.519   0.312 -1.0603 -0.1419  0.3551
  643TMC3    C2 9569   0.837   4.579   0.335 -0.9360  0.5756 -0.2899
  643TMC3    C3 9570   0.735   4.548   0.251 -0.3091  0.3644  0.3783
  643TMC3    C4 9571   0.976   4.437   0.205  0.6805 -0.2565  0.1086
  643TMC3    C5 9572   0.872   4.398   0.126  0.3421  0.0072  0.1166
  643TMC3    C6 9573   0.745   4.462   0.145 -0.4830  0.2231 -0.0946
  643TMC3     C 9574   1.056   4.531   0.418  0.2974  0.4397 -0.0975
  643TMC3     O 9575   1.010   4.569   0.525  0.0096  0.6923  0.4371
  643TMC3     H 9576   0.821   4.645   0.420  2.9630 -0.6084  1.3833
  643TMC3    H1 9577   1.071   4.389   0.183  0.6255 -0.8604  1.1799
  643TMC3    H2 9578   0.663   4.445   0.077 -1.2127  0.8705  0.6177
  643TMC3    C7 9579   0.913   4.367  17.738 -0.0948  0.0537  0.2409
  643TMC3    C8 9580   0.662   4.672   0.220  0.0426  0.1292  0.4273
  643TMC3    O1 9581   1.024   4.390  17.693  0.6082 -0.4554 -0.0148
  643TMC3    O2 9582   0.688   0.047   0.264 -0.8190  0.1664  0.2228
  644MPD2     C 9583   0.743   4.537   9.597  0.4421 -1.0585  0.3989
  644MPD2    C1 9584   0.647   4.434   9.596  0.3524  0.0122  0.0741
  644MPD2    C2 9585   0.521   4.480   9.555 -0.1499  0.1627 -0.2766
  644MPD2    C3 9586   0.489   4.612   9.516  0.8123 -0.4927  0.2844
  644MPD2    C4 9587   0.585   4.708   9.538  0.5386  0.1687  0.2315
  644MPD2    C5 9588   0.712   4.669   9.577 -0.3515  0.5304  0.0093
  644MPD2     H 9589   0.447   4.403   9.534  0.3253 -0.6833  1.2203
  644MPD2    H1 9590   0.566   0.075   9.517  0.0290  0.4464  2.1360
  644MPD2    H2 9591   0.846   4.508   9.614  0.4600 -2.6677 -2.3719
  644MPD2    H3 9592   0.792   0.004   9.579 -1.3657  1.6933 -1.6643
  644MPD2     N 9593   0.363   4.646   9.455 -0.4435 -0.4176 -0.1032
  644MPD2    H5 9594   0.298   4.569   9.444  1.2106 -1.6469 -1.1241
  644MPD2    N1 9595   0.685   4.305   9.609 -0.5138  0.6635  0.0007
  644MPD2    H7 9596   0.783   4.278   9.600 -0.5614  0.1617  0.9825
  645TMC3    C1 9597   0.204   0.039   9.343  0.1387 -0.5488 -0.8471
  645TMC3    C2 9598   0.116   4.675   9.362 -0.6057 -1.0945 -0.5492
  645TMC3    C3 9599   4.730   4.685   9.302 -0.3773 -0.4288  0.2562
  645TMC3    C4 9600   0.177   0.148   9.263 -0.1160 -0.3689  0.3777
  645TMC3    C5 9601   0.057   0.140   9.184 -0.4193 -0.7886 -0.8554
  645TMC3    C6 9602   4.696   0.048   9.214 -0.1311 -0.1432 -0.5026
  645TMC3     C 9603   0.341   0.027   9.388 -0.0881  0.2124 -0.2991
  645TMC3     O 9604   0.420   0.115   9.348  0.0215  0.3396 -0.6442
  645TMC3     H 9605   0.137   4.591   9.427 -0.4923  0.1896  1.0846
  645TMC3    H1 9606   0.250   0.227   9.254  0.5167 -0.8466  1.3610
  645TMC3    H2 9607   4.609   0.043   9.150 -1.4149 -0.3284  1.2436
  645TMC3    C7 9608   0.019   0.254   9.111  0.1578 -0.3728 -0.8566
  645TMC3    C8 9609   4.643   4.567   9.328 -0.6519 -0.7799 -0.1001
  645TMC3    O1 9610   4.636   0.268   9.088  0.0652 -0.1248  0.0160
  645TMC3    O2 9611   4.703   4.470   9.372 -0.2810 -0.8095  0.2734
  646MPD2     C 9612   0.362   3.657  14.278 -0.1422 -0.0164 -0.0967
  646MPD2    C1 9613   0.282   3.688  14.390 -0.8348 -0.2590 -0.4401
  646MPD2    C2 9614   0.157   3.734  14.368 -0.5596 -0.0106 -0.2427
  646MPD2    C3 9615   0.103   3.748  14.238  0.4827  0.1254  0.1529
  646MPD2    C4 9616   0.187   3.705  14.128 -0.0537  0.2347  0.3589
  646MPD2    C5 9617   0.312   3.645  14.153 -0.0352  0.2305  0.5338
  646MPD2     H 9618   0.095   3.770  14.450 -2.0165 -1.3950 -0.7401
  646MPD2    H1 9619   0.155   3.697  14.025  0.6881 -1.4004  0.2521
  646MPD2    H2 9620   0.463   3.623  14.294 -0.4026 -1.1864 -0.9935
  646MPD2    H3 9621   0.357   3.610  14.062  0.9701  1.7017  0.4683
  646MPD2     N 9622   4.708   3.794  14.222 -0.5694  0.2764 -0.0728
  646MPD2    H5 9623   4.653   3.835  14.297  1.0822  1.2069  0.6265
  646MPD2    N1 9624   0.347   3.674  14.515  0.5219  0.5797  0.0063
  646MPD2    H7 9625   0.439   3.631  14.510  1.2715  2.2696 -1.0236
  647TMC3    C1 9626   0.380   3.643  14.742  1.1328  0.0020  0.5387
  647TMC3    C2 9627   0.315   3.580  14.848 -0.1288 -0.2580  0.6454
  647TMC3    C3 9628   0.387   3.556  14.961 -0.0348  0.3567  0.2328
  647TMC3    C4 9629   0.516   3.654  14.741 -0.1717  0.1726 -1.0008
  647TMC3    C5 9630   0.583   3.628  14.853 -0.0838 -0.0589 -0.0655
  647TMC3    C6 9631   0.520   3.585  14.963 -0.2397 -0.2946  0.3891
  647TMC3     C 9632   0.291   3.688  14.635  0.0299 -0.0067 -0.1145
  647TMC3     O 9633   0.177   3.722  14.660 -0.7360 -0.2545 -0.1863
  647TMC3     H 9634   0.207   3.570  14.850 -0.0093 -1.9134 -0.8663
  647TMC3    H1 9635   0.570   3.694  14.656  1.7001 -0.6048 -0.1690
  647TMC3    H2 9636   0.573   3.575  15.057  0.4881  1.1629  0.1293
  647TMC3    C7 9637   0.726   3.608  14.849  0.1667  0.0701  0.7373
  647TMC3    C8 9638   0.358   3.420  14.999 -0.1599 -1.1203  0.4316
  647TMC3    O1 9639   0.791   3.637  14.951  0.5314  0.2924 -0.0850
  647TMC3    O2 9640   0.356   3.394  15.119  0.0647  0.5402 -0.0757
  648TMC3    C1 9641   4.558   1.685  16.139 -0.0609 -0.3649  0.2376
  648TMC3    C2 9642   4.605   1.558  16.139  0.0982  0.4841  0.4662
  648TMC3    C3 9643   4.631   1.501  16.020  0.3035  0.2611  0.4407
  648TMC3    C4 9644   4.530   1.756  16.029 -0.4599  0.0228 -0.0695
  648TMC3    C5 9645   4.554   1.697  15.909  0.0706  0.1739 -0.1398
  648TMC3    C6 9646   4.611   1.573  15.902  0.8994  0.2459  0.4808
  648TMC3     C 9647   4.548   1.747  16.272 -0.1062  0.2457  0.4387
  648TMC3     O 9648   4.519   1.866  16.275  0.2438  0.3347 -0.5653
  648TMC3     H 9649   4.623   1.502  16.229 -0.7868 -2.6362 -1.3135
  648TMC3    H1 9650   4.476   1.848  16.048 -1.7625 -0.6173 -0.6738
  648TMC3    H2 9651   4.604   1.539  15.799 -0.4952 -0.5655  0.8488
  648TMC3    C7 9652   4.493   1.747  15.785 -0.8895 -0.2515  1.0574
  648TMC3    C8 9653   4.683   1.364  16.021 -0.1606  0.2078  0.0093
  648TMC3    O1 9654   4.515   1.698  15.676 -0.6965 -0.1369 -0.1821
  648TMC3    O2 9655   4.673   1.302  16.125 -0.0246 -0.7183 -0.1989
  649TMC3    C1 9656   3.379   1.994  12.905  0.4728 -0.0889  0.1652
  649TMC3    C2 9657   3.478   1.906  12.936 -0.0810  0.0088 -0.2180
  649TMC3    C3 9658   3.463   1.823  13.048  0.2653  0.3277  0.3906
  649TMC3    C4 9659   3.259   1.995  12.975 -0.5886  0.4489 -0.0929
  649TMC3    C5 9660   3.248   1.904  13.081  0.8819  0.3601  0.1376
  649TMC3    C6 9661   3.350   1.818  13.117  0.2799  1.1792  0.1282
  649TMC3     C 9662   3.394   2.076  12.781  0.0644 -0.6255 -0.9311
  649TMC3     O 9663   3.297   2.147  12.745 -0.1988  0.3414 -0.1362
  649TMC3     H 9664   3.561   1.883  12.871 -0.5828 -0.5186 -0.6702
  649TMC3    H1 9665   3.184   2.069  12.952 -0.2836  0.7308 -0.1853
  649TMC3    H2 9666   3.344   1.753  13.204  3.6958  1.7905  0.8064
  649TMC3    C7 9667   3.114   1.882  13.122  0.1502  0.4057 -0.2533
  649TMC3    C8 9668   3.572   1.738  13.097 -0.1411  0.1154 -0.0729
  649TMC3    O1 9669   3.035   1.973  13.110 -0.1665 -0.2710  0.3249
  649TMC3    O2 9670   3.534   1.653  13.175 -0.4320 -0.4228  0.2339
  650TMC3    C1 9671   1.280   3.731  12.528 -0.4100  0.2112 -0.0988
  650TMC3    C2 9672   1.339   3.847  12.487  0.7251  0.3961 -0.9540
  650TMC3    C3 9673   1.272   3.926  12.397 -0.3962 -0.1908 -0.3491
  650TMC3    C4 9674   1.151   3.707  12.495 -0.8645  0.2398 -0.0474
  650TMC3    C5 9675   1.087   3.783  12.405  0.2814  0.2354  0.5503
  650TMC3    C6 9676   1.147   3.894  12.344 -0.4863  0.9117 -0.1980
  650TMC3     C 9677   1.357   3.637  12.607 -0.2771 -0.1606  0.2128
  650TMC3     O 9678   1.457   3.681  12.664  0.1424 -0.3509  0.1490
  650TMC3     H 9679   1.436   3.868  12.530  1.4636  1.4711 -3.1807
  650TMC3    H1 9680   1.089   3.639  12.554 -1.3052  1.3088  0.7271
  650TMC3    H2 9681   1.110   3.952  12.261  0.4847  0.2694 -1.0830
  650TMC3    C7 9682   0.955   3.738  12.375  0.2099 -0.9955  0.0805
  650TMC3    C8 9683   1.311   4.061  12.374 -0.2888 -0.1232 -0.3937
  650TMC3    O1 9684   0.924   3.617  12.376 -0.0577 -0.4165 -0.2117
  650TMC3    O2 9685   1.247   4.135  12.308  0.5570  0.1639 -0.1416
  651MPD2     C 9686   4.285   1.221  10.181  0.0745  0.2812 -0.2323
  651MPD2    C1 9687   4.310   1.231  10.319  0.3589  0.3161  0.2106
  651MPD2    C2 9688   4.439   1.249  10.354  0.0098  0.0394 -0.0052
  651MPD2    C3 9689   4.542   1.255  10.255  0.4641  0.3885 -1.0789
  651MPD2    C4 9690   4.519   1.248  10.122  0.3970 -0.7057 -0.1703
  651MPD2    C5 9691   4.384   1.226  10.086 -0.0535  0.7348 -0.1669
  651MPD2     H 9692   4.462   1.258  10.460  1.9510  1.4056 -0.5394
  651MPD2    H1 9693   4.595   1.244  10.045 -0.7772  1.2096 -1.4216
  651MPD2    H2 9694   4.186   1.223  10.135 -0.8464  0.6891  1.7582
  651MPD2    H3 9695   4.372   1.214   9.979  0.6255 -0.2058 -0.1357
  651MPD2     N 9696   4.669   1.255  10.309  0.0677 -0.1858 -0.5688
  651MPD2    H5 9697   4.671   1.280  10.407 -0.6346 -2.1784 -0.0294
  651MPD2    N1 9698   4.211   1.235  10.418 -0.4128  0.7431  0.6418
  651MPD2    H7 9699   4.247   1.241  10.513 -0.7012  1.6467  0.6946
  652TMC3    C1 9700   0.367   1.180  10.398  0.1159 -0.0693 -0.1671
  652TMC3    C2 9701   0.277   1.217  10.294  0.2419 -0.0534 -0.4971
  652TMC3    C3 9702   0.162   1.280  10.319  0.1327  0.1144  0.6004
  652TMC3    C4 9703   0.332   1.196  10.527  0.0726 -0.1697  0.0869
  652TMC3    C5 9704   0.215   1.261  10.548 -0.1380  0.3782  0.8289
  652TMC3    C6 9705   0.128   1.304  10.444  0.0508  0.5055 -0.7450
  652TMC3     C 9706   0.499   1.127  10.375  0.3705 -1.0940  0.2462
  652TMC3     O 9707   0.549   1.069  10.468 -0.5580 -0.3591  0.2140
  652TMC3     H 9708   0.294   1.198  10.189  2.8932  1.2142 -0.2960
  652TMC3    H1 9709   0.402   1.167  10.605  1.3137  1.4625 -0.4092
  652TMC3    H2 9710   0.052   1.376  10.471 -0.3417 -0.0834 -0.2777
  652TMC3    C7 9711   0.196   1.325  10.678 -0.2160  0.0586  0.2132
  652TMC3    C8 9712   0.050   1.251  10.239 -0.0216  0.5953  0.5242
  652TMC3    O1 9713   0.076   1.335  10.702  0.0854 -0.2041 -0.0925
  652TMC3    O2 9714   0.077   1.210  10.127 -0.0888  0.2405 -0.8344
  653MPD2     C 9715   3.417   1.559   0.013  0.1982  0.2587  0.3443
  653MPD2    C1 9716   3.386   1.645  17.665 -0.9339 -0.1135  0.0556
  653MPD2    C2 9717   3.297   1.606  17.569  0.5653  0.0402 -0.1380
  653MPD2    C3 9718   3.247   1.476  17.566  0.2022 -0.0209  0.5167
  653MPD2    C4 9719   3.279   1.394  17.663  0.0285 -0.0687 -0.1405
  653MPD2    C5 9720   3.366   1.437   0.014  0.6629 -0.3223  0.5564
  653MPD2     H 9721   3.264   1.683  17.500  1.1451  0.2350 -0.2000
  653MPD2    H1 9722   3.244   1.292  17.669 -0.2673  0.1478  1.6375
  653MPD2    H2 9723   3.471   1.591   0.101  1.5267 -0.6534 -0.1396
  653MPD2    H3 9724   3.382   1.377   0.103 -0.9886 -1.9544 -0.2433
  653MPD2     N 9725   3.167   1.446  17.455 -0.3064  0.5416 -0.0142
  653MPD2    H5 9726   3.158   1.521  17.387  0.1489  0.5231 -0.0897
  653MPD2    N1 9727   3.424   1.778  17.674  0.1114  0.0962  0.1710
  653MPD2    H7 9728   3.398   1.835  17.594 -1.3310  2.1294  2.0657
  654TMC3    C1 9729   3.037   1.316  17.310  0.5862  0.0392  0.3089
  654TMC3    C2 9730   3.010   1.438  17.258 -0.4221  0.5499  0.4731
  654TMC3    C3 9731   2.991   1.433  17.124 -0.1087 -0.8261 -0.2098
  654TMC3    C4 9732   3.049   1.196  17.245 -1.1937  0.2502  0.1359
  654TMC3    C5 9733   3.029   1.200  17.108 -0.4195 -0.1022  0.0598
  654TMC3    C6 9734   3.003   1.318  17.043 -0.4269 -0.2096  0.2707
  654TMC3     C 9735   3.117   1.320  17.427  1.1233  0.3000  0.2598
  654TMC3     O 9736   3.123   1.220  17.494 -0.1454  0.7791  0.7460
  654TMC3     H 9737   2.976   1.521  17.319  0.2344  0.9141  0.3438
  654TMC3    H1 9738   3.064   1.108  17.306 -3.6594  0.6520  1.3364
  654TMC3    H2 9739   2.992   1.320  16.935 -2.1288  3.1251  0.4947
  654TMC3    C7 9740   3.073   1.089  17.030  0.0557  0.2837  0.3664
  654TMC3    C8 9741   2.932   1.544  17.053  0.0857 -0.4751 -0.5416
  654TMC3    O1 9742   3.062   1.104  16.909 -0.0081 -0.5461 -0.0013
  654TMC3    O2 9743   2.877   1.511  16.947 -0.4709  0.4751  0.0969
  655MPD2     C 9744   0.106   1.625  15.620 -0.0324 -0.1470 -1.1136
  655MPD2    C1 9745   0.081   1.728  15.532 -0.5089 -0.0259 -0.0985
  655MPD2    C2 9746   0.061   1.714  15.399 -0.0567 -0.1870 -0.6804
  655MPD2    C3 9747   0.080   1.585  15.348  0.7579  0.4195 -0.1196
  655MPD2    C4 9748   0.119   1.484  15.423  0.0766 -0.2041  0.5602
  655MPD2    C5 9749   0.137   1.496  15.561  0.4518  0.4668  0.5482
  655MPD2     H 9750   0.032   1.795  15.334  1.8055  2.0254  1.2644
  655MPD2    H1 9751   0.121   1.380  15.393 -1.4277 -0.5633  1.6883
  655MPD2    H2 9752   0.118   1.631  15.728 -1.2580 -1.1329 -0.9185
  655MPD2    H3 9753   0.169   1.419  15.630  0.2085  0.2066  0.3716
  655MPD2     N 9754   0.052   1.546  15.216 -0.9533 -1.3668  0.1130
  655MPD2    H5 9755   0.060   1.446  15.200 -0.6047 -1.2836 -0.2410
  655MPD2    N1 9756   0.065   1.856  15.582 -0.7699  0.0501 -0.0048
  655MPD2    H7 9757   0.045   1.927  15.513  0.2376 -0.8736 -1.2619
  656TMC3    C1 9758   0.069   2.043  15.727 -0.4246  0.6635 -0.1911
  656TMC3    C2 9759   0.037   2.084  15.856 -0.7424 -0.3356  0.4812
  656TMC3    C3 9760   4.714   2.200  15.872  0.8064  0.4089  0.3132
  656TMC3    C4 9761   0.032   2.114  15.618  0.4986  0.0776 -0.5144
  656TMC3    C5 9762   4.698   2.227  15.636  0.5521 -0.1906  0.2137
  656TMC3    C6 9763   4.668   2.273  15.768 -0.1167  0.4485  0.0491
  656TMC3     C 9764   0.091   1.899  15.711 -0.0003  0.0923 -0.0385
  656TMC3     O 9765   0.119   1.842  15.812 -0.1554  0.6197  0.3283
  656TMC3     H 9766   0.069   2.031  15.945 -1.5391 -0.0987  0.9053
  656TMC3    H1 9767   0.066   2.078  15.522 -0.1766 -0.6301 -0.4845
  656TMC3    H2 9768   4.619   2.368  15.787 -2.8911 -0.4324 -2.6620
  656TMC3    C7 9769   4.641   2.285  15.511  0.1159  0.0240  0.5764
  656TMC3    C8 9770   4.605   2.180  15.969  0.2057 -0.1567 -0.6141
  656TMC3    O1 9771   4.668   2.226  15.407  0.5607 -0.0888  1.0847
  656TMC3    O2 9772   4.586   2.064  16.006  0.2197  0.0938 -0.2066
  657TMC3    C1 9773   3.470   1.282  15.034 -0.0208  0.4017 -0.3504
  657TMC3    C2 9774   3.535   1.375  15.118  0.3170 -0.0711 -0.1657
  657TMC3    C3 9775   3.552   1.496  15.065  0.6059  0.2199  0.2216
  657TMC3    C4 9776   3.416   1.317  14.918  1.2482 -0.3322  0.7165
  657TMC3    C5 9777   3.436   1.443  14.870  0.1201  0.2189  0.0008
  657TMC3    C6 9778   3.501   1.536  14.946  0.5152 -0.4221  0.3311
  657TMC3     C 9779   3.471   1.146  15.079 -0.3429  0.1102  0.0881
  657TMC3     O 9780   3.383   1.067  15.046  0.1781  0.4302  0.3304
  657TMC3     H 9781   3.551   1.348  15.222 -0.3482  0.1933  0.0047
  657TMC3    H1 9782   3.349   1.250  14.864  0.5067 -0.6853  2.0742
  657TMC3    H2 9783   3.510   1.636  14.906 -1.5449  0.5527  2.2505
  657TMC3    C7 9784   3.376   1.485  14.748  0.1138  0.7767 -0.9450
  657TMC3    C8 9785   3.613   1.607  15.139  0.0738 -0.2107 -0.5801
  657TMC3    O1 9786   3.268   1.435  14.714 -0.0086 -0.1151 -0.4192
  657TMC3    O2 9787   3.614   1.716  15.078  0.0101  0.4736 -0.2227
  658MPD2     C 9788   0.291   1.106  14.580 -0.1884 -0.3381  0.0058
  658MPD2    C1 9789   0.208   1.214  14.581  0.6326  0.6391 -0.7400
  658MPD2    C2 9790   0.189   1.280  14.462 -0.2548 -0.0847 -0.4176
  658MPD2    C3 9791   0.241   1.222  14.341  0.4619 -0.0605 -0.6050
  658MPD2    C4 9792   0.323   1.111  14.344  0.1063  0.1405  0.3523
  658MPD2    C5 9793   0.352   1.059  14.466 -0.3458 -0.5397 -0.2278
  658MPD2     H 9794   0.130   1.368  14.438  1.7865  1.7416  1.2099
  658MPD2    H1 9795   0.366   1.056  14.262  1.9965 -0.7444  1.9326
  658MPD2    H2 9796   0.293   1.044  14.669  0.5499  0.1912  0.3672
  658MPD2    H3 9797   0.421   0.976  14.468  2.1534  1.4884 -1.8931
  658MPD2     N 9798   0.197   1.284  14.222 -0.2946 -0.1495 -0.3096
  658MPD2    H5 9799   0.134   1.363  14.230  0.5368  0.6545 -1.6515
  658MPD2    N1 9800   0.139   1.244  14.699 -0.1030 -0.2938  0.0373
  658MPD2    H7 9801   0.138   1.174  14.772 -1.4241 -0.0437  0.2601
  659TMC3    C1 9802   0.011   1.375  14.837 -0.5603 -0.3323 -0.1938
  659TMC3    C2 9803   0.051   1.460  14.933 -0.3482  0.1541 -0.0242
  659TMC3    C3 9804   4.702   1.549  14.997 -0.0890 -0.0766  0.1653
  659TMC3    C4 9805   4.612   1.369  14.803  0.4270  0.1664 -0.3626
  659TMC3    C5 9806   4.525   1.445  14.877  1.1181 -0.6148 -0.1217
  659TMC3    C6 9807   4.570   1.535  14.977 -0.3837 -0.1721  0.1935
  659TMC3     C 9808   0.090   1.371  14.723 -0.1926  0.3546  0.2446
  659TMC3     O 9809   0.131   1.478  14.680  0.5862  0.4953  0.0155
  659TMC3     H 9810   0.157   1.469  14.953  0.0914 -2.1655 -1.3363
  659TMC3    H1 9811   4.583   1.310  14.717 -0.0556  3.2052 -2.2862
  659TMC3    H2 9812   4.505   1.609  15.022 -2.1146 -1.4698 -0.1755
  659TMC3    C7 9813   4.384   1.454  14.833 -0.1123 -0.1003  0.5157
  659TMC3    C8 9814   0.010   1.624  15.109 -0.2041  0.5416 -0.0021
  659TMC3    O1 9815   4.334   1.567  14.827  0.3978  0.2380 -0.5613
  659TMC3    O2 9816   0.008   1.747  15.105 -0.5607 -0.0425  0.2970
  660MPD2     C 9817   2.707   4.335  12.277 -0.1772  0.7388  0.2327
  660MPD2    C1 9818   2.576   4.383  12.282 -0.0570 -0.1060 -0.5914
  660MPD2    C2 9819   2.498   4.361  12.397 -1.0052  0.0008 -0.0063
  660MPD2    C3 9820   2.549   4.288  12.501 -0.0182 -0.4734  0.5400
  660MPD2    C4 9821   2.679   4.251  12.493 -0.0210  0.2200  0.1884
  660MPD2    C5 9822   2.757   4.272  12.384  0.3892  0.4448 -0.4791
  660MPD2     H 9823   2.392   4.383  12.398 -0.8959  0.4113  1.3364
  660MPD2    H1 9824   2.721   4.198  12.578  1.0041 -0.9976 -1.0890
  660MPD2    H2 9825   2.769   4.349  12.189 -0.6650 -1.2337 -0.4369
  660MPD2    H3 9826   2.856   4.229  12.373  0.6944  0.8741  0.5952
  660MPD2     N 9827   2.478   4.256  12.624  0.1256 -0.6481 -0.3283
  660MPD2    H5 9828   2.528   4.195  12.688 -0.6193 -3.0105 -2.0012
  660MPD2    N1 9829   2.532   4.462  12.175 -0.4878 -0.6982  0.0706
  660MPD2    H7 9830   2.601   4.483  12.104 -0.4232 -1.4068 -0.0776
  661TMC3    C1 9831   2.409   4.637  12.059 -0.1405 -0.0467 -0.0289
  661TMC3    C2 9832   2.518   4.695  11.999  0.1436 -0.7435 -0.4134
  661TMC3    C3 9833   2.491   0.067  11.914  0.4643  0.2600  0.0217
  661TMC3    C4 9834   2.281   4.666  12.025  0.1045  0.3085 -0.5292
  661TMC3    C5 9835   2.265   0.027  11.930 -0.0062 -0.4753  0.7298
  661TMC3    C6 9836   2.363   0.096  11.869  0.1113 -0.1486  0.1521
  661TMC3     C 9837   2.418   4.534  12.163 -0.1225  0.4240  1.0031
  661TMC3     O 9838   2.324   4.544  12.240 -0.2599 -0.6039 -0.6140
  661TMC3     H 9839   2.621   4.675  12.026  0.4829  2.3292  0.5330
  661TMC3    H1 9840   2.195   4.624  12.075  1.0611  0.9501  1.6740
  661TMC3    H2 9841   2.333   0.171  11.796  0.3205 -0.4668 -0.2611
  661TMC3    C7 9842   2.127   0.042  11.868 -0.2422  0.2321  0.3216
  661TMC3    C8 9843   2.606   0.136  11.859 -0.3515  0.1888  0.2191
  661TMC3    O1 9844   2.083   0.154  11.843  0.0717 -0.4127  0.0047
  661TMC3    O2 9845   2.711   0.093  11.905  0.2320 -0.5325 -0.5185
  662MPD2     C 9846   3.262   0.092  17.072 -1.3241  0.9090  0.0763
  662MPD2    C1 9847   3.134   0.040  17.070  0.2548 -0.1438 -0.6433
  662MPD2    C2 9848   3.027   0.127  17.069 -0.2466  0.2856  0.2149
  662MPD2    C3 9849   3.049   0.259  17.091 -0.2247  0.0604 -0.4482
  662MPD2    C4 9850   3.174   0.311  17.111 -0.0108  0.6718  0.5061
  662MPD2    C5 9851   3.278   0.230  17.084 -0.1982 -0.3287  0.2545
  662MPD2     H 9852   2.924   0.093  17.062 -0.5300  1.5148 -1.5595
  662MPD2    H1 9853   3.194   0.415  17.135 -0.0185  0.3779  1.7826
  662MPD2    H2 9854   3.350   0.035  17.046 -0.3518  3.0207 -1.2597
  662MPD2    H3 9855   3.379   0.267  17.078 -0.1872 -0.3811  0.1152
  662MPD2     N 9856   2.935   0.341  17.101  0.3335  0.0940 -0.0250
  662MPD2    H5 9857   2.842   0.302  17.084  1.1728 -2.1847  0.6239
  662MPD2    N1 9858   3.116   4.637  17.062  0.4706 -0.5035  0.2613
  662MPD2    H7 9859   3.021   4.602  17.067  0.6197 -1.2560 -1.9591
  663TMC3    C1 9860   3.160   4.403  17.071 -0.1657  0.0384 -0.4012
  663TMC3    C2 9861   3.032   4.386  17.032 -0.5442 -0.2372  0.5399
  663TMC3    C3 9862   2.974   4.266  17.058  0.2047 -0.6417 -0.6236
  663TMC3    C4 9863   3.223   4.303  17.133  0.3585 -0.6389  0.9468
  663TMC3    C5 9864   3.160   4.181  17.159  0.2917 -0.1160 -0.2535
  663TMC3    C6 9865   3.027   4.164  17.135 -0.3815 -0.6796  0.6908
  663TMC3     C 9866   3.213   4.541  17.086  0.0057 -0.4195 -0.0025
  663TMC3     O 9867   3.330   4.553  17.119 -0.0700  0.4281  0.4490
  663TMC3     H 9868   2.993   4.439  16.946 -0.0047 -0.3329  0.2339
  663TMC3    H1 9869   3.327   4.305  17.164  0.6682 -0.3099 -0.1164
  663TMC3    H2 9870   2.978   4.068  17.134 -2.4024  0.3647 -1.7827
  663TMC3    C7 9871   3.246   4.061  17.154  0.1592  0.2417  0.0674
  663TMC3    C8 9872   2.840   4.288  17.076  0.4726 -0.5156  0.5306
  663TMC3    O1 9873   3.363   4.081  17.125 -0.2455 -0.3412  0.5863
  663TMC3    O2 9874   2.773   4.335  16.981  0.5892 -0.5960  0.1984
  664MPD2     C 9875   0.841   3.185  17.281  0.7798  0.4157 -0.5405
  664MPD2    C1 9876   0.966   3.218  17.337  0.2953 -0.1913 -0.0043
  664MPD2    C2 9877   0.978   3.214  17.473 -0.0331  0.9104 -0.0630
  664MPD2    C3 9878   0.878   3.182  17.558 -1.1464 -0.8959 -0.2993
  664MPD2    C4 9879   0.758   3.162  17.500 -0.5767  0.4322 -0.5664
  664MPD2    C5 9880   0.743   3.162  17.367 -0.2708 -0.7837  0.1195
  664MPD2     H 9881   1.075   3.249  17.509 -0.0623  2.5384 -1.5910
  664MPD2    H1 9882   0.676   3.122  17.557 -0.1591 -0.8801 -0.8796
  664MPD2    H2 9883   0.809   3.178  17.177  0.8818 -1.4327 -0.4528
  664MPD2    H3 9884   0.646   3.133  17.329  0.2183  0.4095 -2.0070
  664MPD2     N 9885   0.910   3.178  17.692 -0.2195 -0.7140  0.5147
  664MPD2    H5 9886   1.006   3.199  17.717  0.3055 -0.2671 -1.8151
  664MPD2    N1 9887   1.077   3.254  17.251  0.4280 -0.0055 -0.0482
  664MPD2    H7 9888   1.165   3.283  17.293  0.8506 -1.0108 -0.2401
  665TMC3    C1 9889   0.892   3.173   0.184  0.4567  0.1313 -0.5731
  665TMC3    C2 9890   0.819   3.125   0.285 -0.7915 -0.4358  0.4278
  665TMC3    C3 9891   0.869   3.164   0.409  0.0355 -0.8109 -0.2754
  665TMC3    C4 9892   1.009   3.244   0.191  0.5344 -0.2273 -0.5528
  665TMC3    C5 9893   1.050   3.274   0.322 -0.1896  0.0975 -0.7707
  665TMC3    C6 9894   0.978   3.235   0.435 -0.1328  0.0259  0.0861
  665TMC3     C 9895   0.832   3.155   0.048  0.0217 -0.4976 -0.3214
  665TMC3     O 9896   0.715   3.126   0.040 -0.0615  0.3258 -0.1920
  665TMC3     H 9897   0.725   3.071   0.276 -0.3433 -1.2455  0.7152
  665TMC3    H1 9898   1.073   3.272   0.109  1.7059  0.8164  0.7174
  665TMC3    H2 9899   1.005   3.255   0.538  1.1290  0.7027 -0.3726
  665TMC3    C7 9900   1.112   3.402   0.337 -0.2232  0.9616 -0.2457
  665TMC3    C8 9901   0.799   3.115   0.525 -0.0023  0.2678  0.2851
  665TMC3    O1 9902   1.110   3.481   0.243  0.3122 -0.2219  0.3132
  665TMC3    O2 9903   0.854   3.112   0.634  0.1683  0.4916 -0.3251
  666TMC3    C1 9904   0.705   2.301  10.371 -0.4366 -0.2278 -0.3180
  666TMC3    C2 9905   0.819   2.257  10.432 -0.0357  0.0376 -0.7191
  666TMC3    C3 9906   0.916   2.345  10.466 -0.4246  0.2023 -0.7373
  666TMC3    C4 9907   0.691   2.431  10.327  0.2212 -0.0999 -0.1674
  666TMC3    C5 9908   0.796   2.518  10.353  0.2444 -0.4594  0.3699
  666TMC3    C6 9909   0.908   2.475  10.427 -0.3574 -0.0723 -0.1746
  666TMC3     C 9910   0.606   2.202  10.328  0.1393  0.6324 -0.1044
  666TMC3     O 9911   0.636   2.079  10.326  0.1723 -0.4866 -0.5707
  666TMC3     H 9912   0.802   2.157  10.471 -1.0765  1.4759  2.5775
  666TMC3    H1 9913   0.596   2.461  10.284 -0.0231  1.4000  1.4221
  666TMC3    H2 9914   0.979   2.548  10.464  0.0301 -1.4167  1.7235
  666TMC3    C7 9915   0.778   2.660  10.346 -0.1144  0.0698  0.0457
  666TMC3    C8 9916   1.015   2.320  10.571 -0.3717 -0.9236  0.1223
  666TMC3    O1 9917   0.660   2.687  10.332  0.2251 -0.0426  0.0624
  666TMC3    O2 9918   1.110   2.402  10.569  0.0598 -0.2567 -0.4150
  667MPD2     C 9919   2.127   3.101  14.379 -0.5967  0.2582 -0.0633
  667MPD2    C1 9920   2.045   3.100  14.493 -0.8275 -0.6794  0.5981
  667MPD2    C2 9921   1.973   2.990  14.527 -0.0310  0.2706  0.1316
  667MPD2    C3 9922   1.971   2.885  14.432  0.1270 -0.4637  0.0426
  667MPD2    C4 9923   2.046   2.889  14.319  0.3499 -0.1763  0.3823
  667MPD2    C5 9924   2.132   2.992  14.296 -0.0741  0.0891 -0.3358
  667MPD2     H 9925   1.904   2.992  14.611  1.4704  2.1818  1.3209
  667MPD2    H1 9926   2.038   2.811  14.244 -0.6448 -1.3867  1.7483
  667MPD2    H2 9927   2.189   3.187  14.358  0.0136 -0.3415 -0.7458
  667MPD2    H3 9928   2.192   3.008  14.207 -1.8661  0.3376 -1.4864
  667MPD2     N 9929   1.893   2.769  14.436 -0.5743  0.0895 -0.2644
  667MPD2    H5 9930   1.905   2.701  14.362 -0.6036  0.1442 -0.3187
  667MPD2    N1 9931   2.033   3.215  14.575  0.1826 -0.1616  0.3104
  667MPD2    H7 9932   1.964   3.215  14.650 -0.3886 -2.4404 -0.2093
  668TMC3    C1 9933   2.094   3.422  14.669  0.3041 -0.3031 -0.4615
  668TMC3    C2 9934   2.139   3.554  14.653 -0.6188  0.2787 -0.0611
  668TMC3    C3 9935   2.191   3.621  14.764  0.0389 -0.1692  0.3313
  668TMC3    C4 9936   2.105   3.364  14.794  0.1807  0.3023  0.8611
  668TMC3    C5 9937   2.149   3.443  14.899  0.3764 -0.2130 -0.6027
  668TMC3    C6 9938   2.192   3.573  14.888 -0.6025 -0.7496  0.0611
  668TMC3     C 9939   2.076   3.341  14.551  0.3969 -0.2569 -0.4353
  668TMC3     O 9940   2.115   3.393  14.445 -0.3874  0.1078  0.1665
  668TMC3     H 9941   2.142   3.600  14.555  0.0581  0.6749  0.1482
  668TMC3    H1 9942   2.076   3.261  14.811  1.1775 -0.1219  0.0263
  668TMC3    H2 9943   2.236   3.631  14.968  0.2295  0.1677 -1.0514
  668TMC3    C7 9944   2.183   3.382  15.028  0.7698 -0.3589  0.4009
  668TMC3    C8 9945   2.253   3.754  14.748  0.7122 -0.7040 -0.2889
  668TMC3    O1 9946   2.272   3.429  15.100 -0.2916  0.8615 -0.7901
  668TMC3    O2 9947   2.233   3.841  14.832  0.0082 -0.2557  0.2278
  669TMC3    C1 9948   4.656   2.884  14.445 -0.2017 -0.7257  0.5131
  669TMC3    C2 9949   4.560   2.849  14.352  0.4837 -0.4159 -0.2173
  669TMC3    C3 9950   4.571   2.905  14.225  0.2535  0.0725 -0.5927
  669TMC3    C4 9951   0.022   2.971  14.409  0.4108 -0.8487 -0.1821
  669TMC3    C5 9952   0.022   3.025  14.285 -0.1415  0.7958 -0.0256
  669TMC3    C6 9953   4.664   2.990  14.190 -0.1228  0.4599  0.3276
  669TMC3     C 9954   4.656   2.822  14.577 -0.1223  0.4231 -0.5557
  669TMC3     O 9955   4.549   2.786  14.622 -0.2536  0.7221 -0.2314
  669TMC3     H 9956   4.481   2.776  14.361 -0.0828  0.0836 -1.0833
  669TMC3    H1 9957   0.092   3.001  14.486 -0.0886 -0.3843  0.0852
  669TMC3    H2 9958   4.666   3.037  14.092  1.0202  0.3781  0.3124
  669TMC3    C7 9959   0.136   3.102  14.243  0.0800  0.4213 -0.9547
  669TMC3    C8 9960   4.482   2.846  14.126 -0.1577  0.2102 -0.0391
  669TMC3    O1 9961   0.118   3.183  14.153 -0.3620  0.4717 -0.0806
  669TMC3    O2 9962   4.370   2.803  14.153  0.1281 -0.2452 -0.9159
  670MPD2     C 9963   2.875   4.559  12.542  1.1114 -0.1422 -0.2329
  670MPD2    C1 9964   2.998   4.612  12.580  0.0045  0.5353 -0.3610
  670MPD2    C2 9965   3.001   4.720  12.671 -0.0921 -0.3622  0.3340
  670MPD2    C3 9966   2.891   0.031  12.727 -0.2791  0.3591  0.4162
  670MPD2    C4 9967   2.773   4.714  12.691  0.4531  0.1454 -0.7726
  670MPD2    C5 9968   2.766   4.615  12.597 -0.6597  0.2727 -0.4953
  670MPD2     H 9969   3.099   0.013  12.706 -0.4971  1.0965  0.1589
  670MPD2    H1 9970   2.677   0.013  12.725 -0.1008  0.1033 -2.2705
  670MPD2    H2 9971   2.872   4.478  12.470  0.4392 -0.2717 -0.0600
  670MPD2    H3 9972   2.671   4.575  12.564 -1.2988  0.9235  0.5498
  670MPD2     N 9973   2.905   0.139  12.813 -0.2512  0.1411  0.5156
  670MPD2    H5 9974   3.000   0.173  12.821 -0.5197  1.4198 -1.7181
  670MPD2    N1 9975   3.123   4.563  12.531  0.4640 -0.4505 -0.5577
  670MPD2    H7 9976   3.209   4.602  12.570 -0.4796  2.2464 -1.1909
  671TMC3    C1 9977   2.853   0.297  12.985  0.2182 -0.2681  0.3737
  671TMC3    C2 9978   2.986   0.310  13.005  0.0860 -0.0630 -0.5352
  671TMC3    C3 9979   3.030   0.363  13.121  0.0646  0.2446 -0.4634
  671TMC3    C4 9980   2.759   0.328  13.079 -0.3430 -0.1850  0.2433
  671TMC3    C5 9981   2.807   0.366  13.201 -0.4719  0.6984 -0.1919
  671TMC3    C6 9982   2.943   0.395  13.219  0.2597  0.0976 -0.1403
  671TMC3     C 9983   2.801   0.200  12.887  0.4792 -0.1665  0.2638
  671TMC3     O 9984   2.681   0.173  12.888 -0.0413  0.2553 -0.2023
  671TMC3     H 9985   3.049   0.236  12.956 -0.4971 -0.2875 -0.9469
  671TMC3    H1 9986   2.656   0.295  13.074 -0.4372  0.2208 -0.4978
  671TMC3    H2 9987   2.980   0.430  13.314 -0.1456 -1.0837  0.4522
  671TMC3    C7 9988   2.739   0.312  13.313 -0.6316  0.2326  0.3189
  671TMC3    C8 9989   3.153   0.314  13.168 -0.2830  0.6192 -0.0989
  671TMC3    O1 9990   2.626   0.278  13.294 -0.4887  0.3730 -0.6962
  671TMC3    O2 9991   3.186   0.197  13.136 -0.6942 -0.3425  0.5157
  672MPD2     C 9992   3.298   1.511   1.069 -0.0809  0.0155 -0.0404
  672MPD2    C1 9993   3.375   1.413   1.014 -0.1577 -0.3343  0.0971
  672MPD2    C2 9994   3.510   1.410   1.035  0.7361  0.1355  0.8727
  672MPD2    C3 9995   3.574   1.513   1.099 -0.1035 -0.6162 -0.0136
  672MPD2    C4 9996   3.498   1.606   1.161  0.0765 -0.7475  0.6053
  672MPD2    C5 9997   3.360   1.610   1.142 -1.0084  0.0666 -0.2168
  672MPD2     H 9998   3.568   1.330   0.991 -0.4107  0.6563 -1.6253
  672MPD2    H1 9999   3.540   1.687   1.219 -0.8550  0.4886 -0.4658
  672MPD2    H210000   3.190   1.527   1.066 -0.2068 -1.3885 -2.7924
  672MPD2    H310001   3.308   1.699   1.177  0.5128  0.8329  0.1109
  672MPD2     N10002   3.713   1.532   1.106 -0.6767  0.8130 -0.9074
  672MPD2    H510003   3.745   1.612   1.159 -2.1101  1.4673 -1.0335
  672MPD2    N110004   3.327   1.306   0.940 -0.3280 -0.2393  0.0599
  672MPD2    H710005   3.393   1.229   0.934  1.1004  1.0335 -0.7983
  673TMC3    C110006   3.173   1.194   0.804  0.2735  0.3372 -0.0102
  673TMC3    C210007   3.204   1.072   0.853  0.6374  0.1021  0.0223
  673TMC3    C310008   3.181   0.964   0.765 -0.1472  0.0815  0.0527
  673TMC3    C410009   3.099   1.212   0.692  0.1741 -0.1812 -0.6404
  673TMC3    C510010   3.065   1.100   0.618 -0.1152 -0.5150 -0.5883
  673TMC3    C610011   3.098   0.970   0.652 -0.0327  0.3147  0.6029
  673TMC3     C10012   3.196   1.302   0.890  0.5946  0.4802 -1.1068
  673TMC3     O10013   3.119   1.393   0.889  0.4224  0.2528 -0.0939
  673TMC3     H10014   3.239   1.060   0.955 -0.0588  1.2973  0.3935
  673TMC3    H110015   3.064   1.313   0.674  1.2768 -0.0035 -1.8162
  673TMC3    H210016   3.083   0.884   0.589  1.7179  0.3538  0.1236
  673TMC3    C710017   3.043   1.120   0.481 -0.0369 -0.3934 -0.1865
  673TMC3    C810018   3.212   0.830   0.812  0.5203  0.4503  0.3650
  673TMC3    O110019   3.012   1.024   0.413 -0.6935  0.2689 -0.1408
  673TMC3    O210020   3.130   0.748   0.777 -0.3387  0.0482  0.4426
  674MPD2     C10021   2.776   1.396  17.518 -0.6425 -0.2011 -1.1444
  674MPD2    C110022   2.736   1.265  17.539 -0.1318  0.7250  0.2144
  674MPD2    C210023   2.603   1.241  17.538 -0.0717  0.2839 -0.7722
  674MPD2    C310024   2.508   1.343  17.529  0.4837  0.3551  0.2195
  674MPD2    C410025   2.551   1.466  17.505 -0.1764 -0.0293 -0.7040
  674MPD2    C510026   2.685   1.494  17.499 -0.3306 -0.6920 -0.6302
  674MPD2     H10027   2.565   1.141  17.558 -0.3327  0.8427  1.5917
  674MPD2    H110028   2.491   1.556  17.495  0.6327  0.4724 -0.9707
  674MPD2    H210029   2.882   1.414  17.520 -0.5695 -0.5971 -1.4533
  674MPD2    H310030   2.710   1.600  17.499 -1.2948 -0.4636 -0.0941
  674MPD2     N10031   2.373   1.305  17.556  0.0367  0.2472  0.3651
  674MPD2    H510032   2.364   1.207  17.581 -0.4484 -0.2772 -1.8652
  674MPD2    N110033   2.839   1.173  17.572  0.3976 -0.1562 -0.1568
  674MPD2    H710034   2.931   1.214  17.578 -1.1728  3.3281  0.4445
  675TMC3    C110035   2.925   0.967  17.654  0.2668  0.7602 -0.4101
  675TMC3    C210036   2.908   0.834  17.666  0.2617  0.4445  0.5366
  675TMC3    C310037   3.017   0.761  17.709 -0.2818 -0.1085  0.8306
  675TMC3    C410038   3.039   1.028  17.699 -0.3432  0.1930 -0.1988
  675TMC3    C510039   3.137   0.952  17.748  0.0958 -0.3248  0.0348
  675TMC3    C610040   3.130   0.821  17.746 -0.2394  0.2035  0.5641
  675TMC3     C10041   2.815   1.044  17.598 -0.6038  0.3698 -0.2387
  675TMC3     O10042   2.709   0.983  17.584  0.0599 -0.5380 -0.0907
  675TMC3     H10043   2.818   0.782  17.636  0.3506  1.5677 -1.6860
  675TMC3    H110044   3.055   1.135  17.708  1.5687  0.1427 -2.7261
  675TMC3    H210045   3.220   0.763   0.009 -1.3633 -2.0356 -1.9503
  675TMC3    C710046   3.260   1.012   0.043  0.1852 -0.0546  0.4178
  675TMC3    C810047   3.041   0.625  17.667  0.1966  0.0284  0.6133
  675TMC3    O110048   3.327   1.067  17.705 -0.2045 -0.0450 -0.4636
  675TMC3    O210049   3.148   0.596  17.617  0.2332  0.0934  0.3449
  676MPD2     C10050   0.939   3.843  11.152 -0.2587  0.5678  0.6135
  676MPD2    C110051   0.805   3.800  11.153 -0.0794 -0.5301 -0.2709
  676MPD2    C210052   0.775   3.678  11.110 -0.0019  0.2984 -0.2066
  676MPD2    C310053   0.870   3.586  11.083  0.4685 -0.0132  0.3279
  676MPD2    C410054   1.001   3.613  11.082 -0.3143 -0.2526  0.0832
  676MPD2    C510055   1.035   3.744  11.122  0.7507  0.1828  0.5927
  676MPD2     H10056   0.674   3.640  11.110  0.0247  0.2453 -1.4084
  676MPD2    H110057   1.069   3.535  11.052 -0.5303 -0.2414 -0.4352
  676MPD2    H210058   0.988   3.934  11.186  0.1958  0.1814  1.0011
  676MPD2    H310059   1.141   3.768  11.123  0.3687  1.8020  0.9566
  676MPD2     N10060   0.835   3.445  11.073  0.4090 -0.4164 -0.3825
  676MPD2    H510061   0.908   3.378  11.052 -0.9697 -1.7204 -0.9057
  676MPD2    N110062   0.694   3.877  11.188 -0.4356 -0.3202 -0.1646
  676MPD2    H710063   0.607   3.826  11.183 -1.5843  1.3246  3.8768
  677TMC3    C110064   0.587   4.023  11.343 -0.3989  0.6555  0.2319
  677TMC3    C210065   0.514   3.911  11.384  0.9690 -0.7790 -0.7630
  677TMC3    C310066   0.449   3.922  11.503  0.0117  0.1741 -0.9054
  677TMC3    C410067   0.599   4.139  11.417 -0.4490  1.1318  0.9861
  677TMC3    C510068   0.550   4.137  11.548  0.5674  0.3698 -0.5503
  677TMC3    C610069   0.461   4.037  11.582 -0.1238 -0.4297 -0.9374
  677TMC3     C10070   0.701   3.993  11.258  0.2641 -0.1793 -0.2024
  677TMC3     O10071   0.791   4.075  11.260 -0.2256 -0.0508 -0.1103
  677TMC3     H10072   0.479   3.831  11.320 -0.5459 -1.3295  0.7362
  677TMC3    H110073   0.648   4.230  11.383  1.2716 -1.0802 -2.5394
  677TMC3    H210074   0.421   4.034  11.683  2.6431 -1.4216  0.1317
  677TMC3    C710075   0.654   4.150  11.645  0.1661  0.3531 -0.2568
  677TMC3    C810076   0.450   3.795  11.577  0.5804  0.6001 -0.6917
  677TMC3    O110077   0.625   4.137  11.762  0.2326  0.5452  0.4913
  677TMC3    O210078   0.515   3.705  11.525 -0.3487 -0.1016 -0.4806
  678MPD2     C10079   2.245   3.543   1.257  0.5726  0.3313  0.0956
  678MPD2    C110080   2.210   3.523   1.125  0.4792 -0.4814 -0.2111
  678MPD2    C210081   2.104   3.598   1.071  0.3456  0.1633 -0.4238
  678MPD2    C310082   2.039   3.698   1.148 -0.0687 -0.5018 -0.1206
  678MPD2    C410083   2.086   3.717   1.276  0.0004  0.3920 -0.0874
  678MPD2    C510084   2.184   3.639   1.337  0.0448 -0.1236  0.6003
  678MPD2     H10085   2.078   3.578   0.968 -1.0226 -1.3405  0.2048
  678MPD2    H110086   2.044   3.791   1.343  2.1215 -0.1217  1.8353
  678MPD2    H210087   2.313   3.471   1.301 -1.5196 -1.2649  0.6687
  678MPD2    H310088   2.209   3.658   1.440  1.9562  1.1159 -0.0839
  678MPD2     N10089   1.956   3.780   1.074  0.0327  0.2195 -0.6383
  678MPD2    H510090   1.966   3.765   0.974 -0.1786 -1.5954 -0.3751
  678MPD2    N110091   2.266   3.423   1.041 -0.3431  0.7265 -0.2332
  678MPD2    H710092   2.239   3.430   0.944  0.7019 -1.8291 -0.7031
  679TMC3    C110093   2.635   3.157   0.928 -0.2569 -0.5507 -0.6234
  679TMC3    C210094   2.541   3.189   1.021 -0.3027 -0.8092  0.2795
  679TMC3    C310095   2.437   3.267   0.975 -0.2336 -1.0123  0.3766
  679TMC3    C410096   2.621   3.196   0.797 -0.5977 -0.4019  0.3533
  679TMC3    C510097   2.518   3.265   0.753 -0.6167 -0.7907  0.3865
  679TMC3    C610098   2.427   3.303   0.842  0.1827  0.1077 -0.7493
  679TMC3     C10099   2.766   3.128   0.972  0.8165 -0.0069 -0.2747
  679TMC3     O10100   2.847   3.187   0.902  0.7156 -0.0646 -0.3299
  679TMC3     H10101   2.557   3.181   1.128  0.0067  0.4186  0.3269
  679TMC3    H110102   2.685   3.153   0.721  1.1504  2.0996  0.4023
  679TMC3    H210103   2.355   3.378   0.810 -0.3491 -0.5335 -1.0418
  679TMC3    C710104   2.525   3.325   0.618 -0.3329  0.0680  0.2394
  679TMC3    C810105   2.366   3.334   1.082 -0.0992 -0.2988 -0.0632
  679TMC3    O110106   2.420   3.377   0.577 -0.2315  0.0190  0.2749
  679TMC3    O210107   2.412   3.319   1.194 -0.0461  0.9036  0.0514
  680MPD2     C10108   2.429   2.395  13.332  1.4182 -0.2897  0.6449
  680MPD2    C110109   2.504   2.376  13.446  0.7187 -0.2515  0.5285
  680MPD2    C210110   2.607   2.459  13.477  0.1940  0.0989  0.6033
  680MPD2    C310111   2.651   2.560  13.393  0.4667  0.3297 -0.7713
  680MPD2    C410112   2.593   2.566  13.268 -0.3824  1.0637  0.8760
  680MPD2    C510113   2.482   2.493  13.248 -0.2758  0.6572  0.4190
  680MPD2     H10114   2.657   2.443  13.572  0.3770  1.6163  0.7657
  680MPD2    H110115   2.624   2.638  13.193  0.6524 -0.8551 -0.5335
  680MPD2    H210116   2.335   2.349  13.307  1.5106  0.2934 -0.7537
  680MPD2    H310117   2.435   2.497  13.151  0.6230 -0.9369 -0.0704
  680MPD2     N10118   2.743   2.654  13.420 -0.3297 -0.2779 -0.5823
  680MPD2    H510119   2.749   2.733  13.356 -1.7517 -1.2333 -1.8820
  680MPD2    N110120   2.477   2.271  13.543  0.2769 -0.1400  0.0696
  680MPD2    H710121   2.537   2.274  13.624  0.0647  0.1436  0.2155
  681TMC3    C110122   2.441   2.068  13.627 -0.8554  0.0586  0.1711
  681TMC3    C210123   2.415   2.088  13.762  0.1997 -1.1901  1.1071
  681TMC3    C310124   2.500   2.029  13.852  0.2017 -0.2131  0.0046
  681TMC3    C410125   2.542   1.984  13.595  0.2659 -0.6270  0.1498
  681TMC3    C510126   2.626   1.932  13.680  0.1275  0.0497 -0.6195
  681TMC3    C610127   2.603   1.941  13.816  0.0833 -0.1414 -1.1419
  681TMC3     C10128   2.400   2.163  13.521  0.9997 -0.2395 -0.1768
  681TMC3     O10129   2.321   2.133  13.435 -0.4269  0.2171  0.7421
  681TMC3     H10130   2.340   2.156  13.800 -1.7799 -2.6403 -0.1654
  681TMC3    H110131   2.561   1.980  13.488  2.0508  0.3341  0.4452
  681TMC3    H210132   2.670   1.893  13.887  2.0111  1.3638 -1.9377
  681TMC3    C710133   2.712   1.815  13.629  0.2821 -0.4793 -0.4955
  681TMC3    C810134   2.490   2.072  13.988 -0.0821  0.1958 -0.1856
  681TMC3    O110135   2.722   1.709  13.689 -0.0657  0.3434  0.1408
  681TMC3    O210136   2.373   2.073  14.029 -0.2311 -0.0764 -0.5973
  682MPD2     C10137   0.387   3.907  10.647  0.7529  0.5565  0.0887
  682MPD2    C110138   0.292   3.809  10.614  0.3765 -0.5997 -0.0855
  682MPD2    C210139   0.161   3.812  10.661  0.0286  0.3157  0.6240
  682MPD2    C310140   0.128   3.923  10.739  0.4265  0.0415  0.1086
  682MPD2    C410141   0.219   4.018  10.765 -0.7476  0.1673 -0.5195
  682MPD2    C510142   0.352   4.006  10.728 -0.5057 -0.0224 -0.0475
  682MPD2     H10143   0.084   3.743  10.628 -0.7432  2.5799 -2.2581
  682MPD2    H110144   0.194   4.099  10.833  1.6269 -0.4445  1.0962
  682MPD2    H210145   0.485   3.913  10.600  1.8031  1.5551  2.3764
  682MPD2    H310146   0.424   4.082  10.757 -1.5420  0.5822  0.9434
  682MPD2     N10147   4.734   3.953  10.789 -0.4589 -0.3162 -0.3539
  682MPD2    H510148   4.726   4.045  10.832  0.3003 -0.8365  0.9231
  682MPD2    N110149   0.329   3.694  10.537 -0.0942 -0.1558 -0.3548
  682MPD2    H710150   0.258   3.626  10.510 -1.1328  1.2753 -1.2644
  683TMC3    C110151   4.438   3.953  11.095 -0.1836 -0.5610  0.0582
  683TMC3    C210152   4.307   3.960  11.048 -0.0707 -0.0136 -0.1481
  683TMC3    C310153   4.288   3.933  10.920 -0.4676  0.8666 -0.5915
  683TMC3    C410154   4.544   3.944  11.009  0.3048  0.5641  0.3684
  683TMC3    C510155   4.518   3.920  10.879  0.0931  0.4742 -0.7869
  683TMC3    C610156   4.390   3.909  10.827  0.3021  0.3652 -0.2963
  683TMC3     C10157   4.476   3.942  11.240  0.1546  0.4601 -0.1478
  683TMC3     O10158   4.583   3.994  11.270 -0.2538  0.5085 -0.2720
  683TMC3     H10159   4.219   3.969  11.112  0.1817  1.9252 -0.0713
  683TMC3    H110160   4.644   3.927  11.048  0.6252 -1.8645 -1.5174
  683TMC3    H210161   4.369   3.888  10.723 -2.1114  1.1531  0.0151
  683TMC3    C710162   4.628   3.870  10.799 -0.9485  0.3014  0.3924
  683TMC3    C810163   4.150   3.900  10.887 -0.2359  0.5080 -0.1173
  683TMC3    O110164   4.606   3.768  10.739  0.1079 -0.3820 -0.7069
  683TMC3    O210165   4.062   3.965  10.942 -0.3079 -0.8788  0.5758
  684MPD2     C10166   3.486   3.623  16.241  1.0950  0.4251  0.0695
  684MPD2    C110167   3.399   3.634  16.133 -0.0648  0.0729  0.5362
  684MPD2    C210168   3.335   3.754  16.123  0.0762  0.3203 -0.2321
  684MPD2    C310169   3.351   3.859  16.214  0.7334 -0.2967  0.0075
  684MPD2    C410170   3.445   3.849  16.315 -0.3840 -0.1826  0.4301
  684MPD2    C510171   3.510   3.728  16.324  0.5259  0.4495  0.4572
  684MPD2     H10172   3.273   3.773  16.036 -1.3071  0.9561  0.8814
  684MPD2    H110173   3.469   3.931  16.383 -1.1416  2.5215 -2.5569
  684MPD2    H210174   3.545   3.532  16.250 -2.0465 -1.7008 -0.9632
  684MPD2    H310175   3.581   3.708  16.404  1.5166  3.1524  0.2553
  684MPD2     N10176   3.301   3.992  16.194  0.3674  0.0931  0.0073
  684MPD2    H510177   3.353   4.064  16.242  0.4653 -1.6659  2.5529
  684MPD2    N110178   3.388   3.533  16.029 -0.1560  0.1097 -0.1259
  684MPD2    H710179   3.321   3.555  15.956 -0.6879  1.0329  0.6475
  685TMC3    C110180   3.445   3.357  15.885  0.4522  0.1817  0.2608
  685TMC3    C210181   3.351   3.401  15.798  0.1934  0.6275  0.0850
  685TMC3    C310182   3.358   3.367  15.666 -0.0683  0.5604  0.5778
  685TMC3    C410183   3.557   3.287  15.844 -0.0394  0.8715  0.1688
  685TMC3    C510184   3.555   3.243  15.713  0.2688 -0.4249  0.2544
  685TMC3    C610185   3.456   3.280  15.628  0.5651  0.7694 -0.5439
  685TMC3     C10186   3.466   3.423  16.007  0.7882  0.1047 -0.1397
  685TMC3     O10187   3.566   3.388  16.068 -0.1954  0.2057 -0.1752
  685TMC3     H10188   3.270   3.467  15.828  0.5881  1.1212  0.0776
  685TMC3    H110189   3.627   3.252  15.919  1.0295 -1.3359 -1.8372
  685TMC3    H210190   3.458   3.242  15.526 -1.7624 -1.5352  0.2510
  685TMC3    C710191   3.687   3.212  15.652  0.2129  0.3329 -0.0682
  685TMC3    C810192   3.253   3.408  15.571  0.2325  0.3535  0.8361
  685TMC3    O110193   3.687   3.170  15.536 -0.7639 -0.1887  0.0145
  685TMC3    O210194   3.284   3.401  15.449  0.1142 -0.1044 -0.0984
  686MPD2     C10195   4.724   3.595  15.077 -0.7279 -0.6790  0.0689
  686MPD2    C110196   0.029   3.472  15.128 -0.4696  0.2013  0.3091
  686MPD2    C210197   0.040   3.362  15.038  0.1154  0.0821 -0.2884
  686MPD2    C310198   4.718   3.360  14.910  0.4617 -0.1884 -0.2457
  686MPD2    C410199   4.674   3.486  14.865 -0.3518 -0.5590  0.3700
  686MPD2    C510200   4.685   3.592  14.944  0.1653  0.5463 -0.1429
  686MPD2     H10201   0.089   3.272  15.071 -1.0375 -0.2022  0.6635
  686MPD2    H110202   4.637   3.493  14.763  1.8173  0.9022 -0.3148
  686MPD2    H210203   4.720   3.689  15.131 -1.1456  1.2950 -3.4270
  686MPD2    H310204   4.654   3.689  14.908 -1.5672  0.6724  1.6745
  686MPD2     N10205   4.711   3.246  14.828 -0.5678  0.0509  0.6817
  686MPD2    H510206   4.688   3.267  14.731 -0.4860 -0.5618  0.5276
  686MPD2    N110207   0.044   3.457  15.268  0.3835  0.7918 -0.4225
  686MPD2    H710208   0.006   3.526  15.332  0.5294  0.9007 -0.4540
  687TMC3    C110209   4.730   3.073  15.004  0.3273 -0.4516 -0.5906
  687TMC3    C210210   4.617   3.107  15.079 -0.1562  0.2178 -0.6596
  687TMC3    C310211   4.617   3.078  15.213  0.6339  0.5874 -0.7353
  687TMC3    C410212   0.088   2.980  15.053 -0.1357 -0.3011  0.0675
  687TMC3    C510213   0.079   2.959  15.186 -0.3659  0.7396  0.4697
  687TMC3    C610214   4.719   3.006  15.273 -0.4063  0.0713 -0.7873
  687TMC3     C10215   4.725   3.110  14.866  0.2128 -0.2642 -0.2163
  687TMC3     O10216   4.736   3.019  14.785 -0.2283  0.4180 -0.0602
  687TMC3     H10217   4.531   3.162  15.044 -0.5636 -0.7409 -1.1696
  687TMC3    H110218   0.174   2.958  14.991 -0.1442 -0.4246  0.0991
  687TMC3    H210219   4.716   2.976  15.377  1.0035  1.1956 -0.4286
  687TMC3    C710220   0.189   2.910  15.261 -0.4518  0.3429  0.2454
  687TMC3    C810221   4.545   3.164  15.308 -0.1939 -0.3707 -0.0540
  687TMC3    O110222   0.197   2.959  15.373  0.1747 -0.0213 -0.3128
  687TMC3    O210223   4.546   3.127  15.426 -0.4349 -0.3376 -0.3567
  688MPD2     C10224   3.618   2.546  17.331  0.1621  0.2546 -0.9379
  688MPD2    C110225   3.655   2.416  17.347 -0.0513 -0.1788  0.3865
  688MPD2    C210226   3.739   2.362  17.251 -0.1181 -0.6329  0.2631
  688MPD2    C310227   3.792   2.439  17.149  0.3982 -0.2736 -0.1053
  688MPD2    C410228   3.743   2.565  17.133  0.0692 -0.5838  0.7493
  688MPD2    C510229   3.660   2.618  17.229  0.1363 -0.3968  0.0540
  688MPD2     H10230   3.777   2.262  17.265  2.8924  0.7542  2.0202
  688MPD2    H110231   3.773   2.622  17.046 -0.9695 -1.6522 -0.2923
  688MPD2    H210232   3.544   2.585  17.401 -0.0350 -0.6224 -0.6669
  688MPD2    H310233   3.617   2.717  17.215 -0.5580 -0.5972  0.7681
  688MPD2     N10234   3.892   2.399  17.060  0.2075  0.4610  0.6319
  688MPD2    H510235   3.918   2.470  16.993 -0.5031  2.9681  3.0076
  688MPD2    N110236   3.599   2.333  17.455  0.3532 -0.2504 -0.0772
  688MPD2    H710237   3.533   2.378  17.518 -0.8934 -0.8511 -0.9557
  689TMC3    C110238   3.548   2.151  17.599  0.2752 -0.1077 -0.3732
  689TMC3    C210239   3.560   2.243  17.700  0.5344 -0.1581  0.2372
  689TMC3    C310240   3.570   2.186   0.077 -0.0100 -0.2731 -0.0253
  689TMC3    C410241   3.528   2.017  17.620  1.0101  0.7616  0.6117
  689TMC3    C510242   3.551   1.968  17.745  0.6134  0.2929 -0.2675
  689TMC3    C610243   3.572   2.053   0.098 -0.2198  0.4536 -0.6130
  689TMC3     C10244   3.598   2.198  17.464  0.6954  0.0957  0.2489
  689TMC3     O10245   3.641   2.118  17.382  0.3502 -0.1913  0.5431
  689TMC3     H10246   3.614   2.336  17.690  0.3120 -0.1709 -1.1515
  689TMC3    H110247   3.505   1.957  17.533 -0.1718  0.3450  1.2105
  689TMC3    H210248   3.586   2.020   0.201  2.6351  1.0387 -0.8277
  689TMC3    C710249   3.498   1.839   0.027 -0.0262 -0.2331 -1.0591
  689TMC3    C810250   3.591   2.274   0.192 -0.2499  0.1074 -0.4070
  689TMC3    O110251   3.538   1.794   0.134  0.1742  0.0003  0.2108
  689TMC3    O210252   3.642   2.225   0.293 -0.6449 -0.2968 -0.2420
  690MPD2     C10253   1.579   4.125  15.313  0.5581 -0.3413 -0.1535
  690MPD2    C110254   1.495   4.090  15.209 -1.4301 -0.0443 -0.3376
  690MPD2    C210255   1.546   4.093  15.082  0.1812  0.4508  0.6476
  690MPD2    C310256   1.678   4.133  15.063 -0.1945 -0.0338  0.2386
  690MPD2    C410257   1.750   4.166  15.171  0.7698 -0.2861 -0.1367
  690MPD2    C510258   1.704   4.172  15.295 -0.4595  0.1804  0.1231
  690MPD2     H10259   1.479   4.056  15.006  3.4203 -0.2084 -1.8629
  690MPD2    H110260   1.852   4.200  15.156  0.2168  1.4458  0.0173
  690MPD2    H210261   1.545   4.127  15.416 -0.4384  0.0673 -0.4925
  690MPD2    H310262   1.775   4.194  15.374 -0.5702  0.5304  0.1239
  690MPD2     N10263   1.733   4.134  14.930 -0.0806  0.2682 -0.5852
  690MPD2    H510264   1.683   4.085  14.857 -1.9762 -0.3154  1.0994
  690MPD2    N110265   1.362   4.061  15.236 -0.5536  0.5024 -0.0825
  690MPD2    H710266   1.303   4.051  15.153 -0.2752 -1.6999 -0.0354
  691TMC3    C110267   1.172   3.960  15.348  0.1147 -0.4342  0.6988
  691TMC3    C210268   1.081   4.032  15.275 -0.2272 -0.2914 -0.2932
  691TMC3    C310269   0.964   3.957  15.265  0.4067 -0.0547  0.5076
  691TMC3    C410270   1.157   3.847  15.413 -0.4992 -0.3821 -0.5675
  691TMC3    C510271   1.043   3.775  15.388 -0.0612  0.0069 -0.0585
  691TMC3    C610272   0.946   3.826  15.307  0.0686 -0.2547  0.0559
  691TMC3     C10273   1.312   4.012  15.355  0.1320  0.3629 -0.0566
  691TMC3     O10274   1.376   3.993  15.456 -0.5105 -0.2357  0.1565
  691TMC3     H10275   1.092   4.135  15.243  1.6751 -0.7559 -1.1161
  691TMC3    H110276   1.235   3.803  15.474 -0.7786 -1.2939 -0.8756
  691TMC3    H210277   0.845   3.787  15.316  0.0011  0.2985  1.6571
  691TMC3    C710278   1.006   3.686  15.504 -0.0142 -0.2951  0.7215
  691TMC3    C810279   0.845   4.038  15.250 -0.1002 -0.2307  0.4566
  691TMC3    O110280   1.059   3.709  15.612 -0.2259  0.0671  0.2719
  691TMC3    O210281   0.845   4.148  15.301  0.1002 -0.4638 -0.0424
  692TMC3    C110282   2.517   0.017  15.130 -0.4335 -0.5019  0.1878
  692TMC3    C210283   2.641   0.079  15.123  0.3664 -0.0439 -0.2083
  692TMC3    C310284   2.755   0.010  15.142  0.3362  0.1481 -0.0934
  692TMC3    C410285   2.513   4.626  15.166 -0.0098  0.0443 -0.0647
  692TMC3    C510286   2.630   4.558  15.188 -0.0126 -0.0246  0.1105
  692TMC3    C610287   2.748   4.628  15.202  0.0169  0.4744  0.4706
  692TMC3     C10288   2.405   0.096  15.181 -0.0261  0.6542  0.4816
  692TMC3     O10289   2.303   0.042  15.212 -0.0385 -0.1761 -0.2603
  692TMC3     H10290   2.638   0.154  15.045 -0.7607  2.0187  1.8005
  692TMC3    H110291   2.420   4.577  15.195 -0.7327  2.2840  1.3875
  692TMC3    H210292   2.830   4.561  15.182 -0.1452  0.0820  1.0951
  692TMC3    C710293   2.614   4.432  15.253  0.6253 -0.5252  0.2459
  692TMC3    C810294   2.860   0.089  15.205  0.0945 -0.2183 -0.2156
  692TMC3    O110295   2.526   4.358  15.214 -0.2692  0.2228  0.0355
  692TMC3    O210296   2.957   0.022  15.243 -0.5253 -0.0103  0.2724
  693MPD2     C10297   1.989   2.897  10.426  0.5942 -0.1689  0.0555
  693MPD2    C110298   1.994   2.757  10.439 -0.4823  1.0651 -0.0954
  693MPD2    C210299   2.120   2.698  10.450 -0.3044 -0.8166 -0.1121
  693MPD2    C310300   2.234   2.768  10.465  0.2680 -0.0945 -0.1756
  693MPD2    C410301   2.228   2.906  10.480  0.3532 -0.2784  0.6167
  693MPD2    C510302   2.107   2.970  10.455  0.3140 -0.6111 -0.5142
  693MPD2     H10303   2.131   2.590  10.452  0.7485 -0.6902  0.5644
  693MPD2    H110304   2.312   2.970  10.504 -0.9147  1.8618 -0.6576
  693MPD2    H210305   1.898   2.954  10.420  0.8580  0.2327 -0.1016
  693MPD2    H310306   2.094   3.077  10.448 -0.0676 -0.5350  1.3562
  693MPD2     N10307   2.360   2.697  10.467 -0.5238 -0.1597  0.5411
  693MPD2    H510308   2.436   2.744  10.515 -0.4012  0.7784 -0.5996
  693MPD2    N110309   1.868   2.686  10.435 -0.3878 -0.7695  0.7288
  693MPD2    H710310   1.788   2.746  10.419 -0.2891 -0.2199  2.2691
  694TMC3    C110311   1.742   2.495  10.463 -0.5486 -0.6330  0.0732
  694TMC3    C210312   1.714   2.370  10.424 -0.1648 -0.3478  0.0360
  694TMC3    C310313   1.624   2.294  10.498 -0.0238 -0.5421  0.1766
  694TMC3    C410314   1.707   2.534  10.592 -0.0618  0.4228  0.0295
  694TMC3    C510315   1.631   2.452  10.670 -0.1587 -0.2983  0.3280
  694TMC3    C610316   1.586   2.327  10.622 -0.1820 -0.0089 -0.2877
  694TMC3     C10317   1.865   2.547  10.420  0.7172  0.3834  0.6597
  694TMC3     O10318   1.962   2.472  10.442 -0.6335 -0.1951 -0.8184
  694TMC3     H10319   1.743   2.343  10.323  1.3655 -1.2128  0.7179
  694TMC3    H110320   1.740   2.631  10.626 -1.0581  0.5680  0.5701
  694TMC3    H210321   1.515   2.270  10.681  0.3005 -0.5445 -0.2218
  694TMC3    C710322   1.638   2.482  10.813 -0.8030  0.2504  0.6712
  694TMC3    C810323   1.579   2.164  10.457 -0.1432 -0.6886  0.1433
  694TMC3    O110324   1.680   2.594  10.838  0.6896 -0.4560  0.2731
  694TMC3    O210325   1.530   2.095  10.545  0.1198 -0.4978 -0.7371
  695MPD2     C10326   3.198   4.178  13.180 -0.6714  0.1825 -0.3477
  695MPD2    C110327   3.198   4.281  13.271  0.0632  0.3413  0.1599
  695MPD2    C210328   3.073   4.338  13.302  0.3207  0.5025 -0.3004
  695MPD2    C310329   2.957   4.286  13.251 -0.5153  0.4507 -0.4548
  695MPD2    C410330   2.966   4.177  13.165 -0.1984  0.4646 -0.8047
  695MPD2    C510331   3.088   4.121  13.135  0.9501 -0.1980 -0.2393
  695MPD2     H10332   3.067   4.417  13.375  1.5627  1.6260 -1.4255
  695MPD2    H110333   2.879   4.132  13.118 -0.6540  1.1687 -0.6383
  695MPD2    H210334   3.295   4.141  13.148  0.1615  0.2433  2.0476
  695MPD2    H310335   3.084   4.040  13.063  1.4078 -1.1843  0.8569
  695MPD2     N10336   2.833   4.351  13.285 -0.4540  0.1041  0.0992
  695MPD2    H510337   2.845   4.422  13.356  3.5463  0.0767 -0.5681
  695MPD2    N110338   3.311   4.336  13.328  0.4587 -0.6189 -0.3031
  695MPD2    H710339   3.300   4.418  13.387 -0.0472 -1.0010  0.1369
  696TMC3    C110340   2.594   4.375  13.306  0.4572  0.7778  0.2141
  696TMC3    C210341   2.605   4.449  13.424  0.8085 -0.2820 -0.2535
  696TMC3    C310342   2.488   4.512  13.461  1.1197  0.0724 -0.3495
  696TMC3    C410343   2.484   4.372  13.226 -0.4344  0.3670  0.2027
  696TMC3    C510344   2.373   4.442  13.263  0.0856 -0.3558 -0.4542
  696TMC3    C610345   2.378   4.516  13.378 -0.0535  0.3242  0.1079
  696TMC3     C10346   2.708   4.316  13.243  0.6201  0.2290  0.6305
  696TMC3     O10347   2.684   4.257  13.139  0.0425 -0.0550 -0.3093
  696TMC3     H10348   2.685   4.437  13.495  0.5129 -0.2342  0.0893
  696TMC3    H110349   2.465   4.329  13.128 -0.3734  2.5342 -0.7508
  696TMC3    H210350   2.283   4.555  13.410  0.5825  0.5481  1.7403
  696TMC3    C710351   2.315   4.517  13.154 -0.6384  0.7999 -0.1623
  696TMC3    C810352   2.498   4.641  13.514 -0.4256 -0.5502 -0.5618
  696TMC3    O110353   2.294   4.458  13.051 -0.1977  0.4233  0.1784
  696TMC3    O210354   2.435   4.734  13.469 -0.0591 -0.3314 -0.6321
  697MPD2     C10355   2.438   1.799  15.492 -0.4840  0.4008 -0.0627
  697MPD2    C110356   2.444   1.752  15.363 -0.1809 -0.5722  0.1594
  697MPD2    C210357   2.496   1.829  15.262 -0.0617 -0.1252 -0.0566
  697MPD2    C310358   2.508   1.965  15.288 -0.8310 -0.8837 -0.7749
  697MPD2    C410359   2.485   2.017  15.414  0.8476  0.0153 -0.0668
  697MPD2    C510360   2.463   1.926  15.513 -0.0593 -0.1512  0.4355
  697MPD2     H10361   2.506   1.789  15.161  0.7043 -0.7071  0.2509
  697MPD2    H110362   2.513   2.116  15.450  1.1376  1.4462 -4.2205
  697MPD2    H210363   2.408   1.734  15.574  1.3245 -0.7837 -0.3171
  697MPD2    H310364   2.452   1.957  15.616 -0.5300  1.5183 -0.1104
  697MPD2     N10365   2.556   2.040  15.178 -0.2877  0.4740  0.0223
  697MPD2    H510366   2.581   1.987  15.095 -2.2584 -1.0870  0.4463
  697MPD2    N110367   2.401   1.620  15.326  0.4586  0.5577 -0.4826
  697MPD2    H710368   2.394   1.603  15.226 -0.5836 -0.5175 -0.2277
  698TMC3    C110369   2.607   2.219  15.035  0.1542 -0.0373 -0.6150
  698TMC3    C210370   2.565   2.340  14.994  0.2945  0.0377  0.2621
  698TMC3    C310371   2.612   2.386  14.874 -0.5595  0.4312  0.1737
  698TMC3    C410372   2.693   2.143  14.958 -0.6330 -0.5997 -0.4154
  698TMC3    C510373   2.735   2.194  14.839 -0.0458 -0.2181 -0.3408
  698TMC3    C610374   2.699   2.315  14.798  0.0345  0.1962 -0.3405
  698TMC3     C10375   2.556   2.177  15.169  0.8740  0.1687  0.7007
  698TMC3     O10376   2.529   2.261  15.249  0.5712  0.0228  0.0832
  698TMC3     H10377   2.506   2.401  15.062  2.4002  2.5594 -0.1741
  698TMC3    H110378   2.717   2.039  14.980 -2.2452 -1.0337 -0.7379
  698TMC3    H210379   2.741   2.345  14.703  0.3426  2.2797  0.4447
  698TMC3    C710380   2.750   2.097  14.730 -0.5558 -0.1016 -0.5828
  698TMC3    C810381   2.598   2.526  14.848  0.6245  0.7109  0.0844
  698TMC3    O110382   2.702   1.985  14.759  0.4931 -0.1531  0.1769
  698TMC3    O210383   2.512   2.590  14.906  0.0840  0.4067  0.4841
  699TMC3    C110384   2.289   4.230  12.780 -0.3229 -0.3644  0.0883
  699TMC3    C210385   2.367   4.155  12.866  0.3512 -0.3799  0.6914
  699TMC3    C310386   2.306   4.114  12.975 -0.5668 -0.6649 -0.2000
  699TMC3    C410387   2.158   4.258  12.809  0.6835  0.3918  0.1868
  699TMC3    C510388   2.105   4.215  12.927 -0.4475 -0.1593  0.2250
  699TMC3    C610389   2.179   4.142  13.014  0.0576 -0.3826  0.0595
  699TMC3     C10390   2.347   4.297  12.652  0.8268 -0.9764 -0.0799
  699TMC3     O10391   2.273   4.375  12.593  0.1605 -0.1761 -0.2671
  699TMC3     H10392   2.475   4.159  12.857  0.2577  0.1259 -0.2586
  699TMC3    H110393   2.101   4.331  12.752 -0.7328 -2.0268 -1.4716
  699TMC3    H210394   2.120   4.091  13.090 -0.4731  0.9918  0.5764
  699TMC3    C710395   1.992   4.272  12.993  0.0492  0.0853 -0.1518
  699TMC3    C810396   2.371   4.025  13.073  0.3866 -0.7632 -0.1324
  699TMC3    O110397   1.986   4.253  13.113 -0.0127  0.0902 -0.8054
  699TMC3    O210398   2.324   4.024  13.186  0.5205  0.3921 -0.1766
  700TMC3    C110399   1.422   2.375  17.086  0.2531  0.6346  0.0598
  700TMC3    C210400   1.462   2.244  17.067 -0.3525 -1.1525  0.4184
  700TMC3    C310401   1.567   2.199  17.150 -0.1205 -0.4652  0.0024
  700TMC3    C410402   1.466   2.448  17.192 -0.3173  0.0199  0.4306
  700TMC3    C510403   1.556   2.390  17.281  0.5269  0.5478  0.2727
  700TMC3    C610404   1.620   2.272  17.253 -0.0712  0.1957 -0.0465
  700TMC3     C10405   1.359   2.451  16.986 -0.0627 -0.0720 -0.0758
  700TMC3     O10406   1.275   2.397  16.917 -0.3736 -0.3788  0.1586
  700TMC3     H10407   1.425   2.191  16.980  1.0938 -1.6548  0.1156
  700TMC3    H110408   1.430   2.548  17.208 -2.2535 -0.6125  0.0080
  700TMC3    H210409   1.685   2.224  17.325  1.2188  1.0748 -0.6452
  700TMC3    C710410   1.633   2.479  17.372 -0.4332 -0.3219  0.4035
  700TMC3    C810411   1.660   2.114  17.071 -0.0938 -0.1835  0.0459
  700TMC3    O110412   1.749   2.448  17.396  0.3293 -0.0866  0.7133
  700TMC3    O210413   1.777   2.142  17.080  0.4498 -0.1560 -0.5996
  701TMC3    C110414   1.705   1.145  15.315 -0.1061 -0.2422  0.7286
  701TMC3    C210415   1.741   1.115  15.182  0.4164  0.4937 -0.7047
  701TMC3    C310416   1.839   1.191  15.121 -0.0090 -0.3367 -0.8858
  701TMC3    C410417   1.754   1.253  15.378  0.0507  0.2968  0.5083
  701TMC3    C510418   1.847   1.323  15.302 -0.3359  0.3725  0.7324
  701TMC3    C610419   1.893   1.302  15.176  0.3478 -0.1639  0.5428
  701TMC3     C10420   1.607   1.059  15.391 -0.6877 -0.1928  0.0951
  701TMC3     O10421   1.573   1.097  15.503  0.2592 -0.3135  0.2925
  701TMC3     H10422   1.724   1.017  15.139  2.2047  0.1161 -0.5316
  701TMC3    H110423   1.713   1.287  15.472  0.8036  0.8009  0.6537
  701TMC3    H210424   1.952   1.367  15.114  1.3582 -0.1813  1.4708
  701TMC3    C710425   1.918   1.441  15.364 -0.6640  0.0229 -0.4407
  701TMC3    C810426   1.882   1.160  14.984  0.2600  0.5789 -0.0107
  701TMC3    O110427   1.993   1.503  15.287 -0.0875 -0.5251  0.6235
  701TMC3    O210428   1.986   1.208  14.945 -0.2919 -0.0622  0.7539
  702MPD2     C10429   1.059   2.879  10.691  0.0523 -0.3488  0.8582
  702MPD2    C110430   1.067   2.998  10.759  0.0127 -0.5245 -0.0437
  702MPD2    C210431   1.151   3.107  10.715 -0.5773 -0.2024 -0.0510
  702MPD2    C310432   1.223   3.093  10.591  0.7571  0.3601 -0.4208
  702MPD2    C410433   1.221   2.965  10.537 -0.5321 -0.4700 -0.0690
  702MPD2    C510434   1.143   2.864  10.581  0.9132  0.5698  0.0963
  702MPD2     H10435   1.133   3.199  10.768  2.0972  0.4939 -0.3689
  702MPD2    H110436   1.268   2.942  10.442  1.7358 -0.2674  1.0083
  702MPD2    H210437   0.983   2.803  10.708  0.4167 -1.0673 -0.7190
  702MPD2    H310438   1.141   2.765  10.537 -1.3082 -0.4012  2.4203
  702MPD2     N10439   1.298   3.191  10.527 -0.1686 -0.5144 -0.0147
  702MPD2    H510440   1.353   3.163  10.446  1.0708 -0.9641  0.9784
  702MPD2    N110441   0.970   3.029  10.858 -0.7665 -0.0022 -0.6073
  702MPD2    H710442   0.991   3.116  10.906 -0.6018  0.2700 -1.1783
  703TMC3    C110443   1.214   3.407  10.620  0.2575  0.4916  0.1907
  703TMC3    C210444   1.087   3.372  10.586 -0.4067 -0.9052  0.7892
  703TMC3    C310445   0.992   3.458  10.635 -0.2085  0.3939 -0.2657
  703TMC3    C410446   1.248   3.525  10.681 -0.1981  0.4477  0.2079
  703TMC3    C510447   1.150   3.613  10.721 -0.0231 -0.2403 -0.4614
  703TMC3    C610448   1.020   3.573  10.710 -0.5164  0.2457  0.3160
  703TMC3     C10449   1.323   3.319  10.575 -0.2481  0.5654 -0.7435
  703TMC3     O10450   1.429   3.381  10.557  0.4186  0.2190 -0.4948
  703TMC3     H10451   1.056   3.283  10.532 -0.7174 -0.9449  1.0264
  703TMC3    H110452   1.352   3.550  10.692 -0.0265 -0.7916  1.2893
  703TMC3    H210453   0.954   3.633  10.772 -2.0049  0.2036 -1.2479
  703TMC3    C710454   1.186   3.750  10.679  0.1373  0.0008 -0.1551
  703TMC3    C810455   0.861   3.400  10.672  0.2091  0.2797 -0.4418
  703TMC3    O110456   1.300   3.793  10.683  0.0530  0.1430  0.1597
  703TMC3    O210457   0.865   3.276  10.682  0.1238  0.5178 -0.2073
  704TMC3    C110458   4.371   1.762  12.146  0.1449  0.2564  0.2984
  704TMC3    C210459   4.360   1.810  12.018 -0.4281  0.0442 -0.4791
  704TMC3    C310460   4.434   1.743  11.919  0.4536  0.3859  0.2088
  704TMC3    C410461   4.474   1.680  12.186 -0.4368 -0.6229 -0.3908
  704TMC3    C510462   4.539   1.618  12.089 -0.5058  0.2967 -0.3560
  704TMC3    C610463   4.527   1.653  11.953 -0.0483  0.6440  0.2100
  704TMC3     C10464   4.252   1.710  12.205 -0.3612  0.7393  0.0914
  704TMC3     O10465   4.265   1.646  12.303 -0.0187 -0.2564 -0.2693
  704TMC3     H10466   4.278   1.870  11.980 -1.2591 -0.2398  0.8862
  704TMC3    H110467   4.497   1.663  12.290  0.0239 -0.7281 -0.5066
  704TMC3    H210468   4.568   1.584  11.881 -2.4795 -0.4042 -0.1616
  704TMC3    C710469   4.543   1.482  12.110 -0.4010  0.2785  0.3631
  704TMC3    C810470   4.353   1.713  11.804  0.1873  0.1895  0.1334
  704TMC3    O110471   4.623   1.409  12.058  0.0094 -0.2150 -0.3321
  704TMC3    O210472   4.234   1.697  11.821 -0.4049  0.2188 -0.2186
  705MPD2     C10473   2.826   4.536  15.806  0.9800  0.1184  0.4745
  705MPD2    C110474   2.845   4.665  15.851 -0.2325 -0.2651 -0.0705
  705MPD2    C210475   2.744   4.723  15.921 -0.5620  0.3423  0.7623
  705MPD2    C310476   2.624   4.666  15.940  0.3780  0.8830 -0.2249
  705MPD2    C410477   2.604   4.544  15.886 -0.3092  0.0820  0.1516
  705MPD2    C510478   2.710   4.476  15.833 -0.5362  0.5584 -0.3901
  705MPD2     H10479   2.771   0.079  15.967  0.2553  0.4039  0.1608
  705MPD2    H110480   2.512   4.486  15.891 -1.5567  1.9932 -0.5894
  705MPD2    H210481   2.909   4.479  15.766  2.1618  0.1787  2.8384
  705MPD2    H310482   2.687   4.379  15.791  1.2333  0.6001 -1.4641
  705MPD2     N10483   2.509   4.730  15.995  0.8761 -0.2689 -1.0663
  705MPD2    H510484   2.419   4.688  15.975  0.3046  2.2023 -3.7624
  705MPD2    N110485   2.970   0.003  15.837 -0.2842 -0.7053  0.1303
  705MPD2    H710486   2.971   0.098  15.871 -0.9075 -0.2027 -1.2674
  706TMC3    C110487   3.400   0.098  15.713  0.0492 -0.1668  0.1143
  706TMC3    C210488   3.398   0.212  15.784  0.7759 -0.3263  0.3541
  706TMC3    C310489   3.286   0.260  15.843  0.5181  0.4987 -0.5066
  706TMC3    C410490   3.286   0.032  15.688 -0.3220  0.2114  0.4584
  706TMC3    C510491   3.175   0.075  15.749  0.3754  0.3667 -0.1213
  706TMC3    C610492   3.175   0.179  15.837  0.1779 -0.2786  0.1588
  706TMC3     C10493   3.523   0.033  15.680  0.0032  0.1733 -0.3635
  706TMC3     O10494   3.621   0.055  15.757  0.7272  0.0429  0.7908
  706TMC3     H10495   3.491   0.267  15.798 -1.4549  3.7677 -1.1233
  706TMC3    H110496   3.283   4.679  15.629 -1.5959  0.4663  0.1359
  706TMC3    H210497   3.084   0.214  15.884  0.1377 -2.2520  1.5158
  706TMC3    C710498   3.066   4.712  15.740  0.2942  0.0861 -0.3472
  706TMC3    C810499   3.273   0.402  15.874 -0.1979 -0.0459  0.1157
  706TMC3    O110500   3.061   4.624  15.658  0.2548 -0.1824  0.0849
  706TMC3    O210501   3.158   0.451  15.856  0.1760  0.1787  0.0087
  707TMC3    C110502   0.092   3.973   1.039 -0.4626  0.4372 -0.2228
  707TMC3    C210503   0.098   3.899   1.153 -0.4769  0.2654 -0.0488
  707TMC3    C310504   4.725   3.876   1.219 -0.0834 -0.5689 -0.0522
  707TMC3    C410505   4.716   4.011   0.982 -1.0202 -0.2248  0.4574
  707TMC3    C510506   4.598   3.979   1.046 -0.4414  0.6248  0.2169
  707TMC3    C610507   4.602   3.916   1.171  0.2018  0.2262 -0.2240
  707TMC3     C10508   0.213   4.043   0.996 -0.2022 -0.5066 -0.1549
  707TMC3     O10509   0.313   4.008   1.060  0.5307  0.4088 -0.0228
  707TMC3     H10510   0.194   3.892   1.203 -0.5067 -0.3665 -0.0756
  707TMC3    H110511   4.724   4.052   0.882 -3.6985  1.2148  0.8381
  707TMC3    H210512   4.511   3.892   1.225  0.2060 -0.4035 -0.4995
  707TMC3    C710513   4.480   3.943   0.965 -0.2093 -0.1914  0.2807
  707TMC3    C810514   4.736   3.797   1.343 -0.1218 -0.2722  1.0642
  707TMC3    O110515   4.420   3.852   1.015  0.1403 -0.2181  0.0963
  707TMC3    O210516   4.645   3.804   1.427 -0.4071 -0.1196  0.1634
  708MPD2     C10517   1.184   2.420  14.210  0.4121  0.3622  0.2225
  708MPD2    C110518   1.234   2.549  14.204  0.3609 -0.5114  0.6272
  708MPD2    C210519   1.285   2.607  14.321 -0.1832 -0.0782 -0.4908
  708MPD2    C310520   1.273   2.555  14.448  0.3608 -0.5645 -0.1159
  708MPD2    C410521   1.199   2.435  14.453  0.8739  0.0741  0.0910
  708MPD2    C510522   1.160   2.373  14.338  0.0942  0.2014  0.5286
  708MPD2     H10523   1.318   2.710  14.312 -1.4089  0.3307 -0.2008
  708MPD2    H110524   1.175   2.391  14.549  2.8728 -1.2514 -0.0173
  708MPD2    H210525   1.145   2.363  14.126 -2.4559 -1.0777  2.5243
  708MPD2    H310526   1.107   2.279  14.350  1.4732 -0.5919  0.3720
  708MPD2     N10527   1.310   2.627  14.567 -0.9980  0.5883  0.2905
  708MPD2    H510528   1.262   2.593  14.649 -2.8450  2.2781 -0.1026
  708MPD2    N110529   1.242   2.617  14.083  0.3639  0.0488  0.3371
  708MPD2    H710530   1.298   2.702  14.090  0.5251  0.2488 -3.1163
  709TMC3    C110531   1.194   2.692  13.870  0.1334 -0.8419 -0.4311
  709TMC3    C210532   1.105   2.654  13.765  0.6144  0.4419 -0.2921
  709TMC3    C310533   0.993   2.723  13.751 -0.3294  0.2193 -0.1230
  709TMC3    C410534   1.167   2.809  13.937  0.0809 -0.0654 -0.9211
  709TMC3    C510535   1.049   2.880  13.919 -0.2488 -0.3554 -0.4869
  709TMC3    C610536   0.950   2.828  13.834  0.8330 -0.6358  0.0534
  709TMC3     C10537   1.200   2.580  13.959 -0.1791  0.0992 -0.1329
  709TMC3     O10538   1.137   2.480  13.924 -0.1951  0.0200  0.3247
  709TMC3     H10539   1.119   2.563  13.708 -1.5340  0.0188 -0.1253
  709TMC3    H110540   1.237   2.844  14.012 -0.1719  2.5169 -1.9085
  709TMC3    H210541   0.848   2.859  13.815  1.1243  0.7468  0.7282
  709TMC3    C710542   1.006   2.910  14.051 -0.7138  0.4062  0.7927
  709TMC3    C810543   0.893   2.664  13.665  0.5287 -0.3564 -0.5833
  709TMC3    O110544   1.069   2.993  14.114 -0.4933 -0.6018  0.3338
  709TMC3    O210545   0.776   2.667  13.703 -0.8827 -0.5554  0.1528
  710TMC3    C110546   2.324   4.008   0.139  0.7235  0.4088 -0.2479
  710TMC3    C210547   2.392   4.052   0.026 -1.0373  0.0866  0.8622
  710TMC3    C310548   2.479   3.964  17.723 -0.1478  0.0587  0.1311
  710TMC3    C410549   2.342   3.882   0.188  0.7354  0.6621  0.2951
  710TMC3    C510550   2.435   3.808   0.136 -0.0042 -0.3063  0.2152
  710TMC3    C610551   2.508   3.843   0.023 -0.2514 -0.2164  0.6804
  710TMC3     C10552   2.298   4.109   0.239  0.0370 -0.6147  0.4080
  710TMC3     O10553   2.320   4.070   0.352 -0.4229 -0.1430 -0.0278
  710TMC3     H10554   2.410   4.158   0.024 -2.0193  0.2386  0.0673
  710TMC3    H110555   2.296   3.851   0.282  0.1947 -0.2079 -0.2462
  710TMC3    H210556   2.586   3.782  17.730  1.6544  0.9529  2.5506
  710TMC3    C710557   2.472   3.690   0.215 -0.0672 -0.1717 -0.0868
  710TMC3    C810558   2.559   4.012  17.619  0.6594 -0.2129 -0.9400
  710TMC3    O110559   2.395   3.641   0.295 -0.4582  0.6088  0.5327
  710TMC3    O210560   2.667   3.961  17.592  0.0819 -0.0485 -0.4660
  711TMC3    C110561   2.325   0.799  14.734 -0.1995  0.6614  0.3457
  711TMC3    C210562   2.301   0.847  14.863  0.8208  0.5050 -0.0586
  711TMC3    C310563   2.402   0.850  14.956 -0.7984  0.0393 -0.3770
  711TMC3    C410564   2.449   0.740  14.706  0.2781 -0.1233 -0.2459
  711TMC3    C510565   2.541   0.744  14.801 -0.0312  0.1552  0.3408
  711TMC3    C610566   2.522   0.796  14.924 -0.3299 -0.0700  0.7128
  711TMC3     C10567   2.211   0.778  14.642 -0.5697  0.0014  0.2827
  711TMC3     O10568   2.117   0.714  14.679  0.2993 -0.1281  0.2647
  711TMC3     H10569   2.199   0.878  14.883  1.0689  1.1795  0.1714
  711TMC3    H110570   2.459   0.693  14.609  0.5449  0.4907 -0.5137
  711TMC3    H210571   2.595   0.788  15.004  2.7912 -0.6921 -2.1829
  711TMC3    C710572   2.672   0.693  14.778 -0.4226  0.2787  0.6378
  711TMC3    C810573   2.376   0.891  15.089 -0.4744  0.1791  0.1455
  711TMC3    O110574   2.767   0.724  14.852  0.2996 -0.0939  0.0382
  711TMC3    O210575   2.260   0.896  15.128 -0.2651  0.3909  0.2510
  712MPD2     C10576   3.909   1.129  13.781  0.1774 -0.2911  0.0999
  712MPD2    C110577   3.816   1.143  13.680  0.5009  0.1355 -0.2532
  712MPD2    C210578   3.764   1.276  13.668  0.3747  0.1729 -0.4167
  712MPD2    C310579   3.812   1.387  13.741  0.7173 -0.1900 -0.0077
  712MPD2    C410580   3.904   1.359  13.843 -0.1375  0.0579 -0.2644
  712MPD2    C510581   3.952   1.231  13.861  1.0495 -0.1363 -0.1778
  712MPD2     H10582   3.694   1.298  13.588  1.7970 -0.1377 -1.7519
  712MPD2    H110583   3.936   1.439  13.909  2.0466 -0.2519 -0.9271
  712MPD2    H210584   3.953   1.032  13.797  0.2342  0.0664  2.1617
  712MPD2    H310585   4.007   1.218  13.954  1.0802  1.4827  0.0333
  712MPD2     N10586   3.761   1.515  13.729 -0.5345 -0.1303 -0.3011
  712MPD2    H510587   3.812   1.577  13.792  0.8980 -1.6589  0.0266
  712MPD2    N110588   3.773   1.059  13.578 -0.7465  0.1753  0.0197
  712MPD2    H710589   3.719   1.096  13.501 -0.1229  0.1885 -0.4126
  713TMC3    C110590   3.672   1.707  13.639 -0.7925 -0.2313 -0.3641
  713TMC3    C210591   3.735   1.779  13.741  1.0905 -0.3897 -0.4128
  713TMC3    C310592   3.685   1.907  13.755 -0.1597 -0.5516 -0.3743
  713TMC3    C410593   3.576   1.755  13.555  0.1732 -0.8746 -0.1287
  713TMC3    C510594   3.540   1.887  13.573  0.6956  0.4455  0.1519
  713TMC3    C610595   3.598   1.965  13.670 -0.5598  0.0699  0.0681
  713TMC3     C10596   3.674   1.566  13.634 -0.1618  0.3238  0.3322
  713TMC3     O10597   3.617   1.512  13.540  0.8040  0.2620  0.0531
  713TMC3     H10598   3.824   1.746  13.793 -0.4308 -2.4573  0.8856
  713TMC3    H110599   3.526   1.689  13.485  2.1648  0.1818 -2.5448
  713TMC3    H210600   3.557   2.059  13.706 -1.6476  0.3282 -1.8771
  713TMC3    C710601   3.451   1.955  13.479  0.1675 -0.2214  0.4017
  713TMC3    C810602   3.759   1.992  13.839  0.1421 -0.1253 -0.6014
  713TMC3    O110603   3.356   1.893  13.427  0.7438  0.3941  0.3733
  713TMC3    O210604   3.778   2.105  13.794 -0.7516 -0.0949 -0.4054
  714MPD2     C10605   1.396   0.124   1.492  0.6908  0.5778 -0.0364
  714MPD2    C110606   1.459   0.153   1.370 -0.4275 -0.3702 -0.5657
  714MPD2    C210607   1.388   0.227   1.268 -0.0268 -0.1979  0.4667
  714MPD2    C310608   1.255   0.274   1.295  0.9180 -0.4063  0.2507
  714MPD2    C410609   1.204   0.247   1.419  0.1661 -0.6093  0.0532
  714MPD2    C510610   1.271   0.175   1.516 -0.8718  0.2312  0.1853
  714MPD2     H10611   1.444   0.258   1.181 -0.8279 -1.4967 -0.5131
  714MPD2    H110612   1.116   0.295   1.460 -1.6363 -2.6193 -1.4755
  714MPD2    H210613   1.451   0.072   1.570  1.5447  1.5171 -0.0083
  714MPD2    H310614   1.228   0.166   1.615  2.4979  2.4747  1.8541
  714MPD2     N10615   1.196   0.355   1.193  0.1967 -0.4175  0.7319
  714MPD2    H510616   1.249   0.369   1.108  0.4773 -1.0457  0.8018
  714MPD2    N110617   1.593   0.112   1.361 -0.1227  0.3932 -0.1438
  714MPD2    H710618   1.639   0.077   1.445  0.8184 -3.4399 -2.2701
  715TMC3    C110619   1.799   0.062   1.286  0.1983  0.1431 -0.2487
  715TMC3    C210620   1.834   4.709   1.197 -0.2248  0.1848 -0.5144
  715TMC3    C310621   1.889   4.587   1.234  0.2885  0.7196  0.1826
  715TMC3    C410622   1.821   0.037   1.416 -0.7194 -0.6326  0.2330
  715TMC3    C510623   1.887   4.657   1.458 -0.1673  0.1749 -0.4012
  715TMC3    C610624   1.912   4.559   1.370  0.6517 -0.0143  0.1072
  715TMC3     C10625   1.681   0.137   1.259  0.4281 -0.5445  0.2518
  715TMC3     O10626   1.659   0.188   1.148  0.4412  0.0144 -0.0972
  715TMC3     H10627   1.813   4.722   1.091  0.0321  0.9742 -0.4669
  715TMC3    H110628   1.804   0.122   1.482  1.0699  0.2749 -0.4598
  715TMC3    H210629   1.944   4.460   1.400 -2.0606 -0.3715  1.7355
  715TMC3    C710630   1.993   4.670   1.555 -0.2700  0.2370  0.4330
  715TMC3    C810631   1.946   4.509   1.122  0.4424  0.1900 -0.5797
  715TMC3    O110632   2.085   4.591   1.542 -0.0959  0.7746 -0.3154
  715TMC3    O210633   1.926   4.548   1.007 -0.3182 -0.0583  0.1820
  716MPD2     C10634   1.052   3.067   9.899  1.1213  0.5282 -0.0119
  716MPD2    C110635   0.932   3.016   9.849  0.3465 -0.8123  0.8255
  716MPD2    C210636   0.916   2.877   9.822  0.4207 -0.4931  0.0761
  716MPD2    C310637   1.025   2.794   9.843  0.1742 -0.0486  0.6901
  716MPD2    C410638   1.136   2.845   9.903  0.2551  0.1732 -0.8229
  716MPD2    C510639   1.153   2.979   9.929  0.3885  0.0076  0.3318
  716MPD2     H10640   0.834   2.825   9.776  1.0385  2.0053 -3.8218
  716MPD2    H110641   1.219   2.784   9.935  0.5473  1.1344  0.2720
  716MPD2    H210642   1.060   3.174   9.914  1.8096  0.8272 -2.5300
  716MPD2    H310643   1.242   3.016   9.979 -0.5623  1.3391  1.0589
  716MPD2     N10644   1.011   2.662   9.804 -0.5656  0.3204  0.8895
  716MPD2    H510645   0.930   2.640   9.746  0.8898 -0.3175 -0.9078
  716MPD2    N110646   0.829   3.103   9.813 -0.6174 -0.0299 -0.2846
  716MPD2    H710647   0.847   3.199   9.842  2.0226 -0.7816  0.5595
  717TMC3    C110648   1.079   2.433   9.746  0.6044 -0.8803 -0.5472
  717TMC3    C210649   0.960   2.415   9.677  0.2858  0.5680 -0.5622
  717TMC3    C310650   0.937   2.301   9.608  0.0143 -1.1763 -0.2556
  717TMC3    C410651   1.166   2.332   9.756 -0.0397  0.3012 -0.1829
  717TMC3    C510652   1.135   2.218   9.691 -0.5101 -0.5405 -0.0910
  717TMC3    C610653   1.026   2.197   9.609  0.3785  0.4204 -0.6281
  717TMC3     C10654   1.104   2.564   9.809 -0.5439 -0.3186  0.4558
  717TMC3     O10655   1.213   2.569   9.866 -0.4864 -0.2800 -0.3704
  717TMC3     H10656   0.888   2.496   9.668  0.4183  0.6551 -0.8687
  717TMC3    H110657   1.253   2.343   9.819 -0.0981 -2.4120  0.3807
  717TMC3    H210658   0.999   2.097   9.577  0.5709  0.4900 -1.0014
  717TMC3    C710659   1.204   2.101   9.739  0.0864  0.7382  0.1955
  717TMC3    C810660   0.797   2.273   9.569 -0.0892  0.2081  0.6819
  717TMC3    O110661   1.255   2.115   9.848  0.1268  0.0866 -0.2784
  717TMC3    O210662   0.716   2.330   9.643  0.0832 -0.1506  0.2516
  718MPD2     C10663   0.419   2.274  12.436  0.1733  0.2151 -0.2744
  718MPD2    C110664   0.319   2.241  12.350  0.3469  0.6948 -0.3411
  718MPD2    C210665   0.314   2.110  12.299 -0.3828  0.1012  0.2251
  718MPD2    C310666   0.408   2.020  12.326  0.2901 -0.8104 -0.1008
  718MPD2    C410667   0.515   2.056  12.407 -0.9630  0.5306  0.1101
  718MPD2    C510668   0.520   2.179  12.466  0.2567 -0.1410 -0.4280
  718MPD2     H10669   0.237   2.066  12.236 -1.1088 -0.5426  1.5672
  718MPD2    H110670   0.596   1.985  12.420 -0.7570  0.7464  0.0242
  718MPD2    H210671   0.426   2.369  12.488  1.2493 -0.0315  0.0324
  718MPD2    H310672   0.600   2.211  12.530  0.2865 -0.6414 -0.2150
  718MPD2     N10673   0.389   1.890  12.274  0.0774 -0.1154 -0.6610
  718MPD2    H510674   0.311   1.882  12.211  0.7665 -2.0001 -1.2917
  718MPD2    N110675   0.224   2.338  12.321 -0.6797 -0.0270 -0.0400
  718MPD2    H710676   0.246   2.433  12.350 -0.7555  0.0425 -0.2137
  719TMC3    C110677   0.051   2.426  12.179  0.3831  0.7704 -0.8355
  719TMC3    C210678   4.709   2.372  12.088 -0.3527 -0.2709  0.0152
  719TMC3    C310679   4.725   2.403  11.956  0.4613 -0.1785  0.2197
  719TMC3    C410680   0.147   2.514  12.136 -0.2760  0.1685  0.0859
  719TMC3    C510681   0.161   2.539  11.998  0.1861  0.1036 -0.3920
  719TMC3    C610682   0.083   2.483  11.905  0.5813  0.1536  0.9262
  719TMC3     C10683   0.105   2.313  12.251  0.5546  0.3503 -0.2570
  719TMC3     O10684   0.058   2.203  12.224  0.1914 -0.5580  0.2664
  719TMC3     H10685   4.629   2.305  12.118  0.3427 -1.7655 -1.4849
  719TMC3    H110686   0.208   2.566  12.210 -0.6177 -0.6019  0.8975
  719TMC3    H210687   0.124   2.479  11.804  0.2186 -0.0228  0.7862
  719TMC3    C710688   0.293   2.591  11.958 -0.2786 -0.2076 -0.1561
  719TMC3    C810689   4.683   2.289  11.872  0.4708 -0.2746 -0.2091
  719TMC3    O110690   0.359   2.529  11.873  0.4305  0.6317  0.4887
  719TMC3    O210691   4.650   2.313  11.758 -0.3628 -0.3463  0.3693
  720MPD2     C10692   3.554   3.093  13.847  0.1701  0.7020  0.0363
  720MPD2    C110693   3.612   3.168  13.750  0.2735  0.8116 -0.7828
  720MPD2    C210694   3.722   3.249  13.784 -0.8470 -0.3420  0.7709
  720MPD2    C310695   3.768   3.252  13.915  0.1833  0.5195  0.1957
  720MPD2    C410696   3.707   3.170  14.013  0.2913  0.5609  0.2513
  720MPD2    C510697   3.595   3.092  13.976 -0.1918  0.5772  0.0441
  720MPD2     H10698   3.773   3.307  13.708 -0.4389  0.2854  1.5300
  720MPD2    H110699   3.740   3.159  14.116 -1.0816  2.2737  0.8824
  720MPD2    H210700   3.462   3.037  13.831  1.3098 -0.7093 -1.6627
  720MPD2    H310701   3.549   3.033  14.054 -0.9874 -0.2197 -1.0364
  720MPD2     N10702   3.879   3.329  13.939  0.0781 -0.3414  0.7629
  720MPD2    H510703   3.906   3.386  13.859  0.8808  0.3405  1.5254
  720MPD2    N110704   3.562   3.172  13.617 -0.0556 -0.2180 -0.1367
  720MPD2    H710705   3.596   3.246  13.558 -1.0902 -0.8307 -1.4836
  721TMC3    C110706   4.073   3.406  14.035 -0.2937 -0.8993 -0.1115
  721TMC3    C210707   4.126   3.481  14.137  0.0188  0.8327 -0.3705
  721TMC3    C310708   4.239   3.557  14.117 -0.7814  0.2302 -0.0910
  721TMC3    C410709   4.120   3.422  13.905  0.2125  0.1927  0.4458
  721TMC3    C510710   4.235   3.488  13.899  0.4159 -0.0555 -0.2098
  721TMC3    C610711   4.296   3.558  13.996 -0.5153 -0.7133 -0.0527
  721TMC3     C10712   3.951   3.336  14.054 -0.6882  0.1872 -0.8082
  721TMC3     O10713   3.918   3.300  14.166 -0.0293  0.3263 -0.0437
  721TMC3     H10714   4.085   3.474  14.238 -0.3439  0.7718 -0.5221
  721TMC3    H110715   4.077   3.365  13.824  3.8841 -0.8355 -0.7909
  721TMC3    H210716   4.398   3.594  13.986  0.1194 -1.8246  2.3565
  721TMC3    C710717   4.309   3.484  13.771 -0.2398  0.2179 -0.0619
  721TMC3    C810718   4.327   3.581  14.232 -0.3435 -0.5000  0.1303
  721TMC3    O110719   4.391   3.577  13.764 -0.1434 -0.5688  0.0628
  721TMC3    O210720   4.448   3.578  14.205 -0.1194  0.1902 -0.7439
  722MPD2     C10721   2.410   1.875  13.254 -0.3967 -0.7214  0.0468
  722MPD2    C110722   2.398   1.992  13.177 -0.5506  0.5502 -0.3093
  722MPD2    C210723   2.283   2.018  13.107  0.6474  0.3572  0.0281
  722MPD2    C310724   2.182   1.919  13.104  0.3080 -0.2773 -0.0375
  722MPD2    C410725   2.190   1.805  13.178 -0.3273  0.0481  0.1220
  722MPD2    C510726   2.304   1.786  13.250  0.0840  0.2745  0.6262
  722MPD2     H10727   2.281   2.112  13.052 -3.5015  0.9150  1.1670
  722MPD2    H110728   2.117   1.726  13.177 -1.2960  0.9431  0.2631
  722MPD2    H210729   2.506   1.852  13.299  0.8115  2.8829 -0.6243
  722MPD2    H310730   2.328   1.697  13.306  0.0722  1.4414  2.4806
  722MPD2     N10731   2.082   1.938  13.007  0.7165 -0.0300 -0.0020
  722MPD2    H510732   2.091   2.016  12.942 -0.0203 -1.3217 -1.6812
  722MPD2    N110733   2.504   2.083  13.155 -0.6193  0.2782 -0.0134
  722MPD2    H710734   2.476   2.159  13.094  1.0136  0.6457 -0.3016
  723TMC3    C110735   1.887   1.896  12.884 -0.1365 -0.4369 -0.5242
  723TMC3    C210736   1.805   1.807  12.822  0.5905  0.5947 -0.5821
  723TMC3    C310737   1.705   1.856  12.745  0.2008  0.4317  0.6024
  723TMC3    C410738   1.859   2.027  12.864  0.0054  0.2714 -0.2147
  723TMC3    C510739   1.753   2.080  12.802  0.0159  0.3619  0.5049
  723TMC3    C610740   1.675   1.988  12.739  1.1647  0.2099  0.7448
  723TMC3     C10741   1.975   1.846  12.980  0.0830 -0.3962  0.2049
  723TMC3     O10742   1.962   1.729  13.008  0.3282 -0.1248 -0.3131
  723TMC3     H10743   1.809   1.700  12.835 -0.1545  0.7563  1.0103
  723TMC3    H110744   1.907   2.094  12.934  0.7490  1.2369 -1.6568
  723TMC3    H210745   1.585   2.009  12.683  1.6917 -0.7129 -0.4430
  723TMC3    C710746   1.694   2.207  12.841  0.8887 -0.9988  0.4430
  723TMC3    C810747   1.592   1.765  12.721 -0.6791 -0.4195 -0.3412
  723TMC3    O110748   1.744   2.261  12.940  0.6552 -0.5990  0.2461
  723TMC3    O210749   1.477   1.800  12.744 -0.2045 -0.0091  0.0745
  724TMC3    C110750   2.657   0.151  10.102 -0.8816 -0.7568 -0.3367
  724TMC3    C210751   2.589   0.239  10.034 -0.7135 -0.1247 -0.6220
  724TMC3    C310752   2.665   0.353  10.002  0.0637 -0.0673  0.3372
  724TMC3    C410753   2.792   0.156  10.127 -0.3017  0.6040  0.1190
  724TMC3    C510754   2.861   0.264  10.094  0.2297 -0.1229  0.3211
  724TMC3    C610755   2.797   0.368  10.023 -0.1952  0.3661 -0.2274
  724TMC3     C10756   2.601   0.025  10.141  0.1981  0.1700 -0.2585
  724TMC3     O10757   2.680   4.683  10.190 -0.4051  0.3735 -0.2420
  724TMC3     H10758   2.481   0.236  10.038 -0.7389  0.7972 -0.5406
  724TMC3    H110759   2.846   0.067  10.158  0.1602  0.6410 -0.5806
  724TMC3    H210760   2.858   0.447   9.980 -1.4403  1.4297 -0.0400
  724TMC3    C710761   2.991   0.294  10.145  0.2597  0.3984 -0.7574
  724TMC3    C810762   2.589   0.443   9.916 -0.2930  0.3205  0.2503
  724TMC3    O110763   3.041   0.396  10.098  0.1566  0.1732 -0.1771
  724TMC3    O210764   2.481   0.410   9.874 -0.1134  0.6596  0.0733
  725TMC3    C110765   4.664   3.516  12.136 -0.3265  0.1773  0.5881
  725TMC3    C210766   4.528   3.555  12.149  0.4577  0.1916  0.0644
  725TMC3    C310767   4.434   3.500  12.066 -0.6853 -0.0877 -0.3169
  725TMC3    C410768   4.703   3.435  12.034 -0.7478  0.2049  0.9049
  725TMC3    C510769   4.602   3.376  11.965  0.3361  0.2031  0.2614
  725TMC3    C610770   4.473   3.407  11.980  0.5832  0.3296  0.3873
  725TMC3     C10771   0.014   3.573  12.238 -0.3171 -0.4539  0.1723
  725TMC3     O10772   4.709   3.672  12.296  0.1521  0.3670  0.1593
  725TMC3     H10773   4.503   3.617  12.234 -0.8216 -0.1708 -0.0555
  725TMC3    H110774   0.070   3.409  12.029 -1.1604 -0.8904 -1.4399
  725TMC3    H210775   4.397   3.366  11.914  1.1545  0.1939 -0.1868
  725TMC3    C710776   4.623   3.260  11.882  0.1017  0.1789 -0.2012
  725TMC3    C810777   4.305   3.572  12.056 -0.1928 -0.1323  0.1576
  725TMC3    O110778   4.545   3.239  11.792  0.2691 -0.2635  0.2304
  725TMC3    O210779   4.200   3.517  12.026 -0.0052  0.5919 -0.6180
  726MPD2     C10780   2.088   0.766  10.339 -0.0503 -0.6142 -0.9232
  726MPD2    C110781   1.964   0.812  10.295 -0.3313  0.0989  1.0385
  726MPD2    C210782   1.864   0.718  10.273 -0.0623 -0.8976  0.3430
  726MPD2    C310783   1.889   0.583  10.305 -0.1033 -0.3076 -0.3198
  726MPD2    C410784   2.013   0.541  10.340  0.3446  0.4775 -0.8991
  726MPD2    C510785   2.113   0.633  10.360  0.3753 -0.0183 -0.2246
  726MPD2     H10786   1.767   0.762  10.248  0.7241 -0.3738 -1.7393
  726MPD2    H110787   2.037   0.443  10.378 -0.2675  1.2228  1.4351
  726MPD2    H210788   2.170   0.831  10.365 -0.1787 -0.7130 -0.2540
  726MPD2    H310789   2.209   0.606  10.402 -0.5913  1.0570  2.7208
  726MPD2     N10790   1.796   0.484  10.313  0.6869 -0.1526 -0.0251
  726MPD2    H510791   1.823   0.391  10.344 -0.8640  0.0704  2.0534
  726MPD2    N110792   1.937   0.944  10.265 -0.6611  0.4237 -0.5709
  726MPD2    H710793   1.863   0.963  10.198 -0.9397  0.7309 -0.1767
  727TMC3    C110794   2.010   1.159  10.201 -0.1377 -0.9842 -0.1733
  727TMC3    C210795   2.120   1.244  10.196 -0.1067  0.4262  0.0348
  727TMC3    C310796   2.131   1.323  10.086 -0.2668 -0.0139  0.0118
  727TMC3    C410797   1.908   1.168  10.114 -0.6880  0.4937  0.1590
  727TMC3    C510798   1.933   1.233   9.994 -0.2718 -0.3883  0.2556
  727TMC3    C610799   2.041   1.314   9.978  0.1583  0.1475 -0.1235
  727TMC3     C10800   2.030   1.041  10.290  0.7254 -0.1068  0.0202
  727TMC3     O10801   2.143   1.041  10.335 -0.0431  0.1716  0.4827
  727TMC3     H10802   2.184   1.256  10.282 -1.6744  2.7753  0.8603
  727TMC3    H110803   1.818   1.108  10.123  0.9576 -1.7135  1.8364
  727TMC3    H210804   2.055   1.377   9.890 -0.0787 -1.4708 -1.3130
  727TMC3    C710805   1.832   1.246   9.892  1.0021 -0.2395 -0.3490
  727TMC3    C810806   2.244   1.420  10.089  0.8498  0.4112  0.3944
  727TMC3    O110807   1.833   1.349   9.831 -0.1340  0.3948 -0.5085
  727TMC3    O210808   2.301   1.447  10.195  0.1033 -0.0041  0.4883
  728TMC3    C110809   1.914   4.129  14.770 -0.3899 -0.0069  0.2787
  728TMC3    C210810   2.047   4.156  14.755 -0.6563 -0.7554 -0.5581
  728TMC3    C310811   2.085   4.214  14.636  0.8012 -0.7927  0.5011
  728TMC3    C410812   1.832   4.132  14.661 -0.2210 -0.2931  0.6410
  728TMC3    C510813   1.877   4.180  14.546 -0.3552  0.4431 -0.0910
  728TMC3    C610814   2.003   4.224  14.526  0.0666 -0.6108 -0.0802
  728TMC3     C10815   1.857   4.186  14.891 -0.0995 -0.1430 -0.0092
  728TMC3     O10816   1.931   4.254  14.957  0.2540 -0.3663  0.2440
  728TMC3     H10817   2.104   4.146  14.847 -1.2592 -0.1651 -0.1241
  728TMC3    H110818   1.727   4.103  14.668  1.1896 -6.2198 -2.8366
  728TMC3    H210819   2.029   4.275  14.435 -0.0791  2.2430  1.4646
  728TMC3    C710820   1.773   4.206  14.450  0.7627  0.1284 -0.0443
  728TMC3    C810821   2.209   4.289  14.639  0.2922 -0.2662 -0.4872
  728TMC3    O110822   1.686   4.123  14.435  0.3557  0.7350 -0.6061
  728TMC3    O210823   2.272   4.282  14.745 -0.0440  0.4300  0.1471
  729MPD2     C10824   3.626   0.900  16.544 -0.5979 -0.1546  0.1329
  729MPD2    C110825   3.724   0.853  16.633 -0.6620 -0.4166 -0.5191
  729MPD2    C210826   3.707   0.899  16.768 -0.0127  0.3703 -0.5394
  729MPD2    C310827   3.592   0.971  16.809 -0.1617  0.5858 -0.4283
  729MPD2    C410828   3.495   1.006  16.716 -0.5997 -0.1078 -0.1798
  729MPD2    C510829   3.507   0.962  16.585  0.3563  0.2035 -0.0874
  729MPD2     H10830   3.791   0.884  16.834  1.4950  0.6562 -2.3974
  729MPD2    H110831   3.405   1.059  16.746  0.3920  2.0376 -1.0935
  729MPD2    H210832   3.644   0.894  16.437  0.4454 -3.3134  0.4981
  729MPD2    H310833   3.426   0.977  16.514 -0.0503 -0.1318  0.3071
  729MPD2     N10834   3.571   1.026  16.941  0.1327  0.0061  0.4375
  729MPD2    H510835   3.491   1.087  16.952 -0.1804 -0.5515  1.2759
  729MPD2    N110836   3.845   0.801  16.579 -0.5040 -0.2260 -0.5106
  729MPD2    H710837   3.850   0.799  16.478  1.4732  0.8131 -0.4482
  730TMC3    C110838   3.606   1.059  17.175  0.0481 -0.3122 -0.4702
  730TMC3    C210839   3.698   1.057  17.281  0.1943  1.0608  0.7232
  730TMC3    C310840   3.672   1.105  17.402 -0.2855 -0.4640  0.4442
  730TMC3    C410841   3.486   1.115  17.188  1.0375  0.6170  0.3810
  730TMC3    C510842   3.465   1.170  17.309 -0.3597 -0.2041 -0.7698
  730TMC3    C610843   3.543   1.147  17.418 -0.4537 -0.1870  0.2412
  730TMC3     C10844   3.659   1.016  17.046 -0.0710 -0.2360  0.1734
  730TMC3     O10845   3.768   0.960  17.051 -0.0623  0.5420 -0.1209
  730TMC3     H10846   3.796   1.016  17.258 -0.6868  0.1928 -1.4676
  730TMC3    H110847   3.421   1.142  17.105  0.7431 -1.5180 -0.0680
  730TMC3    H210848   3.522   1.203  17.509 -2.3021 -0.6894  0.1322
  730TMC3    C710849   3.443   1.316  17.286 -0.5288  0.1940  0.5282
  730TMC3    C810850   3.776   1.179  17.477 -0.1157  0.7669 -0.2272
  730TMC3    O110851   3.378   1.350  17.187  0.1059  0.2507 -0.6549
  730TMC3    O210852   3.738   1.232  17.581  0.4653  0.8167 -0.0636
  731MPD2     C10853   3.188   2.574  12.325  0.2125 -0.7521 -0.6223
  731MPD2    C110854   3.318   2.534  12.354  0.5720  0.1007  0.1345
  731MPD2    C210855   3.341   2.495  12.479 -0.4947  0.0366  0.0655
  731MPD2    C310856   3.247   2.501  12.583  0.3551 -0.2798  0.3275
  731MPD2    C410857   3.115   2.523  12.547  0.1514 -0.5740 -0.3446
  731MPD2    C510858   3.092   2.556  12.417  0.2450  0.2908 -0.0994
  731MPD2     H10859   3.440   2.457  12.503  0.2332 -0.1785 -3.2219
  731MPD2    H110860   3.034   2.522  12.619 -0.5753  1.3525 -1.1389
  731MPD2    H210861   3.162   2.603  12.225 -0.4900  1.8413  0.3137
  731MPD2    H310862   2.991   2.585  12.390 -0.8134 -2.7382  0.5215
  731MPD2     N10863   3.289   2.484  12.718  0.1305  0.0208 -0.2752
  731MPD2    H510864   3.386   2.459  12.735 -0.1219 -1.3638 -0.8977
  731MPD2    N110865   3.414   2.543  12.257 -0.1283  0.1187 -0.3313
  731MPD2    H710866   3.393   2.584  12.166 -0.4401  0.2110 -0.2168
  732TMC3    C110867   3.620   2.532  12.136  0.0284  0.1358  0.6289
  732TMC3    C210868   3.553   2.503  12.020 -0.9712  0.5284  0.3143
  732TMC3    C310869   3.609   2.553  11.902 -0.8235 -0.2379 -0.0759
  732TMC3    C410870   3.737   2.598  12.133  0.0580  0.4200  0.0886
  732TMC3    C510871   3.801   2.630  12.014 -0.8562 -0.0958  0.4268
  732TMC3    C610872   3.731   2.615  11.899 -0.4647 -0.4631 -0.0633
  732TMC3     C10873   3.553   2.525  12.265  0.3280  0.3259  0.5811
  732TMC3     O10874   3.626   2.506  12.365  0.6554 -0.1742  0.3957
  732TMC3     H10875   3.458   2.450  12.018 -0.1046 -1.0503  0.6531
  732TMC3    H110876   3.784   2.619  12.228  0.4738  1.0457 -0.2580
  732TMC3    H210877   3.760   2.662  11.805 -1.2282 -1.4394 -0.7945
  732TMC3    C710878   3.908   2.732  12.019  0.8173  0.2743 -0.2664
  732TMC3    C810879   3.521   2.545  11.784  0.1854  0.4648  0.1780
  732TMC3    O110880   3.910   2.809  12.114  0.2677  0.0189 -0.0922
  732TMC3    O210881   3.571   2.573  11.672  0.2530  0.0042 -1.0025
  733TMC3    C110882   0.337   1.441  12.232  0.5394  0.3366  0.3157
  733TMC3    C210883   0.407   1.541  12.289 -0.2315  0.2293 -0.0787
  733TMC3    C310884   0.412   1.664  12.230  0.1286 -0.1975 -0.2348
  733TMC3    C410885   0.278   1.459  12.108 -0.2441  0.3328  0.1992
  733TMC3    C510886   0.288   1.580  12.055 -0.1138  0.8187  0.5923
  733TMC3    C610887   0.352   1.687  12.108  1.3704  0.2016  0.2885
  733TMC3     C10888   0.259   1.349  12.312  0.5340  0.7306  0.4855
  733TMC3     O10889   0.161   1.302  12.254  0.3188 -0.4354  0.2621
  733TMC3     H10890   0.434   1.531  12.394 -0.4744  1.2432  0.0774
  733TMC3    H110891   0.232   1.373  12.061  1.0422  0.2895 -0.9575
  733TMC3    H210892   0.374   1.771  12.043 -0.9713  1.2941  0.8998
  733TMC3    C710893   0.190   1.608  11.948  0.3332  0.2182 -0.5402
  733TMC3    C810894   0.466   1.779  12.301  0.3131  0.2140 -0.2184
  733TMC3    O110895   0.181   1.530  11.855 -0.2809  0.6700  0.1507
  733TMC3    O210896   0.558   1.770  12.382 -0.0981 -0.4555 -0.0125
  734MPD2     C10897   1.952   4.056  11.943 -0.0306 -0.6216  0.4175
  734MPD2    C110898   1.911   3.953  11.872  0.7527 -0.4181 -0.1958
  734MPD2    C210899   1.947   3.941  11.742  0.3678 -0.1569 -0.1832
  734MPD2    C310900   2.028   4.040  11.683 -0.1248 -0.0094  0.2132
  734MPD2    C410901   2.064   4.148  11.764 -0.1853 -0.5548 -0.4523
  734MPD2    C510902   2.027   4.155  11.888  0.1258  0.6838 -0.6513
  734MPD2     H10903   1.919   3.861  11.674 -2.2712  0.6713 -0.0670
  734MPD2    H110904   2.137   4.219  11.727  0.4341  0.1010  2.0294
  734MPD2    H210905   1.926   4.057  12.049  0.1009  0.9830  0.4354
  734MPD2    H310906   2.061   4.238  11.949  0.0102  0.8948 -0.8742
  734MPD2     N10907   2.076   4.007  11.555  0.7094 -0.2857 -0.1429
  734MPD2    H510908   2.048   3.918  11.514  0.4152 -0.3797  0.2681
  734MPD2    N110909   1.834   3.853  11.933 -0.6260  0.2594  0.2416
  734MPD2    H710910   1.842   3.832  12.031 -1.2633 -0.9132  0.0446
  735TMC3    C110911   1.652   3.694  11.928 -0.0935  0.1748 -0.6427
  735TMC3    C210912   1.545   3.665  11.852 -0.6000 -0.3192  0.6053
  735TMC3    C310913   1.515   3.535  11.818 -0.8390  0.0925  1.4787
  735TMC3    C410914   1.721   3.597  11.995 -0.0917  0.1484  0.4986
  735TMC3    C510915   1.678   3.467  11.970 -0.2694  0.0694 -0.4890
  735TMC3    C610916   1.578   3.435  11.885 -0.1823  0.6023  0.3077
  735TMC3     C10917   1.735   3.792  11.861 -0.4237 -0.2030 -0.5744
  735TMC3     O10918   1.711   3.796  11.742  0.4310  0.5166  0.1023
  735TMC3     H10919   1.496   3.746  11.800  2.0192  0.7457 -0.1992
  735TMC3    H110920   1.813   3.620  12.049 -0.4904  1.2345  0.7190
  735TMC3    H210921   1.571   3.332  11.850  0.7262 -0.1201  2.1975
  735TMC3    C710922   1.779   3.374  12.000 -0.0151  0.0033 -0.0691
  735TMC3    C810923   1.507   3.504  11.677  0.0172 -0.2125  0.2325
  735TMC3    O110924   1.814   3.305  11.903  0.1927  0.1328  0.2991
  735TMC3    O210925   1.467   3.391  11.645  0.0880 -0.3675 -0.0896
  736MPD2     C10926   2.000   3.348  12.291 -0.1389  0.0571  0.5586
  736MPD2    C110927   1.966   3.355  12.161  0.5786 -0.2003  0.2401
  736MPD2    C210928   2.066   3.328  12.062  0.5292 -0.5931  0.1433
  736MPD2    C310929   2.200   3.298  12.093  0.0856  0.3318  0.4349
  736MPD2    C410930   2.233   3.288  12.227  0.3437  0.4090  0.2115
  736MPD2    C510931   2.131   3.301  12.316  0.1581 -0.0269 -0.1035
  736MPD2     H10932   2.034   3.341  11.960 -1.1301 -1.2896  0.5798
  736MPD2    H110933   2.333   3.278  12.269  0.7256  2.5731 -0.1886
  736MPD2    H210934   1.938   3.351  12.380  0.5558 -0.0113  1.0528
  736MPD2    H310935   2.160   3.286  12.420 -0.0912 -0.6319 -0.1254
  736MPD2     N10936   2.307   3.295  11.998 -0.5895 -0.3222  0.4134
  736MPD2    H510937   2.399   3.287  12.041  0.3454 -0.9438 -1.6857
  736MPD2    N110938   1.830   3.390  12.131  0.0353  0.0977 -0.0534
  736MPD2    H710939   1.766   3.419  12.204  0.9853  0.1457  0.7496
  737TMC3    C110940   2.434   3.271  11.808 -0.0606 -0.3177  1.6094
  737TMC3    C210941   2.495   3.385  11.766  0.0905  0.3943  0.5103
  737TMC3    C310942   2.583   3.368  11.661 -0.1246 -0.0373  0.0420
  737TMC3    C410943   2.446   3.153  11.738 -0.0064 -0.0427 -0.4196
  737TMC3    C510944   2.537   3.138  11.637  0.0894  0.3076  0.2789
  737TMC3    C610945   2.609   3.245  11.602  0.7029  0.1563 -0.3323
  737TMC3     C10946   2.303   3.303  11.864 -0.7463 -0.5786 -0.0992
  737TMC3     O10947   2.203   3.329  11.801 -0.3169  0.5067 -0.1404
  737TMC3     H10948   2.455   3.480  11.797  1.5613  0.8841  0.9027
  737TMC3    H110949   2.374   3.073  11.753 -1.2063  1.4724  1.9045
  737TMC3    H210950   2.665   3.241  11.510  1.4968  2.1759  0.0560
  737TMC3    C710951   2.527   3.030  11.543  0.3724  0.0037 -0.2975
  737TMC3    C810952   2.616   3.494  11.592  0.1913  0.2033 -0.0523
  737TMC3    O110953   2.420   2.969  11.535 -0.5683 -0.4722  0.3507
  737TMC3    O210954   2.602   3.596  11.660 -0.4651 -0.0175 -0.3789
  738MPD2     C10955   2.617   2.797  14.716  0.2595  0.1086  0.2295
  738MPD2    C110956   2.728   2.713  14.750  0.0116  0.3675  0.7124
  738MPD2    C210957   2.853   2.756  14.720  0.2046  0.2655  0.0608
  738MPD2    C310958   2.874   2.894  14.681  0.5153 -0.7279 -0.7669
  738MPD2    C410959   2.767   2.977  14.655 -0.3823  0.4484 -0.1830
  738MPD2    C510960   2.639   2.923  14.674  0.1475  0.5034  0.1460
  738MPD2     H10961   2.938   2.690  14.733  0.6238  1.4105  3.0710
  738MPD2    H110962   2.773   3.078  14.617  1.2317  1.2585  2.2542
  738MPD2    H210963   2.518   2.756  14.731  0.1467  0.5043  0.5584
  738MPD2    H310964   2.554   2.979  14.637  0.3132  1.9059  1.8830
  738MPD2     N10965   3.007   2.938  14.653 -0.4776  1.2189  0.0444
  738MPD2    H510966   3.016   3.025  14.602  2.1829  0.5392 -0.6560
  738MPD2    N110967   2.714   2.577  14.799  0.4220  0.2178  0.9521
  738MPD2    H710968   2.795   2.517  14.796  1.1943  1.3778 -2.1357
  739TMC3    C110969   3.236   2.910  14.647  0.3434  0.0573  0.1111
  739TMC3    C210970   3.238   2.917  14.509  1.0010  0.4133  0.3140
  739TMC3    C310971   3.355   2.895  14.443  0.7498  0.4939 -0.6307
  739TMC3    C410972   3.353   2.891  14.722  0.6559  0.1995  0.6261
  739TMC3    C510973   3.467   2.873  14.648 -0.6470 -0.6231  0.4756
  739TMC3    C610974   3.473   2.872  14.509 -0.8676  0.3608  0.4182
  739TMC3     C10975   3.115   2.885  14.719 -0.3550 -0.3061  0.1256
  739TMC3     O10976   3.117   2.796  14.798 -0.0856 -0.0412 -0.0314
  739TMC3     H10977   3.151   2.946  14.451  1.2831  0.4814 -0.0726
  739TMC3    H110978   3.350   2.866  14.828  3.2782 -1.0891  0.3931
  739TMC3    H210979   3.565   2.872  14.452  0.0894  1.4479  1.9623
  739TMC3    C710980   3.591   2.915  14.706 -1.2863 -0.2777  0.0485
  739TMC3    C810981   3.357   2.903  14.297 -0.4040 -0.3965 -0.2289
  739TMC3    O110982   3.693   2.906  14.640  0.3375  0.0526  0.2146
  739TMC3    O210983   3.261   2.957  14.247 -0.2884  0.0388  0.2262
  740TMC3    C110984   3.688   3.920  14.209 -0.3548 -0.4385 -0.2224
  740TMC3    C210985   3.740   3.863  14.324  0.8520 -0.4643  0.4960
  740TMC3    C310986   3.855   3.790  14.304 -1.0207 -1.1599  0.0233
  740TMC3    C410987   3.735   3.895  14.083 -0.7052  0.4717  0.4767
  740TMC3    C510988   3.843   3.811  14.076 -0.2890 -0.5840  0.5426
  740TMC3    C610989   3.909   3.769  14.183 -0.2232  0.2492 -0.4632
  740TMC3     C10990   3.557   3.990  14.216 -0.5936  0.6653 -0.7257
  740TMC3     O10991   3.529   4.066  14.126 -0.1356 -0.3567 -0.3877
  740TMC3     H10992   3.707   3.902  14.420 -2.7126 -0.3849 -0.7428
  740TMC3    H110993   3.686   3.933  13.994  0.3885  2.0998  0.5732
  740TMC3    H210994   4.008   3.726  14.173 -0.4427  0.0491 -1.6851
  740TMC3    C710995   3.906   3.777  13.943 -0.1682  0.1320  0.1296
  740TMC3    C810996   3.903   3.703  14.411  0.3365  0.8218 -1.4121
  740TMC3    O110997   4.022   3.742  13.952 -0.0310 -0.4530 -0.0560
  740TMC3    O210998   3.996   3.626  14.387  0.1886 -0.2810  0.0102
  741TMC3    C110999   2.952   3.377  14.118 -0.9058 -0.0412  0.1354
  741TMC3    C211000   2.820   3.327  14.124 -0.0508  0.8112  0.1082
  741TMC3    C311001   2.775   3.257  14.231  1.1133 -0.6642 -0.1804
  741TMC3    C411002   3.048   3.357  14.209 -0.3674 -0.2377 -0.4976
  741TMC3    C511003   2.997   3.279  14.316  0.2950 -0.8395 -0.6436
  741TMC3    C611004   2.868   3.231  14.329 -0.1271 -0.4602 -0.0337
  741TMC3     C11005   2.991   3.442  13.989 -0.8228  0.0703  0.8922
  741TMC3     O11006   2.907   3.503  13.923 -0.4741 -0.2455 -0.1915
  741TMC3     H11007   2.761   3.352  14.036 -0.4784 -0.1668  0.1256
  741TMC3    H111008   3.136   3.419  14.215 -0.0200 -0.9821  1.8616
  741TMC3    H211009   2.849   3.186  14.426  4.0901 -1.0828  0.5035
  741TMC3    C711010   3.090   3.263  14.429  0.4067 -0.4119  0.2229
  741TMC3    C811011   2.678   3.149  14.202  0.1487  0.0393  0.2143
  741TMC3    O111012   3.044   3.208  14.531  0.0224 -0.0791 -0.1407
  741TMC3    O211013   2.584   3.173  14.127  0.4679 -0.5293  0.0740
  742TMC3    C111014   2.935   1.829  14.989  0.1591 -0.0650 -0.1406
  742TMC3    C211015   2.874   1.775  14.880 -0.2799 -0.0169 -0.1655
  742TMC3    C311016   2.946   1.785  14.766  0.4518 -0.2604 -0.4953
  742TMC3    C411017   3.064   1.894  14.995  0.6753  0.0866 -0.7049
  742TMC3    C511018   3.123   1.908  14.875 -0.2830  0.2683  0.3718
  742TMC3    C611019   3.072   1.843  14.763  0.3499 -0.1602  0.0008
  742TMC3     C11020   2.881   1.789  15.121  0.5603 -0.6197 -0.3170
  742TMC3     O11021   2.910   1.863  15.216  0.4012  0.3416 -0.1604
  742TMC3     H11022   2.778   1.726  14.891  0.0690 -0.7069 -0.2301
  742TMC3    H111023   3.105   1.901  15.095 -2.7298  1.5219  0.6004
  742TMC3    H211024   3.111   1.869  14.666  2.0484 -1.3635  0.3594
  742TMC3    C711025   3.261   1.945  14.861  0.1129  0.1015  0.5476
  742TMC3    C811026   2.904   1.713  14.648 -0.3664  0.6719  0.1885
  742TMC3    O111027   3.326   1.904  14.768  0.0300  0.1340  0.1018
  742TMC3    O211028   2.986   1.702  14.556  0.1060  0.1594  0.8850
  743MPD2     C11029   1.030   3.388   1.674  0.2544  0.5186 -0.2332
  743MPD2    C111030   1.023   3.288   1.582  0.9148 -0.2702  0.3766
  743MPD2    C211031   1.146   3.239   1.536 -0.2221  0.0925 -0.0380
  743MPD2    C311032   1.263   3.269   1.599 -0.3702 -0.2849  0.1193
  743MPD2    C411033   1.255   3.359   1.704 -0.3941 -0.3023 -0.0473
  743MPD2    C511034   1.145   3.429   1.731  0.1614 -0.1924 -0.6271
  743MPD2     H11035   1.149   3.180   1.445  1.2210  0.7512 -0.4309
  743MPD2    H111036   1.346   3.386   1.756 -1.4248 -0.6057  1.8875
  743MPD2    H211037   0.935   3.433   1.698  0.7703 -0.4454  3.5893
  743MPD2    H311038   1.154   3.503   1.809 -0.6915 -0.6235 -0.1093
  743MPD2     N11039   1.386   3.216   1.546  0.5841 -0.4434  0.4800
  743MPD2    H511040   1.376   3.166   1.458  2.4728  0.9592 -0.5228
  743MPD2    N111041   0.897   3.274   1.517  0.4059 -0.0070 -0.4790
  743MPD2    H711042   0.834   3.352   1.534 -1.6936 -2.2535  1.9068
  744TMC3    C111043   0.738   3.158   1.365 -0.1557 -0.1899 -1.0938
  744TMC3    C211044   0.627   3.224   1.407  0.5037 -0.1114  0.3026
  744TMC3    C311045   0.514   3.216   1.324  0.4189  0.2499  0.6109
  744TMC3    C411046   0.741   3.096   1.243  1.0136  0.5489  0.7247
  744TMC3    C511047   0.634   3.091   1.164  0.7852 -0.2565 -0.1383
  744TMC3    C611048   0.521   3.156   1.201  0.0092 -0.0521  0.5784
  744TMC3     C11049   0.870   3.165   1.431 -0.4126  0.4362  0.3213
  744TMC3     O11050   0.943   3.071   1.409 -0.2149 -0.0673 -0.0450
  744TMC3     H11051   0.626   3.284   1.497 -0.5326 -0.6197  0.6364
  744TMC3    H111052   0.837   3.060   1.207  0.8351 -0.3733  1.1499
  744TMC3    H211053   0.433   3.162   1.137  1.4473 -0.6999 -1.4537
  744TMC3    C711054   0.648   3.034   1.028  0.2018 -0.2497  0.1547
  744TMC3    C811055   0.393   3.296   1.347  0.4589 -0.0024 -1.3433
  744TMC3    O111056   0.756   3.010   0.979 -0.4436  0.7952 -0.7132
  744TMC3    O211057   0.327   3.316   1.244  0.3213 -0.1331 -0.3605
  745TMC3    C111058   3.769   0.878  13.433  1.0596  0.3522 -0.3248
  745TMC3    C211059   3.636   0.917  13.419 -0.3820 -0.3019 -0.4976
  745TMC3    C311060   3.584   0.914  13.291 -0.3811 -0.0750  0.2683
  745TMC3    C411061   3.848   0.854  13.326 -0.1738 -0.3328 -0.1626
  745TMC3    C511062   3.791   0.871  13.204 -0.6326  0.0858 -0.5332
  745TMC3    C611063   3.657   0.897  13.178 -0.4219 -0.0365 -0.0535
  745TMC3     C11064   3.817   0.932  13.558 -0.2615 -0.0319  0.6263
  745TMC3     O11065   3.905   0.875  13.624 -0.0227  0.1607 -0.4474
  745TMC3     H11066   3.581   0.926  13.512  1.3129 -2.4478  0.7169
  745TMC3    H111067   3.948   0.814  13.341  0.3456  1.1543  0.3334
  745TMC3    H211068   3.623   0.895  13.075  0.2592 -1.7651 -0.2489
  745TMC3    C711069   3.872   0.841  13.085 -0.4158 -0.0297 -0.3698
  745TMC3    C811070   3.453   0.964  13.277  0.1872  0.1713 -0.2200
  745TMC3    O111071   3.952   0.745  13.088  0.0457 -0.1076 -0.1547
  745TMC3    O211072   3.418   0.976  13.159 -0.0414  0.3241  0.0606
  746TMC3    C111073   0.706   3.241  11.074  0.1792 -0.1570 -0.8245
  746TMC3    C211074   0.791   3.179  10.991  0.0057 -0.4682 -0.8768
  746TMC3    C311075   0.772   3.044  10.972 -0.0994 -0.1971  0.4180
  746TMC3    C411076   0.596   3.180  11.133 -0.1064  0.6926  0.2477
  746TMC3    C511077   0.589   3.046  11.116  0.1932 -0.2468  0.6687
  746TMC3    C611078   0.678   2.976  11.036  0.0400 -0.5565 -0.2428
  746TMC3     C11079   0.716   3.383  11.103 -0.2498 -0.3591 -0.0435
  746TMC3     O11080   0.614   3.432  11.149  0.6871  0.4946 -0.3432
  746TMC3     H11081   0.867   3.237  10.940  0.0724 -1.2957 -1.7165
  746TMC3    H111082   0.524   3.226  11.199  0.0867  1.2477  0.0700
  746TMC3    H211083   0.677   2.868  11.039 -1.0989 -0.5775 -1.5181
  746TMC3    C711084   0.456   2.986  11.110 -0.8104  0.1756  0.0807
  746TMC3    C811085   0.856   2.965  10.889 -0.2284 -0.7242  0.8317
  746TMC3    O111086   0.441   2.898  11.022  0.3674  0.2802  0.4325
  746TMC3    O211087   0.807   2.871  10.830 -0.5854  0.7214  0.7774
  747TMC3    C111088   3.235   2.909  10.741 -0.1237 -0.2456  0.1348
  747TMC3    C211089   3.107   2.919  10.795 -0.3207  0.5123 -0.1312
  747TMC3    C311090   3.095   2.914  10.933  0.1764 -0.6325  0.1618
  747TMC3    C411091   3.343   2.894  10.819  1.4172 -0.2645 -0.1537
  747TMC3    C511092   3.325   2.879  10.953  0.3190  0.8854  0.1740
  747TMC3    C611093   3.206   2.904  11.014  0.3487 -0.7418 -0.2927
  747TMC3     C11094   3.259   2.974  10.611 -0.1188  0.5269  0.4192
  747TMC3     O11095   3.354   3.047  10.601  0.6429  0.6982 -0.2369
  747TMC3     H11096   3.020   2.934  10.732  1.1288  1.2171 -1.9684
  747TMC3    H111097   3.442   2.898  10.774  0.9371  0.0883 -1.1826
  747TMC3    H211098   3.198   2.902  11.122 -2.8548  1.3410 -0.4835
  747TMC3    C711099   3.448   2.861  11.031 -0.7129  0.2541 -0.0447
  747TMC3    C811100   2.966   2.870  10.978  0.1533  0.4273 -0.1365
  747TMC3    O111101   3.457   2.918  11.140 -0.4662  0.2435  0.0433
  747TMC3    O211102   2.890   2.829  10.890 -0.0454  0.3475 -0.4388
  748MPD2     C11103   0.035   4.154   1.425  0.1587 -0.0108 -0.4182
  748MPD2    C111104   0.057   4.241   1.326  0.2427  0.8647  0.0017
  748MPD2    C211105   0.181   4.273   1.279  0.0442 -0.0999 -0.2129
  748MPD2    C311106   0.293   4.219   1.340  0.3480  0.2636 -0.3761
  748MPD2    C411107   0.268   4.135   1.443  0.5176  0.0017  0.4557
  748MPD2    C511108   0.141   4.095   1.481  0.0550  0.4561 -0.7581
  748MPD2     H11109   0.190   4.345   1.199 -0.9386 -1.3965 -1.4800
  748MPD2    H111110   0.341   4.093   1.511  1.1482 -0.8922 -0.7555
  748MPD2    H211111   4.669   4.132   1.447 -0.1693  2.7729  0.7048
  748MPD2    H311112   0.127   4.023   1.561  1.7011 -0.6265 -1.4615
  748MPD2     N11113   0.420   4.272   1.303 -0.4199 -0.3245 -0.3365
  748MPD2    H511114   0.427   4.326   1.217  1.1334  0.5571  0.3417
  748MPD2    N111115   4.677   4.300   1.269 -0.2611  0.2096  0.4778
  748MPD2    H711116   4.584   4.267   1.294 -0.3765 -0.4510 -0.8390
  749TMC3    C111117   0.652   4.318   1.341 -0.6447  0.3338 -0.5195
  749TMC3    C211118   0.758   4.291   1.428  0.0618 -0.9990  0.0063
  749TMC3    C311119   0.880   4.320   1.378 -0.3480  0.0311 -0.2150
  749TMC3    C411120   0.674   4.349   1.205 -0.0148  0.1085  0.0865
  749TMC3    C511121   0.802   4.376   1.168  0.1956  0.2475  0.4892
  749TMC3    C611122   0.911   4.368   1.252 -0.4772  0.2581 -0.8257
  749TMC3     C11123   0.530   4.258   1.384 -0.0959 -0.3202  0.3734
  749TMC3     O11124   0.531   4.215   1.499 -0.3818  0.3182 -0.5290
  749TMC3     H11125   0.748   4.260   1.532  0.5616 -1.0709  0.0335
  749TMC3    H111126   0.588   4.357   1.140 -0.8555  2.2937  1.4677
  749TMC3    H211127   1.009   4.385   1.210 -0.3386 -1.3830 -1.1751
  749TMC3    C711128   0.809   4.465   1.053  0.4413 -0.1862  0.2786
  749TMC3    C811129   0.991   4.293   1.470  0.5472  0.0052  0.0306
  749TMC3    O111130   0.915   4.458   0.994 -0.4850  0.1455  0.0089
  749TMC3    O211131   0.969   4.302   1.591  0.1151 -0.5246 -0.2665
  750MPD2     C11132   0.953   0.714  11.694 -0.0448 -0.0275  0.2205
  750MPD2    C111133   0.853   0.627  11.718 -0.3972 -0.3530  0.0951
  750MPD2    C211134   0.848   0.509  11.644 -0.7138  0.2015 -0.1805
  750MPD2    C311135   0.945   0.470  11.554  0.3155  0.6556 -0.3376
  750MPD2    C411136   1.055   0.557  11.543 -0.1215  0.4239  0.3672
  750MPD2    C511137   1.053   0.676  11.608  0.1667 -0.4231 -0.6518
  750MPD2     H11138   0.757   0.451  11.654 -0.2965  0.0987  3.2404
  750MPD2    H111139   1.134   0.534  11.472  1.1350 -0.0806  1.9297
  750MPD2    H211140   0.965   0.805  11.752  0.8839  0.3807 -0.6174
  750MPD2    H311141   1.135   0.744  11.590 -0.2083  0.4073  0.7423
  750MPD2     N11142   0.935   0.352  11.477 -0.2539  0.5162  0.3398
  750MPD2    H511143   1.023   0.334  11.429  0.0646 -0.9929  1.5043
  750MPD2    N111144   0.751   0.671  11.809 -0.1503  0.5527 -0.1837
  750MPD2    H711145   0.742   0.772  11.820  1.4657  0.7416 -0.5744
  751TMC3    C111146   0.839   0.145  11.402  0.0386 -0.3135 -0.6008
  751TMC3    C211147   0.752   0.049  11.458 -0.1205  0.1495 -0.2276
  751TMC3    C311148   0.790   4.656  11.463 -0.1997  0.3626  0.3095
  751TMC3    C411149   0.951   0.105  11.335 -0.0600  0.0230  0.0842
  751TMC3    C511150   0.979   4.706  11.336 -0.2168 -0.5818  0.3622
  751TMC3    C611151   0.909   4.616  11.409  0.0669 -0.5965 -0.1323
  751TMC3     C11152   0.824   0.275  11.462  0.6970  0.3618 -0.1199
  751TMC3     O11153   0.710   0.304  11.501  0.3253 -0.0926  0.2626
  751TMC3     H11154   0.662   0.081  11.508 -0.3830 -0.9516  0.0017
  751TMC3    H111155   1.001   0.166  11.260  1.9069  1.9432  2.9876
  751TMC3    H211156   0.946   4.516  11.429  1.8278  0.3127  1.2066
  751TMC3    C711157   1.037   4.654  11.214 -0.3690  0.2331 -0.3112
  751TMC3    C811158   0.687   4.556  11.438 -0.3002 -0.8911 -0.2946
  751TMC3    O111159   1.084   4.730  11.129  0.3800 -0.1575  0.5079
  751TMC3    O211160   0.729   4.456  11.385  0.0980 -0.4161 -0.1490
  752TMC3    C111161   4.458   0.392  17.422 -1.0333  0.3953  0.7202
  752TMC3    C211162   4.522   0.413  17.539 -1.0020  0.1948  1.4009
  752TMC3    C311163   4.450   0.400  17.657  0.5893  0.6934 -0.0204
  752TMC3    C411164   4.334   0.332  17.420 -0.2357  0.8198  0.0344
  752TMC3    C511165   4.268   0.319  17.546  0.7605  0.0368  0.4377
  752TMC3    C611166   4.327   0.347  17.670  0.1132 -0.0955 -0.0632
  752TMC3     C11167   4.538   0.414  17.305  0.2481 -0.8155 -0.4824
  752TMC3     O11168   4.656   0.397  17.329  0.6467 -0.0834 -0.1595
  752TMC3     H11169   4.620   0.460  17.534 -1.7600  1.3906 -2.2566
  752TMC3    H111170   4.276   0.326  17.329 -1.6040  1.5156  0.8517
  752TMC3    H211171   4.274   0.354   0.015  1.0388 -0.7448  0.5131
  752TMC3    C711172   4.128   0.307  17.565 -0.3289 -0.5770 -0.1043
  752TMC3    C811173   4.507   0.465   0.027 -0.6162 -0.8532  0.1105
  752TMC3    O111174   4.097   0.255  17.673  0.3899  0.9411 -0.1188
  752TMC3    O211175   4.434   0.525   0.106 -0.0085  0.8609 -0.0726
  753TMC3    C111176   1.792   1.423  13.357 -0.5410  0.3958  0.0052
  753TMC3    C211177   1.884   1.370  13.439  0.3437  1.2425  0.3229
  753TMC3    C311178   1.931   1.251  13.410  0.4382 -0.6176  0.0542
  753TMC3    C411179   1.741   1.361  13.244 -0.6518 -0.1881 -0.0607
  753TMC3    C511180   1.795   1.234  13.219  1.2758 -1.0712  0.4643
  753TMC3    C611181   1.891   1.181  13.299 -0.2614  0.2165  0.1044
  753TMC3     C11182   1.786   1.572  13.369  0.0894  0.6800  0.0923
  753TMC3     O11183   1.840   1.627  13.466  0.5954 -0.0334 -0.3545
  753TMC3     H11184   1.936   1.435  13.509 -0.3457  0.4949  1.5414
  753TMC3    H111185   1.645   1.397  13.209 -0.4010  0.2450 -0.2917
  753TMC3    H211186   1.935   1.085  13.275  2.3631  0.7119  3.0004
  753TMC3    C711187   1.685   1.136  13.192 -0.1369  0.4158 -0.0941
  753TMC3    C811188   2.037   1.189  13.493 -0.0638 -0.3799  0.2727
  753TMC3    O111189   1.565   1.171  13.194 -0.0876  0.1320 -0.4253
  753TMC3    O211190   2.062   1.075  13.460 -0.4556 -0.3398  0.4336
  754MPD2     C11191   0.864   4.588  13.007 -0.4982  0.1707 -0.1582
  754MPD2    C111192   0.878   4.454  13.009 -0.2237  0.2750  0.8710
  754MPD2    C211193   0.774   4.374  12.974  0.4863  0.3258 -0.6359
  754MPD2    C311194   0.647   4.429  12.938 -0.5708  0.1159 -0.0743
  754MPD2    C411195   0.634   4.567  12.937  0.2791  0.1347 -0.4589
  754MPD2    C511196   0.742   4.643  12.972  0.1059  0.8620 -0.7786
  754MPD2     H11197   0.780   4.267  12.953  0.6598  0.6408 -2.2083
  754MPD2    H111198   0.539   4.607  12.905  1.3746  2.5120 -0.7293
  754MPD2    H211199   0.938   4.655  13.048  0.5756  0.7183 -2.9725
  754MPD2    H311200   0.733   0.013  12.975 -0.7977  0.8042 -1.3076
  754MPD2     N11201   0.536   4.361  12.887  0.9921 -0.6096 -0.2912
  754MPD2    H511202   0.451   4.409  12.859 -0.2931 -2.5263  0.3294
  754MPD2    N111203   1.004   4.405  13.059 -0.2260 -0.2983  0.4095
  754MPD2    H711204   1.081   4.471  13.068 -0.3237 -0.2165  0.6448
  755MPD2     C11205   4.332   4.453  12.873 -0.6668  0.2214 -0.3660
  755MPD2    C111206   4.450   4.525  12.891 -0.0211 -0.5289  0.1117
  755MPD2    C211207   4.568   4.461  12.859  0.7735 -0.1374 -0.3871
  755MPD2    C311208   4.576   4.334  12.807 -0.0204  0.0445 -0.0711
  755MPD2    C411209   4.457   4.276  12.774 -0.3933  0.9801  0.0420
  755MPD2    C511210   4.338   4.335  12.809 -0.8831 -0.5398 -0.3159
  755MPD2     H11211   4.653   4.527  12.877  1.0355 -0.9792  1.4469
  755MPD2    H111212   4.467   4.179  12.726 -1.6428  0.7607  0.2094
  755MPD2    H211213   4.234   4.490  12.899 -0.1808  1.5452 -0.4245
  755MPD2    H311214   4.245   4.286  12.780 -1.1838  0.1850 -0.5765
  755MPD2     N11215   4.693   4.264  12.774 -0.1667  0.5692 -0.3947
  755MPD2    H511216   4.686   4.166  12.747  0.0869  0.5004 -0.2046
  755MPD2    N111217   4.465   4.654  12.954 -0.0610 -0.3184  0.0423
  755MPD2    H711218   4.551   4.706  12.937 -0.4877  0.5979  0.6766
  756MPD2     C11219   0.705   0.935   9.608 -0.3159  0.5457  0.2591
  756MPD2    C111220   0.618   0.849   9.677 -0.0823 -0.3120  0.6203
  756MPD2    C211221   0.508   0.788   9.613 -0.0397  0.0152 -0.8045
  756MPD2    C311222   0.487   0.809   9.485  0.4420  0.0031  0.5271
  756MPD2    C411223   0.581   0.882   9.410 -0.0602  0.6860  1.0549
  756MPD2    C511224   0.681   0.949   9.472 -0.4925  0.4633  0.1496
  756MPD2     H11225   0.437   0.723   9.662  1.4364 -1.1729 -0.2382
  756MPD2    H111226   0.577   0.895   9.302  0.5753  0.1682  0.9757
  756MPD2    H211227   0.784   0.998   9.648 -1.1641  1.1332  1.0138
  756MPD2    H311228   0.754   1.003   9.413  0.6946 -3.7464 -2.2208
  756MPD2     N11229   0.378   0.746   9.423 -0.1269 -0.7968  0.3220
  756MPD2    H511230   0.314   0.689   9.479 -0.8815 -0.0226  0.2614
  756MPD2    N111231   0.631   0.835   9.818  0.5860  0.1328  0.2265
  756MPD2    H711232   0.566   0.776   9.868  1.8233  0.1141  1.8113
  757MPD2     C11233   0.026   0.022   9.698 -0.1415  0.0203  0.1794
  757MPD2    C111234   0.151   0.084   9.697 -0.1575 -0.2665 -0.3646
  757MPD2    C211235   0.154   0.199   9.621  0.2405  0.0153 -0.2462
  757MPD2    C311236   0.043   0.259   9.564  0.2773  0.4606  0.1245
  757MPD2    C411237   4.665   0.186   9.568 -0.1542  0.4704 -0.0214
  757MPD2    C511238   4.655   0.064   9.633  0.8725 -1.1138 -0.5158
  757MPD2     H11239   0.251   0.248   9.611 -0.8037  1.4864 -3.0871
  757MPD2    H111240   4.574   0.219   9.518 -0.9335 -2.2896 -0.4160
  757MPD2    H211241   0.021   4.675   9.765  0.7358 -0.7808 -0.7651
  757MPD2    H311242   4.559   0.013   9.633  1.3989 -2.1325  1.0302
  757MPD2     N11243   0.067   0.373   9.487  0.3304  0.2405 -0.0433
  757MPD2    H511244   0.159   0.415   9.494  0.7165 -0.3390 -1.6626
  757MPD2    N111245   0.257   0.025   9.763 -0.2030  0.3673 -0.0077
  757MPD2    H711246   0.257   4.668   9.799  0.1964  0.6131  0.6319
  758MPD2     C11247   0.612   0.012  15.375  0.1713 -0.1450 -0.1976
  758MPD2    C111248   0.688   4.655  15.438 -0.8047 -0.0662 -0.5837
  758MPD2    C211249   0.650   4.621  15.570  0.7805  0.7262  0.3261
  758MPD2    C311250   0.543   4.684  15.634  0.3814 -0.2782  0.8269
  758MPD2    C411251   0.484   0.050  15.572  0.0256 -0.8901 -0.2421
  758MPD2    C511252   0.513   0.076  15.442 -0.4580 -0.3846 -0.1854
  758MPD2     H11253   0.714   4.552  15.623 -1.3876 -0.6863  1.0541
  758MPD2    H111254   0.412   0.110  15.627 -1.3334 -0.7914 -2.1475
  758MPD2    H211255   0.627   0.050  15.275 -1.7163  0.6157 -0.2082
  758MPD2    H311256   0.453   0.154  15.395  1.0732  0.4387 -0.7521
  758MPD2     N11257   0.512   4.655  15.774 -0.3231 -0.8239 -0.1534
  758MPD2    H511258   0.431   4.704  15.811 -0.8531 -3.1245  1.7210
  758MPD2    N111259   0.809   4.603  15.377  0.3376 -0.6271  0.2055
  758MPD2    H711260   0.853   4.644  15.295  1.7306 -2.0080  0.2578
  759MPD2     C11261   3.563   3.257   9.695  0.4435  0.1497 -0.4521
  759MPD2    C111262   3.611   3.181   9.792  0.4153  0.3083 -0.8022
  759MPD2    C211263   3.749   3.201   9.816  0.3731 -0.3769  0.4726
  759MPD2    C311264   3.827   3.303   9.760  0.1531 -0.5930  0.2679
  759MPD2    C411265   3.769   3.383   9.669  0.2883 -0.1840  0.0476
  759MPD2    C511266   3.641   3.358   9.637  0.6332  0.1869 -0.0772
  759MPD2     H11267   3.794   3.129   9.882  0.7277 -0.2057  0.4202
  759MPD2    H111268   3.815   3.475   9.636  0.8911  0.2694  2.2010
  759MPD2    H211269   3.464   3.240   9.656 -0.0684  1.3278  0.3375
  759MPD2    H311270   3.600   3.416   9.555  0.4695  1.5853  0.9870
  759MPD2     N11271   3.966   3.336   9.791 -0.2933  0.7283  0.0905
  759MPD2    H511272   3.993   3.423   9.746  1.0045  0.2704 -0.0108
  759MPD2    N111273   3.536   3.083   9.848  0.0058 -0.6460  0.2092
  759MPD2    H711274   3.450   3.044   9.809 -1.0442  0.3590  1.5041
  760MPD2     C11275   3.843   0.406  12.031 -0.1923 -0.1907 -0.2874
  760MPD2    C111276   3.976   0.424  12.029 -0.7569 -0.2511  0.3525
  760MPD2    C211277   4.051   0.310  12.030  0.1485 -1.1696  0.2236
  760MPD2    C311278   4.001   0.184  12.030 -0.3238 -0.1272  0.3389
  760MPD2    C411279   3.864   0.176  12.043 -0.1615  0.4135  0.5647
  760MPD2    C511280   3.788   0.286  12.047 -0.4228  0.0480 -0.0451
  760MPD2     H11281   4.158   0.327  12.042  0.3778 -0.1661 -3.0393
  760MPD2    H111282   3.812   0.081  12.051 -0.3051  0.3941 -0.6558
  760MPD2    H211283   3.780   0.494  12.030  2.0742  1.4805  2.1631
  760MPD2    H311284   3.681   0.275  12.062 -0.5688 -0.5476 -1.4917
  760MPD2     N11285   4.084   0.064  12.029 -0.1778  0.0688  0.1680
  760MPD2    H511286   4.031   4.716  12.034  0.4393 -0.3584 -0.5969
  760MPD2    N111287   4.044   0.544  12.039  0.3143  0.1213  0.2380
  760MPD2    H711288   4.143   0.521  12.032  0.6957  1.4783  1.1544
  761MPD2     C11289   0.205   4.369  11.495  0.7382  0.2631  0.6273
  761MPD2    C111290   0.293   4.336  11.393  0.3244 -0.5217  0.0410
  761MPD2    C211291   0.412   4.410  11.397  0.3449  0.0903  0.5300
  761MPD2    C311292   0.436   4.517  11.480  0.3820 -0.0746  0.0785
  761MPD2    C411293   0.333   4.557  11.558 -0.2683  0.0977  0.0214
  761MPD2    C511294   0.218   4.486  11.567 -0.8144  0.2786 -0.3700
  761MPD2     H11295   0.497   4.376  11.338  1.0415 -0.2110  1.6883
  761MPD2    H111296   0.340   4.640  11.626  1.6957 -0.8479  0.9843
  761MPD2    H211297   0.115   4.309  11.506  0.8251  0.2362  1.1647
  761MPD2    H311298   0.148   4.508  11.646  0.5398  2.3390  0.2738
  761MPD2     N11299   0.565   4.588  11.491  0.3029 -0.3081  0.8334
  761MPD2    H511300   0.561   4.669  11.552 -0.8152  0.1396  0.1637
  761MPD2    N111301   0.258   4.216  11.324  0.5071  0.7620 -0.0076
  761MPD2    H711302   0.171   4.171  11.349 -0.0688  1.4394 -0.8303
  762MPD2     C11303   0.379   3.411  10.860  0.1784  0.4221  0.1383
  762MPD2    C111304   0.427   3.540  10.875  0.2387  0.2925  0.6203
  762MPD2    C211305   0.553   3.556  10.825 -0.2430 -0.4906 -0.4297
  762MPD2    C311306   0.633   3.454  10.769  0.3002 -0.2487  1.0400
  762MPD2    C411307   0.577   3.329  10.755  0.5241 -0.7007  0.5952
  762MPD2    C511308   0.452   3.312  10.801 -0.9120  0.5714  0.3036
  762MPD2     H11309   0.606   3.651  10.823 -2.3295  0.6812 -0.0105
  762MPD2    H111310   0.623   3.237  10.720 -0.5778 -0.7367 -0.7576
  762MPD2    H211311   0.280   3.379  10.890  0.7034 -0.6677  0.7239
  762MPD2    H311312   0.405   3.214  10.794 -1.7489  0.9130  1.1963
  762MPD2     N11313   0.763   3.488  10.713  0.2957  0.5878 -0.2805
  762MPD2    H511314   0.774   3.588  10.703  0.8136  0.4052 -1.6030
  762MPD2    N111315   0.337   3.635  10.926 -0.2173 -0.2075 -0.5657
  762MPD2    H711316   0.240   3.610  10.938  0.2871 -2.1111 -0.4858
  763MPD2     C11317   2.604   4.729  15.563 -0.3750  0.1835  0.1510
  763MPD2    C111318   2.470   0.034  15.585 -0.9531  0.1929  0.5019
  763MPD2    C211319   2.449   0.165  15.625  0.8533  0.4676 -0.3448
  763MPD2    C311320   2.554   0.246  15.667 -0.1568  0.2537  1.2062
  763MPD2    C411321   2.681   0.202  15.641  0.3875  0.0722 -0.3505
  763MPD2    C511322   2.706   0.075  15.587  0.0431 -0.3007  0.1873
  763MPD2     H11323   2.344   0.190  15.640  0.2798 -1.2595 -1.4400
  763MPD2    H111324   2.760   0.261  15.685 -0.2896  1.2235 -0.6928
  763MPD2    H211325   2.622   4.635  15.511 -1.3248  0.4054 -0.5839
  763MPD2    H311326   2.805   0.034  15.569  0.9923  1.3638  1.6399
  763MPD2     N11327   2.536   0.369  15.736 -0.4834  0.1868 -0.0111
  763MPD2    H511328   2.621   0.422  15.756  0.3016 -0.7185 -0.9196
  763MPD2    N111329   2.358   4.696  15.546  0.1553 -0.0564 -0.1988
  763MPD2    H711330   2.275   0.013  15.523 -0.8451 -0.7268  1.7891
  764MPD2     C11331   1.213   1.504  17.322  0.3209 -0.1060  0.2185
  764MPD2    C111332   1.216   1.394  17.236 -0.6759  0.4967 -0.7354
  764MPD2    C211333   1.191   1.268  17.284  0.0046 -0.2424  0.0591
  764MPD2    C311334   1.168   1.245  17.419 -0.1727  0.1528  0.4088
  764MPD2    C411335   1.169   1.349  17.501 -0.0927 -0.0147 -0.3553
  764MPD2    C511336   1.202   1.475  17.455  0.9053 -0.0087 -0.0534
  764MPD2     H11337   1.183   1.186  17.214  2.6432 -0.2535 -0.2095
  764MPD2    H111338   1.172   1.334  17.608  2.8841  1.6699 -0.1934
  764MPD2    H211339   1.221   1.606  17.286 -1.0814 -0.1399 -0.2187
  764MPD2    H311340   1.222   1.552  17.529 -2.7892 -1.1099  2.1252
  764MPD2     N11341   1.138   1.115  17.460 -0.1166  0.2057 -0.2017
  764MPD2    H511342   1.126   1.046  17.386  2.7099 -1.1239  0.5623
  764MPD2    N111343   1.228   1.408  17.100 -0.5123  0.2391 -0.1728
  764MPD2    H711344   1.212   1.325  17.044 -0.7576  0.1601  0.0154
  765MPD2     C11345   0.356   4.056  15.120 -0.0296 -0.6938 -0.4952
  765MPD2    C111346   0.429   4.132  15.208  0.3371  0.0703 -0.0746
  765MPD2    C211347   0.566   4.119  15.213 -0.0361 -0.2660 -0.3665
  765MPD2    C311348   0.620   4.013  15.145  0.6659  0.2166 -0.0153
  765MPD2    C411349   0.542   3.942  15.052  0.0405  0.5980 -0.0647
  765MPD2    C511350   0.413   3.972  15.035  0.2153 -0.3928 -0.0199
  765MPD2     H11351   0.633   4.189  15.262  1.4895 -1.7701 -0.2827
  765MPD2    H111352   0.585   3.871  14.982 -1.5209  0.4940 -0.9176
  765MPD2    H211353   0.248   4.066  15.117 -0.1837 -2.0732  0.2570
  765MPD2    H311354   0.351   3.913  14.968  2.1712 -0.7240 -1.5505
  765MPD2     N11355   0.757   3.971  15.165 -0.3906 -0.5002  0.1613
  765MPD2    H511356   0.791   3.881  15.133  0.0978 -1.0911  2.3173
  765MPD2    N111357   0.352   4.220  15.289 -0.2671  0.3077  0.2251
  765MPD2    H711358   0.251   4.210  15.278 -0.3530 -0.5952  1.8766
  766MPD2     C11359   4.403   4.297  15.164 -0.0756 -0.3754  0.4758
  766MPD2    C111360   4.543   4.273  15.182  0.1075  0.0306  0.6240
  766MPD2    C211361   4.598   4.199  15.079  0.0389  0.1135 -0.0914
  766MPD2    C311362   4.532   4.159  14.967 -0.3094  0.8267 -0.4756
  766MPD2    C411363   4.395   4.175  14.961 -0.1341  0.2414 -0.1035
  766MPD2    C511364   4.334   4.258  15.053 -0.3913 -0.6005 -0.2933
  766MPD2     H11365   4.706   4.191  15.079  0.0601  0.3603  0.8022
  766MPD2    H111366   4.342   4.132  14.877  1.4295  0.4084 -1.1756
  766MPD2    H211367   4.349   4.357  15.236 -1.1447  1.0162 -1.5151
  766MPD2    H311368   4.227   4.272  15.039 -0.4273 -2.1962 -1.6073
  766MPD2     N11369   4.598   4.100  14.861  0.7538 -0.2083  0.6189
  766MPD2    H511370   4.548   4.092  14.773  0.6285 -0.5890  0.7255
  766MPD2    N111371   4.618   4.327  15.289  0.0216  0.1875 -0.0668
  766MPD2    H711372   4.567   4.382  15.357  0.2776  1.7189 -1.1123
  767MPD2     C11373   4.240   4.314  14.694 -0.6606  0.0610 -0.0338
  767MPD2    C111374   4.368   4.303  14.653  0.9761 -0.1042  0.3192
  767MPD2    C211375   4.393   4.207  14.553  0.2324  0.5013  0.2763
  767MPD2    C311376   4.294   4.134  14.494  0.6010 -0.1839 -0.3435
  767MPD2    C411377   4.166   4.155  14.532  0.7080 -0.6262 -0.6900
  767MPD2    C511378   4.141   4.247  14.631  0.2661 -0.5617 -0.1174
  767MPD2     H11379   4.488   4.193  14.504 -0.4951  0.8082 -1.2059
  767MPD2    H111380   4.081   4.108  14.484 -0.1532  0.9875 -0.7257
  767MPD2    H211381   4.210   4.385  14.770 -0.7555  0.6138 -0.6003
  767MPD2    H311382   4.039   4.273  14.654  1.2919  1.7946  1.7266
  767MPD2     N11383   4.327   4.052  14.386 -0.1944 -0.8807 -0.0716
  767MPD2    H511384   4.423   4.043  14.356  0.0171 -2.1964  1.0105
  767MPD2    N111385   4.464   4.393  14.715 -0.3941 -0.3118 -0.1921
  767MPD2    H711386   4.426   4.432  14.800 -0.9222  1.9502 -1.4531
  768MPD2     C11387   0.154   2.252  10.619 -0.0643  0.1983 -0.1698
  768MPD2    C111388   0.191   2.367  10.684 -0.0677 -0.1552 -0.3278
  768MPD2    C211389   0.315   2.371  10.738  0.1179 -0.5984 -0.1945
  768MPD2    C311390   0.410   2.270  10.729  0.3181  0.4219 -0.0256
  768MPD2    C411391   0.375   2.158  10.651 -0.1339  1.0704 -0.8264
  768MPD2    C511392   0.243   2.149  10.604  0.3357 -0.3514 -0.4682
  768MPD2     H11393   0.341   2.462  10.790 -1.5925 -0.2597  0.0676
  768MPD2    H111394   0.440   2.074  10.629 -0.0475  0.8780  0.1887
  768MPD2    H211395   0.060   2.247  10.565  0.1193  0.4787 -0.5109
  768MPD2    H311396   0.219   2.063  10.543 -2.0785 -1.2559  1.7881
  768MPD2     N11397   0.539   2.265  10.785  0.4949  0.3311 -0.0801
  768MPD2    H511398   0.592   2.182  10.760 -1.1433  0.4825 -4.0896
  768MPD2    N111399   0.110   2.489  10.684  0.1338  0.1149  0.1947
  768MPD2    H711400   0.140   2.566  10.743 -0.3132 -0.1467  0.7640
  769MPD2     C11401   1.770   0.948  14.525 -0.5174  0.4049  0.1295
  769MPD2    C111402   1.658   0.945  14.597 -0.7384  0.9125 -0.4653
  769MPD2    C211403   1.660   1.005  14.726  0.6375 -0.0543  0.2864
  769MPD2    C311404   1.777   1.059  14.782 -1.1659 -0.0642 -0.0645
  769MPD2    C411405   1.893   1.055  14.703  0.0567 -0.3671  0.1132
  769MPD2    C511406   1.891   0.998  14.578  0.0765 -0.8062 -0.9500
  769MPD2     H11407   1.574   0.995  14.792  1.1202 -1.8850  0.6245
  769MPD2    H111408   1.992   1.095  14.722 -0.3475  0.7098 -0.0216
  769MPD2    H211409   1.772   0.919  14.420  0.0667  2.3882 -0.4140
  769MPD2    H311410   1.978   1.020  14.517 -1.2959  0.9348 -2.2425
  769MPD2     N11411   1.773   1.110  14.915  0.0596 -0.2018 -0.0323
  769MPD2    H511412   1.685   1.103  14.965  0.9421 -1.1433  1.3999
  769MPD2    N111413   1.555   0.868  14.540 -0.6924  0.0794  0.1734
  769MPD2    H711414   1.569   0.818  14.453  1.4699  1.0161 -0.0276
  770MPD2     C11415   1.386   4.631  14.501  0.4961 -0.0220  0.0385
  770MPD2    C111416   1.270   4.673  14.447  0.0793  0.2662  0.4991
  770MPD2    C211417   1.231   0.069  14.428  0.0970  0.4761  0.7700
  770MPD2    C311418   1.327   0.162  14.470 -0.8096 -0.2312  0.1505
  770MPD2    C411419   1.442   0.119  14.531 -0.1578 -0.0396 -0.2637
  770MPD2    C511420   1.475   4.725  14.539 -0.4386 -0.4332  0.1203
  770MPD2     H11421   1.144   0.096  14.368  2.0292  0.7596 -1.8958
  770MPD2    H111422   1.517   0.186  14.571 -0.2646 -0.8497  1.2985
  770MPD2    H211423   1.410   4.526  14.514 -1.3730 -0.1369  2.4181
  770MPD2    H311424   1.575   4.699  14.570 -0.4247 -0.2008  0.2715
  770MPD2     N11425   1.298   0.303  14.453 -0.7430 -0.5820  0.0515
  770MPD2    H511426   1.211   0.323  14.405 -0.9076  0.8382  0.9308
  770MPD2    N111427   1.188   4.564  14.411 -0.8837  0.9093 -0.2595
  770MPD2    H711428   1.234   4.474  14.423  0.1414  1.3679 -0.7905
  771MPD2     C11429   2.042   2.892  13.568  0.3502  0.3325  0.0919
  771MPD2    C111430   1.982   3.009  13.540  0.6534 -0.3567 -0.5722
  771MPD2    C211431   1.848   3.001  13.499  0.0422  0.2531  0.0157
  771MPD2    C311432   1.778   2.885  13.510 -0.3335  0.4025  0.1076
  771MPD2    C411433   1.840   2.772  13.551  0.5781  0.1431 -0.6494
  771MPD2    C511434   1.971   2.779  13.583 -0.4256 -0.1625 -0.2391
  771MPD2     H11435   1.810   3.095  13.461 -0.6776 -0.2333 -0.4599
  771MPD2    H111436   1.793   2.675  13.567  0.5723  0.9075  3.8698
  771MPD2    H211437   2.148   2.891  13.594  0.8382  0.8323 -1.8850
  771MPD2    H311438   2.025   2.693  13.621 -0.5507  0.4990  1.4240
  771MPD2     N11439   1.646   2.883  13.460 -0.1019  0.2508 -0.7131
  771MPD2    H511440   1.610   2.972  13.428 -0.3625  1.2040  2.2307
  771MPD2    N111441   2.043   3.138  13.547 -0.5214 -0.5331 -0.2842
  771MPD2    H711442   1.975   3.213  13.553  0.1108 -0.0259  0.7168
  772MPD2     C11443   1.911   3.866  13.643 -0.2695 -0.4119  0.5561
  772MPD2    C111444   1.871   3.732  13.633 -0.7592  0.4518  0.1012
  772MPD2    C211445   1.733   3.711  13.615  0.4174 -0.3263  0.0372
  772MPD2    C311446   1.637   3.817  13.605 -0.5702  0.4029  0.2854
  772MPD2    C411447   1.686   3.948  13.610  0.0161 -0.5396 -0.7122
  772MPD2    C511448   1.823   3.967  13.629  0.1538  0.1670 -0.0291
  772MPD2     H11449   1.689   3.612  13.617  0.3232 -0.2810  0.2272
  772MPD2    H111450   1.627   4.038  13.596  3.4977  1.8470 -0.2930
  772MPD2    H211451   2.009   3.908  13.661 -0.6086 -0.4409  2.5085
  772MPD2    H311452   1.859   4.067  13.645  1.4119 -0.5669  1.6571
  772MPD2     N11453   1.500   3.803  13.594  0.4568 -0.4780 -0.6856
  772MPD2    H511454   1.440   3.884  13.591  0.4212 -0.5955 -3.2297
  772MPD2    N111455   1.963   3.623  13.619  0.1120 -0.0747 -0.0279
  772MPD2    H711456   1.924   3.531  13.602 -0.7662  0.1967  0.5103
  773MPD2     C11457   1.384   0.302   0.078  0.0966  0.1570 -0.5684
  773MPD2    C111458   1.329   0.236  17.716 -0.4146  0.0857 -0.1632
  773MPD2    C211459   1.373   0.106  17.687  0.9099 -0.5271 -0.4422
  773MPD2    C311460   1.485   0.054   0.002  0.7632 -1.3166 -0.1373
  773MPD2    C411461   1.547   0.126   0.101  0.0613 -0.2931 -0.6860
  773MPD2    C511462   1.491   0.243   0.136 -0.2513 -0.8543 -0.0998
  773MPD2     H11463   1.329   0.051  17.605 -1.5672  0.2172  0.3862
  773MPD2    H111464   1.640   0.100   0.151 -1.7110 -1.3238  2.0646
  773MPD2    H211465   1.341   0.393   0.117 -0.3450 -0.0146 -0.6513
  773MPD2    H311466   1.536   0.289   0.223 -1.6844  1.4051 -0.5670
  773MPD2     N11467   1.529   4.660  17.716  0.6310  0.0964  0.1424
  773MPD2    H511468   1.471   4.610  17.650  1.1409 -1.2003  0.6790
  773MPD2    N111469   1.223   0.294  17.641 -0.3473 -0.0920 -0.1487
  773MPD2    H711470   1.193   0.239  17.561 -0.5351  0.4228 -0.4360
  774MPD2     C11471   0.453   3.575  12.876  1.0290  0.6152 -0.0744
  774MPD2    C111472   0.395   3.696  12.906 -1.0603  0.0331  0.4897
  774MPD2    C211473   0.471   3.800  12.956  0.2364  0.2814  0.4890
  774MPD2    C311474   0.601   3.775  13.007  0.3589  0.1865 -0.3378
  774MPD2    C411475   0.646   3.649  12.993  0.0633 -0.2833  0.3562
  774MPD2    C511476   0.578   3.555  12.923 -0.4299 -0.6570  0.6775
  774MPD2     H11477   0.434   3.902  12.960 -0.7126  0.0472 -2.4784
  774MPD2    H111478   0.747   3.632  13.028 -0.2359 -0.0331  1.3487
  774MPD2    H211479   0.389   3.502  12.827  0.7071  1.8372 -1.4587
  774MPD2    H311480   0.634   3.462  12.915  1.9036  0.7186  1.0748
  774MPD2     N11481   0.680   3.879  13.059 -0.5151 -0.3221 -0.4200
  774MPD2    H511482   0.646   3.974  13.061 -0.8803 -0.4287 -2.1175
  774MPD2    N111483   0.255   3.709  12.888  0.5845 -1.0331  0.5198
  774MPD2    H711484   0.209   3.620  12.875 -0.8397 -0.5296  2.0580
  775MPD2     C11485   1.790   0.686  15.363  0.6053  0.1266  0.2127
  775MPD2    C111486   1.811   0.778  15.464  0.1957  0.4720  0.0006
  775MPD2    C211487   1.897   0.887  15.445 -0.2909 -0.0697 -0.3977
  775MPD2    C311488   1.977   0.892  15.337 -0.4679 -0.8935  0.6062
  775MPD2    C411489   1.957   0.801  15.237 -0.1802  0.1387 -0.1112
  775MPD2    C511490   1.863   0.701  15.243 -0.3404  1.0648  0.1417
  775MPD2     H11491   1.918   0.967  15.515 -0.7013  1.6673 -2.2959
  775MPD2    H111492   2.025   0.801  15.153 -0.8204 -0.8575 -0.6325
  775MPD2    H211493   1.712   0.612  15.379 -1.5800  2.1381 -1.1329
  775MPD2    H311494   1.851   0.631  15.161 -1.4821  0.0841  1.1459
  775MPD2     N11495   2.073   0.995  15.315  0.2865  0.0149  0.3517
  775MPD2    H511496   2.127   0.977  15.231 -0.6470 -0.9537 -0.0486
  775MPD2    N111497   1.752   0.751  15.591  0.2647 -0.3425  0.4158
  775MPD2    H711498   1.696   0.667  15.597 -0.6870  0.2008 -0.8791
  776MPD2     C11499   0.173   1.052  11.406  0.0219 -0.2186 -0.5826
  776MPD2    C111500   0.293   0.998  11.451 -0.0845 -0.1456  0.2117
  776MPD2    C211501   0.409   1.039  11.389 -0.1586 -0.2023  0.0487
  776MPD2    C311502   0.410   1.151  11.301  0.2580 -0.8810 -0.2383
  776MPD2    C411503   0.286   1.200  11.253  0.3232  0.1166 -0.4397
  776MPD2    C511504   0.173   1.147  11.305  0.6119  0.0639  0.3946
  776MPD2     H11505   0.499   0.986  11.418  1.1124  2.1992  0.4868
  776MPD2    H111506   0.282   1.267  11.168 -2.9856  0.2560 -0.2013
  776MPD2    H211507   0.078   1.026  11.451  1.1413 -2.8307  0.2920
  776MPD2    H311508   0.079   1.190  11.273  1.1932  1.2055  0.2143
  776MPD2     N11509   0.530   1.200  11.251  0.4310  0.0948  0.7044
  776MPD2    H511510   0.528   1.279  11.187 -1.0389 -1.8688 -1.6447
  776MPD2    N111511   0.283   0.899  11.555  0.4624  0.4091 -0.1078
  776MPD2    H711512   0.189   0.872  11.581  0.5680  1.6872  1.6009
  777MPD2     C11513   1.266   3.794   0.619 -0.3965  0.1963 -0.2581
  777MPD2    C111514   1.293   3.676   0.691 -0.4932  0.0674  0.0818
  777MPD2    C211515   1.250   3.555   0.636  0.0540  0.3819  1.0994
  777MPD2    C311516   1.190   3.550   0.512  1.3284  0.8092  0.3868
  777MPD2    C411517   1.159   3.673   0.451  0.1632 -0.0609  0.3080
  777MPD2    C511518   1.201   3.797   0.497  0.4699 -0.7263  1.2002
  777MPD2     H11519   1.295   3.464   0.673 -0.9955 -0.2617  0.7996
  777MPD2    H111520   1.112   3.677   0.354 -0.3446  2.1977  0.6541
  777MPD2    H211521   1.312   3.886   0.653 -0.5766  0.3276 -0.3644
  777MPD2    H311522   1.177   3.891   0.448 -0.5105 -2.1969 -1.1075
  777MPD2     N11523   1.158   3.424   0.461 -0.8520  0.1202  0.0378
  777MPD2    H511524   1.161   3.349   0.530 -0.7047  1.5888  1.6102
  777MPD2    N111525   1.360   3.698   0.810 -0.8414 -0.3142  0.0397
  777MPD2    H711526   1.380   3.794   0.836  0.1309 -0.4649 -0.1637
  778MPD2     C11527   2.411   3.985  14.652  0.2607 -0.1552  0.3929
  778MPD2    C111528   2.415   3.862  14.597  0.4364 -0.5410 -0.2669
  778MPD2    C211529   2.507   3.847  14.494  0.2198  0.6429  0.5849
  778MPD2    C311530   2.577   3.939  14.430  0.2704 -0.1847  0.2420
  778MPD2    C411531   2.578   4.057  14.493 -0.4224 -0.1128  0.2267
  778MPD2    C511532   2.492   4.084  14.600 -0.3725 -0.1421 -0.3192
  778MPD2     H11533   2.512   3.748  14.450  1.0328 -0.5455  3.3387
  778MPD2    H111534   2.651   4.132  14.463 -1.2462  1.9054  3.2563
  778MPD2    H211535   2.336   4.015  14.724 -0.6188 -1.0613 -0.1522
  778MPD2    H311536   2.478   4.187  14.631 -1.1250  0.5320 -2.9427
  778MPD2     N11537   2.662   3.910  14.323 -0.4177  0.1438 -0.4080
  778MPD2    H511538   2.669   3.811  14.298 -0.7859  0.2737 -1.0234
  778MPD2    N111539   2.331   3.752  14.636  0.3700  0.2376  0.1966
  778MPD2    H711540   2.331   3.669  14.578  0.0218  0.7554 -0.5461
  779MPD2     C11541   1.912   2.099  14.262 -0.1166 -0.5846  0.0068
  779MPD2    C111542   2.034   2.104  14.198 -0.1094  0.1818 -0.2855
  779MPD2    C211543   2.068   2.211  14.115 -0.9258 -0.2622 -0.7179
  779MPD2    C311544   1.991   2.326  14.127 -0.0272  0.0269  0.2324
  779MPD2    C411545   1.871   2.326  14.188 -0.2190 -0.1296  0.2506
  779MPD2    C511546   1.837   2.211  14.261 -0.0077 -0.5803  0.3121
  779MPD2     H11547   2.156   2.211  14.052  0.2559 -2.8301  0.9412
  779MPD2    H111548   1.804   2.411  14.192 -2.1762 -1.6903  0.4581
  779MPD2    H211549   1.883   2.019  14.329 -2.6715  1.3147  1.1632
  779MPD2    H311550   1.748   2.215  14.323  0.5785  0.5418  1.0726
  779MPD2     N11551   2.023   2.440  14.051 -0.1150 -0.3637 -0.8099
  779MPD2    H511552   2.102   2.431  13.988  1.4296  5.1861  0.3263
  779MPD2    N111553   2.128   2.006  14.207 -0.0988 -0.2458  0.9048
  779MPD2    H711554   2.209   2.014  14.146 -0.2017 -0.4700  0.7385
  780MPD2     C11555   2.454   2.340   0.570  0.1235 -0.5705 -0.5801
  780MPD2    C111556   2.353   2.246   0.564 -0.5074 -0.0551 -0.3215
  780MPD2    C211557   2.230   2.280   0.512  0.1005 -0.2476  0.7048
  780MPD2    C311558   2.194   2.410   0.474 -0.0424  0.4207  0.3231
  780MPD2    C411559   2.294   2.504   0.483  0.1576 -0.1424  0.1877
  780MPD2    C511560   2.418   2.471   0.537  0.0227  0.5278 -0.5455
  780MPD2     H11561   2.156   2.202   0.504 -0.4606  0.3416  0.1148
  780MPD2    H111562   2.282   2.608   0.452  0.5577 -0.8014 -2.1985
  780MPD2    H211563   2.552   2.309   0.604 -0.0855  0.6439  1.1873
  780MPD2    H311564   2.488   2.553   0.550 -0.5845  0.7985  0.9887
  780MPD2     N11565   2.062   2.440   0.433 -0.2324 -0.0410  0.5844
  780MPD2    H511566   1.992   2.368   0.447  0.4275 -1.0381 -1.3384
  780MPD2    N111567   2.376   2.111   0.583 -0.8440 -0.0951  0.6786
  780MPD2    H711568   2.304   2.044   0.560  1.3622 -1.5645 -1.8647
  781MPD2     C11569   3.474   3.543  11.646 -0.3943 -0.6045  0.4862
  781MPD2    C111570   3.532   3.447  11.726 -0.1934 -0.0930 -0.1511
  781MPD2    C211571   3.652   3.396  11.684 -0.5580  0.5022  0.8232
  781MPD2    C311572   3.696   3.423  11.555 -0.4924  0.8445 -0.4972
  781MPD2    C411573   3.643   3.524  11.484  0.7303 -0.0762 -0.2028
  781MPD2    C511574   3.527   3.582  11.526 -0.2624  0.2353 -0.5002
  781MPD2     H11575   3.702   3.333  11.757  2.0719  0.6631 -0.8311
  781MPD2    H111576   3.676   3.552  11.385  2.0022 -1.0621 -0.0578
  781MPD2    H211577   3.386   3.597  11.680 -1.2684  0.4641 -3.5592
  781MPD2    H311578   3.477   3.660  11.469 -2.2060 -0.2666  0.5309
  781MPD2     N11579   3.807   3.358  11.505  0.3815  0.0035 -0.6417
  781MPD2    H511580   3.842   3.272  11.547 -1.8327 -0.4869  0.2324
  781MPD2    N111581   3.478   3.413  11.850  0.0590  0.1072  0.3192
  781MPD2    H711582   3.529   3.347  11.907  2.5696  1.3618 -0.5023
  782MPD2     C11583   1.098   4.624   9.904  1.0338 -0.3659  0.9560
  782MPD2    C111584   1.080   4.595  10.036 -0.6671 -0.2042  0.2603
  782MPD2    C211585   1.122   4.690  10.130  0.4641  0.2213 -0.9287
  782MPD2    C311586   1.187   0.070  10.096  0.3420  0.5089 -0.0220
  782MPD2    C411587   1.215   0.085   9.959  0.2427 -0.3929  0.2014
  782MPD2    C511588   1.169   4.736   9.874  0.0588  0.4613 -0.0456
  782MPD2     H11589   1.095   4.673  10.234 -0.0342  1.4651 -0.8589
  782MPD2    H111590   1.276   0.163   9.915 -0.0899 -0.8760 -1.1002
  782MPD2    H211591   1.072   4.555   9.824  1.1524  1.0138 -0.2871
  782MPD2    H311592   1.205   0.013   9.772 -0.8314  0.2084 -0.3969
  782MPD2     N11593   1.229   0.164  10.194  0.5773 -0.0880 -0.2555
  782MPD2    H511594   1.182   0.163  10.284  0.4987  0.8967 -0.2814
  782MPD2    N111595   1.014   4.472  10.061 -0.6338  0.1423 -0.4080
  782MPD2    H711596   0.969   4.425   9.984 -1.1355  0.5036 -0.3322
  783MPD2     C11597   0.946   4.312  11.127 -0.6593  0.0089  0.2919
  783MPD2    C111598   1.013   4.428  11.101 -0.1447 -0.2058 -0.1752
  783MPD2    C211599   1.081   4.456  10.984  0.9230 -0.0039  0.3126
  783MPD2    C311600   1.068   4.362  10.884  0.6274  0.6521  0.6574
  783MPD2    C411601   0.999   4.246  10.902  0.9381 -0.0545  0.2549
  783MPD2    C511602   0.935   4.219  11.028  0.7062  0.7013  0.4946
  783MPD2     H11603   1.129   4.550  10.960 -1.5969  0.6793 -2.1061
  783MPD2    H111604   0.990   4.163  10.832  1.3337 -0.4645  0.6888
  783MPD2    H211605   0.890   4.300  11.219  0.2486 -3.0195  0.4187
  783MPD2    H311606   0.880   4.128  11.043  0.4226  0.6670 -0.7678
  783MPD2     N11607   1.130   4.388  10.757 -0.3743  0.2023  0.0595
  783MPD2    H511608   1.200   4.461  10.750 -2.5509  2.2586 -0.0973
  783MPD2    N111609   1.001   4.523  11.206 -0.0737 -0.0137 -0.5207
  783MPD2    H711610   0.950   4.488  11.286 -1.3773  1.5086 -0.6938
  784MPD2     C11611   3.466   0.481   1.082  0.0908 -0.0225  0.1049
  784MPD2    C111612   3.535   0.600   1.091  0.3255  0.4203  0.1578
  784MPD2    C211613   3.483   0.704   1.027  0.2745 -0.4021  0.1594
  784MPD2    C311614   3.357   0.703   0.968  0.9454 -1.3682  0.3214
  784MPD2    C411615   3.281   0.589   0.977  0.7056 -1.0794 -0.4975
  784MPD2    C511616   3.340   0.478   1.027  0.4617 -0.0533 -0.6998
  784MPD2     H11617   3.534   0.800   1.029  0.2219 -0.3191 -2.8042
  784MPD2    H111618   3.177   0.579   0.949  0.0042 -1.4989  2.2524
  784MPD2    H211619   3.498   0.388   1.129 -0.0057  0.3141  0.8376
  784MPD2    H311620   3.273   0.394   1.038  0.4975 -0.1135 -0.9367
  784MPD2     N11621   3.316   0.825   0.907 -0.3326 -0.0251 -0.2522
  784MPD2    H511622   3.372   0.907   0.929  0.1256 -0.5768  0.6328
  784MPD2    N111623   3.649   0.619   1.172 -0.2928  0.1406 -0.1760
  784MPD2    H711624   3.681   0.715   1.178 -1.4241  0.5315 -0.4359
  785MPD2     C11625   3.202   3.894  10.456  0.6058 -0.0930  0.6608
  785MPD2    C111626   3.248   3.914  10.328 -0.0809 -0.2833  0.1016
  785MPD2    C211627   3.271   3.795  10.257  0.0438  0.6799  0.2415
  785MPD2    C311628   3.265   3.671  10.311 -0.8288  0.3688 -0.3302
  785MPD2    C411629   3.220   3.655  10.441 -0.1493 -0.0196  0.2295
  785MPD2    C511630   3.197   3.767  10.515 -0.4673 -0.4953 -0.0847
  785MPD2     H11631   3.315   3.798  10.158  0.1374 -0.5412  0.2514
  785MPD2    H111632   3.213   3.555  10.484  2.2908 -0.3161 -0.0418
  785MPD2    H211633   3.182   3.981  10.517 -1.2359 -0.6026  0.7716
  785MPD2    H311634   3.165   3.747  10.617 -0.8186  2.5452  0.3991
  785MPD2     N11635   3.297   3.558  10.237  0.1249  0.7350 -0.0884
  785MPD2    H511636   3.331   3.576  10.143  2.5077  1.3674  0.8849
  785MPD2    N111637   3.280   4.046  10.275  0.0143  0.0216  0.3823
  785MPD2    H711638   3.263   4.122  10.340 -1.7142 -0.5867  0.6319
  786MPD2     C11639   2.549   1.428  14.402 -0.0989  0.2195 -0.2630
  786MPD2    C111640   2.674   1.465  14.359 -0.0142  0.1176 -0.1314
  786MPD2    C211641   2.753   1.537  14.443  0.3413  0.8482 -0.0369
  786MPD2    C311642   2.698   1.604  14.558  0.1990 -0.0945 -0.1841
  786MPD2    C411643   2.569   1.565  14.594 -0.2381  0.3433  0.8136
  786MPD2    C511644   2.501   1.478  14.518 -0.4156  0.1136  0.4776
  786MPD2     H11645   2.856   1.555  14.414  0.4335  0.5635  0.1153
  786MPD2    H111646   2.516   1.606  14.679  0.2044  1.4206  0.5633
  786MPD2    H211647   2.475   1.374  14.344 -0.4247  1.4240 -0.9647
  786MPD2    H311648   2.399   1.457  14.549  0.0159 -2.3407  0.2699
  786MPD2     N11649   2.769   1.685  14.649 -0.3978  0.0688  0.0218
  786MPD2    H511650   2.723   1.736  14.724  0.0408  0.1458  0.2400
  786MPD2    N111651   2.728   1.423  14.237 -0.3513  0.8085 -0.6187
  786MPD2    H711652   2.822   1.455  14.216  0.6904 -0.7195  1.6672
  787MPD2     C11653   3.115   0.931  13.635  0.2935  0.3398  0.9249
  787MPD2    C111654   3.136   1.005  13.749 -0.2759  0.3054 -0.6889
  787MPD2    C211655   3.256   0.998  13.817 -0.1803  0.7167  0.0403
  787MPD2    C311656   3.351   0.901  13.774  0.1497 -0.2305 -0.7569
  787MPD2    C411657   3.324   0.826  13.659 -0.0078  0.4650 -0.8604
  787MPD2    C511658   3.210   0.845  13.596  0.0827  0.5322  0.9410
  787MPD2     H11659   3.286   1.074  13.888 -0.3805  0.9482 -0.1260
  787MPD2    H111660   3.377   0.739  13.624 -2.0559 -0.2572 -2.1526
  787MPD2    H211661   3.023   0.949  13.581  1.7312 -0.4330 -1.8063
  787MPD2    H311662   3.201   0.777  13.512 -0.5295 -1.0856  2.3021
  787MPD2     N11663   3.469   0.879  13.848  0.2775  0.1703 -0.3345
  787MPD2    H511664   3.464   0.925  13.938 -1.9084 -2.4270  0.8543
  787MPD2    N111665   3.033   1.099  13.785 -0.2026  0.4849 -0.0705
  787MPD2    H711666   2.949   1.091  13.727  1.5983 -1.3908 -2.4627
  788MPD2     C11667   4.003   1.279   0.629 -0.3946  0.2674 -0.2220
  788MPD2    C111668   4.086   1.184   0.585  0.4167 -0.5473 -0.5023
  788MPD2    C211669   4.096   1.170   0.447 -0.3387 -0.2510 -0.7163
  788MPD2    C311670   3.997   1.221   0.369  0.5202 -0.4074 -0.1020
  788MPD2    C411671   3.894   1.303   0.417 -0.0069  0.2056 -0.7059
  788MPD2    C511672   3.897   1.321   0.553 -0.7155  0.2543  0.0214
  788MPD2     H11673   4.170   1.096   0.421  1.5695  1.7153 -0.8493
  788MPD2    H111674   3.811   1.332   0.352  0.3626  1.8716 -0.4328
  788MPD2    H211675   3.995   1.313   0.731 -2.4148 -0.7474 -0.0413
  788MPD2    H311676   3.825   1.382   0.606 -0.4994  1.1101 -0.6689
  788MPD2     N11677   3.985   1.177   0.237 -0.1493  0.2262 -0.0662
  788MPD2    H511678   3.899   1.205   0.192 -0.4901 -1.2926 -0.3407
  788MPD2    N111679   4.160   1.110   0.672  0.2966 -0.0175  0.1489
  788MPD2    H711680   4.237   1.055   0.634  1.7672  1.3191  1.1711
  789MPD2     C11681   0.321   4.428  16.413 -0.3269 -0.1190  0.0753
  789MPD2    C111682   0.202   4.451  16.346 -0.1019 -0.4095  0.2600
  789MPD2    C211683   0.113   4.542  16.394 -0.0623 -0.2037 -0.3208
  789MPD2    C311684   0.139   4.605  16.518 -0.5362  0.0035  0.0519
  789MPD2    C411685   0.255   4.572  16.587  0.3057  0.0776  0.7178
  789MPD2    C511686   0.342   4.484  16.534 -0.0100 -0.0021 -0.1247
  789MPD2     H11687   0.027   4.569  16.335 -1.4935 -0.2555  1.7472
  789MPD2    H111688   0.281   4.620  16.680  0.3081 -2.0444  1.7997
  789MPD2    H211689   0.396   4.359  16.375 -0.9805 -0.3979 -0.7022
  789MPD2    H311690   0.438   4.472  16.583  1.2890  2.1722 -2.1459
  789MPD2     N11691   0.055   4.699  16.580  0.2131 -0.4354  0.3708
  789MPD2    H511692   0.086   4.736  16.670  1.5700 -0.7901  0.0504
  789MPD2    N111693   0.160   4.363  16.246 -0.4682 -0.2455  0.1243
  789MPD2    H711694   0.063   4.373  16.218 -0.3420  1.0527  0.1519
  790MPD2     C11695   1.063   1.514  12.793  0.3407 -0.3771 -0.3865
  790MPD2    C111696   1.078   1.414  12.882 -0.1704 -0.3313 -0.4275
  790MPD2    C211697   1.034   1.286  12.854  0.8051 -0.3537 -0.4410
  790MPD2    C311698   0.972   1.256  12.737  0.8493  0.5907  0.0296
  790MPD2    C411699   0.954   1.358  12.641  0.3675  0.0287  0.2541
  790MPD2    C511700   1.006   1.482  12.673 -0.6007  0.1663  0.2271
  790MPD2     H11701   1.047   1.204  12.924  1.8069 -1.1959 -1.6189
  790MPD2    H111702   0.923   1.325  12.542  0.9156  0.3969 -0.0369
  790MPD2    H211703   1.093   1.615  12.819 -2.4142  0.8139 -1.7445
  790MPD2    H311704   1.013   1.557  12.594  1.0232 -0.1254  0.0948
  790MPD2     N11705   0.920   1.125  12.711  0.3790 -0.0714  0.4485
  790MPD2    H511706   0.938   1.052  12.780 -2.4928  0.2764  1.5655
  790MPD2    N111707   1.140   1.451  13.001  0.1475  0.0180  0.5705
  790MPD2    H711708   1.161   1.550  12.999 -0.8140  0.2179  0.0602
  791MPD2     C11709   0.244   0.958  12.385 -0.2229  0.4081  0.0841
  791MPD2    C111710   0.297   0.843  12.432  0.0001 -0.0306  0.4583
  791MPD2    C211711   0.219   0.732  12.440  0.3334 -0.3214 -0.0655
  791MPD2    C311712   0.085   0.734  12.405  0.5670 -0.0683  0.6532
  791MPD2    C411713   0.037   0.849  12.347  0.3756  0.1755  0.4947
  791MPD2    C511714   0.117   0.960  12.332  0.3069 -0.7754 -0.2749
  791MPD2     H11715   0.259   0.640  12.482 -0.1794 -1.2046 -1.4913
  791MPD2    H111716   4.673   0.857  12.312  0.2928 -2.1576  0.2130
  791MPD2    H211717   0.294   1.054  12.379 -2.6129  1.7822  2.4288
  791MPD2    H311718   0.075   1.050  12.288  1.2236 -0.6591 -0.9169
  791MPD2     N11719   4.731   0.636  12.424  0.3097  0.4474 -0.7443
  791MPD2    H511720   4.638   0.667  12.396 -0.8032 -0.2552  2.2932
  791MPD2    N111721   0.425   0.849  12.491  0.7524 -0.5095 -0.3540
  791MPD2    H711722   0.480   0.930  12.461  1.9628 -1.1874  0.0328
  792MPD2     C11723   1.140   0.730  11.093 -0.2049  0.0371  0.7406
  792MPD2    C111724   1.072   0.787  10.991  0.1110 -0.3596 -0.4382
  792MPD2    C211725   0.935   0.807  11.009  0.3425  0.6199 -0.5337
  792MPD2    C311726   0.877   0.785  11.132  0.4851 -0.4999 -0.1572
  792MPD2    C411727   0.950   0.734  11.236 -0.2299  0.1827 -0.5690
  792MPD2    C511728   1.085   0.702  11.215  0.3675  0.0161  0.0582
  792MPD2     H11729   0.893   0.854  10.921  0.1540  1.3434 -0.0562
  792MPD2    H111730   0.902   0.713  11.331  2.4233  0.0002  0.7166
  792MPD2    H211731   1.246   0.714  11.076  0.1650  0.8688  2.2351
  792MPD2    H311732   1.136   0.661  11.302  0.4200  0.2758  0.1491
  792MPD2     N11733   0.740   0.810  11.163  0.0841 -0.5794  0.2317
  792MPD2    H511734   0.712   0.798  11.259  0.9995 -0.3974  0.5200
  792MPD2    N111735   1.145   0.831  10.879  0.1244 -0.2130 -0.7018
  792MPD2    H711736   1.245   0.818  10.891 -0.1545 -0.6696  1.1981
  793MPD2     C11737   0.172   0.819  10.445  0.1862  0.4162 -0.0180
  793MPD2    C111738   0.304   0.824  10.484  0.1807  0.0718 -0.1285
  793MPD2    C211739   0.336   0.834  10.621 -0.0704 -0.0152 -0.8220
  793MPD2    C311740   0.237   0.852  10.716 -0.5903 -0.5350 -0.2445
  793MPD2    C411741   0.110   0.856  10.672  0.1004 -0.0838  0.8615
  793MPD2    C511742   0.075   0.835  10.543  0.7541  0.3841  0.9563
  793MPD2     H11743   0.438   0.846  10.656 -0.1028  1.0082 -1.0840
  793MPD2    H111744   0.031   0.875  10.745 -1.1517  2.1516 -1.0873
  793MPD2    H211745   0.149   0.805  10.340 -0.7560  1.0965  0.0983
  793MPD2    H311746   4.706   0.834  10.519  1.0454 -3.5369 -0.2054
  793MPD2     N11747   0.272   0.876  10.855 -0.0338  0.0615 -0.4171
  793MPD2    H511748   0.371   0.873  10.878 -0.1803  0.7268  0.3134
  793MPD2    N111749   0.417   0.812  10.401  0.0806  0.1375 -0.4275
  793MPD2    H711750   0.506   0.816  10.448 -0.3770  0.7818  0.3896
  794MPD2     C11751   1.066   0.533  16.921 -0.1588  0.2814  0.0761
  794MPD2    C111752   0.947   0.497  16.979  0.1964 -0.0466  0.1213
  794MPD2    C211753   0.839   0.500  16.893  0.3498 -0.5482  0.8737
  794MPD2    C311754   0.858   0.534  16.757 -0.5767  0.0217 -0.4193
  794MPD2    C411755   0.981   0.559  16.713 -0.4728  0.0225  1.2847
  794MPD2    C511756   1.089   0.564  16.788 -0.2830  0.5548 -0.1749
  794MPD2     H11757   0.742   0.498  16.940  0.1154 -1.7642  0.3357
  794MPD2    H111758   0.984   0.594  16.610 -3.3813 -2.2816  0.3832
  794MPD2    H211759   1.156   0.526  16.981 -1.0407  0.3093  1.4012
  794MPD2    H311760   1.187   0.590  16.749 -0.4908  1.2470 -0.2471
  794MPD2     N11761   0.745   0.562  16.672  0.0224  0.3080 -0.4936
  794MPD2    H511762   0.751   0.617  16.587  0.9729  1.5823  0.3998
  794MPD2    N111763   0.932   0.476  17.117 -0.2032  0.0299  1.0665
  794MPD2    H711764   0.839   0.460  17.153  0.3790  1.1613  3.0747
  795MPD2     C11765   3.258   2.404  13.333 -0.1773  0.5411 -0.0125
  795MPD2    C111766   3.226   2.270  13.291  0.6843  0.4123 -0.3493
  795MPD2    C211767   3.299   2.168  13.338 -0.2582 -0.5190  0.1086
  795MPD2    C311768   3.413   2.192  13.419 -0.5508 -0.1845 -0.4745
  795MPD2    C411769   3.439   2.321  13.462  0.5902  0.1655 -0.0848
  795MPD2    C511770   3.356   2.423  13.421  0.1343  0.2681  0.2562
  795MPD2     H11771   3.266   2.067  13.316  1.0592 -0.9294 -0.0110
  795MPD2    H111772   3.507   2.356  13.540 -0.1741  3.6384 -1.0231
  795MPD2    H211773   3.207   2.496  13.307 -1.5112  0.2695  1.6867
  795MPD2    H311774   3.382   2.524  13.450  0.7834  0.4600 -1.0133
  795MPD2     N11775   3.481   2.087  13.487  0.9214  0.2045 -0.3376
  795MPD2    H511776   3.559   2.118  13.544 -0.4727  0.7476  1.2822
  795MPD2    N111777   3.118   2.234  13.207 -0.5072  0.1683  0.1359
  795MPD2    H711778   3.103   2.137  13.182 -1.2950  0.5480 -0.8652
  796MPD2     C11779   2.728   4.077  15.598 -0.7772  0.5109  0.4656
  796MPD2    C111780   2.816   4.179  15.617  0.2562  0.5359  0.7682
  796MPD2    C211781   2.801   4.290  15.539  0.2412  0.0537 -0.0177
  796MPD2    C311782   2.712   4.295  15.437 -0.3475 -0.3938  0.1307
  796MPD2    C411783   2.620   4.191  15.420 -0.3463  0.1076 -0.0999
  796MPD2    C511784   2.625   4.085  15.508 -0.5083  0.3618  0.2515
  796MPD2     H11785   2.856   4.381  15.561  0.4657  0.1590 -0.9724
  796MPD2    H111786   2.549   4.177  15.338  0.1802 -0.8934 -0.3891
  796MPD2    H211787   2.735   3.991  15.664 -2.3497 -1.1913 -1.5677
  796MPD2    H311788   2.567   3.995  15.490  1.2706 -0.7849  0.1871
  796MPD2     N11789   2.713   4.405  15.347  0.4056  0.6832 -0.3210
  796MPD2    H511790   2.771   4.483  15.377  1.7394 -0.8121  1.0188
  796MPD2    N111791   2.919   4.176  15.720 -0.0620  0.0691  0.2134
  796MPD2    H711792   2.901   4.108  15.792 -3.9713  0.3944 -0.4824
  797MPD2     C11793   3.743   4.627  17.124  0.0405 -0.2581  0.4383
  797MPD2    C111794   3.876   4.631  17.086  0.1685 -0.0573  0.4387
  797MPD2    C211795   3.927   4.691  16.969 -0.0582  0.3678 -0.7676
  797MPD2    C311796   3.842   0.007  16.875 -0.5030 -0.1637 -0.2085
  797MPD2    C411797   3.708   0.007  16.908 -0.2461  0.2131  0.2598
  797MPD2    C511798   3.666   4.688  17.029 -0.3757  0.7134 -0.1318
  797MPD2     H11799   4.031   4.681  16.939 -0.6421 -2.2359 -1.9673
  797MPD2    H111800   3.630   0.038  16.839  0.1334  2.5323  0.8611
  797MPD2    H211801   3.705   4.572  17.210 -1.1320  0.7049  0.5284
  797MPD2    H311802   3.557   4.687  17.031 -0.3553  1.3429  1.0189
  797MPD2     N11803   3.892   0.045  16.739 -0.2348  0.1648  0.2032
  797MPD2    H511804   3.826   0.060  16.664 -0.6026 -0.0903  0.4722
  797MPD2    N111805   3.964   4.550  17.154  0.0241 -0.1676  0.0382
  797MPD2    H711806   4.050   4.533  17.103 -0.7846 -0.0915 -1.3212
  798MPD2     C11807   4.501   4.187  16.696 -0.3109 -0.4697  0.1347
  798MPD2    C111808   4.421   4.295  16.720 -0.2261 -0.9505 -0.1255
  798MPD2    C211809   4.341   4.298  16.830  0.7603 -0.4488 -0.4593
  798MPD2    C311810   4.357   4.208  16.934  0.4466 -0.0561  0.1083
  798MPD2    C411811   4.434   4.100  16.914 -0.9239  0.0812  0.0513
  798MPD2    C511812   4.507   4.085  16.793 -0.2184 -0.4354 -0.1733
  798MPD2     H11813   4.288   4.391  16.852  2.4162  1.0698 -2.8577
  798MPD2    H111814   4.437   4.020  16.988  3.3656  0.0368 -0.1584
  798MPD2    H211815   4.535   4.155  16.598  0.9458  0.3676  0.2984
  798MPD2    H311816   4.557   3.991  16.772  0.5487 -0.0213 -0.1738
  798MPD2     N11817   4.276   4.233  17.049 -0.3874 -0.4011 -0.1350
  798MPD2    H511818   4.219   4.317  17.051 -0.6027 -0.5038 -2.3628
  798MPD2    N111819   4.405   4.399  16.626  0.1984 -0.3232 -0.5553
  798MPD2    H711820   4.438   4.376  16.532  0.1169 -0.5240 -0.5356
  799MPD2     C11821   2.762   0.604  13.949 -0.0063 -0.1517  0.0202
  799MPD2    C111822   2.707   0.494  13.899  0.0006  0.0068  0.1293
  799MPD2    C211823   2.645   0.494  13.776 -0.1776  0.6255  0.3210
  799MPD2    C311824   2.623   0.620  13.718 -0.7575  0.3616  0.4698
  799MPD2    C411825   2.683   0.732  13.773  0.3379 -0.3600 -0.0785
  799MPD2    C511826   2.757   0.721  13.888  0.2528  0.2630  0.2903
  799MPD2     H11827   2.609   0.401  13.734 -1.2561  1.1777  0.0336
  799MPD2    H111828   2.687   0.831  13.730 -0.7215 -1.3153 -2.3853
  799MPD2    H211829   2.820   0.604  14.041  0.8268  0.5468 -0.5091
  799MPD2    H311830   2.808   0.809  13.926 -1.4055  1.7118 -0.8657
  799MPD2     N11831   2.554   0.636  13.596 -0.6241  0.5616  0.5393
  799MPD2    H511832   2.505   0.553  13.563 -0.2786 -0.4349  2.5202
  799MPD2    N111833   2.717   0.363  13.953 -0.3617  0.2151 -0.6414
  799MPD2    H711834   2.667   0.293  13.899  1.7907 -2.6306  0.9903
  800MPD2     C11835   3.141   1.333  13.457 -0.1187  0.4736 -0.6845
  800MPD2    C111836   3.240   1.305  13.545  0.0427 -0.0606 -0.7820
  800MPD2    C211837   3.326   1.201  13.515  0.4772 -0.0957 -0.3584
  800MPD2    C311838   3.314   1.128  13.399  0.4416  0.0695 -0.5351
  800MPD2    C411839   3.218   1.158  13.306  0.1828  0.5590  0.6629
  800MPD2    C511840   3.137   1.262  13.335 -0.1534 -0.8059  0.0367
  800MPD2     H11841   3.399   1.166  13.586  0.2662 -0.1464 -0.1665
  800MPD2    H111842   3.205   1.104  13.213  3.1348  1.1625 -0.1255
  800MPD2    H211843   3.063   1.403  13.482  2.2541  2.9685 -0.2520
  800MPD2    H311844   3.057   1.270  13.263  0.7929  2.5112 -0.6437
  800MPD2     N11845   3.415   1.037  13.391  0.0629 -0.2773 -0.6343
  800MPD2    H511846   3.479   1.033  13.470  0.3711  0.8315 -0.8382
  800MPD2    N111847   3.233   1.374  13.673  0.0479 -0.2039  0.2493
  800MPD2    H711848   3.168   1.450  13.684  0.7647  0.4457 -0.0355
  801MPD2     C11849   3.197   2.130  13.771 -0.3832 -0.1156  0.3242
  801MPD2    C111850   3.249   2.083  13.894 -0.0741 -0.2743  0.1169
  801MPD2    C211851   3.252   2.173  14.000  0.1890  0.1634 -0.7687
  801MPD2    C311852   3.227   2.310  13.987  0.2151  0.2278  0.5316
  801MPD2    C411853   3.195   2.356  13.859 -0.0317  0.1060 -0.1926
  801MPD2    C511854   3.171   2.265  13.761  0.3366  0.7616  0.1366
  801MPD2     H11855   3.284   2.144  14.099  2.1877 -1.4328 -1.8937
  801MPD2    H111856   3.163   2.458  13.840  0.0180  0.5926  2.3546
  801MPD2    H211857   3.186   2.057  13.691  2.0661 -1.7942  1.5306
  801MPD2    H311858   3.144   2.297  13.661 -0.0816 -2.0204 -0.6277
  801MPD2     N11859   3.231   2.403  14.099 -0.5519  0.0744 -0.5782
  801MPD2    H511860   3.264   2.363  14.186  0.2321 -0.2669 -1.0352
  801MPD2    N111861   3.307   1.950  13.915 -0.3923  0.3244 -0.0636
  801MPD2    H711862   3.361   1.945  14.001  1.5332 -0.8412 -1.3337
  802MPD2     C11863   2.133   2.924   0.034  0.2900 -0.4678 -0.3266
  802MPD2    C111864   2.265   2.965   0.059  0.5674 -0.4114 -0.3504
  802MPD2    C211865   2.359   2.873   0.101 -0.1484 -0.5451  0.7006
  802MPD2    C311866   2.337   2.739   0.104  0.5043  0.5346 -0.1128
  802MPD2    C411867   2.207   2.701   0.086  0.6167 -0.3403 -0.8085
  802MPD2    C511868   2.110   2.787   0.044  0.4030 -0.5010 -0.5796
  802MPD2     H11869   2.460   2.912   0.108 -0.3402 -0.1277  1.2051
  802MPD2    H111870   2.189   2.594   0.082 -3.1907  0.3070 -0.4972
  802MPD2    H211871   2.052   2.983  17.742  0.2073 -1.4603 -1.5656
  802MPD2    H311872   2.011   2.747   0.024  0.9748 -1.8868 -0.6572
  802MPD2     N11873   2.454   2.648   0.101 -0.3388 -0.5153  0.0330
  802MPD2    H511874   2.544   2.693   0.089 -0.6456 -0.1677 -0.9571
  802MPD2    N111875   2.307   3.093   0.039 -0.8683 -0.3477 -0.8639
  802MPD2    H711876   2.401   3.114   0.072 -2.4463 -0.5722  3.6554
  803MPD2     C11877   3.442   1.059  11.523 -0.0956  0.0977  0.2261
  803MPD2    C111878   3.554   1.119  11.558 -0.5991  0.7430  0.4845
  803MPD2    C211879   3.600   1.104  11.688 -0.0316 -0.0551  0.8919
  803MPD2    C311880   3.528   1.031  11.786 -0.0329 -0.2856 -0.3376
  803MPD2    C411881   3.414   0.967  11.741 -0.1913  0.1639  0.5425
  803MPD2    C511882   3.373   0.975  11.611  0.1148 -0.1073  0.1116
  803MPD2     H11883   3.694   1.152  11.716  1.6156 -2.9204  0.3174
  803MPD2    H111884   3.346   0.912  11.805 -0.1485 -0.4157  0.0982
  803MPD2    H211885   3.385   1.067  11.431 -1.0771  0.6338  0.8804
  803MPD2    H311886   3.285   0.927  11.570  0.2818  0.9278 -1.4434
  803MPD2     N11887   3.577   1.015  11.920 -0.5627 -0.7332 -0.0301
  803MPD2    H511888   3.522   0.964  11.988 -2.0246  2.2677  1.0441
  803MPD2    N111889   3.603   1.204  11.453 -0.0419  0.2871  0.0115
  803MPD2    H711890   3.564   1.186  11.361 -0.4788 -1.0443  0.4637
  804MPD2     C11891   3.348   2.814  16.759  0.4643  0.2750 -0.2598
  804MPD2    C111892   3.436   2.763  16.852 -0.4707  0.7206 -0.0777
  804MPD2    C211893   3.548   2.834  16.890 -0.2300  1.0059  0.0201
  804MPD2    C311894   3.566   2.963  16.839  0.3855  0.3452 -0.1887
  804MPD2    C411895   3.464   3.022  16.767  0.1063 -0.3280 -0.0844
  804MPD2    C511896   3.353   2.949  16.726 -0.4614  1.0475  0.5646
  804MPD2     H11897   3.624   2.791  16.954 -0.3561  2.8562  1.4064
  804MPD2    H111898   3.471   3.120  16.721  1.0395 -2.1989 -3.9164
  804MPD2    H211899   3.264   2.761  16.716  0.9711  0.8154 -1.9310
  804MPD2    H311900   3.289   2.993  16.650  0.0562  0.0687 -0.4307
  804MPD2     N11901   3.687   3.025  16.852 -0.0767  0.1029  0.1120
  804MPD2    H511902   3.759   2.961  16.885  0.8689 -0.1162 -2.4132
  804MPD2    N111903   3.422   2.637  16.897  0.9630  0.1412  0.2152
  804MPD2    H711904   3.501   2.608  16.954 -0.5279 -1.0468  1.6448
  805MPD2     C11905   2.407   0.936  15.385  0.3657  0.2097 -0.1351
  805MPD2    C111906   2.504   0.965  15.290  0.2334  0.1254 -0.0352
  805MPD2    C211907   2.622   1.023  15.341  0.1274 -0.9160 -0.5148
  805MPD2    C311908   2.644   1.046  15.475 -0.3357  0.2804  0.5634
  805MPD2    C411909   2.545   1.024  15.561 -0.7463  0.0613  0.8233
  805MPD2    C511910   2.433   0.964  15.514 -0.5241 -1.0369  0.8957
  805MPD2     H11911   2.702   1.053  15.273 -0.7924  0.5202 -0.9543
  805MPD2    H111912   2.546   1.041  15.668  0.6776 -2.5183  1.2295
  805MPD2    H211913   2.312   0.894  15.353 -0.1146  1.8610 -0.8634
  805MPD2    H311914   2.360   0.933  15.588 -1.9374 -1.1849 -0.5641
  805MPD2     N11915   2.768   1.092  15.521  0.1877 -0.3202  0.1384
  805MPD2    H511916   2.832   1.118  15.446  1.0219  2.6677  1.8851
  805MPD2    N111917   2.486   0.939  15.154  0.1216 -0.3446 -0.2529
  805MPD2    H711918   2.571   0.949  15.099  1.1003 -1.7734  0.9733
  806MPD2     C11919   2.840   0.177  17.538 -0.7205 -0.0025 -0.2055
  806MPD2    C111920   2.766   0.229  17.646  0.5659  0.5147  0.3198
  806MPD2    C211921   2.789   0.362  17.685  0.8598  0.0510 -0.8119
  806MPD2    C311922   2.899   0.426  17.633 -0.3128 -0.0173 -0.8532
  806MPD2    C411923   2.980   0.362  17.544 -0.5116  0.2533 -0.4119
  806MPD2    C511924   2.952   0.238  17.496  0.3630 -0.7899  1.1920
  806MPD2     H11925   2.740   0.403   0.024  1.1343  0.4183 -0.8323
  806MPD2    H111926   3.066   0.405  17.493  0.2138 -0.0890  0.5061
  806MPD2    H211927   2.821   0.076  17.502 -0.3640 -0.8054  1.8672
  806MPD2    H311928   3.020   0.206  17.418  0.4377  1.2646  0.3973
  806MPD2     N11929   2.924   0.552  17.691 -0.8558  0.4621 -0.4468
  806MPD2    H511930   2.850   0.601  17.741  0.1915  1.1643  0.4134
  806MPD2    N111931   2.665   0.152  17.707  0.6624  0.3390 -0.4629
  806MPD2    H711932   2.630   0.076  17.651  2.2636 -1.0626  0.4539
  807MPD2     C11933   2.721   4.239   0.110  0.5563  0.1313 -0.1992
  807MPD2    C111934   2.619   4.265   0.199  0.0417  0.7024  0.6457
  807MPD2    C211935   2.599   4.180   0.303  0.1495  0.6041 -0.4870
  807MPD2    C311936   2.681   4.073   0.315  0.7396  0.2729  0.2384
  807MPD2    C411937   2.780   4.044   0.225 -0.1458 -0.9730 -0.2263
  807MPD2    C511938   2.809   4.134   0.123 -0.4978 -0.4486 -0.1425
  807MPD2     H11939   2.515   4.194   0.371  0.9238 -1.1051  0.8388
  807MPD2    H111940   2.844   3.957   0.234  1.0216 -0.0554  0.1561
  807MPD2    H211941   2.737   4.304   0.024  1.7984  2.0750  1.5193
  807MPD2    H311942   2.890   4.110   0.055 -0.6331  0.1584 -0.5207
  807MPD2     N11943   2.655   3.974   0.420 -0.1003  0.4895 -0.0272
  807MPD2    H511944   2.559   3.979   0.452  0.2773  0.9390  1.0268
  807MPD2    N111945   2.538   4.374   0.197  0.0746 -0.2265  0.5376
  807MPD2    H711946   2.472   4.386   0.273  2.3943 -0.2188  2.5703
  808MPD2     C11947   2.819   1.630   9.370 -0.2193 -0.5283  0.2526
  808MPD2    C111948   2.910   1.627   9.473 -0.1916 -0.0851  0.2691
  808MPD2    C211949   3.018   1.707   9.457  0.5525  0.3154  0.4354
  808MPD2    C311950   3.054   1.783   9.339  0.0921  0.1488  0.2440
  808MPD2    C411951   2.969   1.771   9.231  0.6588  0.0955 -0.3541
  808MPD2    C511952   2.847   1.701   9.252  0.1401  0.4776  0.4438
  808MPD2     H11953   3.092   1.712   9.536  0.2075 -1.9211  0.8832
  808MPD2    H111954   2.988   1.810   9.132 -0.3613 -1.1092 -1.0209
  808MPD2    H211955   2.729   1.569   9.373  0.5170 -1.5867  0.7357
  808MPD2    H311956   2.778   1.678   9.171 -0.1270  0.7017  0.6073
  808MPD2     N11957   3.188   1.836   9.317  0.0384 -0.6887  0.3733
  808MPD2    H511958   3.196   1.892   9.232  0.0531  1.1787  1.6059
  808MPD2    N111959   2.897   1.555   9.597 -0.1089 -0.6153  0.1854
  808MPD2    H711960   2.979   1.546   9.657 -1.4188 -1.2806  1.8668
  809MPD2     C11961   4.130   1.489   9.264 -0.3323  0.3727  0.0191
  809MPD2    C111962   4.129   1.575   9.375  0.3019  0.4505  0.7586
  809MPD2    C211963   4.039   1.674   9.382 -0.0262 -0.2622  0.3243
  809MPD2    C311964   3.936   1.687   9.288 -0.2829 -0.2958 -0.1150
  809MPD2    C411965   3.941   1.601   9.180  0.1260  0.8781 -0.6976
  809MPD2    C511966   4.034   1.502   9.169 -0.6932  0.1881  0.5317
  809MPD2     H11967   4.034   1.724   9.478 -0.2767 -1.0029  0.6996
  809MPD2    H111968   3.861   1.606   9.106 -0.1408  2.8599 -0.2593
  809MPD2    H211969   4.208   1.419   9.237 -0.8223 -0.2655  0.2770
  809MPD2    H311970   4.041   1.445   9.077  3.6449  1.7459 -0.0844
  809MPD2     N11971   3.811   1.760   9.305  0.1372  0.6630  0.4495
  809MPD2    H511972   3.738   1.734   9.240 -1.0567  2.6305  1.0120
  809MPD2    N111973   4.212   1.546   9.489 -0.0124  0.3115  0.3042
  809MPD2    H711974   4.199   1.604   9.571 -1.2709  1.7136 -0.8860
  810MPD2     C11975   2.765   1.241  10.561 -0.0390 -0.3262 -0.1217
  810MPD2    C111976   2.700   1.291  10.451 -0.7539  0.3672 -0.0996
  810MPD2    C211977   2.701   1.428  10.433 -0.0451  0.3871  0.4670
  810MPD2    C311978   2.778   1.505  10.515  0.8862 -0.1352 -0.2931
  810MPD2    C411979   2.838   1.449  10.626  0.0277  0.2399  0.9980
  810MPD2    C511980   2.826   1.318  10.649  0.8748 -0.0253 -0.1812
  810MPD2     H11981   2.659   1.477  10.346 -0.4445  0.5686  0.7606
  810MPD2    H111982   2.893   1.514  10.693 -1.7779  2.6032  0.1865
  810MPD2    H211983   2.752   1.134  10.576 -1.5877  0.4438  4.1661
  810MPD2    H311984   2.873   1.274  10.737 -0.4213  0.1635  0.5995
  810MPD2     N11985   2.803   1.642  10.489 -0.3215 -0.2535  0.4282
  810MPD2    H511986   2.853   1.697  10.558  0.1282 -0.2176  0.0700
  810MPD2    N111987   2.639   1.216  10.351 -0.6634 -0.3334  0.3777
  810MPD2    H711988   2.625   1.119  10.377 -0.2871 -0.5924 -0.3623
  811MPD2     C11989   2.045   1.064   9.670  0.5211  0.2834 -0.3024
  811MPD2    C111990   2.156   1.136   9.697 -0.1153 -0.2917  0.6192
  811MPD2    C211991   2.166   1.259   9.634  0.2195  0.2524  0.5816
  811MPD2    C311992   2.079   1.299   9.538 -0.2862  0.5080  0.2279
  811MPD2    C411993   1.966   1.220   9.508  0.2860 -0.3572 -0.5874
  811MPD2    C511994   1.949   1.103   9.577 -0.4135  0.5912  0.0101
  811MPD2     H11995   2.242   1.329   9.666 -0.7090  0.9018  1.3731
  811MPD2    H111996   1.884   1.246   9.442  0.7887 -0.6140 -1.3203
  811MPD2    H211997   2.026   0.970   9.719  0.3308 -0.2771 -1.4504
  811MPD2    H311998   1.858   1.044   9.577 -0.7283  1.0843  1.6877
  811MPD2     N11999   2.097   1.424   9.484  0.6597 -0.0883 -0.6367
  811MPD2    H512000   2.191   1.464   9.489  0.7820 -0.4749  0.1350
  811MPD2    N112001   2.250   1.085   9.787 -0.1471  0.1538 -0.1380
  811MPD2    H712002   2.213   0.999   9.826 -1.5891  1.3892  1.2112
  812MPD2     C12003   1.371   0.318  12.005  0.5259  0.0797 -0.7484
  812MPD2    C112004   1.460   0.413  12.055 -0.6802  0.1941 -0.1396
  812MPD2    C212005   1.535   0.380  12.168  0.3153 -0.1221 -0.4946
  812MPD2    C312006   1.539   0.257  12.215 -0.4986  0.2516 -0.7746
  812MPD2    C412007   1.470   0.154  12.158  0.2108 -0.4594  0.5594
  812MPD2    C512008   1.383   0.189  12.056  0.1600  0.4127  0.2438
  812MPD2     H12009   1.582   0.455  12.231 -2.5766  2.5465 -1.5404
  812MPD2    H112010   1.470   0.055  12.201 -1.1931 -0.9646 -0.5725
  812MPD2    H212011   1.302   0.338  11.924  1.0228  0.5990 -1.0496
  812MPD2    H312012   1.321   0.109  12.017  0.0501  0.0206  1.2333
  812MPD2     N12013   1.627   0.245  12.326  0.4805 -0.2515 -0.0516
  812MPD2    H512014   1.668   0.326  12.371 -0.1414  0.4755 -0.7891
  812MPD2    N112015   1.452   0.544  12.002 -0.3579  0.9723  0.4517
  812MPD2    H712016   1.398   0.558  11.918 -0.2718 -0.0222  0.2276
  813MPD2     C12017   0.560   2.594  12.689  0.5429  0.3999  0.8289
  813MPD2    C112018   0.629   2.677  12.769  0.1058  0.6662  0.2796
  813MPD2    C212019   0.576   2.716  12.889 -0.5431 -0.6616  0.2612
  813MPD2    C312020   0.466   2.655  12.937  0.1996 -1.0510 -0.3996
  813MPD2    C412021   0.392   2.561  12.870 -0.5768  0.3169 -0.2800
  813MPD2    C512022   0.439   2.542  12.741  0.0701 -0.1929 -0.4575
  813MPD2     H12023   0.629   2.789  12.948 -0.0380  0.5209 -1.6696
  813MPD2    H112024   0.298   2.520  12.905 -0.1865 -0.4731 -0.1567
  813MPD2    H212025   0.600   2.563  12.593  0.5246 -2.4380  1.7361
  813MPD2    H312026   0.397   2.467  12.674 -2.0340 -1.0514  1.8176
  813MPD2     N12027   0.437   2.705  13.062  0.1736 -0.2670 -0.1860
  813MPD2    H512028   0.506   2.769  13.100 -0.3167 -0.1311  0.4684
  813MPD2    N112029   0.756   2.727  12.737  0.0651  0.5646  0.2747
  813MPD2    H712030   0.808   2.780  12.806  1.5657 -0.9942  0.3649
  814MPD2     C12031   1.407   3.600  12.259 -0.2262 -0.4071  0.0436
  814MPD2    C112032   1.312   3.656  12.176  0.4357 -0.6428 -0.5779
  814MPD2    C212033   1.338   3.779  12.117  0.0094  0.0529 -0.6503
  814MPD2    C312034   1.455   3.849  12.146  0.0490  0.1492 -0.1416
  814MPD2    C412035   1.553   3.789  12.223 -0.7455  0.6090 -0.2583
  814MPD2    C512036   1.524   3.665  12.278 -0.4015 -0.1832  0.2236
  814MPD2     H12037   1.273   3.827  12.046 -1.3476  1.1034  1.3152
  814MPD2    H112038   1.652   3.826  12.247 -1.1439  0.1488  2.1020
  814MPD2    H212039   1.388   3.502  12.302  1.3531  0.4630  2.6824
  814MPD2    H312040   1.600   3.621  12.342 -1.0511 -0.6506  0.6726
  814MPD2     N12041   1.466   3.978  12.095 -0.6894  0.0743  0.1633
  814MPD2    H512042   1.395   4.010  12.030  1.3147  1.3313 -1.3972
  814MPD2    N112043   1.198   3.589  12.132  0.9102  0.1263 -0.4288
  814MPD2    H712044   1.131   3.638  12.073 -0.5488 -1.4114 -0.0581
  815MPD2     C12045   1.864   2.596  11.737  0.0193  0.1438 -0.2496
  815MPD2    C112046   1.817   2.472  11.714 -0.6302  0.4296 -0.4090
  815MPD2    C212047   1.690   2.442  11.762 -0.4366  0.1743 -0.7232
  815MPD2    C312048   1.611   2.527  11.835 -0.3033  0.8806 -0.2712
  815MPD2    C412049   1.661   2.654  11.852 -0.2580 -0.5398 -0.0264
  815MPD2    C512050   1.785   2.687  11.801 -0.8154 -0.4199  0.2054
  815MPD2     H12051   1.641   2.347  11.748 -0.5239  0.2825 -1.1489
  815MPD2    H112052   1.603   2.735  11.894 -0.6848 -1.0485  0.3573
  815MPD2    H212053   1.957   2.633  11.695 -0.2680 -2.2756 -3.0032
  815MPD2    H312054   1.816   2.790  11.791 -2.1441 -0.1111 -0.6878
  815MPD2     N12055   1.478   2.488  11.869 -0.1871 -0.4033 -0.4547
  815MPD2    H512056   1.439   2.396  11.851  4.0463 -2.0467 -1.0388
  815MPD2    N112057   1.889   2.384  11.634  0.0354  0.3717  0.0062
  815MPD2    H712058   1.971   2.421  11.588 -0.7721  1.1531 -0.7806
  816MPD2     C12059   1.593   1.795  16.894  1.1685  0.8900  0.4220
  816MPD2    C112060   1.663   1.912  16.925  0.4901 -0.0264 -0.3093
  816MPD2    C212061   1.793   1.922  16.888  0.1049  0.1995  0.6788
  816MPD2    C312062   1.853   1.815  16.818 -0.6481 -0.5488  0.1727
  816MPD2    C412063   1.788   1.697  16.805 -0.8970 -0.8001 -0.2161
  816MPD2    C512064   1.658   1.694  16.832  0.2887 -0.5398  0.1497
  816MPD2     H12065   1.849   2.015  16.882 -1.0475  0.9159  1.2369
  816MPD2    H112066   1.827   1.604  16.766  0.1337  0.0341 -1.1841
  816MPD2    H212067   1.492   1.776  16.928  0.5229 -0.1616 -2.0898
  816MPD2    H312068   1.617   1.596  16.811 -0.4831 -0.7570  2.6899
  816MPD2     N12069   1.987   1.834  16.775  0.3306  0.1580  0.5058
  816MPD2    H512070   2.033   1.922  16.797 -0.0735  0.9488 -1.7617
  816MPD2    N112071   1.599   2.009  17.003  0.2748 -0.0972 -0.5613
  816MPD2    H712072   1.499   2.011  17.023  0.8152 -0.6907  2.1521
  817MPD2     C12073   1.354   3.632   9.993 -0.0271  0.2775  0.2192
  817MPD2    C112074   1.288   3.568   9.888  0.1812  0.3120  0.1620
  817MPD2    C212075   1.180   3.631   9.833  0.0354 -0.5342  0.9319
  817MPD2    C312076   1.128   3.754   9.867 -0.2941  0.2009 -0.3542
  817MPD2    C412077   1.200   3.826   9.966  0.3278 -0.2182  0.9333
  817MPD2    C512078   1.299   3.755  10.032 -0.2521  0.2478 -0.1599
  817MPD2     H12079   1.129   3.570   9.759  2.2129 -2.7455  1.2613
  817MPD2    H112080   1.162   3.914  10.016  0.2303 -0.0437  0.5516
  817MPD2    H212081   1.442   3.606  10.051 -0.5416 -1.7503  0.0925
  817MPD2    H312082   1.344   3.808  10.114  0.5307  1.0466 -1.1087
  817MPD2     N12083   1.007   3.804   9.802 -1.1231 -0.1198 -0.3987
  817MPD2    H512084   0.968   3.757   9.720 -3.2389 -1.8845  1.6197
  817MPD2    N112085   1.331   3.442   9.833  0.6749  0.0042 -0.2441
  817MPD2    H712086   1.270   3.416   9.756  0.3991  0.0082 -0.0297
  818MPD2     C12087   0.964   3.132  10.254 -0.2060 -0.6762 -0.1390
  818MPD2    C112088   0.838   3.086  10.298  0.3227  0.3743 -0.3701
  818MPD2    C212089   0.814   2.951  10.315  0.7299  0.4436  0.3895
  818MPD2    C312090   0.915   2.862  10.291 -0.1289  0.2950 -0.2672
  818MPD2    C412091   1.040   2.911  10.259 -0.0372  0.3714  0.2783
  818MPD2    C512092   1.066   3.043  10.235  0.8198  0.5641  0.8942
  818MPD2     H12093   0.715   2.914  10.340  1.3177  0.1068  2.2055
  818MPD2    H112094   1.112   2.831  10.247 -2.1120 -1.6295  1.2621
  818MPD2    H212095   0.982   3.235  10.227 -2.9903 -0.1645 -0.0366
  818MPD2    H312096   1.161   3.084  10.206  0.4175 -1.3990 -3.1486
  818MPD2     N12097   0.898   2.720  10.310 -0.5174 -0.3930  0.2855
  818MPD2    H512098   0.980   2.662  10.296 -0.0642  0.2313  0.3882
  818MPD2    N112099   0.732   3.178  10.314 -0.2781  0.3978 -0.0949
  818MPD2    H712100   0.648   3.131  10.346 -0.6622  2.1005  1.3862
  819MPD2     C12101   3.326   0.523  15.458 -0.3778  0.2321 -0.3823
  819MPD2    C112102   3.371   0.401  15.421  0.4189  0.9227  0.4640
  819MPD2    C212103   3.488   0.351  15.479  0.1490  0.2959  0.4575
  819MPD2    C312104   3.551   0.420  15.578 -0.4211  0.9481 -0.1749
  819MPD2    C412105   3.500   0.543  15.616  0.0967 -0.3633  0.2618
  819MPD2    C512106   3.381   0.585  15.566  0.1947  0.1411 -0.0548
  819MPD2     H12107   3.529   0.254  15.451  2.4419  1.7920 -1.4651
  819MPD2    H112108   3.541   0.608  15.692 -0.8389  0.1242  0.3447
  819MPD2    H212109   3.235   0.563  15.414  0.7755  0.8474 -2.2396
  819MPD2    H312110   3.339   0.672  15.616  0.0673 -0.6660  1.2457
  819MPD2     N12111   3.663   0.359  15.641 -0.3523  0.3304 -0.3530
  819MPD2    H512112   3.703   0.274  15.604 -1.0700  0.5416 -1.6254
  819MPD2    N112113   3.302   0.342  15.312 -0.0828  0.2698 -0.4953
  819MPD2    H712114   3.239   0.408  15.268  0.0777  2.2597  2.2686
  820MPD2     C12115   2.812   0.527  14.486 -0.0646  0.2584  0.1380
  820MPD2    C112116   2.803   0.559  14.619  0.5187  0.0677  0.1440
  820MPD2    C212117   2.888   0.504  14.716 -0.4076 -0.1061 -0.3834
  820MPD2    C312118   2.979   0.416  14.671 -0.0497  0.5355  0.4625
  820MPD2    C412119   3.003   0.405  14.536 -0.4393  0.0403 -0.2516
  820MPD2    C512120   2.921   0.467  14.440 -0.2063  0.0796 -0.4134
  820MPD2     H12121   2.867   0.529  14.820 -0.5032  0.5404 -0.5589
  820MPD2    H112122   3.086   0.345  14.500  0.6782  0.8849  0.9400
  820MPD2    H212123   2.733   0.555  14.417 -0.5034  1.2153  1.0287
  820MPD2    H312124   2.941   0.445  14.335  1.3571  1.7229 -0.4738
  820MPD2     N12125   3.060   0.344  14.759  0.5014  1.0338  0.7742
  820MPD2    H512126   3.128   0.284  14.713  0.9949  2.9289 -1.0097
  820MPD2    N112127   2.680   0.624  14.663  0.1687 -0.6218 -0.0277
  820MPD2    H712128   2.603   0.631  14.597 -1.0705 -0.3880  1.4651
  821MPD2     C12129   3.966   0.812  12.803 -0.8707  0.9229 -0.5956
  821MPD2    C112130   3.929   0.929  12.868 -0.0965 -0.3071  0.3667
  821MPD2    C212131   3.968   1.048  12.811 -1.1701  0.0315 -0.1011
  821MPD2    C312132   4.046   1.051  12.694  0.3963 -0.7104 -0.0862
  821MPD2    C412133   4.086   0.935  12.631  0.3387 -0.3661 -0.0354
  821MPD2    C512134   4.041   0.816  12.687  0.4537  0.2365 -0.1370
  821MPD2     H12135   3.936   1.139  12.862 -0.4265  1.4885 -2.2085
  821MPD2    H112136   4.163   0.938  12.556  0.7669 -1.0506  0.3777
  821MPD2    H212137   3.945   0.716  12.848 -1.0941  1.6058  0.7782
  821MPD2    H312138   4.077   0.718  12.658  1.9106  0.6657  0.1854
  821MPD2     N12139   4.102   1.167  12.641  0.2019  0.0662 -0.4098
  821MPD2    H512140   4.164   1.147  12.563 -2.5174 -1.0575 -2.2398
  821MPD2    N112141   3.867   0.939  12.990  0.0381 -0.2871  0.3426
  821MPD2    H712142   3.818   1.023  13.017  1.7169  1.5482 -2.2350
  822MPD2     C12143   4.382   1.970  15.616 -0.0564 -0.0542  0.5648
  822MPD2    C112144   4.365   1.961  15.749 -0.6686 -0.4891  0.0811
  822MPD2    C212145   4.296   2.060  15.817  0.0161 -0.1612  0.5321
  822MPD2    C312146   4.236   2.167  15.756  1.0211  0.4399 -0.0252
  822MPD2    C412147   4.248   2.178  15.622  0.1020  0.5293  0.3437
  822MPD2    C512148   4.321   2.080  15.557 -0.1039 -0.4348 -0.0956
  822MPD2     H12149   4.263   2.041  15.919  0.1399 -1.6243  0.3063
  822MPD2    H112150   4.215   2.262  15.562 -1.3320  0.6842  1.3440
  822MPD2    H212151   4.452   1.913  15.557  0.1591  1.8130 -1.0029
  822MPD2    H312152   4.331   2.090  15.450  0.0867 -0.6718 -0.0996
  822MPD2     N12153   4.157   2.254  15.832  0.5112 -0.0866 -0.3332
  822MPD2    H512154   4.153   2.230  15.931  0.2752  1.3390 -0.0056
  822MPD2    N112155   4.427   1.866  15.825 -0.2418  0.9246 -0.2684
  822MPD2    H712156   4.414   1.882  15.924 -1.4510  0.3313 -0.3327
  823MPD2     C12157   3.707   2.512  16.515  0.0800 -0.8718 -0.2292
  823MPD2    C112158   3.794   2.434  16.437  0.2593  0.3545  0.0411
  823MPD2    C212159   3.845   2.311  16.484  0.6736  0.5858  0.2058
  823MPD2    C312160   3.810   2.264  16.615  0.1684 -0.1701  0.7478
  823MPD2    C412161   3.722   2.338  16.682  0.2261 -0.4186 -0.1525
  823MPD2    C512162   3.671   2.458  16.636  0.3450 -0.2959 -0.3297
  823MPD2     H12163   3.921   2.253  16.434 -1.3276 -2.1026  0.2412
  823MPD2    H112164   3.673   2.302  16.772  0.1237  1.4517  0.5349
  823MPD2    H212165   3.668   2.604  16.474 -0.3892 -1.4334 -1.0535
  823MPD2    H312166   3.593   2.515  16.685 -1.3569 -2.1616 -0.8362
  823MPD2     N12167   3.837   2.135  16.661  0.1991  0.1311  0.0425
  823MPD2    H512168   3.788   2.119  16.749 -0.0370  2.3254  0.3178
  823MPD2    N112169   3.832   2.487  16.310  0.2505 -0.0060  0.4017
  823MPD2    H712170   3.804   2.583  16.295  1.6553  0.7652  2.6462
  824MPD2     C12171   0.094   1.120  15.981  0.4014  0.2290  0.2906
  824MPD2    C112172   0.046   1.199  15.871 -0.3025  0.5474  0.4710
  824MPD2    C212173   0.065   1.157  15.742  0.1076 -0.2036 -0.6552
  824MPD2    C312174   0.135   1.032  15.718  0.0590 -0.1156  1.5815
  824MPD2    C412175   0.177   0.956  15.823 -0.4426  0.5721  0.4799
  824MPD2    C512176   0.153   0.998  15.953 -0.3115 -0.6577 -0.9122
  824MPD2     H12177   0.029   1.215  15.658 -1.5089  0.2362  0.3518
  824MPD2    H112178   0.225   0.859  15.811 -2.1484  0.0708 -2.4107
  824MPD2    H212179   0.090   1.146  16.086  1.7220 -0.4970  0.5147
  824MPD2    H312180   0.189   0.941  16.038  1.8462  2.3793  0.2144
  824MPD2     N12181   0.159   0.995  15.583 -0.9465  0.1402  0.1017
  824MPD2    H512182   0.107   1.044  15.511 -1.0401 -0.5788 -0.3127
  824MPD2    N112183   4.717   1.320  15.892  0.2366 -0.4011  0.6111
  824MPD2    H712184   4.710   1.380  15.811 -0.9758 -1.9488 -0.4308
  825MPD2     C12185   0.511   1.103  14.829 -0.6414 -0.1263  0.5257
  825MPD2    C112186   0.429   1.154  14.930  0.9198  0.9471 -0.3675
  825MPD2    C212187   0.412   1.293  14.935  0.4585  0.8101  0.3201
  825MPD2    C312188   0.463   1.373  14.834  0.0336 -0.5895  0.3533
  825MPD2    C412189   0.538   1.314  14.736  0.8128 -0.1732  0.3920
  825MPD2    C512190   0.566   1.186  14.740  0.3698  0.7139 -0.0196
  825MPD2     H12191   0.342   1.335  15.007 -1.1006 -2.2099  0.5546
  825MPD2    H112192   0.571   1.370  14.649 -1.5337  1.3668  0.4867
  825MPD2    H212193   0.533   0.997  14.828 -2.3199 -0.5310  3.8445
  825MPD2    H312194   0.615   1.150  14.650  1.3208  0.7719  0.4710
  825MPD2     N12195   0.463   1.516  14.837  0.0840  0.7079  0.1924
  825MPD2    H512196   0.494   1.565  14.754  1.0778  1.8346  1.2205
  825MPD2    N112197   0.370   1.057  15.014  0.0029 -0.2284 -0.5257
  825MPD2    H712198   0.415   0.967  14.998  0.4540  0.0932 -1.0494
  826MPD2     C12199   0.180   0.521  13.626  0.8728  0.0010  0.5128
  826MPD2    C112200   0.144   0.552  13.499 -0.2496 -0.4707  0.8284
  826MPD2    C212201   0.027   0.630  13.485 -0.0183 -0.2010  0.5757
  826MPD2    C312202   4.684   0.657  13.597  0.3055  0.3726  0.3406
  826MPD2    C412203   4.731   0.630  13.721 -0.0935 -0.8189  0.0123
  826MPD2    C512204   0.119   0.575  13.735  0.1065 -0.2491  0.0502
  826MPD2     H12205   0.010   0.666  13.385 -1.4889 -0.8278  0.5921
  826MPD2    H112206   4.685   0.675  13.807  0.7468 -0.9869  0.5535
  826MPD2    H212207   0.270   0.462  13.641  0.4047 -0.7740  0.2616
  826MPD2    H312208   0.147   0.567  13.840 -0.2665 -0.1288  0.1569
  826MPD2     N12209   4.560   0.722  13.590 -0.5535 -0.4676  0.5018
  826MPD2    H512210   4.515   0.739  13.680  0.6016  2.7598  0.4853
  826MPD2    N112211   0.226   0.493  13.398  0.1422  0.1208  0.2111
  826MPD2    H712212   0.294   0.426  13.433 -0.8997 -1.7435 -1.3107
  827MPD2     C12213   1.008   1.529   9.935  1.2520 -0.3440 -0.4510
  827MPD2    C112214   0.945   1.542  10.062 -0.1240 -0.4310 -0.4537
  827MPD2    C212215   0.809   1.572  10.058 -0.4584 -0.1199 -0.2308
  827MPD2    C312216   0.740   1.581   9.940  0.0592 -0.9390  0.3529
  827MPD2    C412217   0.799   1.555   9.818 -0.2328  0.2180  0.3506
  827MPD2    C512218   0.937   1.535   9.819 -0.2434 -0.3394 -0.3428
  827MPD2     H12219   0.745   1.594  10.142  1.0589  1.9064  0.3885
  827MPD2    H112220   0.750   1.558   9.721 -1.2451 -2.0292  0.7832
  827MPD2    H212221   1.114   1.517   9.917  1.0781 -0.8945 -1.1150
  827MPD2    H312222   0.983   1.535   9.721 -2.2939  0.9478 -1.3120
  827MPD2     N12223   0.603   1.602   9.955  0.6565 -0.6885  0.8194
  827MPD2    H512224   0.579   1.622  10.052 -1.7631  0.3820  0.0007
  827MPD2    N112225   1.025   1.521  10.183  0.6137  0.4107 -0.2319
  827MPD2    H712226   1.123   1.498  10.167  0.7907  0.6304  0.5144
  828MPD2     C12227   4.279   2.076  11.809  0.1798 -0.3244  0.3707
  828MPD2    C112228   4.164   2.033  11.749  0.0527 -0.3842 -0.4153
  828MPD2    C212229   4.159   2.016  11.617 -0.7668 -0.4020 -0.2636
  828MPD2    C312230   4.275   2.025  11.540 -0.2196  0.3747  0.2120
  828MPD2    C412231   4.395   2.065  11.603 -0.1525  0.2614  0.2537
  828MPD2    C512232   4.387   2.095  11.735 -0.1788  0.3477 -0.1001
  828MPD2     H12233   4.071   1.969  11.572 -2.1096  1.8903 -0.0220
  828MPD2    H112234   4.484   2.067  11.542  0.4250  0.2745  1.1083
  828MPD2    H212235   4.276   2.100  11.915  1.0399  0.4478  0.2177
  828MPD2    H312236   4.477   2.119  11.790 -1.2225  2.4765  0.6752
  828MPD2     N12237   4.278   2.007  11.397  0.0672  0.1420 -0.0501
  828MPD2    H512238   4.370   2.006  11.355  1.0347 -0.6914  2.0754
  828MPD2    N112239   4.049   1.988  11.814  0.8314  0.5707  0.4434
  828MPD2    H712240   3.981   1.941  11.756 -1.3960 -0.3295  3.7624
  829MPD2     C12241   3.350   2.158  11.397 -0.0881 -0.4637  0.1506
  829MPD2    C112242   3.319   2.037  11.455  0.2380 -0.0621  0.5784
  829MPD2    C212243   3.387   1.994  11.566 -0.6308 -0.7588 -0.2301
  829MPD2    C312244   3.495   2.068  11.608  0.1376 -0.4324  0.7200
  829MPD2    C412245   3.526   2.185  11.545  0.0431  0.5444  0.0922
  829MPD2    C512246   3.451   2.233  11.441  0.1172 -0.2935  0.4561
  829MPD2     H12247   3.339   1.914  11.622 -2.4418  0.2286 -0.3687
  829MPD2    H112248   3.615   2.238  11.579 -0.5553  2.0562 -0.7243
  829MPD2    H212249   3.306   2.192  11.305  2.0871  2.3482  0.1572
  829MPD2    H312250   3.481   2.318  11.381  0.1559  0.4163  1.4995
  829MPD2     N12251   3.587   2.032  11.709  0.6331  0.0837 -0.5154
  829MPD2    H512252   3.667   2.095  11.717  1.2130 -0.5612 -1.2619
  829MPD2    N112253   3.207   1.974  11.405 -1.0414  0.4125 -0.0469
  829MPD2    H712254   3.155   2.024  11.333 -1.0858 -0.4502 -0.6171
  830MPD2     C12255   4.365   0.331  15.902 -0.0305 -1.0841  0.2697
  830MPD2    C112256   4.282   0.321  15.793  0.2537 -0.0117 -0.5462
  830MPD2    C212257   4.291   0.399  15.677  1.1048  0.1063 -0.6554
  830MPD2    C312258   4.393   0.495  15.672  0.2033 -0.1235  0.6517
  830MPD2    C412259   4.478   0.503  15.784  0.2345  0.6747 -0.2622
  830MPD2    C512260   4.463   0.423  15.894 -0.1546 -0.0671  0.0882
  830MPD2     H12261   4.216   0.387  15.600 -0.0579 -0.9159  0.6518
  830MPD2    H112262   4.562   0.572  15.780  1.3984 -0.6299  1.6771
  830MPD2    H212263   4.355   0.267  15.988 -0.5697 -2.2265 -0.6479
  830MPD2    H312264   4.539   0.432  15.970  1.4899 -1.1634 -1.4255
  830MPD2     N12265   4.381   0.612  15.594 -0.0907 -0.3863 -0.7111
  830MPD2    H512266   4.429   0.692  15.633 -0.3561  0.0038 -1.1920
  830MPD2    N112267   4.172   0.230  15.802 -0.2928  0.2605 -0.7118
  830MPD2    H712268   4.149   0.187  15.891  1.0916 -1.5925 -1.2614
  831MPD2     C12269   4.373   2.412  16.155 -0.0949  0.2678 -0.7948
  831MPD2    C112270   4.418   2.292  16.098 -0.4309  0.3016 -0.3884
  831MPD2    C212271   4.357   2.173  16.140 -0.3893 -0.2554  0.2910
  831MPD2    C312272   4.234   2.178  16.214  0.0978  0.3983 -1.4725
  831MPD2    C412273   4.194   2.298  16.269 -0.5901 -0.2361  0.0002
  831MPD2    C512274   4.258   2.413  16.231  0.4282  0.4455 -0.7009
  831MPD2     H12275   4.396   2.080  16.101 -2.8542 -1.3545  0.4186
  831MPD2    H112276   4.108   2.319  16.332 -0.3021  1.9658 -0.3435
  831MPD2    H212277   4.421   2.508  16.142 -3.2282  1.7431 -1.4451
  831MPD2    H312278   4.220   2.500  16.283 -1.1815  0.0944 -1.3002
  831MPD2     N12279   4.145   2.070  16.227  0.2264 -0.2069 -0.2892
  831MPD2    H512280   4.057   2.095  16.272  0.2742  1.0773 -0.8958
  831MPD2    N112281   4.537   2.294  16.009 -0.4679 -0.4568 -0.0718
  831MPD2    H712282   4.581   2.379  15.975  1.6339 -1.2691  0.6238
  832MPD2     C12283   2.514   2.819  17.109  0.2434  0.3111 -0.3720
  832MPD2    C112284   2.508   2.958  17.091 -0.2785 -0.5349 -0.6413
  832MPD2    C212285   2.402   3.010  17.019 -0.8034  0.4151  0.0176
  832MPD2    C312286   2.306   2.924  16.968 -0.3476 -0.9035  0.2476
  832MPD2    C412287   2.305   2.789  16.992 -0.3321 -0.1651  0.2007
  832MPD2    C512288   2.414   2.737  17.061  0.5012 -1.3761 -0.0014
  832MPD2     H12289   2.390   3.116  17.001 -1.9932  0.3754  0.5211
  832MPD2    H112290   2.228   2.725  16.950  0.5384  0.3160 -2.1369
  832MPD2    H212291   2.604   2.778  17.153 -0.5289  1.1287  1.9448
  832MPD2    H312292   2.429   2.631  17.078 -0.4088 -1.7989 -1.8158
  832MPD2     N12293   2.198   2.973  16.892  0.0227  1.1079  0.0480
  832MPD2    H512294   2.122   2.916  16.857 -0.0351  0.8571  0.5723
  832MPD2    N112295   2.608   3.038  17.151 -0.2748 -0.1625 -0.5471
  832MPD2    H712296   2.669   2.975  17.203 -2.5150  0.0856  2.3873
  833MPD2     C12297   4.208   3.946  12.493 -0.4197  0.2219 -0.7495
  833MPD2    C112298   4.272   4.060  12.460  0.1583 -1.3870  0.2874
  833MPD2    C212299   4.397   4.064  12.411  0.3721 -0.3391  0.2628
  833MPD2    C312300   4.463   3.938  12.391  0.2083  0.3451 -0.7123
  833MPD2    C412301   4.403   3.823  12.428 -0.0574  0.1496  0.7907
  833MPD2    C512302   4.280   3.831  12.479 -0.1859  1.1133  0.3641
  833MPD2     H12303   4.434   4.157  12.370  0.3594 -0.6549 -0.4534
  833MPD2    H112304   4.443   3.722  12.419  0.9082  0.5519  0.5724
  833MPD2    H212305   4.107   3.951  12.532 -0.2954 -1.2946 -0.1988
  833MPD2    H312306   4.237   3.739  12.516 -0.5165  1.1746  0.1295
  833MPD2     N12307   4.587   3.929  12.316  0.3052 -0.1151 -1.3037
  833MPD2    H512308   4.624   3.837  12.292 -0.6315 -0.6810 -0.5500
  833MPD2    N112309   4.190   4.175  12.457 -0.2225  0.0308 -0.3991
  833MPD2    H712310   4.092   4.161  12.480 -0.1093  0.2518  0.1979
  834MPD2     C12311   4.338   3.722  11.479  0.4760  0.6996 -0.4622
  834MPD2    C112312   4.400   3.831  11.440 -0.2581 -0.8247  0.5269
  834MPD2    C212313   4.484   3.902  11.522 -0.9604 -0.3095  0.5727
  834MPD2    C312314   4.499   3.858  11.656  0.0513 -0.6472 -0.1221
  834MPD2    C412315   4.431   3.745  11.690  0.0532 -0.0717 -0.1762
  834MPD2    C512316   4.342   3.683  11.605  0.4353 -0.3572 -0.0633
  834MPD2     H12317   4.535   3.994  11.497 -0.4806 -0.3909  1.2383
  834MPD2    H112318   4.437   3.704  11.790  0.3151  1.3074  0.3740
  834MPD2    H212319   4.280   3.653  11.418  4.0658 -2.5961 -0.2004
  834MPD2    H312320   4.299   3.597  11.655 -0.2010 -0.7111 -1.2203
  834MPD2     N12321   4.582   3.931  11.750 -0.0815 -0.2270  0.4372
  834MPD2    H512322   4.623   4.017  11.715 -2.2072  1.5761  2.3858
  834MPD2    N112323   4.381   3.872  11.309  0.2540 -0.3827 -0.1903
  834MPD2    H712324   4.303   3.827  11.262 -0.2471 -0.7388  0.9834
  835MPD2     C12325   3.926   2.235  10.726 -0.0188 -0.0465  0.2358
  835MPD2    C112326   3.850   2.277  10.830 -0.4313  0.5172  0.3711
  835MPD2    C212327   3.916   2.323  10.945 -0.5468 -0.4752 -0.6078
  835MPD2    C312328   4.054   2.316  10.951  0.3377  0.0477  0.2875
  835MPD2    C412329   4.133   2.268  10.844 -0.0333 -0.3158  0.0450
  835MPD2    C512330   4.066   2.228  10.733  0.2133  1.0782 -0.1415
  835MPD2     H12331   3.860   2.367  11.027  1.6302 -0.1410  0.7176
  835MPD2    H112332   4.241   2.261  10.843  0.0029  0.1048  0.7991
  835MPD2    H212333   3.875   2.196  10.639  2.5519 -0.9317 -0.8846
  835MPD2    H312334   4.140   2.196  10.661 -1.7497 -0.4493 -1.4919
  835MPD2     N12335   4.129   2.357  11.065 -0.6260  0.2992 -0.1971
  835MPD2    H512336   4.229   2.362  11.046 -0.3793  1.6247  1.4263
  835MPD2    N112337   3.703   2.275  10.828  0.3877  0.0299 -0.0900
  835MPD2    H712338   3.663   2.282  10.921  0.8086  0.0982  0.0882
  836MPD2     C12339   3.866   2.293  11.790 -0.1538 -0.1084  0.6018
  836MPD2    C112340   3.988   2.351  11.790 -0.7492  0.5992  0.3678
  836MPD2    C212341   4.047   2.389  11.908 -0.3893  0.0171 -0.3063
  836MPD2    C312342   3.981   2.353  12.028  0.1775  0.2386  0.6967
  836MPD2    C412343   3.873   2.272  12.032 -0.9502  0.7102  0.2306
  836MPD2    C512344   3.804   2.267  11.915 -0.2827  0.2699  0.1192
  836MPD2     H12345   4.142   2.440  11.905 -0.2951 -0.1801 -0.7453
  836MPD2    H112346   3.822   2.252  12.125  1.2677  0.1716  1.3101
  836MPD2    H212347   3.817   2.281  11.694 -1.5213 -1.7393  1.5093
  836MPD2    H312348   3.707   2.218  11.919 -0.5911  1.0027  1.6766
  836MPD2     N12349   4.029   2.393  12.153 -0.2525  0.2148  0.0736
  836MPD2    H512350   3.993   2.350  12.238  0.5877 -0.3227  0.1568
  836MPD2    N112351   4.061   2.371  11.670 -0.4059 -0.2707  0.0727
  836MPD2    H712352   4.012   2.347  11.585 -0.1301  2.7919 -0.9415
  837MPD2     C12353   2.632   1.904   9.504  0.0434  0.3105  0.3187
  837MPD2    C112354   2.500   1.917   9.551  0.1784  1.0745 -0.9149
  837MPD2    C212355   2.487   1.990   9.668 -0.6530  0.0062  0.1847
  837MPD2    C312356   2.600   2.048   9.735  0.5405 -0.9830 -0.0201
  837MPD2    C412357   2.729   2.026   9.694 -0.0675  1.1228 -0.2161
  837MPD2    C512358   2.744   1.957   9.576 -0.1147 -0.4266  0.1475
  837MPD2     H12359   2.385   2.011   9.697 -0.9283  0.8209 -1.3558
  837MPD2    H112360   2.820   2.058   9.744  0.8702  0.2073 -1.3317
  837MPD2    H212361   2.652   1.842   9.418 -1.1730  1.3257 -0.7052
  837MPD2    H312362   2.843   1.938   9.535 -0.5038 -1.3814 -0.3552
  837MPD2     N12363   2.569   2.121   9.850  0.2615 -0.0319 -0.0101
  837MPD2    H512364   2.475   2.113   9.888  0.2496 -1.4888 -0.3447
  837MPD2    N112365   2.383   1.872   9.486  0.2263 -0.0297  0.3659
  837MPD2    H712366   2.296   1.906   9.526  1.3531  0.5393  2.2961
  838MPD2     C12367   1.078   0.137  11.713  0.2994  0.2465 -0.0483
  838MPD2    C112368   1.115   0.005  11.699  0.8509 -0.4062 -0.5038
  838MPD2    C212369   1.027   4.644  11.743  0.0307  0.7321  0.4500
  838MPD2    C312370   0.907   4.669  11.810  0.1118  0.3828  0.6207
  838MPD2    C412371   0.871   0.070  11.814 -0.2268 -0.0912 -0.5768
  838MPD2    C512372   0.957   0.167  11.773  0.1667  0.9506  0.4685
  838MPD2     H12373   1.065   4.543  11.739  1.1626  1.1703  0.0764
  838MPD2    H112374   0.772   0.105  11.841  0.0949  0.8793 -0.6724
  838MPD2    H212375   1.140   0.217  11.676  1.3941 -0.4366  0.2839
  838MPD2    H312376   0.920   0.268  11.762  0.4416  1.0380  0.3384
  838MPD2     N12377   0.829   4.560  11.851  0.6689  0.5785  0.0257
  838MPD2    H512378   0.861   4.463  11.846 -0.7639  0.1638 -1.2596
  838MPD2    N112379   1.233   4.692  11.633 -0.1882  0.0815  0.8080
  838MPD2    H712380   1.234   4.591  11.623  1.8152  0.2037 -0.1644
  839MPD2     C12381   0.898   4.233  11.792 -0.1008 -0.2885 -0.0408
  839MPD2    C112382   0.900   4.225  11.654  0.0375  0.3976  0.3521
  839MPD2    C212383   1.013   4.248  11.575  0.8336  0.5747 -0.0902
  839MPD2    C312384   1.129   4.284  11.640  0.2851  0.0240 -0.7730
  839MPD2    C412385   1.131   4.290  11.781  0.3262 -0.3348  0.1642
  839MPD2    C512386   1.020   4.260  11.852  0.0653 -0.1563  0.1407
  839MPD2     H12387   1.002   4.246  11.467 -1.8287  0.7608  0.1982
  839MPD2    H112388   1.222   4.308  11.837  0.0445  1.1581  0.1421
  839MPD2    H212389   0.815   4.217  11.860 -0.8509  1.4176 -0.5761
  839MPD2    H312390   1.033   4.279  11.958  0.0925 -1.8651  0.4349
  839MPD2     N12391   1.239   4.348  11.572 -0.0119 -0.3114  0.5412
  839MPD2    H512392   1.312   4.382  11.635 -0.6296 -0.0125  1.1042
  839MPD2    N112393   0.778   4.188  11.585 -0.4168  0.6583  0.1189
  839MPD2    H712394   0.785   4.198  11.484 -0.9198  2.0031  0.2209
  840MPD2     C12395   1.485   1.804  10.106  0.2226  0.4457 -0.3489
  840MPD2    C112396   1.488   1.800  10.245  0.8521 -0.2292  0.6530
  840MPD2    C212397   1.533   1.910  10.316  0.0527  0.2781 -0.1196
  840MPD2    C312398   1.555   2.030  10.252 -0.4893  0.6713 -0.3666
  840MPD2    C412399   1.552   2.033  10.114 -0.3911  0.2626 -0.1408
  840MPD2    C512400   1.516   1.922  10.044 -0.0850  0.2509 -0.3948
  840MPD2     H12401   1.542   1.903  10.424  0.4351 -1.5555 -0.2772
  840MPD2    H112402   1.570   2.121  10.053 -0.1367  0.1388 -0.2421
  840MPD2    H212403   1.475   1.710  10.053 -1.8654  0.8233 -0.6176
  840MPD2    H312404   1.511   1.925   9.936  1.2322  0.7125 -0.4397
  840MPD2     N12405   1.572   2.153  10.321 -0.3889 -0.0410 -0.3072
  840MPD2    H512406   1.588   2.238  10.268 -2.2932  0.4322 -0.0983
  840MPD2    N112407   1.441   1.679  10.307 -0.2704  0.4756  0.4125
  840MPD2    H712408   1.392   1.619  10.241  0.6568 -0.8959  0.9818
  841MPD2     C12409   1.278   2.180  13.884 -0.8019  0.0565  0.5561
  841MPD2    C112410   1.298   2.104  14.002 -0.9592 -1.1577  0.5664
  841MPD2    C212411   1.388   2.154  14.095 -0.4179  0.1645 -0.8103
  841MPD2    C312412   1.448   2.278  14.072  0.1067 -0.8965  0.2862
  841MPD2    C412413   1.432   2.348  13.952  0.6953  0.3199  0.2417
  841MPD2    C512414   1.351   2.297  13.860 -0.4999  0.3683 -0.1554
  841MPD2     H12415   1.388   2.095  14.185  3.9429  1.8398  0.2872
  841MPD2    H112416   1.476   2.445  13.932 -3.1521  1.6083 -2.0469
  841MPD2    H212417   1.200   2.154  13.812 -1.7226 -0.7627  1.8424
  841MPD2    H312418   1.343   2.349  13.765  3.0549  0.3988 -0.4149
  841MPD2     N12419   1.520   2.340  14.182  0.1080  0.2268 -0.4405
  841MPD2    H512420   1.528   2.273  14.259 -1.2860  0.7579  0.1765
  841MPD2    N112421   1.235   1.986  14.036  0.1848 -0.3923 -0.4883
  841MPD2    H712422   1.259   1.941  14.123 -0.0318  0.9296  0.2432
  842MPD2     C12423   1.817   3.454  16.776  0.0885  0.3448 -0.7739
  842MPD2    C112424   1.706   3.375  16.761 -0.3254 -0.0439 -0.2034
  842MPD2    C212425   1.663   3.293  16.869 -0.2357  0.3011 -0.7756
  842MPD2    C312426   1.717   3.314  16.996 -0.0299 -0.7870  0.2942
  842MPD2    C412427   1.833   3.383  16.998  0.2694  0.6512  0.3397
  842MPD2    C512428   1.879   3.457  16.891  0.0096  0.1105  0.3799
  842MPD2     H12429   1.570   3.238  16.860 -0.2836  0.5158 -1.6345
  842MPD2    H112430   1.887   3.392  17.091 -0.1853  1.0168  0.5716
  842MPD2    H212431   1.858   3.512  16.694  0.4573 -2.3134 -2.4604
  842MPD2    H312432   1.965   3.523  16.890  1.2845 -1.5437  1.8340
  842MPD2     N12433   1.666   3.274  17.124  0.2092  0.1523  0.5963
  842MPD2    H512434   1.729   3.297  17.200 -0.8990  2.7182  0.7286
  842MPD2    N112435   1.644   3.380  16.638  0.1332 -0.2169  0.3524
  842MPD2    H712436   1.681   3.456  16.582 -1.4006 -0.2780 -0.7466
  843MPD2     C12437   3.746   4.081   0.838 -0.3654 -0.3208  0.0194
  843MPD2    C112438   3.881   4.105   0.863 -0.0233 -0.5058  0.3127
  843MPD2    C212439   3.957   4.189   0.780 -0.0937  0.0494 -0.2124
  843MPD2    C312440   3.898   4.249   0.672 -0.3210 -0.0334  0.4325
  843MPD2    C412441   3.768   4.220   0.642 -0.2461  0.6158  0.1759
  843MPD2    C512442   3.698   4.137   0.724  0.2269 -0.1945 -0.8488
  843MPD2     H12443   4.064   4.205   0.790  0.1026 -1.5323  0.3182
  843MPD2    H112444   3.711   4.275   0.567 -0.4823 -0.0783 -0.1525
  843MPD2    H212445   3.688   4.013   0.899 -3.5112 -0.5258 -3.2213
  843MPD2    H312446   3.594   4.133   0.693 -0.4723 -1.1263  1.6109
  843MPD2     N12447   3.964   4.343   0.583 -0.3197 -0.0551  0.4038
  843MPD2    H512448   3.913   4.374   0.501  0.6923 -0.9689 -0.5751
  843MPD2    N112449   3.934   4.056   0.983  0.0242  0.5331 -0.8316
  843MPD2    H712450   3.869   3.995   1.031 -2.1382  2.4822 -1.2949
  844MPD2     C12451   2.343   2.683  16.489  0.5864  0.4213  0.0626
  844MPD2    C112452   2.455   2.641  16.425  0.0922 -0.4587  0.6718
  844MPD2    C212453   2.575   2.664  16.490  0.4616 -0.7253  1.0187
  844MPD2    C312454   2.584   2.730  16.618  0.1833 -0.1454  0.2433
  844MPD2    C412455   2.469   2.766  16.677  0.1759  0.3281 -0.5784
  844MPD2    C512456   2.344   2.733  16.618 -0.0858 -0.1804 -1.2368
  844MPD2     H12457   2.669   2.657  16.435  0.3322  0.3855  0.6628
  844MPD2    H112458   2.465   2.795  16.781 -0.6690 -1.5185 -0.0831
  844MPD2    H212459   2.244   2.666  16.449  0.6801 -0.6474  0.2779
  844MPD2    H312460   2.250   2.746  16.669  0.4567  0.3095 -0.3530
  844MPD2     N12461   2.716   2.753  16.675  0.0819 -0.1442  0.0774
  844MPD2    H512462   2.796   2.709  16.630  1.0117  2.4008 -0.7260
  844MPD2    N112463   2.464   2.577  16.300  0.3265 -0.4926  0.1647
  844MPD2    H712464   2.556   2.567  16.258 -0.1571  0.1184 -1.0178
  845MPD2     C12465   3.216   3.606  16.884  0.8507 -0.4074  0.0402
  845MPD2    C112466   3.082   3.583  16.899 -0.4196  0.4087  0.0548
  845MPD2    C212467   3.031   3.458  16.897 -0.4508  0.0012  0.0026
  845MPD2    C312468   3.113   3.345  16.880 -0.6014 -0.7232 -0.4650
  845MPD2    C412469   3.251   3.361  16.879  0.3795  0.4436 -0.9958
  845MPD2    C512470   3.303   3.491  16.883  0.1434 -0.1663  0.4519
  845MPD2     H12471   2.924   3.440  16.905 -0.1137 -1.7296  0.5937
  845MPD2    H112472   3.323   3.280  16.878  1.8406  1.7119  0.0339
  845MPD2    H212473   3.250   3.709  16.892  1.3586 -0.5136 -0.7656
  845MPD2    H312474   3.410   3.501  16.865 -0.1300  1.8773 -0.0899
  845MPD2     N12475   3.042   3.221  16.884 -0.1703  0.3592  0.2729
  845MPD2    H512476   2.943   3.230  16.867 -0.7606 -2.1048  2.5291
  845MPD2    N112477   3.001   3.701  16.930 -0.0233 -0.8843 -0.3759
  845MPD2    H712478   3.061   3.782  16.922 -0.6431 -0.6944 -3.0422
  846MPD2     C12479   3.947   3.652  13.444  0.1295  0.8503 -0.1116
  846MPD2    C112480   3.841   3.733  13.447 -0.4539  0.6602 -0.5937
  846MPD2    C212481   3.798   3.779  13.573  0.0602  0.4732 -1.0859
  846MPD2    C312482   3.872   3.747  13.694  0.1231  0.6383 -0.3323
  846MPD2    C412483   3.985   3.664  13.677  0.0563 -0.0080 -0.1617
  846MPD2    C512484   4.025   3.618  13.554 -0.3580  0.2964 -0.9049
  846MPD2     H12485   3.723   3.857  13.571 -0.7862 -0.2901  1.1713
  846MPD2    H112486   4.046   3.634  13.762  2.0204 -0.9896 -1.9378
  846MPD2    H212487   3.985   3.613  13.350 -0.2551  0.5194 -0.1283
  846MPD2    H312488   4.122   3.572  13.543 -1.1058 -1.8272  1.3478
  846MPD2     N12489   3.825   3.784  13.826  0.2862  0.1698 -0.0795
  846MPD2    H512490   3.726   3.805  13.831  0.4384  0.8751 -0.0557
  846MPD2    N112491   3.767   3.779  13.332  0.3901 -0.9388 -0.3957
  846MPD2    H712492   3.702   3.855  13.345 -0.0221 -1.1310 -1.3115
  847MPD2     C12493   3.772   0.390  15.144 -0.4619 -0.1973  0.2827
  847MPD2    C112494   3.895   0.440  15.099 -0.3886  0.6492  0.0468
  847MPD2    C212495   4.011   0.385  15.141  0.3391  0.6173 -0.2036
  847MPD2    C312496   4.020   0.280  15.230 -0.1305  0.4027  0.0987
  847MPD2    C412497   3.897   0.227  15.283  0.1219 -0.0170 -0.1084
  847MPD2    C512498   3.778   0.277  15.229  0.0004 -0.1968 -0.3362
  847MPD2     H12499   4.100   0.440  15.115 -0.8330  2.2400 -0.7860
  847MPD2    H112500   3.891   0.144  15.352  1.7392 -0.5733 -0.6226
  847MPD2    H212501   3.675   0.415  15.103  0.5179  0.9702 -1.3330
  847MPD2    H312502   3.689   0.228  15.265  1.3535 -1.0850  1.7910
  847MPD2     N12503   4.133   0.221  15.271  0.7357  1.0880  0.1167
  847MPD2    H512504   4.127   0.171  15.359  0.2672 -0.5329 -0.8460
  847MPD2    N112505   3.908   0.550  15.010  0.0264 -0.4154  1.0046
  847MPD2    H712506   3.999   0.565  14.969 -0.2588 -1.3011  0.0454
  848MPD2     C12507   1.941   3.314  16.183  0.8624 -0.0588  0.0394
  848MPD2    C112508   2.028   3.352  16.281 -0.3355  0.1006 -0.0616
  848MPD2    C212509   2.130   3.449  16.262  0.1767 -1.2165  0.1264
  848MPD2    C312510   2.137   3.508  16.137  0.0049 -0.6252 -0.1381
  848MPD2    C412511   2.048   3.473  16.044  0.5175  0.2480 -0.5169
  848MPD2    C512512   1.950   3.376  16.065  0.2224 -0.1142 -0.2509
  848MPD2     H12513   2.194   3.487  16.341 -0.5256 -1.4219  0.7929
  848MPD2    H112514   2.045   3.528  15.951  2.5767  0.7980 -0.2643
  848MPD2    H212515   1.856   3.250  16.205  1.9561 -0.1543  4.0963
  848MPD2    H312516   1.877   3.364  15.985  0.9993 -0.2101 -0.9426
  848MPD2     N12517   2.207   3.629  16.111 -0.5694  0.0473  0.8069
  848MPD2    H512518   2.200   3.670  16.018 -1.0351 -1.5954  0.1064
  848MPD2    N112519   2.012   3.290  16.408  0.3659 -0.2571  0.2249
  848MPD2    H712520   2.091   3.313  16.467  0.0318  3.0100 -0.6061
  849MPD2     C12521   0.803   2.680  14.258 -0.4117 -0.3864 -0.6690
  849MPD2    C112522   0.895   2.779  14.231  0.1074 -0.0683  0.2880
  849MPD2    C212523   0.957   2.846  14.342  0.2829  0.0216  0.3319
  849MPD2    C312524   0.928   2.819  14.476  0.4229 -0.0365  0.3218
  849MPD2    C412525   0.841   2.711  14.499 -0.0676  0.2710 -0.4127
  849MPD2    C512526   0.784   2.648  14.391  1.4220  0.4443 -0.0048
  849MPD2     H12527   1.034   2.918  14.315 -0.3024  0.8787  0.9533
  849MPD2    H112528   0.807   2.672  14.595 -0.2642  0.1264 -0.5419
  849MPD2    H212529   0.751   2.620  14.184 -1.1024 -1.5308  0.7566
  849MPD2    H312530   0.721   2.562  14.411  1.9375 -0.0280 -0.3964
  849MPD2     N12531   0.996   2.865  14.590 -0.1239  0.2137 -0.3217
  849MPD2    H512532   0.980   2.822  14.681  0.4645 -1.3201 -0.9409
  849MPD2    N112533   0.916   2.813  14.095 -0.6569  0.1158 -0.2526
  849MPD2    H712534   0.889   2.750  14.020 -0.4715  1.7107 -1.6678
  850MPD2     C12535   3.996   1.242  14.595 -0.3468  0.2315  0.2943
  850MPD2    C112536   4.002   1.355  14.668  0.0088  0.2373  0.0911
  850MPD2    C212537   4.123   1.393  14.715  0.2186  0.2129 -0.0729
  850MPD2    C312538   4.230   1.308  14.707 -0.3867  0.5238 -0.4076
  850MPD2    C412539   4.217   1.186  14.637 -0.6444  0.0751  0.5195
  850MPD2    C512540   4.101   1.155  14.586  0.0772  0.7059  0.1498
  850MPD2     H12541   4.141   1.487  14.767 -0.3038  0.1366  0.2423
  850MPD2    H112542   4.298   1.113  14.629  0.3665  1.4229 -1.5958
  850MPD2    H212543   3.901   1.214  14.551  1.0775 -2.0881 -1.3483
  850MPD2    H312544   4.096   1.064  14.528  0.6348  0.3474  0.6656
  850MPD2     N12545   4.347   1.332  14.776  0.6830  0.5462  0.1578
  850MPD2    H512546   4.402   1.247  14.785 -2.0884 -1.5094 -2.2275
  850MPD2    N112547   3.874   1.419  14.680 -0.3250 -0.2604 -0.4403
  850MPD2    H712548   3.799   1.364  14.638 -1.3842 -0.6100  1.9517
  851MPD2     C12549   4.393   1.566  15.348 -0.3890  0.3181  1.3138
  851MPD2    C112550   4.285   1.498  15.298  0.8565  0.1932 -0.6853
  851MPD2    C212551   4.271   1.367  15.347  0.3593 -0.0741  0.5703
  851MPD2    C312552   4.358   1.304  15.429  0.4168 -0.0233 -0.0299
  851MPD2    C412553   4.463   1.377  15.477 -0.4021  0.1061 -0.1245
  851MPD2    C512554   4.480   1.500  15.430  0.2432  0.8529  0.4855
  851MPD2     H12555   4.201   1.304  15.294 -0.8907  0.4029  1.6571
  851MPD2    H112556   4.541   1.328  15.534 -0.0600 -0.9609 -1.5003
  851MPD2    H212557   4.416   1.669  15.321 -0.9673  0.0467 -0.1760
  851MPD2    H312558   4.572   1.550  15.460  0.2858  0.1651  1.4963
  851MPD2     N12559   4.329   1.176  15.463  0.5427 -0.2224 -0.0849
  851MPD2    H512560   4.241   1.146  15.423 -0.1114 -1.0780  1.9730
  851MPD2    N112561   4.205   1.565  15.201 -0.3373  0.1266  0.6324
  851MPD2    H712562   4.243   1.652  15.166 -0.9952 -1.2663 -3.6524
  852MPD2     C12563   4.052   3.327  10.281  0.1954 -0.1809  0.3144
  852MPD2    C112564   3.990   3.419  10.199  0.2485 -0.4489  0.1164
  852MPD2    C212565   4.070   3.524  10.152 -0.5499  0.6228 -0.0533
  852MPD2    C312566   4.202   3.534  10.188  0.5545 -0.1595  0.9848
  852MPD2    C412567   4.255   3.448  10.282 -0.1609  0.2710 -0.6015
  852MPD2    C512568   4.177   3.343  10.325  0.3035  0.1606  0.2190
  852MPD2     H12569   4.032   3.597  10.081 -0.1081  1.2921  0.3936
  852MPD2    H112570   4.355   3.454  10.323 -0.1844 -1.1867 -0.3524
  852MPD2    H212571   4.002   3.235  10.309 -0.2322 -0.9604 -3.0104
  852MPD2    H312572   4.227   3.270  10.387  0.7285  1.2852  1.1710
  852MPD2     N12573   4.272   3.649  10.139  0.3945  0.1140 -0.0292
  852MPD2    H512574   4.220   3.732  10.110  2.4382  1.3581 -0.1135
  852MPD2    N112575   3.860   3.426  10.152 -0.5352  0.0684  0.0350
  852MPD2    H712576   3.842   3.498  10.083 -0.5951  0.8492  0.8664
  853MPD2     C12577   1.070   3.066  12.244  0.5470  0.3003 -0.3517
  853MPD2    C112578   0.935   3.077  12.276  0.3856  0.2815  0.0389
  853MPD2    C212579   0.850   3.058  12.163 -0.4414 -0.4095  0.5554
  853MPD2    C312580   0.898   3.023  12.035  0.5299 -0.8809  0.2955
  853MPD2    C412581   1.033   3.016  12.012  0.1508  0.2930 -0.2588
  853MPD2    C512582   1.121   3.036  12.117 -0.1229 -0.1064  0.1887
  853MPD2     H12583   0.742   3.060  12.169 -0.3713  1.7008  0.9398
  853MPD2    H112584   1.070   2.989  11.915 -0.0840 -0.8101 -0.0389
  853MPD2    H212585   1.151   3.088  12.313  1.7411  0.3466 -1.7679
  853MPD2    H312586   1.226   3.019  12.096 -0.2458  0.8518 -1.1748
  853MPD2     N12587   0.813   3.010  11.922 -0.0447  0.1113  0.3540
  853MPD2    H512588   0.860   2.965  11.844 -0.4477  0.2006  0.0584
  853MPD2    N112589   0.896   3.120  12.405 -0.5818  0.5663  0.3780
  853MPD2    H712590   0.959   3.119  12.485  0.0106 -1.5785 -0.1316
  854MPD2     C12591   2.170   3.452  12.932 -0.3040 -0.6604 -0.0085
  854MPD2    C112592   2.216   3.466  12.805 -0.1286 -0.0534  0.1432
  854MPD2    C212593   2.346   3.444  12.774  0.0467  0.3317 -0.1853
  854MPD2    C312594   2.435   3.388  12.876 -0.3838 -0.7170  0.1823
  854MPD2    C412595   2.383   3.372  13.006  0.2034  0.8040 -0.7537
  854MPD2    C512596   2.252   3.403  13.032  0.1714 -0.2398  0.1245
  854MPD2     H12597   2.380   3.447  12.671 -2.8664 -1.6219 -1.1860
  854MPD2    H112598   2.442   3.337  13.090  1.4429 -0.1934 -2.0307
  854MPD2    H212599   2.071   3.488  12.958  0.6490  3.6167 -2.2864
  854MPD2    H312600   2.220   3.412  13.135  0.1894  2.3354 -0.1159
  854MPD2     N12601   2.566   3.352  12.849 -0.1121 -0.5307  0.1199
  854MPD2    H512602   2.625   3.341  12.931  1.4453 -0.2465 -0.9663
  854MPD2    N112603   2.125   3.515  12.708  0.3566  0.6872 -0.3825
  854MPD2    H712604   2.170   3.552  12.625  2.3394  0.9674  0.8162
  855MPD2     C12605   2.991   3.482  13.449  0.2566 -0.0607  0.5400
  855MPD2    C112606   2.983   3.356  13.387  0.0383 -0.2339  1.0974
  855MPD2    C212607   3.004   3.362  13.247 -0.0677 -0.0893 -0.1870
  855MPD2    C312608   3.001   3.479  13.173 -0.1148 -0.2869 -0.6084
  855MPD2    C412609   3.005   3.595  13.232  0.2023 -0.9793  0.6769
  855MPD2    C512610   3.016   3.595  13.370 -0.5399  0.3228  0.4651
  855MPD2     H12611   3.009   3.271  13.188  0.9296  0.9734 -1.7434
  855MPD2    H112612   3.014   3.689  13.178  0.9034 -1.5237 -0.1574
  855MPD2    H212613   2.982   3.489  13.557 -0.9331  0.4628  0.3983
  855MPD2    H312614   3.037   3.692  13.413  1.0299  0.2468 -0.1500
  855MPD2     N12615   3.010   3.480  13.026 -0.5313  0.1283  0.4214
  855MPD2    H512616   3.001   3.569  12.979 -1.6656  0.0985  0.5901
  855MPD2    N112617   2.978   3.233  13.461 -0.0284  1.0692 -0.1675
  855MPD2    H712618   2.968   3.233  13.562  1.5295 -2.0564 -0.0043
  856MPD2     C12619   4.636   4.344  13.255 -0.0128 -0.4744  0.0275
  856MPD2    C112620   4.649   4.437  13.358 -0.0363 -0.2752 -0.0122
  856MPD2    C212621   4.554   4.537  13.378 -0.4434  0.0668 -0.0592
  856MPD2    C312622   4.433   4.534  13.308  0.3057 -0.2994 -0.1127
  856MPD2    C412623   4.426   4.438  13.206  0.5029  0.1811 -0.1600
  856MPD2    C512624   4.525   4.347  13.172  1.4640  0.4231 -0.3682
  856MPD2     H12625   4.561   4.610  13.457  0.6285 -0.1225  0.0174
  856MPD2    H112626   4.338   4.446  13.142  0.6283 -5.3385 -1.0556
  856MPD2    H212627   4.719   4.282  13.226  0.2056  0.5718 -1.5592
  856MPD2    H312628   4.511   4.287  13.083 -2.5518 -0.1876  0.6782
  856MPD2     N12629   4.329   4.629  13.329 -0.5819 -0.4977  0.1630
  856MPD2    H512630   4.246   4.621  13.270 -1.3191  1.3323  0.9608
  856MPD2    N112631   0.026   4.435  13.436 -0.0249 -0.1561  0.0648
  856MPD2    H712632   0.047   4.519  13.489  0.1731 -0.5953  0.6873
  857MPD2     C12633   1.423   1.354  12.477  0.1321 -0.6201 -0.2377
  857MPD2    C112634   1.554   1.325  12.505  0.2764 -0.2047 -0.0206
  857MPD2    C212635   1.628   1.423  12.572  0.3635  0.1404 -0.2383
  857MPD2    C312636   1.558   1.534  12.616  0.6568  0.5402 -0.3604
  857MPD2    C412637   1.417   1.540  12.617  0.3547  0.5915 -0.1880
  857MPD2    C512638   1.351   1.446  12.544  0.1193 -0.1874  0.3483
  857MPD2     H12639   1.733   1.409  12.594 -0.4953 -0.3587  3.5609
  857MPD2    H112640   1.360   1.622  12.659  1.7688  0.8918  1.1567
  857MPD2    H212641   1.368   1.286  12.413  0.5515 -0.2102 -1.0402
  857MPD2    H312642   1.243   1.454  12.534  0.2365  0.3428 -0.5247
  857MPD2     N12643   1.640   1.641  12.669 -0.1410  0.4065  0.0240
  857MPD2    H512644   1.740   1.622  12.674 -0.6564 -1.6766  2.5453
  857MPD2    N112645   1.609   1.199  12.465  0.1703 -0.4563 -0.7381
  857MPD2    H712646   1.554   1.122  12.428  0.1601 -0.6499 -0.3147
  858MPD2     C12647   2.748   1.106  16.031  0.8722  0.0435 -0.7284
  858MPD2    C112648   2.703   0.989  16.071 -0.4196  0.0060  0.3227
  858MPD2    C212649   2.667   0.970  16.206 -0.1022  0.1802  0.4941
  858MPD2    C312650   2.681   1.072  16.302 -0.1261 -0.4038  0.6792
  858MPD2    C412651   2.730   1.188  16.254 -0.3397 -0.6079 -0.3000
  858MPD2    C512652   2.759   1.212  16.119 -0.1816  0.5680  0.5590
  858MPD2     H12653   2.622   0.878  16.242  0.3262 -0.4047 -0.4702
  858MPD2    H112654   2.748   1.273  16.319 -0.2872  0.7073 -2.0378
  858MPD2    H212655   2.788   1.126  15.932  1.0765  1.1713 -0.4178
  858MPD2    H312656   2.794   1.312  16.096  1.1719  0.6865  3.0789
  858MPD2     N12657   2.623   1.052  16.432 -0.5851 -0.3079 -0.2581
  858MPD2    H512658   2.574   0.963  16.438 -2.4428  0.9503  3.5019
  858MPD2    N112659   2.690   0.887  15.974  0.5612 -0.9050 -0.0966
  858MPD2    H712660   2.712   0.920  15.881 -0.0483 -0.2752 -0.0185
  859MPD2     C12661   1.155   3.087  15.592  0.1212 -0.3243  0.3629
  859MPD2    C112662   1.244   3.033  15.504  0.6530 -0.4372  0.4085
  859MPD2    C212663   1.272   2.897  15.505 -0.6026  0.7952  0.1157
  859MPD2    C312664   1.209   2.811  15.597  0.1637 -0.0554 -0.2671
  859MPD2    C412665   1.124   2.865  15.690 -0.5486 -0.3584  0.0914
  859MPD2    C512666   1.100   3.000  15.688 -0.1411 -0.1750  0.4656
  859MPD2     H12667   1.351   2.859  15.441 -1.3023 -0.2221 -0.1469
  859MPD2    H112668   1.061   2.813  15.762 -0.3834 -2.3345 -1.2053
  859MPD2    H212669   1.133   3.193  15.594 -0.2648 -0.3819 -0.9291
  859MPD2    H312670   1.032   3.051  15.756 -0.3512  0.8280 -0.5035
  859MPD2     N12671   1.236   2.672  15.595  0.5739  0.1552  0.0497
  859MPD2    H512672   1.214   2.616  15.677 -2.0268 -2.3518 -2.3944
  859MPD2    N112673   1.305   3.128  15.417 -0.2941  0.3044 -0.4537
  859MPD2    H712674   1.265   3.222  15.417  2.6651  1.5616 -0.1513
  860MPD2     C12675   3.293   2.478  11.596  0.3388  0.6764 -0.0773
  860MPD2    C112676   3.281   2.508  11.733  0.2268 -0.1899 -1.1732
  860MPD2    C212677   3.154   2.521  11.789  0.7350  0.9075 -0.6730
  860MPD2    C312678   3.041   2.499  11.711  0.4717  1.1717  0.4968
  860MPD2    C412679   3.054   2.460  11.580 -0.1340 -0.4016 -0.4942
  860MPD2    C512680   3.181   2.450  11.525 -0.5572 -0.2998 -0.6387
  860MPD2     H12681   3.146   2.531  11.896  0.4892 -1.0465 -0.5094
  860MPD2    H112682   2.965   2.456  11.518 -0.0908 -1.1239 -0.5097
  860MPD2    H212683   3.391   2.471  11.549  0.3293 -0.0137 -0.0053
  860MPD2    H312684   3.193   2.425  11.421 -0.7811  0.9418 -0.9655
  860MPD2     N12685   2.914   2.525  11.762  0.3460 -0.6495 -0.2794
  860MPD2    H512686   2.911   2.549  11.861 -2.1104 -2.3901  0.0594
  860MPD2    N112687   3.388   2.546  11.814 -0.0150 -0.6081  0.1486
  860MPD2    H712688   3.364   2.569  11.910  0.1071 -0.2941  0.1030
  861MPD2     C12689   2.420   1.142  10.789 -0.2611 -0.5182  0.1070
  861MPD2    C112690   2.302   1.163  10.857 -0.3734  0.4607  0.3109
  861MPD2    C212691   2.198   1.230  10.797 -0.0559 -0.1632  0.2643
  861MPD2    C312692   2.211   1.293  10.671  0.0352 -0.0285  0.3117
  861MPD2    C412693   2.324   1.267  10.599 -0.9030  0.6280 -0.6473
  861MPD2    C512694   2.423   1.191  10.662  0.4471 -0.4743 -0.2302
  861MPD2     H12695   2.117   1.259  10.862 -0.6872 -0.0462 -0.5752
  861MPD2    H112696   2.331   1.298  10.495  0.8285 -1.5841 -1.1759
  861MPD2    H212697   2.502   1.083  10.827  0.9431  0.7497 -0.5163
  861MPD2    H312698   2.513   1.172  10.604 -0.0142 -2.7728 -0.2140
  861MPD2     N12699   2.106   1.374  10.621  0.2255 -1.1395  0.1075
  861MPD2    H512700   2.121   1.414  10.529 -0.3292 -2.2340 -0.4556
  861MPD2    N112701   2.305   1.120  10.989  0.2607 -0.1449 -0.7985
  861MPD2    H712702   2.395   1.095  11.030 -0.3498 -0.7709  0.1759
  862MPD2     C12703   1.584   1.285  10.210  0.3271  0.1878  0.7442
  862MPD2    C112704   1.646   1.288  10.334  0.0023 -0.3100 -0.1617
  862MPD2    C212705   1.646   1.168  10.405 -0.0676  0.3374 -1.1180
  862MPD2    C312706   1.590   1.054  10.354 -0.7399 -0.5982 -0.2485
  862MPD2    C412707   1.513   1.056  10.239  0.1134 -0.2167  0.1260
  862MPD2    C512708   1.510   1.175  10.171  0.2954 -0.4093  0.3879
  862MPD2     H12709   1.692   1.171  10.504 -2.2531  1.8312 -0.1485
  862MPD2    H112710   1.462   0.966  10.206 -1.2538  0.9727 -0.9997
  862MPD2    H212711   1.586   1.379  10.156 -1.0711 -1.0981 -1.5415
  862MPD2    H312712   1.441   1.186  10.089 -0.0890 -0.1335  0.7462
  862MPD2     N12713   1.600   0.929  10.427  0.3137  0.0825 -0.2183
  862MPD2    H512714   1.542   0.851  10.400 -1.1064  0.9274  0.4273
  862MPD2    N112715   1.704   1.403  10.390 -0.1800 -0.3897 -0.3038
  862MPD2    H712716   1.738   1.409  10.485  0.2416 -0.2091 -0.4654
  863MPD2     C12717   1.122   4.574  16.231  0.1635  0.5873 -0.6451
  863MPD2    C112718   1.012   4.553  16.312 -0.4653 -0.0687 -0.1302
  863MPD2    C212719   1.035   4.521  16.444 -0.4113  0.1775  0.3577
  863MPD2    C312720   1.161   4.520  16.502 -0.1157 -0.6715 -0.5013
  863MPD2    C412721   1.266   4.544  16.413  0.1043  0.2641 -0.3076
  863MPD2    C512722   1.245   4.564  16.282 -0.4108 -0.0383  0.0861
  863MPD2     H12723   0.946   4.517  16.504 -0.3253  0.7240  0.5291
  863MPD2    H112724   1.367   4.558  16.448  0.2626 -0.9347 -0.2809
  863MPD2    H212725   1.109   4.599  16.126  0.5470  2.9558 -0.1318
  863MPD2    H312726   1.323   4.590  16.211  0.1552  0.3348  0.8460
  863MPD2     N12727   1.194   4.504  16.639 -0.0006 -0.0698 -0.5112
  863MPD2    H512728   1.294   4.488  16.647  0.0273  1.3022  1.6452
  863MPD2    N112729   0.890   4.577  16.244 -0.3594  0.0798 -0.1078
  863MPD2    H712730   0.903   4.585  16.143  1.7102  1.7529  0.3069
  864MPD2     C12731   1.374   0.712  17.143 -0.6036 -0.3631 -0.3470
  864MPD2    C112732   1.414   0.645  17.028  0.4022 -0.3849  0.3690
  864MPD2    C212733   1.488   0.713  16.930  0.5098  0.1858  0.1347
  864MPD2    C312734   1.513   0.847  16.940 -0.2278 -0.3129 -0.5273
  864MPD2    C412735   1.472   0.910  17.054 -0.0914 -0.4273  0.2530
  864MPD2    C512736   1.414   0.838  17.157  0.3073  0.7701  0.2726
  864MPD2     H12737   1.512   0.659  16.839  0.4848  0.6759 -0.1674
  864MPD2    H112738   1.497   1.014  17.065 -0.2306 -0.2968 -0.6284
  864MPD2    H212739   1.313   0.666  17.220  1.2837 -0.9236  0.8164
  864MPD2    H312740   1.391   0.884  17.252  0.8933  2.3675 -0.3564
  864MPD2     N12741   1.572   0.921  16.832  0.1989 -0.0597 -0.1072
  864MPD2    H512742   1.576   1.018  16.863  3.2073 -0.5284  0.9576
  864MPD2    N112743   1.388   0.499  17.025 -0.5688  0.0761  0.3977
  864MPD2    H712744   1.319   0.467  17.092  2.2161 -0.2328  3.0830
  865MPD2     C12745   1.687   1.324  16.048 -0.2004  0.0774 -0.1115
  865MPD2    C112746   1.646   1.223  16.126 -0.5300  0.4157 -0.5880
  865MPD2    C212747   1.604   1.250  16.255 -0.0751 -0.2092  0.2103
  865MPD2    C312748   1.620   1.375  16.310  0.8037  0.7004 -0.7926
  865MPD2    C412749   1.666   1.476  16.230  0.2335  0.3822  0.2164
  865MPD2    C512750   1.691   1.448  16.098  0.5526  0.0609 -0.5215
  865MPD2     H12751   1.567   1.170  16.318 -0.5342 -0.4173 -0.3329
  865MPD2    H112752   1.695   1.574  16.266 -1.5211  1.8229 -2.2205
  865MPD2    H212753   1.708   1.310  15.943  3.1537 -1.1977  0.7333
  865MPD2    H312754   1.732   1.531  16.043 -0.7311  0.4560 -0.8600
  865MPD2     N12755   1.596   1.402  16.445 -0.1476  0.3640 -0.2428
  865MPD2    H512756   1.571   1.497  16.470 -1.3212 -0.4317  1.6386
  865MPD2    N112757   1.637   1.097  16.056 -0.3580  0.0124 -0.4664
  865MPD2    H712758   1.654   1.098  15.956  0.5886 -0.3358 -0.3015
  866MPD2     C12759   2.965   1.401  11.001 -0.1210 -0.0875 -0.2482
  866MPD2    C112760   2.867   1.314  11.039 -0.1262 -0.1277 -0.5723
  866MPD2    C212761   2.735   1.352  11.044  0.4036 -0.4940  0.1332
  866MPD2    C312762   2.697   1.484  11.020  0.5580  0.1617 -0.1352
  866MPD2    C412763   2.793   1.580  10.982 -0.1477 -0.0698  0.6794
  866MPD2    C512764   2.921   1.528  10.967  0.1828  0.6743  0.2348
  866MPD2     H12765   2.656   1.278  11.039  0.0379 -0.0006 -1.3485
  866MPD2    H112766   2.778   1.683  10.952  1.0754  1.1099  4.0627
  866MPD2    H212767   3.058   1.365  10.960 -0.2182  0.2534 -0.7669
  866MPD2    H312768   2.989   1.609  10.943 -0.6012  1.0278 -0.7762
  866MPD2     N12769   2.558   1.526  11.021  0.0613  0.7318 -0.0131
  866MPD2    H512770   2.535   1.615  10.977 -0.9037 -0.2778 -1.5907
  866MPD2    N112771   2.909   1.177  11.055 -0.3033 -0.6815 -0.1176
  866MPD2    H712772   3.009   1.158  11.052 -0.1755  0.3183 -2.4699
  867MPD2     C12773   0.507   1.298  16.406 -0.5678  0.0119 -0.2617
  867MPD2    C112774   0.565   1.221  16.505 -0.0083 -0.0961 -0.4261
  867MPD2    C212775   0.680   1.266  16.565 -0.1435  0.5245 -0.5581
  867MPD2    C312776   0.738   1.382  16.523  0.2104 -0.0222  0.3066
  867MPD2    C412777   0.678   1.461  16.433 -0.3699 -0.0182  0.7729
  867MPD2    C512778   0.563   1.419  16.366  0.0323  0.5967  0.0256
  867MPD2     H12779   0.728   1.196  16.633 -0.4271  0.5597 -0.3238
  867MPD2    H112780   0.727   1.551  16.398 -3.0054  1.0622 -0.1683
  867MPD2    H212781   0.419   1.257  16.357  0.2554 -2.1376  0.0667
  867MPD2    H312782   0.511   1.476  16.291 -0.8971  0.0005  0.2148
  867MPD2     N12783   0.851   1.438  16.588  0.5555  0.3845  0.4165
  867MPD2    H512784   0.871   1.535  16.568  1.5469  0.3861  1.4029
  867MPD2    N112785   0.506   1.095  16.529 -0.2961 -0.9340  0.8047
  867MPD2    H712786   0.414   1.078  16.491  0.2364  0.1279 -0.9980
  868MPD2     C12787   1.686   4.427  12.854 -0.3951 -0.5895 -0.0363
  868MPD2    C112788   1.782   4.395  12.952  0.0480  0.0752  0.5590
  868MPD2    C212789   1.753   4.423  13.081 -0.2835 -0.3284 -0.2182
  868MPD2    C312790   1.629   4.477  13.118  0.4223 -0.4055 -0.0122
  868MPD2    C412791   1.541   4.510  13.021 -0.6570  0.6480  0.1409
  868MPD2    C512792   1.567   4.478  12.892  0.0153  0.5784  0.6523
  868MPD2     H12793   1.821   4.400  13.163 -0.0505  1.7116  0.1747
  868MPD2    H112794   1.440   4.543  13.040 -0.9734  0.5809 -1.4830
  868MPD2    H212795   1.707   4.405  12.750  0.1042 -2.7259  0.5213
  868MPD2    H312796   1.489   4.504  12.821  0.8523 -0.5652 -0.6905
  868MPD2     N12797   1.604   4.495  13.257  0.4283  0.6060  0.0668
  868MPD2    H512798   1.675   4.458  13.320 -1.7924 -1.0420  1.5957
  868MPD2    N112799   1.903   4.333  12.906  0.2504  0.5250  0.0774
  868MPD2    H712800   1.925   4.322  12.808  0.1124  1.5963 -0.0728
  869MPD2     C12801   3.402   3.487   0.247  0.1980 -0.0103 -0.3709
  869MPD2    C112802   3.350   3.363   0.266 -0.3095 -0.2751 -0.6429
  869MPD2    C212803   3.407   3.270   0.353  0.2647  0.3418 -0.2576
  869MPD2    C312804   3.505   3.311   0.441  0.3477  0.1155  0.8199
  869MPD2    C412805   3.558   3.435   0.420  0.6234  0.5623  0.2935
  869MPD2    C512806   3.492   3.522   0.338  0.2166  0.2050 -0.0246
  869MPD2     H12807   3.360   3.172   0.365 -0.3035  0.6734  0.2335
  869MPD2    H112808   3.639   3.483   0.473 -0.4680  0.6620  1.8893
  869MPD2    H212809   3.372   3.570   0.185 -1.9122  0.1221  0.8359
  869MPD2    H312810   3.529   3.624   0.333 -0.2213  0.2796 -1.7111
  869MPD2     N12811   3.555   3.235   0.549 -0.1038  0.6841  0.5252
  869MPD2    H512812   3.630   3.284   0.596  2.3627  1.3442 -4.0595
  869MPD2    N112813   3.231   3.347   0.188 -0.1488 -0.0688  0.0174
  869MPD2    H712814   3.210   3.417   0.118 -0.8487  0.6262  0.9162
  870MPD2     C12815   3.235   1.607   1.650 -0.2968 -0.1170 -0.0596
  870MPD2    C112816   3.347   1.646   1.592  0.5031  0.3429  0.0795
  870MPD2    C212817   3.347   1.772   1.534 -0.1143  0.1770  0.1643
  870MPD2    C312818   3.236   1.861   1.550 -0.5138 -0.0859 -0.0962
  870MPD2    C412819   3.128   1.814   1.621  0.8234  0.1972  0.8054
  870MPD2    C512820   3.130   1.691   1.664  0.4728  0.1277  0.6233
  870MPD2     H12821   3.409   1.796   1.449 -1.5168  1.3193 -0.5410
  870MPD2    H112822   3.035   1.867   1.635  0.2123 -0.5122 -0.5126
  870MPD2    H212823   3.218   1.504   1.682 -1.3540 -0.4179 -1.5625
  870MPD2    H312824   3.040   1.650   1.709  0.5239  0.0960  0.6959
  870MPD2     N12825   3.220   1.995   1.492 -0.5893  0.1743  0.0628
  870MPD2    H512826   3.123   2.023   1.485 -0.5958 -0.4400 -2.2866
  870MPD2    N112827   3.451   1.553   1.579 -0.0997  0.5306  0.5911
  870MPD2    H712828   3.439   1.462   1.623 -0.7825  0.7542  0.8675
  871MPD2     C12829   4.217   1.516  16.331  0.4707 -0.3532 -0.3171
  871MPD2    C112830   4.129   1.477  16.426 -0.7145  0.3049 -0.1143
  871MPD2    C212831   4.118   1.342  16.453  0.0133 -0.0977 -0.1206
  871MPD2    C312832   4.204   1.246  16.391 -0.3853  0.0414 -0.1465
  871MPD2    C412833   4.294   1.283  16.302 -0.7188  0.6304  0.8105
  871MPD2    C512834   4.291   1.415  16.271  0.4832  0.3813 -0.2728
  871MPD2     H12835   4.053   1.304  16.531  0.8369 -0.1329  0.5523
  871MPD2    H112836   4.350   1.228  16.228 -0.3037  1.9619  0.1435
  871MPD2    H212837   4.225   1.618  16.296  1.6006 -0.0943  0.7115
  871MPD2    H312838   4.345   1.450  16.184 -0.7892  1.0568 -0.7878
  871MPD2     N12839   4.187   1.111  16.429 -0.8391  0.4606 -0.1216
  871MPD2    H512840   4.106   1.094  16.487  0.0182  0.8430  1.1877
  871MPD2    N112841   4.061   1.580  16.500  0.2299 -0.4784 -0.2884
  871MPD2    H712842   4.060   1.668  16.450 -1.9124  0.3698  1.2572
  872MPD2     C12843   4.497   3.290  13.334 -0.5892  0.0460 -0.3045
  872MPD2    C112844   4.528   3.408  13.401 -0.1645 -0.5442  0.1582
  872MPD2    C212845   4.462   3.440  13.519  0.1868  0.3856  0.1509
  872MPD2    C312846   4.358   3.355  13.568  0.3970 -0.5056 -0.2982
  872MPD2    C412847   4.320   3.249  13.488  0.1560  0.1155 -0.0406
  872MPD2    C512848   4.392   3.212  13.376  0.2120  1.2080  0.1491
  872MPD2     H12849   4.496   3.527  13.574  1.3754 -0.3812  0.6227
  872MPD2    H112850   4.231   3.192  13.512 -1.0148  2.0991  0.3032
  872MPD2    H212851   4.545   3.249  13.246  1.2568 -0.0036  0.7366
  872MPD2    H312852   4.356   3.124  13.325  1.8126  0.4824  0.2588
  872MPD2     N12853   4.281   3.383  13.681  0.6323  0.2643 -0.0896
  872MPD2    H512854   4.202   3.319  13.685  0.3893  0.6005  0.5823
  872MPD2    N112855   4.627   3.494  13.355 -0.5847 -0.0463 -0.1190
  872MPD2    H712856   4.666   3.560  13.422  2.1457 -1.4870 -0.2930
  873MPD2     C12857   1.501   3.900   0.371 -0.0154 -0.4307 -0.8235
  873MPD2    C112858   1.552   3.826   0.474 -0.0857 -0.0739  0.4318
  873MPD2    C212859   1.560   3.692   0.458  0.0675 -0.3063  0.3743
  873MPD2    C312860   1.528   3.625   0.338 -0.0779 -1.0959 -0.9815
  873MPD2    C412861   1.479   3.709   0.233  0.3767  0.3541  0.4799
  873MPD2    C512862   1.466   3.843   0.251 -0.6516  0.0401 -0.2649
  873MPD2     H12863   1.585   3.644   0.552  0.7396 -1.7974 -0.5837
  873MPD2    H112864   1.441   3.666   0.141 -0.9026 -1.5700  1.9118
  873MPD2    H212865   1.499   4.008   0.373 -1.9799 -0.4353 -1.9762
  873MPD2    H312866   1.434   3.909   0.171 -2.1985 -1.5753 -0.9856
  873MPD2     N12867   1.511   3.489   0.324 -0.3641  0.4943  0.2769
  873MPD2    H512868   1.457   3.457   0.243 -0.2503  0.0190  0.3916
  873MPD2    N112869   1.609   3.896   0.582  0.1368 -0.2970  0.2269
  873MPD2    H712870   1.576   3.991   0.594  0.7032 -0.0071 -0.4933
  874MPD2     C12871   1.563   3.732  15.862  0.4940  0.6021 -0.0087
  874MPD2    C112872   1.634   3.666  15.963  0.5344 -0.2806  0.2618
  874MPD2    C212873   1.764   3.703  15.982 -0.3839 -0.0185 -0.2934
  874MPD2    C312874   1.828   3.812  15.915 -0.1046 -0.2662  0.2571
  874MPD2    C412875   1.756   3.860  15.805  0.0694 -0.1112  0.4151
  874MPD2    C512876   1.625   3.819  15.781  0.3602 -0.4196 -0.9268
  874MPD2     H12877   1.816   3.647  16.058 -1.6571 -1.4995 -0.5197
  874MPD2    H112878   1.802   3.937  15.744 -0.0754  0.3669  0.9139
  874MPD2    H212879   1.456   3.730  15.848  0.6262 -1.2792 -0.6619
  874MPD2    H312880   1.579   3.866  15.694 -1.0230 -1.5133 -0.7880
  874MPD2     N12881   1.952   3.850  15.959 -0.0248  0.7001  0.9252
  874MPD2    H512882   2.002   3.791  16.026  2.2276 -0.9632 -2.2450
  874MPD2    N112883   1.563   3.577  16.052 -0.0834 -0.1290  0.0328
  874MPD2    H712884   1.467   3.549  16.037 -0.6447  1.8115 -0.0124
  875MPD2     C12885   2.825   1.948  14.263 -0.5777 -0.5396 -0.1898
  875MPD2    C112886   2.720   1.919  14.353  0.4003 -0.8496 -0.5587
  875MPD2    C212887   2.725   1.986  14.474 -0.4303  0.0169 -0.2228
  875MPD2    C312888   2.833   2.064  14.512 -0.2251  0.4991 -0.3188
  875MPD2    C412889   2.935   2.081  14.424 -0.2014  0.4982 -0.5958
  875MPD2    C512890   2.919   2.042  14.294  0.6323 -0.0665  0.5899
  875MPD2     H12891   2.642   1.977  14.543 -0.1383 -0.9016  0.0022
  875MPD2    H112892   3.013   2.149  14.457  0.5945 -0.5487 -0.3422
  875MPD2    H212893   2.836   1.909  14.162  2.2113  0.1168 -0.1355
  875MPD2    H312894   2.998   2.068  14.224 -0.6855  0.6342 -0.6227
  875MPD2     N12895   2.830   2.139  14.626 -0.0287  0.0111 -0.3598
  875MPD2    H512896   2.895   2.216  14.635  0.9244 -0.6631 -1.4834
  875MPD2    N112897   2.605   1.847  14.319 -0.1410 -0.1458  0.4492
  875MPD2    H712898   2.536   1.848  14.393 -0.3074  0.8250  0.2730
  876MPD2     C12899   1.420   3.244  15.786  0.3589 -0.4431  0.0254
  876MPD2    C112900   1.551   3.282  15.767 -0.2194  0.0585 -0.9086
  876MPD2    C212901   1.648   3.226  15.846  0.4465 -0.1123 -1.3212
  876MPD2    C312902   1.617   3.136  15.944  0.0009  0.0008 -0.1005
  876MPD2    C412903   1.485   3.097  15.958  0.1439  0.3681  0.3729
  876MPD2    C512904   1.387   3.152  15.881 -0.1941 -0.0251 -0.5279
  876MPD2     H12905   1.751   3.257  15.832  0.6289 -0.3677 -0.5570
  876MPD2    H112906   1.461   3.027  16.036  1.4316  0.2484  0.6585
  876MPD2    H212907   1.339   3.288  15.730 -0.4182  0.0041  1.4998
  876MPD2    H312908   1.281   3.129  15.888 -0.6566  2.3088  0.2679
  876MPD2     N12909   1.727   3.089  16.023  0.0544 -0.2101 -0.0461
  876MPD2    H512910   1.818   3.131  16.006 -0.5936  0.3196 -2.0873
  876MPD2    N112911   1.558   3.389  15.674 -0.0293 -0.4546 -0.4030
  876MPD2    H712912   1.474   3.427  15.631 -0.9258 -1.0423  0.8363
  877MPD2     C12913   1.237   3.707  15.064 -1.0064 -0.1319 -0.2924
  877MPD2    C112914   1.372   3.732  15.060  0.5324  0.5341 -0.2571
  877MPD2    C212915   1.428   3.779  14.942  0.4873  0.0082 -0.5632
  877MPD2    C312916   1.355   3.788  14.819 -0.7334 -0.3695  0.0294
  877MPD2    C412917   1.223   3.754  14.825  0.3859 -0.3651 -0.0504
  877MPD2    C512918   1.166   3.724  14.950 -0.5828 -0.2860 -0.2426
  877MPD2     H12919   1.533   3.801  14.932  0.8694 -0.6096  2.1699
  877MPD2    H112920   1.145   3.754  14.749  2.1588 -2.2384 -1.8881
  877MPD2    H212921   1.192   3.670  15.155  1.7211  0.7919  1.4406
  877MPD2    H312922   1.059   3.708  14.954 -1.1310  3.6878  1.6172
  877MPD2     N12923   1.412   3.805  14.699  0.2504 -0.7490 -0.1233
  877MPD2    H512924   1.353   3.778  14.621 -0.0828  0.3741 -0.2710
  877MPD2    N112925   1.460   3.719  15.167  0.1466 -0.5339  0.5145
  877MPD2    H712926   1.551   3.764  15.156 -1.7624  2.9703 -1.0301
  878MPD2     C12927   0.744   2.559  13.200  0.4491 -0.8775  0.4828
  878MPD2    C112928   0.869   2.623  13.188  0.4349 -0.1627  0.4189
  878MPD2    C212929   0.941   2.646  13.305 -0.0791 -0.2282  0.2106
  878MPD2    C312930   0.877   2.609  13.425 -0.1871  0.4702 -0.5385
  878MPD2    C412931   0.757   2.540  13.428  0.5386  0.2296  0.6964
  878MPD2    C512932   0.692   2.518  13.315  1.1272 -0.3145 -0.2327
  878MPD2     H12933   1.029   2.708  13.314  0.0727 -0.5132  0.6533
  878MPD2    H112934   0.708   2.521  13.522  1.4340 -0.1018  1.0965
  878MPD2    H212935   0.679   2.551  13.114 -1.8913 -0.4329  2.2190
  878MPD2    H312936   0.588   2.487  13.319  1.3353 -0.9193  0.6708
  878MPD2     N12937   0.947   2.651  13.540 -0.1228 -0.1020 -0.5636
  878MPD2    H512938   1.043   2.682  13.524 -0.2450  0.1109 -0.8952
  878MPD2    N112939   0.921   2.647  13.060  0.0655 -0.4391 -0.0649
  878MPD2    H712940   0.866   2.606  12.985 -1.6154  1.0196  0.3694
  879MPD2     C12941   2.130   3.722  16.644  0.0198  0.0503 -0.8430
  879MPD2    C112942   2.112   3.856  16.610  0.4949 -0.1409 -0.1421
  879MPD2    C212943   2.027   3.886  16.503 -0.1729  0.4256 -0.1194
  879MPD2    C312944   1.951   3.787  16.443  1.1963 -0.2273  0.3201
  879MPD2    C412945   1.961   3.657  16.489  0.4613 -0.4385  0.4592
  879MPD2    C512946   2.056   3.630  16.582  0.0973 -0.4516 -0.2677
  879MPD2     H12947   2.004   3.985  16.465 -0.6172  1.0374  1.7467
  879MPD2    H112948   1.904   3.571  16.456 -0.3616 -0.2267  1.3170
  879MPD2    H212949   2.208   3.686  16.710 -0.6690 -0.6993 -0.4324
  879MPD2    H312950   2.069   3.529  16.619  1.1889  0.6440  2.3330
  879MPD2     N12951   1.854   3.812  16.339 -0.6806  0.1628 -0.2082
  879MPD2    H512952   1.801   3.730  16.314 -1.1544  0.0424  1.1860
  879MPD2    N112953   2.192   3.947  16.676  0.3244 -0.3329  0.4955
  879MPD2    H712954   2.262   3.916  16.742  0.9051 -2.1631 -0.9517
  880MPD2     C12955   2.942   1.482   0.122  0.5990 -0.4931  0.1793
  880MPD2    C112956   3.038   1.529   0.209 -0.0960  0.1477  0.7339
  880MPD2    C212957   3.083   1.447   0.314 -0.2209 -0.2651 -0.3986
  880MPD2    C312958   3.029   1.320   0.330  0.2734 -0.4479  0.5036
  880MPD2    C412959   2.930   1.276   0.241 -0.9382 -0.3959 -0.2667
  880MPD2    C512960   2.894   1.354   0.132  0.0494 -0.7756  0.0633
  880MPD2     H12961   3.157   1.492   0.380  0.7609 -0.7934 -1.1288
  880MPD2    H112962   2.892   1.175   0.247  2.7420 -1.7291  0.0970
  880MPD2    H212963   2.892   1.548   0.051  1.0870  0.6383  0.8988
  880MPD2    H312964   2.822   1.304   0.068  1.4847 -0.2286 -1.9953
  880MPD2     N12965   3.071   1.248   0.442 -0.7338  0.2498 -0.2501
  880MPD2    H512966   3.134   1.296   0.505  1.2382 -1.0844 -1.2107
  880MPD2    N112967   3.084   1.662   0.190 -0.7834  0.2086  0.2820
  880MPD2    H712968   3.029   1.725   0.132 -0.6111  1.4189  1.4319
  881MPD2     C12969   3.199   2.567  17.500 -0.0681  0.2780 -0.3757
  881MPD2    C112970   3.223   2.436  17.461 -0.3072  0.9233 -0.5124
  881MPD2    C212971   3.221   2.343  17.561  0.0060 -0.2279  0.6113
  881MPD2    C312972   3.188   2.370  17.691  0.8128  0.4787  0.5791
  881MPD2    C412973   3.156   2.498  17.721 -0.4072  0.3887  0.0284
  881MPD2    C512974   3.150   2.593  17.618  0.5132  0.9575 -0.4862
  881MPD2     H12975   3.254   2.242  17.540  0.9332  0.2831 -0.4054
  881MPD2    H112976   3.114   2.535   0.064 -0.9463  1.7993 -0.7781
  881MPD2    H212977   3.203   2.654  17.435  1.0007  1.3574  1.1321
  881MPD2    H312978   3.116   2.695  17.631  2.2863  1.5650 -0.6516
  881MPD2     N12979   3.166   2.278   0.045 -0.6117  0.3941  0.1617
  881MPD2    H512980   3.119   2.315   0.127 -0.5701  1.4205 -0.2811
  881MPD2    N112981   3.283   2.418  17.338  0.0145  0.3602 -0.2023
  881MPD2    H712982   3.290   2.500  17.279 -2.8484 -0.6186 -1.9317
  882MPD2     C12983   1.425   3.359  14.099 -0.8462  0.3671  0.2069
  882MPD2    C112984   1.391   3.490  14.111  0.8392 -0.3000 -0.0525
  882MPD2    C212985   1.283   3.535  14.043 -0.4137  0.1768  0.0290
  882MPD2    C312986   1.205   3.454  13.955  0.0917  0.5383 -0.2828
  882MPD2    C412987   1.234   3.323  13.958 -0.2327 -0.6086  0.4394
  882MPD2    C512988   1.346   3.279  14.023  0.2313  0.0108 -0.0001
  882MPD2     H12989   1.263   3.641  14.053  0.3357  0.1991  1.3130
  882MPD2    H112990   1.173   3.245  13.915 -1.4570  0.9749 -0.6691
  882MPD2    H212991   1.521   3.324  14.135 -0.5911 -0.0808 -0.9075
  882MPD2    H312992   1.365   3.172  14.021  0.6683  0.1039 -0.7621
  882MPD2     N12993   1.088   3.494  13.891 -0.4722  0.0658 -0.2749
  882MPD2    H512994   1.051   3.422  13.831  1.6813 -1.7072  0.5288
  882MPD2    N112995   1.468   3.565  14.202 -0.5953 -0.4563 -0.0780
  882MPD2    H712996   1.534   3.519  14.263  0.7097  2.5679  0.7705
  883MPD2     C12997   3.001   3.848  15.600  0.0763  0.2051 -0.7200
  883MPD2    C112998   3.041   3.949  15.517 -0.6023 -0.6634  0.5763
  883MPD2    C212999   3.154   4.015  15.546 -0.5093  0.0751 -0.1829
  883MPD2    C313000   3.230   3.974  15.659  0.0344 -0.1018  0.0525
  883MPD2    C413001   3.167   3.899  15.752 -0.3999  0.0644  0.3666
  883MPD2    C513002   3.060   3.827  15.720  0.4188 -0.4779 -0.4114
  883MPD2     H13003   3.206   4.087  15.484 -1.2686 -1.4680 -2.6187
  883MPD2    H113004   3.209   3.878  15.850  1.5023  1.1883 -0.2027
  883MPD2    H213005   2.913   3.786  15.583 -0.6418  0.2577  2.7787
  883MPD2    H313006   3.026   3.750  15.788 -2.4251  1.1827  0.0092
  883MPD2     N13007   3.364   4.019  15.683 -0.2607 -0.0768 -0.2587
  883MPD2    H513008   3.405   4.087  15.620 -1.1331  0.3749 -0.3274
  883MPD2    N113009   2.970   3.980  15.393  0.3032  0.5279  0.3043
  883MPD2    H713010   3.016   4.052  15.337 -0.6347  0.5269 -0.4658
  884MPD2     C13011   0.730   4.341  14.888 -0.2083 -0.1458 -0.0577
  884MPD2    C113012   0.658   4.351  14.768  0.2079 -0.4572 -0.1848
  884MPD2    C213013   0.525   4.376  14.769  0.0336  0.6113  0.2724
  884MPD2    C313014   0.462   4.398  14.892  0.0324 -0.3243 -0.5142
  884MPD2    C413015   0.537   4.389  15.014  0.3113 -0.5154 -0.0947
  884MPD2    C513016   0.671   4.365  15.009  0.4436  0.6320  0.0420
  884MPD2     H13017   0.462   4.378  14.681 -0.2306  0.2433  0.4529
  884MPD2    H113018   0.492   4.405  15.111 -2.0090 -0.3847 -1.1834
  884MPD2    H213019   0.831   4.302  14.900 -0.1769 -0.8699 -2.7094
  884MPD2    H313020   0.726   4.349  15.100  0.4571 -0.5181 -0.1731
  884MPD2     N13021   0.321   4.419  14.884  0.4431 -0.2340  0.3818
  884MPD2    H513022   0.282   4.410  14.791  1.6423 -0.6061 -0.0826
  884MPD2    N113023   0.716   4.329  14.642 -0.3489 -0.2148  0.3140
  884MPD2    H713024   0.661   4.337  14.557 -1.6063 -0.0428  1.1545
  885MPD2     C13025   3.195   0.165   0.105  0.3746  0.6545 -0.0959
  885MPD2    C113026   3.249   0.293   0.098 -0.5754 -0.2784 -0.0838
  885MPD2    C213027   3.314   0.332  17.736  0.1261  0.1338 -0.2913
  885MPD2    C313028   3.339   0.242  17.632 -0.1973  0.0611  0.3024
  885MPD2    C413029   3.285   0.115  17.636  0.1867  0.3095 -0.5328
  885MPD2    C513030   3.219   0.073   0.003 -0.7747  0.0012  0.3015
  885MPD2     H13031   3.351   0.433  17.726 -0.0630  0.1285 -1.0396
  885MPD2    H113032   3.281   0.051  17.548 -0.5774  1.8965 -1.6479
  885MPD2    H213033   3.141   0.134   0.193  0.4523 -0.3943 -0.4148
  885MPD2    H313034   3.165   4.717  17.744 -2.6253  1.2916 -2.0671
  885MPD2     N13035   3.410   0.291  17.520  0.3938  0.4163  0.7348
  885MPD2    H513036   3.435   0.389  17.523 -0.0895  0.5816 -0.5739
  885MPD2    N113037   3.234   0.370   0.208  0.3701  0.4499 -0.3586
  885MPD2    H713038   3.190   0.334   0.292  0.8400  0.6150 -0.0440
  886MPD2     C13039   0.424   2.930  14.898 -0.2263  0.4137  0.7198
  886MPD2    C113040   0.471   3.009  14.994  0.2267  0.0064  0.3741
  886MPD2    C213041   0.446   3.148  15.000 -1.0206 -0.3027 -0.3148
  886MPD2    C313042   0.369   3.205  14.904 -0.1308  1.3802  0.2123
  886MPD2    C413043   0.344   3.123  14.790 -0.0707 -1.0816  0.6439
  886MPD2    C513044   0.365   2.994  14.788  0.6684 -0.6568 -0.1056
  886MPD2     H13045   0.482   3.212  15.079  0.9752  1.1330 -2.3956
  886MPD2    H113046   0.294   3.170  14.707  1.5400  1.3936  1.0630
  886MPD2    H213047   0.445   2.824  14.893  1.4313  0.8629 -1.8887
  886MPD2    H313048   0.333   2.933  14.705 -1.6871  1.8184 -1.0435
  886MPD2     N13049   0.336   3.338  14.896  0.1384 -0.4710  0.9029
  886MPD2    H513050   0.309   3.381  14.808 -0.6331 -1.3232  0.7288
  886MPD2    N113051   0.544   2.960  15.098  0.3279  0.4966  0.4887
  886MPD2    H713052   0.554   3.024  15.176  1.1957 -0.7831  1.4377
  887MPD2     C13053   0.810   3.255  15.703 -0.2356 -0.1232  0.5123
  887MPD2    C113054   0.822   3.239  15.563  0.4679  0.4703 -0.0291
  887MPD2    C213055   0.861   3.351  15.490 -0.3934 -0.1885  0.5857
  887MPD2    C313056   0.901   3.468  15.552  0.4470  0.2821  0.1764
  887MPD2    C413057   0.890   3.483  15.688 -0.7553  0.3589  0.8261
  887MPD2    C513058   0.845   3.374  15.761 -0.1520  0.2134 -0.4094
  887MPD2     H13059   0.854   3.349  15.382  0.9103 -0.6200  0.4997
  887MPD2    H113060   0.908   3.578  15.738  0.6212  0.0631  0.9009
  887MPD2    H213061   0.783   3.175  15.770 -1.4067 -2.0615 -2.3259
  887MPD2    H313062   0.851   3.383  15.869  3.9980 -2.4887 -0.4216
  887MPD2     N13063   0.930   3.579  15.468  0.6323  0.1044  0.3655
  887MPD2    H513064   0.916   3.569  15.368 -0.2064  0.8248  0.4175
  887MPD2    N113065   0.812   3.114  15.489  0.3543  0.3220  0.2872
  887MPD2    H713066   0.816   3.119  15.387  0.0221 -1.2305  0.2010
  888MPD2     C13067   2.398   3.194  14.589 -0.6054  0.4168 -0.5560
  888MPD2    C113068   2.431   3.216  14.720 -0.1089 -0.1384  0.5457
  888MPD2    C213069   2.511   3.318  14.760  0.0313  0.3225 -0.2341
  888MPD2    C313070   2.561   3.409  14.666 -0.2649 -0.0244  0.4478
  888MPD2    C413071   2.541   3.381  14.534 -0.2562  0.3015  0.1215
  888MPD2    C513072   2.451   3.280  14.501  0.2461 -0.1025  0.1622
  888MPD2     H13073   2.529   3.337  14.865  0.4570  1.1479 -0.4641
  888MPD2    H113074   2.564   3.450  14.453  1.7918  0.5111  0.8624
  888MPD2    H213075   2.311   3.138  14.558 -0.4860  0.3850 -0.8355
  888MPD2    H313076   2.413   3.280  14.399 -1.6599  0.9782  0.8750
  888MPD2     N13077   2.628   3.528  14.702 -0.1387  0.2829 -0.7307
  888MPD2    H513078   2.609   3.560  14.796 -0.6783 -2.0750 -0.0247
  888MPD2    N113079   2.394   3.140  14.830  0.0035  0.5179 -0.2475
  888MPD2    H713080   2.440   3.157  14.918  0.4126 -1.0637 -0.1589
  889MPD2     C13081   1.466   2.415  12.635  0.3474 -1.4822  0.8052
  889MPD2    C113082   1.538   2.379  12.746  0.6435 -0.3894 -0.5952
  889MPD2    C213083   1.519   2.438  12.870 -0.3478  0.1859  0.4023
  889MPD2    C313084   1.466   2.568  12.875 -0.5245  0.4113  0.8287
  889MPD2    C413085   1.407   2.613  12.758  0.0433 -0.5832 -0.5768
  889MPD2    C513086   1.399   2.532  12.645  0.7078 -0.1784  0.2467
  889MPD2     H13087   1.565   2.395  12.957 -0.1279 -3.6572 -1.6293
  889MPD2    H113088   1.356   2.708  12.741 -0.6575 -1.0180 -0.9105
  889MPD2    H213089   1.455   2.359  12.543  1.9761  2.6673 -1.9370
  889MPD2    H313090   1.322   2.553  12.572  1.7062 -1.5411 -1.1956
  889MPD2     N13091   1.475   2.644  12.993 -0.5091  0.0277 -0.1633
  889MPD2    H513092   1.506   2.593  13.076  0.1165 -1.2129 -1.1525
  889MPD2    N113093   1.606   2.254  12.741 -0.0523  0.4831  0.0628
  889MPD2    H713094   1.596   2.200  12.656 -0.1478  1.9869 -0.8946
  890MPD2     C13095   1.529   4.527  14.136 -0.4332  0.8403  0.1363
  890MPD2    C113096   1.613   4.608  14.204  0.1322  0.3758 -0.1465
  890MPD2    C213097   1.695   4.536  14.299 -0.1860  0.3518 -0.6441
  890MPD2    C313098   1.689   4.395  14.318 -0.0632 -0.4316 -0.5302
  890MPD2    C413099   1.592   4.327  14.256  0.6753 -0.1590  0.1820
  890MPD2    C513100   1.518   4.392  14.161 -0.1462 -0.2446 -0.3610
  890MPD2     H13101   1.775   4.587  14.350 -0.6414 -2.3932  2.7849
  890MPD2    H113102   1.564   4.225  14.282 -0.9301  0.0712 -0.6426
  890MPD2    H213103   1.452   4.577  14.079 -1.6039 -0.1956  0.8068
  890MPD2    H313104   1.444   4.330  14.112  0.9879 -1.1634 -0.9055
  890MPD2     N13105   1.775   4.337  14.410 -0.0941  0.1166  0.2195
  890MPD2    H513106   1.853   4.394  14.443 -0.6109  0.9182  0.0406
  890MPD2    N113107   1.603   0.004  14.191 -0.2891  0.0986  0.2131
  890MPD2    H713108   1.542   0.044  14.120  0.5935 -1.3242 -1.3455
  891MPD2     C13109   0.171   3.123  16.186  0.4882 -0.4501 -0.3977
  891MPD2    C113110   0.056   3.119  16.264 -0.1134 -0.1961 -0.6536
  891MPD2    C213111   0.035   3.029  16.368  0.4791 -0.3590  0.3912
  891MPD2    C313112   0.127   2.933  16.390 -0.3783  0.3322 -0.6539
  891MPD2    C413113   0.247   2.939  16.319 -0.2794 -0.2116  0.0559
  891MPD2    C513114   0.263   3.026  16.215  0.2543  1.0416 -0.0677
  891MPD2     H13115   4.681   3.035  16.426  0.3844  0.2687  0.1786
  891MPD2    H113116   0.333   2.876  16.336  0.3333  0.2452 -1.3255
  891MPD2    H213117   0.190   3.197  16.110 -2.1575 -0.3731 -0.9959
  891MPD2    H313118   0.353   3.026  16.155  1.0281  1.9191  1.0914
  891MPD2     N13119   0.099   2.829  16.488  0.4694 -0.2698  0.0812
  891MPD2    H513120   0.013   2.832  16.543 -0.5131  0.8287 -1.5359
  891MPD2    N113121   4.698   3.225  16.241  0.3366  0.4302 -0.4379
  891MPD2    H713122   4.730   3.293  16.173 -1.8222  2.1220  0.2632
  892MPD2     C13123   0.678   3.919  14.575  0.3342 -0.5989 -0.2465
  892MPD2    C113124   0.585   3.942  14.484  0.0052 -0.2193 -0.2247
  892MPD2    C213125   0.623   3.918  14.346  0.6080  0.4162 -0.8788
  892MPD2    C313126   0.735   3.850  14.310  0.0159 -1.3983 -0.0035
  892MPD2    C413127   0.827   3.818  14.406 -0.3874  0.4445 -0.3264
  892MPD2    C513128   0.807   3.864  14.534 -0.1144  1.0772  0.8585
  892MPD2     H13129   0.551   3.954  14.274  0.0116 -0.1341 -0.5561
  892MPD2    H113130   0.917   3.763  14.384 -1.7719 -1.0420 -2.2546
  892MPD2    H213131   0.674   3.954  14.677  2.2858  1.5188 -0.8993
  892MPD2    H313132   0.887   3.840  14.603  1.3499 -0.5094 -1.4022
  892MPD2     N13133   0.752   3.807  14.172  0.2048 -0.2713  0.1116
  892MPD2    H513134   0.839   3.763  14.147 -0.2184 -0.6009 -0.7996
  892MPD2    N113135   0.451   3.985  14.498 -0.1185 -0.7438 -0.0120
  892MPD2    H713136   0.394   3.983  14.414 -0.8532  0.3275  0.4712
  893MPD2     C13137   2.144   2.432   0.812 -0.0397  0.3895 -0.5141
  893MPD2    C113138   2.263   2.390   0.874 -0.0362  0.1612  0.4683
  893MPD2    C213139   2.266   2.255   0.909  0.5530 -1.3861 -0.3711
  893MPD2    C313140   2.175   2.167   0.862 -0.1133  0.7750 -0.6043
  893MPD2    C413141   2.067   2.214   0.797 -0.0259 -0.2213  0.2217
  893MPD2    C513142   2.041   2.345   0.785  0.8900  0.6129 -0.1955
  893MPD2     H13143   2.358   2.212   0.947  0.9129  0.3886  0.7884
  893MPD2    H113144   1.992   2.140   0.773  1.0104 -1.2275  0.0974
  893MPD2    H213145   2.131   2.540   0.805 -0.5663  0.2549 -1.6109
  893MPD2    H313146   1.957   2.384   0.729  1.1264  0.1057 -0.8986
  893MPD2     N13147   2.188   2.025   0.872 -0.2024  0.0387 -0.6260
  893MPD2    H513148   2.109   1.973   0.835 -0.7638  0.0567  0.5306
  893MPD2    N113149   2.370   2.474   0.899  0.4474  0.9456  0.4003
  893MPD2    H713150   2.360   2.571   0.872 -1.2697  0.7230  0.2960
  894MPD2     C13151   0.246   0.310   0.914 -0.4743 -0.9657  0.2355
  894MPD2    C113152   0.319   0.250   1.021  0.0346 -0.3665  0.0924
  894MPD2    C213153   0.458   0.265   1.014  0.1933 -0.4108 -0.1111
  894MPD2    C313154   0.521   0.335   0.910  0.5486 -0.3615 -0.2179
  894MPD2    C413155   0.446   0.378   0.803 -0.6477 -0.1883 -0.0234
  894MPD2    C513156   0.311   0.373   0.807 -0.0478  0.1822 -0.2422
  894MPD2     H13157   0.517   0.230   1.098  0.8793  0.5999 -0.1752
  894MPD2    H113158   0.479   0.438   0.720  0.3259  1.0682  1.2685
  894MPD2    H213159   0.138   0.306   0.916 -0.5640  0.4255 -1.4094
  894MPD2    H313160   0.260   0.418   0.723  0.7004 -1.1270 -1.4009
  894MPD2     N13161   0.658   0.360   0.928  1.0344  0.2937  0.5291
  894MPD2    H513162   0.710   0.313   1.001 -2.0373 -0.0519  2.4573
  894MPD2    N113163   0.273   0.157   1.117  0.3318  0.3960  0.2310
  894MPD2    H713164   0.340   0.115   1.180 -1.0421  0.0780  1.4728
  895MPD2     C13165   4.688   2.852  13.325  0.1271  0.5405  0.0281
  895MPD2    C113166   4.579   2.775  13.282  0.9557  0.4131 -0.2159
  895MPD2    C213167   4.553   2.654  13.342 -0.2579  0.2420 -0.1161
  895MPD2    C313168   4.632   2.609  13.444  0.5025 -0.2130 -0.7304
  895MPD2    C413169   0.008   2.680  13.480 -0.6278  0.1549 -0.0420
  895MPD2    C513170   0.033   2.801  13.419  0.3731 -0.0393  0.9545
  895MPD2     H13171   4.459   2.606  13.316 -1.0191  0.9403  1.3525
  895MPD2    H113172   0.074   2.642  13.557 -1.1157 -1.2234 -0.3074
  895MPD2    H213173   4.728   2.943  13.281  0.3459  1.5491  2.3228
  895MPD2    H313174   0.126   2.848  13.451 -0.3537  1.5939  0.6309
  895MPD2     N13175   4.599   2.482  13.484  0.2095  0.0738  0.6005
  895MPD2    H513176   4.519   2.433  13.447  0.9328  0.9028 -2.0544
  895MPD2    N113177   4.494   2.827  13.192 -0.1494  0.5873  0.2215
  895MPD2    H713178   4.406   2.775  13.186  1.2055 -1.8866  1.7425
  896MPD2     C13179   2.748   0.316   1.243 -0.8297  0.2664  0.2710
  896MPD2    C113180   2.675   0.417   1.182  0.4451 -0.2978 -0.0668
  896MPD2    C213181   2.542   0.397   1.162  0.0002  0.3028 -0.3616
  896MPD2    C313182   2.479   0.275   1.195  0.1221  0.2539 -0.5441
  896MPD2    C413183   2.552   0.167   1.246 -0.4159 -0.5740  0.5211
  896MPD2    C513184   2.687   0.196   1.276  0.1145  0.7021 -0.7259
  896MPD2     H13185   2.483   0.471   1.109  0.1289 -0.3494 -1.4126
  896MPD2    H113186   2.510   0.074   1.281  1.5715 -2.0763 -1.0456
  896MPD2    H213187   2.855   0.315   1.259 -0.6522 -0.2240 -0.9302
  896MPD2    H313188   2.753   0.127   1.328 -0.6408  1.0215  0.6547
  896MPD2     N13189   2.338   0.281   1.164 -0.2438  0.2988  0.0867
  896MPD2    H513190   2.309   0.368   1.120  2.5431  2.0629  1.7527
  896MPD2    N113191   2.740   0.548   1.149  0.0305  0.0668 -0.6723
  896MPD2    H713192   2.829   0.549   1.197  0.5286 -1.4955 -1.5716
  897MPD2     C13193   3.187   2.128  10.206 -0.2238 -0.6830 -0.6718
  897MPD2    C113194   3.062   2.155  10.151 -0.1704 -0.9105  0.3446
  897MPD2    C213195   2.954   2.178  10.235 -0.5145  0.3989 -0.5253
  897MPD2    C313196   2.969   2.188  10.376 -0.3465  0.1175 -0.3453
  897MPD2    C413197   3.096   2.158  10.429 -0.2349  0.4201 -0.4585
  897MPD2    C513198   3.203   2.122  10.345 -0.3218 -0.0978 -0.3854
  897MPD2     H13199   2.868   2.223  10.187 -0.2911  0.3048 -1.0139
  897MPD2    H113200   3.111   2.167  10.536 -1.8102 -0.9546 -0.1316
  897MPD2    H213201   3.278   2.109  10.150  1.0692 -0.3474  1.2877
  897MPD2    H313202   3.299   2.108  10.393 -0.7016  1.0496  0.7141
  897MPD2     N13203   2.870   2.243  10.460 -1.1002  0.1399 -0.5228
  897MPD2    H513204   2.901   2.271  10.553  0.3956  0.1547 -1.0179
  897MPD2    N113205   3.037   2.195  10.020 -0.2011 -0.1135 -0.5273
  897MPD2    H713206   2.943   2.210   9.985 -1.0624 -1.3471  1.2200
  898MPD2     C13207   4.628   3.524   0.274  0.2821 -0.1431 -0.2634
  898MPD2    C113208   4.732   3.580   0.344 -0.0970  0.0652  0.0932
  898MPD2    C213209   0.048   3.704   0.313 -0.5205  0.3328  0.3688
  898MPD2    C313210   4.728   3.779   0.214 -0.3281  1.1016 -0.0301
  898MPD2    C413211   4.619   3.727   0.144 -0.1196  0.3538 -0.1297
  898MPD2    C513212   4.570   3.604   0.174 -0.1151  1.0266  0.0445
  898MPD2     H13213   0.128   3.747   0.372  0.6851 -0.4382 -0.7002
  898MPD2    H113214   4.577   3.779   0.059  0.6490 -0.5033 -1.0493
  898MPD2    H213215   4.588   3.427   0.302 -0.6299  0.3985  0.3480
  898MPD2    H313216   4.492   3.552   0.118 -0.5728 -1.1900  2.7483
  898MPD2     N13217   0.033   3.914   0.191  0.1573 -0.7190 -0.1480
  898MPD2    H513218   0.109   3.936   0.255 -1.7563 -1.6309  2.4539
  898MPD2    N113219   0.057   3.511   0.453 -0.0174 -0.4043  0.3120
  898MPD2    H713220   0.146   3.543   0.490 -0.8285  1.8894  0.2524
  899MPD2     C13221   0.758   4.276  17.257 -1.3148  0.1930  0.4066
  899MPD2    C113222   0.874   4.332  17.295 -0.2766 -0.2029 -0.1771
  899MPD2    C213223   0.890   4.345  17.439  0.1017  0.4140 -0.2629
  899MPD2    C313224   0.801   4.302  17.533  0.4289 -0.8390  0.0875
  899MPD2    C413225   0.681   4.253  17.488  0.1040  0.1271 -1.0493
  899MPD2    C513226   0.667   4.239  17.351  0.8449 -0.0371 -0.1913
  899MPD2     H13227   0.972   4.410  17.468  0.6500  0.3788 -1.7148
  899MPD2    H113228   0.605   4.213  17.553  0.6457  3.8489  1.8265
  899MPD2    H213229   0.726   4.259  17.155 -2.3062  0.9981  0.5722
  899MPD2    H313230   0.579   4.191  17.309  1.2955 -0.1445 -1.0078
  899MPD2     N13231   0.809   4.316  17.673 -0.4927  0.8516 -0.1514
  899MPD2    H513232   0.739   4.273  17.732 -0.4974  0.6790 -0.2846
  899MPD2    N113233   0.962   4.382  17.198 -0.0523  0.4845  0.2713
  899MPD2    H713234   0.921   4.396  17.106 -0.7435 -0.9942  0.3532
  900MPD2     C13235   1.149   0.341  12.342  0.1940  0.4067 -0.1122
  900MPD2    C113236   1.032   0.311  12.408  0.0619 -0.5112 -0.0546
  900MPD2    C213237   0.920   0.396  12.394  0.1434  0.7788  1.3222
  900MPD2    C313238   0.936   0.513  12.316  0.1816 -0.3223 -0.0382
  900MPD2    C413239   1.062   0.548  12.268  0.2849 -0.0145 -0.1861
  900MPD2    C513240   1.166   0.464  12.277 -0.7144  0.6826 -0.1960
  900MPD2     H13241   0.828   0.378  12.449 -0.7431  2.6239  0.4400
  900MPD2    H113242   1.068   0.642  12.214 -1.0757  1.1732  1.7189
  900MPD2    H213243   1.237   0.279  12.332 -0.1832 -0.3999  1.5454
  900MPD2    H313244   1.262   0.496  12.237  0.4391 -0.8406  1.3574
  900MPD2     N13245   0.808   0.586  12.296  0.1852  0.1376 -0.1468
  900MPD2    H513246   0.723   0.550  12.336  1.2443 -0.1860  1.8093
  900MPD2    N113247   1.039   0.200  12.487  0.2130  0.0568  0.1755
  900MPD2    H713248   1.127   0.150  12.496 -0.1000 -0.4646  0.3464
  901MPD2     C13249   1.588   4.291  12.420  0.3331 -0.1133 -0.8475
  901MPD2    C113250   1.461   4.234  12.439 -0.4129  0.4270  0.4126
  901MPD2    C213251   1.362   4.316  12.482  0.2074  0.8033 -0.4755
  901MPD2    C313252   1.382   4.443  12.519  0.5289  0.6243  0.6914
  901MPD2    C413253   1.506   4.490  12.502 -0.0675  0.3742  0.3878
  901MPD2    C513254   1.607   4.418  12.451  0.1722 -0.3473  0.3378
  901MPD2     H13255   1.265   4.279  12.514  0.6009  1.2269  1.2395
  901MPD2    H113256   1.528   4.593  12.528 -3.6089  0.8612  1.4350
  901MPD2    H213257   1.675   4.238  12.383  0.2176 -1.9497  1.5188
  901MPD2    H313258   1.701   4.471  12.437 -1.2871  1.9426 -0.7166
  901MPD2     N13259   1.285   4.511  12.600 -0.6575  0.0139 -0.3483
  901MPD2    H513260   1.193   4.470  12.610 -0.6471  0.6244  2.3354
  901MPD2    N113261   1.435   4.099  12.417 -0.3972  0.2682  0.2432
  901MPD2    H713262   1.513   4.035  12.419 -0.8593 -0.3668 -2.0434
  902MPD2     C13263   0.184   3.049  11.874 -0.6027  0.2373  0.5259
  902MPD2    C113264   0.071   3.106  11.825 -0.6225 -0.4194 -0.2104
  902MPD2    C213265   0.030   3.073  11.701 -0.0923  0.3914  0.6086
  902MPD2    C313266   0.083   2.976  11.629  0.1251  0.1359 -1.2590
  902MPD2    C413267   0.191   2.909  11.682  0.8312 -0.0362 -0.4563
  902MPD2    C513268   0.242   2.949  11.807 -0.4472 -0.0488 -0.7325
  902MPD2     H13269   4.676   3.117  11.665 -0.8783 -0.5265  1.5010
  902MPD2    H113270   0.242   2.828  11.630  0.8284  0.3576 -1.0758
  902MPD2    H213271   0.227   3.084  11.967  2.0854 -1.6786 -0.0189
  902MPD2    H313272   0.331   2.906  11.850 -1.3803  0.7522  2.0327
  902MPD2     N13273   0.016   2.942  11.513 -0.4510  0.5576 -0.5668
  902MPD2    H513274   4.682   3.003  11.473  0.7195  1.9769 -0.5171
  902MPD2    N113275   0.009   3.207  11.905  0.5193 -0.1381  0.8885
  902MPD2    H713276   0.050   3.236  11.993 -0.3191  0.7265  1.0010
  903MPD2     C13277   4.268   3.021  11.781  0.1078  0.7788  0.5908
  903MPD2    C113278   4.227   2.922  11.695 -0.3150 -0.4011 -0.9947
  903MPD2    C213279   4.131   2.832  11.735  0.2667 -0.7751 -0.7636
  903MPD2    C313280   4.066   2.846  11.853  0.5569 -0.2874  0.0495
  903MPD2    C413281   4.099   2.950  11.936 -0.1524  0.8773 -0.0242
  903MPD2    C513282   4.200   3.029  11.899 -0.6878  0.2261  0.2167
  903MPD2     H13283   4.117   2.750  11.666 -3.1926 -1.3544  0.6369
  903MPD2    H113284   4.066   2.967  12.038  0.4783 -0.3285  0.3766
  903MPD2    H213285   4.354   3.085  11.766 -0.2639  1.8158  2.9776
  903MPD2    H313286   4.236   3.101  11.971  2.6504 -0.4972 -0.7345
  903MPD2     N13287   3.978   2.743  11.898 -0.0956  0.9886 -0.2902
  903MPD2    H513288   3.973   2.667  11.830 -0.5977  1.3355 -0.6403
  903MPD2    N113289   4.298   2.915  11.576 -0.3300  0.1943  0.1874
  903MPD2    H713290   4.369   2.986  11.564  0.8833 -0.7739  1.6094
  904MPD2     C13291   4.088   2.445  13.680  0.2970  0.4379 -0.0534
  904MPD2    C113292   4.035   2.431  13.811 -0.3947  0.5455 -0.5098
  904MPD2    C213293   4.131   2.430  13.913  0.3540 -0.4642  0.1584
  904MPD2    C313294   4.261   2.460  13.887 -0.0476 -0.4454 -0.0632
  904MPD2    C413295   4.298   2.504  13.762 -0.2199 -0.3133  0.2758
  904MPD2    C513296   4.213   2.487  13.657  0.2174 -0.4730  0.6019
  904MPD2     H13297   4.092   2.409  14.012 -3.3343  0.3118 -1.1085
  904MPD2    H113298   4.396   2.544  13.741  0.7862 -3.7021 -1.4813
  904MPD2    H213299   4.024   2.432  13.593  1.6377  1.2778 -1.1775
  904MPD2    H313300   4.244   2.525  13.561 -3.3725  0.7449 -0.0489
  904MPD2     N13301   4.345   2.461  14.002 -0.3869 -0.0889  0.2738
  904MPD2    H513302   4.316   2.433  14.095 -1.5673  1.8006  0.4605
  904MPD2    N113303   3.898   2.426  13.837  0.1895 -0.7254 -0.3954
  904MPD2    H713304   3.878   2.366  13.916 -1.0597 -0.2339 -0.3472
  905MPD2     C13305   3.838   2.189  13.281 -0.3485 -0.6568  0.1322
  905MPD2    C113306   3.918   2.294  13.323  0.3471 -0.8374  1.0583
  905MPD2    C213307   4.045   2.272  13.355  0.3202 -0.3427  0.6933
  905MPD2    C313308   4.098   2.141  13.356 -0.8950  0.0327 -0.2142
  905MPD2    C413309   4.021   2.043  13.304  0.9585  0.2332 -0.1533
  905MPD2    C513310   3.893   2.065  13.263 -0.2431  0.3117 -0.1027
  905MPD2     H13311   4.109   2.353  13.390  1.4663 -0.5150 -1.0009
  905MPD2    H113312   4.061   1.942  13.292  0.2729 -0.2126  1.3206
  905MPD2    H213313   3.733   2.199  13.259 -0.9350 -0.6529  2.9642
  905MPD2    H313314   3.831   1.987  13.222 -0.2252 -0.6234  1.6239
  905MPD2     N13315   4.228   2.115  13.387 -0.0611 -0.4832  0.3935
  905MPD2    H513316   4.255   2.021  13.413  1.1246 -0.2840 -0.1366
  905MPD2    N113317   3.849   2.412  13.342 -0.6919 -0.4296 -0.2388
  905MPD2    H713318   3.756   2.395  13.379 -0.1138 -1.5079  0.7045
  906MPD2     C13319   1.627   2.494  11.108  0.9917  0.9320  0.6386
  906MPD2    C113320   1.599   2.380  11.037 -0.1653  0.4072  0.1572
  906MPD2    C213321   1.575   2.264  11.112 -0.3389  0.3175 -0.5967
  906MPD2    C313322   1.567   2.261  11.249  0.7306 -0.7240 -0.0402
  906MPD2    C413323   1.592   2.380  11.314 -0.6381  0.7187 -0.4036
  906MPD2    C513324   1.623   2.488  11.244  0.1343  0.0766  0.1470
  906MPD2     H13325   1.574   2.165  11.067 -1.2610  0.8186 -1.6887
  906MPD2    H113326   1.591   2.387  11.422  2.2296 -0.2383 -0.3138
  906MPD2    H213327   1.672   2.584  11.068 -0.3791  0.5445 -1.7875
  906MPD2    H313328   1.638   2.578  11.302  2.1892  0.5997 -1.1837
  906MPD2     N13329   1.551   2.127  11.311 -0.2939  1.3490  0.0928
  906MPD2    H513330   1.544   2.048  11.247  2.0185 -0.0055  1.5018
  906MPD2    N113331   1.601   2.378  10.897 -0.0976 -0.2206 -0.0842
  906MPD2    H713332   1.565   2.294  10.854 -0.7713  1.3378 -2.5532
  907MPD2     C13333   0.657   2.135  15.410  0.3009 -0.6355 -0.3499
  907MPD2    C113334   0.665   2.001  15.372  0.3331 -0.6239 -0.8061
  907MPD2    C213335   0.720   1.913  15.463 -0.2837 -0.6773  0.6508
  907MPD2    C313336   0.782   1.962  15.577 -0.2593 -0.3800 -0.0914
  907MPD2    C413337   0.777   2.095  15.615 -0.5403  0.1305 -0.4060
  907MPD2    C513338   0.713   2.180  15.529 -0.8889 -0.4983  0.6319
  907MPD2     H13339   0.719   1.807  15.443  1.7138 -0.2937 -1.4696
  907MPD2    H113340   0.831   2.139  15.698  1.0860 -1.6661 -0.5229
  907MPD2    H213341   0.606   2.215  15.357 -1.5697 -1.2567  0.5158
  907MPD2    H313342   0.720   2.284  15.557 -3.6964  0.4027 -2.0083
  907MPD2     N13343   0.843   1.862  15.652  0.3665  0.5108 -0.0993
  907MPD2    H513344   0.848   1.768  15.615  0.9403 -0.1834  1.7737
  907MPD2    N113345   0.600   1.944  15.260 -0.2303 -0.4534  0.5347
  907MPD2    H713346   0.614   1.844  15.254 -2.3885 -0.7482  0.7500
  908MPD2     C13347   2.393   2.256   9.402  0.1766  0.7823 -0.0846
  908MPD2    C113348   2.514   2.215   9.361 -0.1383 -0.0852 -0.4922
  908MPD2    C213349   2.628   2.256   9.432  0.4059 -0.2272  0.6436
  908MPD2    C313350   2.624   2.330   9.546  0.0795 -0.4644  0.1033
  908MPD2    C413351   2.496   2.382   9.583 -0.1930  0.3968 -0.0001
  908MPD2    C513352   2.386   2.335   9.517  0.2984  0.1049  0.3880
  908MPD2     H13353   2.725   2.221   9.398  1.5977  3.4442  0.3177
  908MPD2    H113354   2.479   2.446   9.669  1.1294  1.0401 -0.2176
  908MPD2    H213355   2.298   2.230   9.357  0.9152 -1.6859 -0.1974
  908MPD2    H313356   2.292   2.371   9.556 -0.4897 -1.6382  0.1160
  908MPD2     N13357   2.752   2.367   9.603 -0.0402 -0.2106 -0.4947
  908MPD2    H513358   2.829   2.312   9.565 -1.2047 -1.4435 -1.0932
  908MPD2    N113359   2.523   2.124   9.254  0.4704 -0.5943  0.5152
  908MPD2    H713360   2.438   2.086   9.212  0.2592 -0.9972  1.3107
  909MPD2     C13361   3.626   0.107  11.746 -0.4953 -0.1548 -0.2698
  909MPD2    C113362   3.607   0.230  11.687 -0.9983 -0.5418  0.3963
  909MPD2    C213363   3.498   0.306  11.726  0.0121  0.2794  0.4728
  909MPD2    C313364   3.403   0.253  11.818  0.4096 -0.0385 -0.9375
  909MPD2    C413365   3.429   0.129  11.874 -0.1094 -0.3569 -0.3693
  909MPD2    C513366   3.539   0.058  11.840 -0.1600 -0.6764 -0.6943
  909MPD2     H13367   3.493   0.406  11.683 -0.1673  1.0078  2.1682
  909MPD2    H113368   3.369   0.095  11.958 -2.5648 -0.4008 -2.1522
  909MPD2    H213369   3.721   0.058  11.730  0.3644  0.7368  2.2672
  909MPD2    H313370   3.574   4.704  11.885  0.3612 -1.5627 -2.8917
  909MPD2     N13371   3.292   0.340  11.844  0.3096 -0.5037 -0.8595
  909MPD2    H513372   3.297   0.433  11.803 -3.3724  0.3642  0.6411
  909MPD2    N113373   3.686   0.273  11.576  0.7223 -0.1496  0.4919
  909MPD2    H713374   3.675   0.372  11.559  1.4219 -0.0095  0.8529
  910MPD2     C13375   0.290   2.617  16.030  0.1646 -0.9866 -0.2860
  910MPD2    C113376   0.279   2.530  15.928  0.1375  0.3618  0.4186
  910MPD2    C213377   0.208   2.560  15.814  0.3051  0.0415 -0.0811
  910MPD2    C313378   0.148   2.680  15.794 -0.0020 -0.3022 -0.0084
  910MPD2    C413379   0.163   2.771  15.894  0.1030 -0.1551  0.2215
  910MPD2    C513380   0.225   2.735  16.014 -0.2428  0.4839 -0.4446
  910MPD2     H13381   0.196   2.479  15.743 -0.0768  0.1239 -0.1132
  910MPD2    H113382   0.131   2.874  15.882  0.0782 -0.5725 -3.2208
  910MPD2    H213383   0.336   2.593  16.125  2.1387 -2.3638 -1.5843
  910MPD2    H313384   0.236   2.805  16.096  0.9032 -1.1002  0.7463
  910MPD2     N13385   0.059   2.706  15.684  0.2461 -0.0176 -0.2235
  910MPD2    H513386   0.022   2.800  15.670 -2.2593 -0.9434  0.1744
  910MPD2    N113387   0.334   2.393  15.936  0.4181 -0.1290 -0.5152
  910MPD2    H713388   0.332   2.334  15.853  0.3519 -1.0675  0.1501
  911MPD2     C13389   2.989   3.641  16.540  0.0607 -0.0674  0.4897
  911MPD2    C113390   3.014   3.542  16.450  0.5461  0.1827 -0.4326
  911MPD2    C213391   2.924   3.518  16.349 -0.7871  0.0914 -0.9166
  911MPD2    C313392   2.811   3.593  16.331 -0.1037  0.3994 -0.1817
  911MPD2    C413393   2.781   3.679  16.431 -0.2101  0.3445 -0.1405
  911MPD2    C513394   2.871   3.710  16.532 -0.3313 -0.8737  0.5200
  911MPD2     H13395   2.948   3.443  16.275 -2.6007 -2.2653  0.8747
  911MPD2    H113396   2.687   3.733  16.433 -0.9427 -0.8208 -4.1031
  911MPD2    H213397   3.049   3.668  16.626 -0.1624  0.7734  0.3833
  911MPD2    H313398   2.829   3.765  16.615  0.3793 -1.9326  1.5835
  911MPD2     N13399   2.722   3.570  16.221  0.0889  0.0186  0.6284
  911MPD2    H513400   2.748   3.493  16.159  0.0432 -0.5527  1.3243
  911MPD2    N113401   3.135   3.474  16.472  0.4272  0.4301 -0.4088
  911MPD2    H713402   3.195   3.519  16.541 -0.4172  1.1348 -0.1425
  912MPD2     C13403   2.739   3.091  15.682 -0.2710 -0.0098 -0.5784
  912MPD2    C113404   2.648   3.103  15.782 -0.1684  0.1228 -0.8673
  912MPD2    C213405   2.594   2.989  15.842  0.1322  0.5187 -0.3447
  912MPD2    C313406   2.639   2.871  15.794  0.2578 -0.3982 -1.1009
  912MPD2    C413407   2.732   2.860  15.694 -0.3718  0.3143  0.4040
  912MPD2    C513408   2.789   2.970  15.647 -0.8420 -0.4488 -0.3994
  912MPD2     H13409   2.521   2.985  15.923 -0.5046  0.1293 -0.9379
  912MPD2    H113410   2.769   2.764  15.663  0.2923  0.4944  0.6394
  912MPD2    H213411   2.791   3.179  15.645  0.3052 -0.8824 -1.8469
  912MPD2    H313412   2.866   2.967  15.570 -0.3958 -0.3953  0.0417
  912MPD2     N13413   2.595   2.748  15.856 -0.2536 -0.8802 -0.9161
  912MPD2    H513414   2.536   2.756  15.939  1.2261  1.2874 -0.0658
  912MPD2    N113415   2.603   3.235  15.827 -0.2810 -0.8135 -0.1307
  912MPD2    H713416   2.627   3.319  15.775  0.3321 -1.2118 -0.5020
  913MPD2     C13417   2.970   4.229  10.343  0.1179 -0.2915 -0.3603
  913MPD2    C113418   2.910   4.144  10.247  0.4625 -0.2814 -0.0877
  913MPD2    C213419   2.851   4.202  10.137  0.5902 -0.8760 -0.0350
  913MPD2    C313420   2.840   4.338  10.133  0.0719  0.3706  0.1174
  913MPD2    C413421   2.907   4.414  10.222  0.3333  0.1625 -0.8520
  913MPD2    C513422   2.968   4.364  10.327 -0.0373  0.2348 -1.2809
  913MPD2     H13423   2.802   4.142  10.061 -2.1873  1.6744 -0.2801
  913MPD2    H113424   2.898   4.522  10.216 -1.2802 -0.0915 -2.8484
  913MPD2    H213425   3.032   4.194  10.425  1.7603 -0.6826 -1.7785
  913MPD2    H313426   3.006   4.420  10.411 -0.8677 -1.3313  0.1430
  913MPD2     N13427   2.782   4.406  10.030 -0.6673 -0.3757  0.1542
  913MPD2    H513428   2.800   4.505  10.021 -0.0322 -0.4260  0.9046
  913MPD2    N113429   2.911   4.013  10.273  0.1315  0.9581 -0.1404
  913MPD2    H713430   2.930   3.983  10.368  1.3641 -0.6097 -0.8759
  914MPD2     C13431   0.491   3.893  12.215 -1.3961  0.3336  0.0732
  914MPD2    C113432   0.576   3.995  12.224  0.6412 -0.5556  0.1367
  914MPD2    C213433   0.707   3.987  12.283  0.1388 -0.5665  0.1925
  914MPD2    C313434   0.750   3.860  12.304  0.1753 -0.5819  0.0075
  914MPD2    C413435   0.672   3.749  12.275 -0.1841  0.4498 -0.3232
  914MPD2    C513436   0.542   3.770  12.243 -0.0420  0.1167  0.2518
  914MPD2     H13437   0.771   4.073  12.295  0.4720 -0.6535 -0.9379
  914MPD2    H113438   0.704   3.645  12.275  0.7636  0.7373  0.5058
  914MPD2    H213439   0.391   3.910  12.177 -0.6665  1.6948 -1.2546
  914MPD2    H313440   0.486   3.682  12.213  1.8277 -1.1675  0.6041
  914MPD2     N13441   0.883   3.848  12.355  0.1934 -0.3323 -0.0841
  914MPD2    H513442   0.930   3.933  12.383 -0.8718 -0.2028  1.3208
  914MPD2    N113443   0.529   4.122  12.167 -0.1857  0.1024  0.2601
  914MPD2    H713444   0.441   4.133  12.118  0.8815 -0.6453 -1.8537
  915MPD2     C13445   3.863   4.622  15.328  0.1106 -0.2019  0.0446
  915MPD2    C113446   3.737   4.645  15.266  0.5692 -0.5619 -0.4166
  915MPD2    C213447   3.632   4.673  15.343 -0.4171 -0.2806  0.6071
  915MPD2    C313448   3.639   4.685  15.481 -0.6108  0.2614 -0.3708
  915MPD2    C413449   3.759   4.653  15.533  0.7532 -0.0052  0.5597
  915MPD2    C513450   3.872   4.631  15.463 -0.4445  0.4526  0.8618
  915MPD2     H13451   3.539   4.712  15.305  0.8976  1.6788 -0.5770
  915MPD2    H113452   3.775   4.649  15.640  0.4368  1.9513  0.6684
  915MPD2    H213453   3.954   4.608  15.271  0.2769  0.3308  0.1836
  915MPD2    H313454   3.965   4.605  15.512  0.4758  0.5067 -0.8225
  915MPD2     N13455   3.519   4.719  15.554 -0.7171 -0.4717 -0.9301
  915MPD2    H513456   3.437   0.005  15.500 -1.3562 -0.2529  0.1452
  915MPD2    N113457   3.737   4.640  15.123 -0.1265  0.0505  0.0714
  915MPD2    H713458   3.825   4.622  15.074 -0.2179 -0.8522  0.2566
  916MPD2     C13459   2.290   2.897  15.788  0.3993 -0.4393  0.4743
  916MPD2    C113460   2.221   2.801  15.861  0.5029  0.1852  0.2276
  916MPD2    C213461   2.200   2.676  15.803  0.5755  0.0410 -0.0717
  916MPD2    C313462   2.257   2.639  15.682 -0.1643 -0.3021 -0.3451
  916MPD2    C413463   2.307   2.742  15.604 -0.0661 -0.4440  0.2789
  916MPD2    C513464   2.336   2.866  15.659 -0.2198 -0.1356 -0.0586
  916MPD2     H13465   2.151   2.597  15.859  0.7682  0.2525  0.3896
  916MPD2    H113466   2.338   2.731  15.501  3.7747 -2.0018  1.5959
  916MPD2    H213467   2.311   2.995  15.830  0.5862 -1.2310  2.2198
  916MPD2    H313468   2.392   2.940  15.605  2.1769 -0.4394  1.9778
  916MPD2     N13469   2.221   2.511  15.632 -1.0034 -0.4735 -0.5762
  916MPD2    H513470   2.164   2.453  15.694  0.3854 -1.0940  0.1125
  916MPD2    N113471   2.162   2.849  15.980 -0.2990  0.0481  0.4883
  916MPD2    H713472   2.167   2.946  16.009 -1.0656  0.1749  0.2049
  917MPD2     C13473   1.558   4.301  11.126  0.8802 -0.3520  0.0740
  917MPD2    C113474   1.669   4.261  11.183  0.4802 -0.2665  0.0824
  917MPD2    C213475   1.792   4.338  11.167 -0.2639  0.0376 -0.4154
  917MPD2    C313476   1.800   4.440  11.084  0.6212 -0.0004 -0.1501
  917MPD2    C413477   1.685   4.464  11.009 -0.2242 -0.0255 -0.0642
  917MPD2    C513478   1.570   4.407  11.044  0.7733 -0.3050 -0.5039
  917MPD2     H13479   1.880   4.297  11.215 -0.4814  0.3255  0.2293
  917MPD2    H113480   1.671   4.545  10.939  3.8304 -2.2731 -3.4785
  917MPD2    H213481   1.457   4.264  11.132  0.4038  1.2985  2.0075
  917MPD2    H313482   1.478   4.451  11.007  0.7310 -0.5081 -0.6457
  917MPD2     N13483   1.915   4.518  11.069 -0.6944  0.0617  0.0331
  917MPD2    H513484   1.905   4.585  10.993 -0.3388  0.6230  0.4708
  917MPD2    N113485   1.648   4.160  11.281  0.2891  0.0381 -0.1446
  917MPD2    H713486   1.554   4.130  11.306  0.6530 -0.4862  0.5683
  918MPD2     C13487   1.845   4.729  11.795  0.6543  1.1151 -0.2345
  918MPD2    C113488   1.940   4.633  11.814  0.4774  0.6258  0.3586
  918MPD2    C213489   1.899   4.503  11.794 -0.0385 -0.6373 -0.5515
  918MPD2    C313490   1.762   4.470  11.768 -0.6019  0.1166 -0.6260
  918MPD2    C413491   1.675   4.568  11.750 -0.4150  0.0803  0.0897
  918MPD2    C513492   1.713   4.692  11.763 -0.1559 -0.3260  0.3274
  918MPD2     H13493   1.976   4.427  11.799  1.2604  0.6895 -0.6718
  918MPD2    H113494   1.568   4.554  11.737  0.2086 -2.9110 -1.7278
  918MPD2    H213495   1.865   0.098  11.794 -0.9926  1.4593  1.8353
  918MPD2    H313496   1.645   0.037  11.750 -0.6311 -0.6589  0.7155
  918MPD2     N13497   1.719   4.339  11.749 -0.6616 -0.1402  0.3116
  918MPD2    H513498   1.793   4.269  11.749 -1.0525 -0.5644  1.8880
  918MPD2    N113499   2.072   4.658  11.850  0.0883 -0.0543 -0.1331
  918MPD2    H713500   2.130   4.581  11.880 -0.0840 -0.0526  0.2105
  919MPD2     C13501   2.731   3.699  11.412 -0.4839 -0.2354 -0.1012
  919MPD2    C113502   2.672   3.585  11.369  0.2439  0.5100 -0.6514
  919MPD2    C213503   2.644   3.570  11.236  0.1488  0.2407  0.2389
  919MPD2    C313504   2.683   3.662  11.139  0.1756 -0.6402 -0.0929
  919MPD2    C413505   2.739   3.779  11.191 -0.3321 -0.1064  0.1732
  919MPD2    C513506   2.758   3.800  11.324 -0.3734 -0.3663 -0.4157
  919MPD2     H13507   2.602   3.473  11.209  0.8047  0.1635 -0.5244
  919MPD2    H113508   2.780   3.852  11.122 -0.7609  0.0435  0.0764
  919MPD2    H213509   2.751   3.723  11.516  0.6052  2.6410 -0.9927
  919MPD2    H313510   2.815   3.887  11.353  0.6370 -1.1663  0.0203
  919MPD2     N13511   2.648   3.657  11.004  0.6098 -0.8302  0.5680
  919MPD2    H513512   2.681   3.735  10.948 -2.3625  0.7391  1.0597
  919MPD2    N113513   2.625   3.478  11.452  0.1476  0.0889  0.1779
  919MPD2    H713514   2.593   3.390  11.412  1.3615  0.1629 -0.9481
  920MPD2     C13515   2.148   4.235  10.487 -0.0520 -0.9429  0.4300
  920MPD2    C113516   2.101   4.129  10.419  0.2207  0.3906  0.0092
  920MPD2    C213517   2.163   4.009  10.418 -0.3167  0.4474  0.1723
  920MPD2    C313518   2.281   3.995  10.486  0.0639  0.2672 -0.1981
  920MPD2    C413519   2.331   4.101  10.554 -0.0294 -0.3629  0.8310
  920MPD2    C513520   2.267   4.221  10.552 -0.5155  0.7346 -0.0251
  920MPD2     H13521   2.113   3.923  10.378 -0.0498  1.3969 -2.1817
  920MPD2    H113522   2.418   4.099  10.619  2.6148 -0.6905 -2.7201
  920MPD2    H213523   2.110   4.336  10.487  1.3329 -0.4081  2.1353
  920MPD2    H313524   2.308   4.304  10.607 -0.0189 -1.6495  3.1710
  920MPD2     N13525   2.342   3.867  10.504  0.6225 -0.2053  0.1667
  920MPD2    H513526   2.299   3.786  10.461 -0.2084  0.5307 -0.3896
  920MPD2    N113527   1.973   4.140  10.355 -0.1417 -0.5396 -0.0342
  920MPD2    H713528   1.935   4.056  10.312 -0.6178 -0.7570  0.8055
  921MPD2     C13529   4.103   3.619  16.629 -0.3682  0.6872  0.3736
  921MPD2    C113530   4.094   3.549  16.515  0.3076  0.5539  0.3105
  921MPD2    C213531   3.976   3.485  16.503 -0.6322 -0.1037 -0.2902
  921MPD2    C313532   3.870   3.500  16.577  0.6456  0.0570  0.1817
  921MPD2    C413533   3.876   3.590  16.680  1.0151  0.4124  1.7823
  921MPD2    C513534   3.997   3.648  16.709  0.2673  0.0374 -0.2916
  921MPD2     H13535   3.968   3.421  16.415 -1.5294 -1.2210  0.6028
  921MPD2    H113536   3.794   3.615  16.746 -0.1292  0.0700  0.4788
  921MPD2    H213537   4.195   3.671  16.650  0.7381 -0.9461 -0.3972
  921MPD2    H313538   4.009   3.724  16.786 -2.2148 -0.5344  0.6527
  921MPD2     N13539   3.754   3.427  16.537  0.0290  0.3258  0.5300
  921MPD2    H513540   3.760   3.355  16.466  1.2149 -0.6422  1.6085
  921MPD2    N113541   4.198   3.541  16.430 -0.0066  0.3363 -0.2149
  921MPD2    H713542   4.284   3.591  16.447  0.6324 -0.3766 -1.2977
  922MPD2     C13543   4.236   1.303  17.637 -0.0405 -0.6756  0.1798
  922MPD2    C113544   4.249   1.228  17.518 -0.7161  0.5858 -0.1896
  922MPD2    C213545   4.137   1.182  17.453  0.2614 -0.0129 -0.5503
  922MPD2    C313546   4.016   1.215  17.506 -0.1421  0.2403 -0.5326
  922MPD2    C413547   4.008   1.310  17.610 -0.0927  0.2680  0.4786
  922MPD2    C513548   4.121   1.348  17.679 -0.9363 -0.9534  0.6898
  922MPD2     H13549   4.138   1.116  17.367  0.6063  0.0601 -0.6018
  922MPD2    H113550   3.918   1.356  17.650  0.7957  1.5405  1.0063
  922MPD2    H213551   4.324   1.334  17.692 -0.4837  1.4121 -0.2906
  922MPD2    H313552   4.110   1.413   0.016 -4.0280  1.1938 -1.3154
  922MPD2     N13553   3.904   1.152  17.448  0.5841 -0.0235  0.2050
  922MPD2    H513554   3.907   1.084  17.373  1.1539  0.6395 -0.3707
  922MPD2    N113555   4.375   1.171  17.481 -0.3949  0.1473  0.3927
  922MPD2    H713556   4.378   1.107  17.402  1.4027  0.0217  0.5569
  923MPD2     C13557   0.428   2.207   9.227  0.1256  0.5693  0.4312
  923MPD2    C113558   0.422   2.264   9.353 -0.7164  0.0928 -0.4617
  923MPD2    C213559   0.536   2.253   9.431  0.1216  0.1828  0.3721
  923MPD2    C313560   0.646   2.185   9.391 -0.6340 -0.8729 -0.1140
  923MPD2    C413561   0.647   2.119   9.269  0.9919 -0.1630  0.6563
  923MPD2    C513562   0.536   2.135   9.190  0.8129  0.0069 -0.4940
  923MPD2     H13563   0.542   2.308   9.524  1.0078  0.9527 -0.1417
  923MPD2    H113564   0.738   2.080   9.225 -0.3171 -0.1986 -1.9792
  923MPD2    H213565   0.340   2.196   9.165  0.3495 -0.6750  0.3373
  923MPD2    H313566   0.541   2.097   9.089  2.2950  2.0169 -1.1607
  923MPD2     N13567   0.774   2.198   9.456  0.4127 -0.8529  0.7068
  923MPD2    H513568   0.852   2.152   9.409 -0.2770 -0.9820 -0.3115
  923MPD2    N113569   0.305   2.319   9.402 -0.0424  0.0862 -0.4238
  923MPD2    H713570   0.226   2.331   9.340  0.4395 -0.1806 -1.0903
  924MPD2     C13571   0.902   1.326  15.303  0.3227 -0.9749  0.0531
  924MPD2    C113572   0.890   1.269  15.424 -0.6454  0.1422  0.2377
  924MPD2    C213573   0.975   1.317  15.530 -0.5090  0.0298  0.1757
  924MPD2    C313574   1.062   1.426  15.507  0.2793  0.0920  0.5158
  924MPD2    C413575   1.061   1.477  15.380 -0.5221 -0.9972  0.3670
  924MPD2    C513576   0.986   1.431  15.280  0.5552  0.1757 -0.4868
  924MPD2     H13577   0.964   1.285  15.633  1.0604  0.7074  0.5396
  924MPD2    H113578   1.112   1.571  15.362 -1.4883  0.1087  3.4943
  924MPD2    H213579   0.845   1.305  15.213 -0.9932 -1.2287  0.9541
  924MPD2    H313580   0.990   1.472  15.180 -1.5523  0.5588 -0.4071
  924MPD2     N13581   1.131   1.492  15.608 -0.0791  0.7271 -0.0782
  924MPD2    H513582   1.167   1.581  15.577  3.3758 -0.5870  0.1701
  924MPD2    N113583   0.796   1.168  15.442 -0.0548 -0.9184  0.5039
  924MPD2    H713584   0.728   1.157  15.367 -0.5416  0.6053  0.7038
  925MPD2     C13585   4.473   3.648  14.479  0.1759 -0.2583  1.2957
  925MPD2    C113586   4.336   3.657  14.467 -0.0173  0.4111  0.5577
  925MPD2    C213587   4.262   3.712  14.577  0.1005 -0.2007 -0.1029
  925MPD2    C313588   4.331   3.776  14.682 -0.4850 -0.1381  0.0627
  925MPD2    C413589   4.468   3.760  14.697  0.1481  0.0646 -0.3465
  925MPD2    C513590   4.529   3.684  14.602 -0.4784 -0.0687 -0.1413
  925MPD2     H13591   4.154   3.710  14.564  0.1076  0.3187 -0.2158
  925MPD2    H113592   4.528   3.790  14.782 -0.7787 -1.2769  0.7710
  925MPD2    H213593   4.536   3.608  14.401  0.2581  0.0295  1.2147
  925MPD2    H313594   4.635   3.667  14.615 -0.7256  2.0302  4.5623
  925MPD2     N13595   4.261   3.829  14.797  0.4367 -0.2266  0.1162
  925MPD2    H513596   4.311   3.827  14.885  2.0729 -2.7050 -0.8985
  925MPD2    N113597   4.266   3.622  14.349 -0.2705 -0.3092 -0.4973
  925MPD2    H713598   4.165   3.630  14.343 -0.2709 -1.1330 -1.6474
  926MPD2     C13599   2.803   1.624  13.431 -0.4033 -0.4505  0.1214
  926MPD2    C113600   2.836   1.756  13.433  0.0009 -0.7483 -0.0400
  926MPD2    C213601   2.924   1.802  13.339  0.5152 -0.3124  0.2733
  926MPD2    C313602   2.991   1.714  13.259 -0.3330  0.2196 -0.1507
  926MPD2    C413603   2.969   1.579  13.265  1.1968 -0.3179 -0.0842
  926MPD2    C513604   2.864   1.533  13.348 -0.7909  0.2056  0.2782
  926MPD2     H13605   2.941   1.909  13.329  1.0403 -0.4259 -0.0133
  926MPD2    H113606   3.018   1.511  13.196  1.7068 -1.3148  1.2679
  926MPD2    H213607   2.727   1.580  13.495 -2.6748  0.3156 -2.0286
  926MPD2    H313608   2.839   1.428  13.342  0.8976 -0.2542  1.3738
  926MPD2     N13609   3.096   1.755  13.169 -0.2529  0.6432 -0.0920
  926MPD2    H513610   3.165   1.690  13.133 -0.3263  0.6526 -0.2478
  926MPD2    N113611   2.779   1.856  13.522 -0.6015 -0.1169  0.2786
  926MPD2    H713612   2.791   1.955  13.501  2.3182 -0.1936  1.5088
  927MPD2     C13613   2.413   4.248  17.364  0.0368 -0.1472 -0.2619
  927MPD2    C113614   2.512   4.172  17.425 -0.7279  0.5906  0.3576
  927MPD2    C213615   2.633   4.176  17.371  0.1039 -0.7380  0.2602
  927MPD2    C313616   2.662   4.241  17.254  0.0709 -0.1315  0.0292
  927MPD2    C413617   2.566   4.325  17.202 -0.0600  0.3548 -0.1255
  927MPD2    C513618   2.445   4.326  17.254 -0.7411  0.6497  0.8456
  927MPD2     H13619   2.714   4.123  17.420 -0.1505 -1.1171  0.2705
  927MPD2    H113620   2.595   4.378  17.113  0.5779 -1.6573 -1.1328
  927MPD2    H213621   2.313   4.258  17.405  0.4799 -3.2230  1.6168
  927MPD2    H313622   2.370   4.389  17.207  2.0215  4.4990  1.5726
  927MPD2     N13623   2.793   4.235  17.197  0.3622 -0.3081 -0.0566
  927MPD2    H513624   2.863   4.185  17.251 -1.1685 -0.9763  1.2874
  927MPD2    N113625   2.483   4.110  17.552 -0.2488 -0.0526 -0.0377
  927MPD2    H713626   2.397   4.142  17.595  0.1982 -0.8474  1.4462
  928MPD2     C13627   0.378   2.955   0.785  1.0269 -0.0131  1.4115
  928MPD2    C113628   0.499   2.998   0.828 -0.5300 -0.4132  0.4122
  928MPD2    C213629   0.598   3.033   0.738  0.1107  0.2407 -0.2842
  928MPD2    C313630   0.571   3.048   0.605  0.5438 -0.0957 -0.1193
  928MPD2    C413631   0.446   3.004   0.562  0.3267 -1.2282  0.1567
  928MPD2    C513632   0.353   2.956   0.652 -0.1916  0.2909 -0.1713
  928MPD2     H13633   0.694   3.063   0.778  0.5334 -0.8496 -0.4578
  928MPD2    H113634   0.426   2.994   0.456  0.3423  0.7248 -0.0354
  928MPD2    H213635   0.301   2.925   0.854 -0.8700 -1.6069 -1.4202
  928MPD2    H313636   0.260   2.909   0.620  0.2634  0.8832 -2.3692
  928MPD2     N13637   0.663   3.084   0.505  0.1603  0.1354  0.1579
  928MPD2    H513638   0.621   3.100   0.414  2.2668 -0.5052 -0.9111
  928MPD2    N113639   0.523   3.003   0.965 -0.2428  0.0459  0.3783
  928MPD2    H713640   0.439   2.988   1.020 -0.6529  0.9092 -0.0182
  929MPD2     C13641   1.229   2.090  10.973  0.0199  0.3788  0.2413
  929MPD2    C113642   1.118   2.018  10.949 -0.1666  1.0834 -0.8825
  929MPD2    C213643   1.039   2.056  10.841  0.5848 -0.0248 -0.4120
  929MPD2    C313644   1.078   2.172  10.760 -0.0891 -1.4870  0.0408
  929MPD2    C413645   1.192   2.244  10.794  0.2338  0.7049 -0.4238
  929MPD2    C513646   1.268   2.202  10.902  0.0331  0.1446 -0.2885
  929MPD2     H13647   0.941   2.011  10.833  0.7021 -0.1124 -1.4020
  929MPD2    H113648   1.231   2.317  10.724 -2.3193  1.3469 -1.1815
  929MPD2    H213649   1.297   2.048  11.046  1.4550  0.9086 -0.7732
  929MPD2    H313650   1.368   2.244  10.907  0.3042 -0.4824 -0.4556
  929MPD2     N13651   0.985   2.216  10.656  0.0969 -0.0379 -0.0549
  929MPD2    H513652   0.907   2.153  10.651 -0.4558  0.6154  0.3312
  929MPD2    N113653   1.085   1.906  11.034 -0.6084  0.5242 -0.6224
  929MPD2    H713654   1.134   1.900  11.122  1.3985  0.8800 -1.7203
  930MPD2     C13655   2.864   0.222  13.648  1.0545 -0.2005 -0.6119
  930MPD2    C113656   2.794   0.215  13.535 -0.2200 -0.1819 -0.5935
  930MPD2    C213657   2.705   0.108  13.525 -0.5587 -0.2760  0.3280
  930MPD2    C313658   2.688   0.015  13.626 -0.7911  0.1571 -0.7407
  930MPD2    C413659   2.766   0.020  13.739  0.0498  0.2381  0.2346
  930MPD2    C513660   2.855   0.127  13.746  0.8736 -0.2548 -0.3719
  930MPD2     H13661   2.649   0.092  13.434  1.7877 -1.4558 -0.9022
  930MPD2    H113662   2.776   4.682  13.816  2.6903  1.4838  1.1176
  930MPD2    H213663   2.931   0.302  13.676 -0.5049  1.2214 -0.9037
  930MPD2    H313664   2.925   0.131  13.829  0.7745  0.7117 -0.3368
  930MPD2     N13665   2.601   4.642  13.605  0.0099 -0.6287  0.0569
  930MPD2    H513666   2.629   4.556  13.652  2.6293 -1.1573 -2.4801
  930MPD2    N113667   2.813   0.305  13.432  0.3629  0.5261  0.4210
  930MPD2    H713668   2.894   0.365  13.447 -0.0688  1.8694 -2.6133
  931MPD2     C13669   2.810   3.593   0.282 -0.4091  0.3379 -0.1670
  931MPD2    C113670   2.675   3.584   0.287  0.0451  0.3160  0.7915
  931MPD2    C213671   2.614   3.496   0.380 -0.0180 -0.4790  0.3005
  931MPD2    C313672   2.696   3.430   0.473 -0.9861 -0.3269 -0.8322
  931MPD2    C413673   2.835   3.429   0.453  0.2794 -0.5701 -0.0269
  931MPD2    C513674   2.892   3.517   0.361 -0.6222  0.2846  0.0104
  931MPD2     H13675   2.507   3.483   0.393 -0.1896  2.9214  2.3618
  931MPD2    H113676   2.890   3.362   0.517 -0.1390 -1.5014 -0.6490
  931MPD2    H213677   2.848   3.672   0.219  1.9846 -1.0037 -0.4278
  931MPD2    H313678   3.000   3.527   0.362 -0.6517  0.6308 -0.2272
  931MPD2     N13679   2.655   3.343   0.583 -0.2392 -0.2092  0.0157
  931MPD2    H513680   2.723   3.308   0.650  1.0207 -2.6780 -2.5469
  931MPD2    N113681   2.601   3.662   0.197  0.4711  0.5273  0.0845
  931MPD2    H713682   2.657   3.717   0.133  1.0782 -0.7845 -0.5205
  932MPD2     C13683   3.898   3.787  10.732  0.2468  0.7801 -0.7409
  932MPD2    C113684   4.022   3.725  10.754  0.4193 -0.4207  0.5752
  932MPD2    C213685   4.029   3.593  10.708  0.6309  0.1250 -0.0268
  932MPD2    C313686   3.916   3.531  10.663 -0.2318 -0.1298 -0.0277
  932MPD2    C413687   3.800   3.596  10.647  0.0967  0.1205  0.6190
  932MPD2    C513688   3.791   3.726  10.677 -0.3278  0.4483  0.4512
  932MPD2     H13689   4.126   3.545  10.714  1.3601  1.4048 -1.4898
  932MPD2    H113690   3.719   3.539  10.603  1.4504 -1.8519  0.7027
  932MPD2    H213691   3.888   3.888  10.772  0.1837  0.8899 -1.0341
  932MPD2    H313692   3.697   3.776  10.658  0.2475  0.9157 -1.1282
  932MPD2     N13693   3.905   3.399  10.622 -0.0565  0.1497 -0.4983
  932MPD2    H513694   3.806   3.377  10.620  0.0424 -0.2738 -0.6574
  932MPD2    N113695   4.141   3.781  10.810  0.3591 -0.1437  0.7225
  932MPD2    H713696   4.227   3.730  10.792  0.8487  0.4239  1.4575
  933MPD2     C13697   0.229   3.447   1.631 -0.1177  0.3010  0.1726
  933MPD2    C113698   0.279   3.434   1.507  0.3969  1.0677 -1.2765
  933MPD2    C213699   0.229   3.519   1.408 -0.3416  0.6719 -0.0597
  933MPD2    C313700   0.129   3.608   1.429 -0.0614  0.1440  0.0366
  933MPD2    C413701   0.078   3.614   1.553  0.7418  0.1011 -0.5860
  933MPD2    C513702   0.124   3.529   1.651 -0.5655 -0.1406  0.4452
  933MPD2     H13703   0.274   3.511   1.310 -1.0006  2.6803 -0.5178
  933MPD2    H113704   0.020   3.699   1.587  1.5289  1.3795 -2.4107
  933MPD2    H213705   0.280   3.394   1.711  0.4901  0.7053  0.0514
  933MPD2    H313706   0.093   3.540   1.755 -0.6062 -0.0064  0.4187
  933MPD2     N13707   0.096   3.700   1.328 -0.5227 -0.0125 -0.1019
  933MPD2    H513708   0.157   3.699   1.248  1.2366  1.7070  1.2166
  933MPD2    N113709   0.376   3.346   1.476  0.7385  0.0775  0.2313
  933MPD2    H713710   0.431   3.309   1.552  0.8200 -1.1883 -0.4318
  934MPD2     C13711   2.170   0.075   2.011  0.0477  0.2750 -0.1979
  934MPD2    C113712   2.244   0.028   1.905  0.1016 -0.3915  0.7698
  934MPD2    C213713   2.181   0.013   1.787 -0.4603 -0.4863  0.2032
  934MPD2    C313714   2.045   0.034   1.780 -0.4072  0.0642 -0.3549
  934MPD2    C413715   1.973   0.088   1.882  0.6822  0.6350 -1.7691
  934MPD2    C513716   2.040   0.107   2.000 -0.1871 -1.1781 -0.4811
  934MPD2     H13717   2.231   4.708   1.701  0.3900 -1.4153  1.1563
  934MPD2    H113718   1.865   0.094   1.881  0.6855  0.5801 -2.6914
  934MPD2    H213719   2.211   0.083   2.111 -1.6883  0.4254  0.5161
  934MPD2    H313720   1.976   0.135   2.083 -0.3030 -0.0321 -0.9624
  934MPD2     N13721   1.966   0.011   1.665  0.3240 -0.1838  0.5493
  934MPD2    H513722   1.866   0.024   1.678  0.2061 -0.2047 -0.3004
  934MPD2    N113723   2.381   4.725   1.919  0.0825 -0.3405  0.4991
  934MPD2    H713724   2.422   4.676   1.840  0.0510  1.1700 -0.4494
  935MPD2     C13725   2.113   4.062   0.907  0.4118 -0.2449  0.1033
  935MPD2    C113726   2.048   4.176   0.852 -0.4101 -0.4693 -0.4023
  935MPD2    C213727   2.018   4.280   0.933  0.4914  0.7712  0.0100
  935MPD2    C313728   2.042   4.284   1.068  0.9520 -0.1635  0.2917
  935MPD2    C413729   2.110   4.178   1.120 -0.2666 -0.0981  0.1495
  935MPD2    C513730   2.146   4.072   1.039  0.3034  0.7952 -0.5918
  935MPD2     H13731   1.981   4.371   0.887  0.4224  0.8621  0.2472
  935MPD2    H113732   2.138   4.173   1.225  0.9074 -4.1785 -0.3870
  935MPD2    H213733   2.152   3.979   0.848 -1.9218 -1.4300  0.2315
  935MPD2    H313734   2.218   4.002   1.079 -0.3371  1.1656  1.1887
  935MPD2     N13735   2.008   4.391   1.154  0.0739  0.3350  0.1893
  935MPD2    H513736   2.020   4.383   1.255  6.3039  0.8180 -0.4856
  935MPD2    N113737   2.020   4.189   0.717 -0.5859  0.6393  0.4288
  935MPD2    H713738   1.980   4.277   0.685 -0.7040  1.0310  1.6853
  936MPD2     C13739   0.038   1.790  11.756  0.4867  0.1203 -0.2149
  936MPD2    C113740   0.069   1.817  11.890 -0.4374 -0.4100 -0.8312
  936MPD2    C213741   0.042   1.937  11.953  0.2660 -0.1547 -0.2450
  936MPD2    C313742   4.730   2.039  11.867  0.5474  0.2524 -0.2602
  936MPD2    C413743   4.714   2.028  11.726  0.7706 -0.5087  0.4336
  936MPD2    C513744   4.731   1.897  11.677 -0.8454  0.6381  1.3463
  936MPD2     H13745   0.055   1.959  12.058 -0.0184  2.1002 -0.6817
  936MPD2    H113746   4.699   2.107  11.653 -0.4306 -1.1654 -0.0220
  936MPD2    H213747   0.050   1.688  11.722 -1.7309 -0.3521  0.3674
  936MPD2    H313748   4.728   1.887  11.569 -1.7444 -0.2073  1.4444
  936MPD2     N13749   4.714   2.168  11.930  0.2509 -0.3048  1.1163
  936MPD2    H513750   0.008   2.163  12.026  1.1101  1.4139  0.9094
  936MPD2    N113751   0.132   1.727  11.978  0.2263  0.1971  0.4505
  936MPD2    H713752   0.143   1.757  12.074  0.4586  1.4530  0.0357
  937MPD2     C13753   2.546   2.894  11.269 -0.5194  0.3172  1.0743
  937MPD2    C113754   2.655   2.937  11.348 -0.1950  0.0966 -0.8353
  937MPD2    C213755   2.778   2.953  11.286 -0.0286 -0.1150 -0.4087
  937MPD2    C313756   2.803   2.900  11.162  0.0784  0.1546 -0.3142
  937MPD2    C413757   2.702   2.833  11.097 -0.3025  0.5350 -0.1200
  937MPD2    C513758   2.578   2.832  11.145  0.0068  0.2424 -0.6953
  937MPD2     H13759   2.847   3.026  11.328 -1.4068 -1.0363  3.5219
  937MPD2    H113760   2.720   2.790  10.999 -1.9741  2.1633 -1.1376
  937MPD2    H213761   2.444   2.905  11.304 -1.0721  0.4255 -0.5612
  937MPD2    H313762   2.501   2.778  11.092  0.4624  0.0017 -1.1171
  937MPD2     N13763   2.932   2.913  11.100  0.5109  0.0050  0.0491
  937MPD2    H513764   3.007   2.957  11.153 -1.3530  0.6601  2.1238
  937MPD2    N113765   2.637   3.018  11.465 -0.7114 -0.3726  0.3684
  937MPD2    H713766   2.714   3.072  11.501 -0.3591 -0.8078  0.2633
  938MPD2     C13767   0.642   0.062   0.719 -0.2411  1.2369 -0.0197
  938MPD2    C113768   0.771   0.029   0.757  0.1311 -0.4570 -0.4033
  938MPD2    C213769   0.790   4.684   0.856 -0.2562 -0.2083 -0.0664
  938MPD2    C313770   0.686   4.631   0.930  0.0522 -0.2665  0.1836
  938MPD2    C413771   0.559   4.675   0.904  0.1545 -1.1382  0.6414
  938MPD2    C513772   0.536   0.011   0.795 -0.3316  0.7766  1.2465
  938MPD2     H13773   0.895   4.655   0.863 -0.8428 -2.6957 -1.5396
  938MPD2    H113774   0.480   4.629   0.962 -0.1887  1.7454  2.4501
  938MPD2    H213775   0.621   0.137   0.644 -1.0388 -0.5655 -1.6057
  938MPD2    H313776   0.437   0.053   0.785 -0.4826  0.0521 -0.3659
  938MPD2     N13777   0.698   4.542   1.041  0.0179  0.4410 -0.5882
  938MPD2    H513778   0.614   4.505   1.082  1.1431  0.4683  1.7338
  938MPD2    N113779   0.882   0.085   0.692 -0.2855  0.0980  0.6028
  938MPD2    H713780   0.972   0.046   0.718  1.2881  1.4567 -2.8103
  939MPD2     C13781   2.123   0.413   0.630  0.7786  0.2619  0.3949
  939MPD2    C113782   2.165   0.540   0.603  0.3227  0.4460  0.3913
  939MPD2    C213783   2.130   0.600   0.480  0.2809  0.5318  0.1137
  939MPD2    C313784   2.085   0.525   0.377 -0.1865  0.1112  0.0445
  939MPD2    C413785   2.055   0.393   0.404 -0.0299  0.4407  0.0828
  939MPD2    C513786   2.063   0.347   0.531 -0.8513 -0.1506  0.2458
  939MPD2     H13787   2.158   0.703   0.463  0.2214  0.8386  1.8864
  939MPD2    H113788   2.027   0.323   0.326  0.3878 -1.4413  1.6267
  939MPD2    H213789   2.141   0.370   0.728 -0.4609  0.6719  0.7974
  939MPD2    H313790   2.028   0.246   0.550 -0.2774  0.0505  2.3466
  939MPD2     N13791   2.072   0.585   0.247 -0.0311 -0.1183  0.0205
  939MPD2    H513792   2.065   0.686   0.241  1.7735 -0.1765 -2.7130
  939MPD2    N113793   2.236   0.611   0.703 -0.7331  0.4447 -0.1244
  939MPD2    H713794   2.237   0.568   0.796 -0.4961 -1.7417 -1.1229
  940MPD2     C13795   0.976   1.872  12.953 -0.4717 -0.1261 -0.3756
  940MPD2    C113796   0.899   1.792  12.866 -0.7859  0.6507  0.8132
  940MPD2    C213797   0.879   1.834  12.737 -0.5471 -0.5710 -0.4677
  940MPD2    C313798   0.929   1.956  12.692  0.1705  0.3953  0.0200
  940MPD2    C413799   1.000   2.035  12.776 -0.3458 -0.0052 -0.7245
  940MPD2    C513800   1.024   1.988  12.906  0.3675 -0.2143 -0.0789
  940MPD2     H13801   0.815   1.781  12.668  0.2413 -0.4038 -1.3309
  940MPD2    H113802   1.047   2.124  12.737 -1.3549  0.4167 -0.9874
  940MPD2    H213803   0.985   1.847  13.058 -0.1215 -2.7437 -1.0284
  940MPD2    H313804   1.083   2.049  12.974  1.9271  0.5100 -2.0617
  940MPD2     N13805   0.908   2.008  12.565  0.4010 -0.5948 -0.5151
  940MPD2    H513806   0.949   2.099  12.547  1.2801 -1.3676 -2.3797
  940MPD2    N113807   0.837   1.673  12.910  0.2420 -0.1635  0.0217
  940MPD2    H713808   0.773   1.639  12.839  0.3672  1.8782 -1.0841
  941MPD2     C13809   4.632   0.832   9.478  0.5206 -0.1965 -0.0046
  941MPD2    C113810   4.715   0.811   9.586 -0.3699  0.0062  0.2692
  941MPD2    C213811   4.688   0.710   9.680 -0.1539 -0.1306  0.8415
  941MPD2    C313812   4.578   0.627   9.670 -0.0353  0.2817 -0.4319
  941MPD2    C413813   4.489   0.655   9.564 -0.1542 -0.6451 -0.6533
  941MPD2    C513814   4.526   0.754   9.473  0.0523  0.2578  0.5395
  941MPD2     H13815   0.022   0.703   9.761 -2.1262  0.2345  2.6272
  941MPD2    H113816   4.400   0.596   9.544  0.7442 -1.9018 -0.9755
  941MPD2    H213817   4.637   0.904   9.398 -2.0830  0.3557  0.3302
  941MPD2    H313818   4.463   0.761   9.385 -1.1556  2.3774  1.5804
  941MPD2     N13819   4.543   0.520   9.760 -0.2840 -0.6532 -0.8630
  941MPD2    H513820   4.472   0.454   9.732 -2.3335  0.7853  0.9539
  941MPD2    N113821   0.096   0.890   9.615 -0.1580 -0.3166 -0.5320
  941MPD2    H713822   0.147   0.868   9.699 -0.1650 -1.6631 -0.8863
  942MPD2     C13823   3.723   2.748   9.696  0.2516 -0.4021  0.1833
  942MPD2    C113824   3.714   2.629   9.629  0.1576  1.0280 -0.9858
  942MPD2    C213825   3.763   2.512   9.686  0.4137  0.4346 -0.3981
  942MPD2    C313826   3.827   2.512   9.805  0.1272 -0.3972 -0.3393
  942MPD2    C413827   3.844   2.633   9.870 -0.5176  0.4513 -0.2282
  942MPD2    C513828   3.794   2.747   9.811  0.3756  0.1489  0.3432
  942MPD2     H13829   3.751   2.428   9.619  1.1661 -1.8278  2.2997
  942MPD2    H113830   3.903   2.639   9.961 -0.5680 -0.5463 -0.1290
  942MPD2    H213831   3.696   2.847   9.662  2.4585 -0.0027 -0.4221
  942MPD2    H313832   3.830   2.838   9.858  2.5823  0.3267 -1.6909
  942MPD2     N13833   3.885   2.393   9.868 -0.2533 -0.2141  0.4845
  942MPD2    H513834   3.940   2.416   9.950 -0.2732  3.1609 -0.4228
  942MPD2    N113835   3.658   2.614   9.498  0.5990 -0.0271 -0.1337
  942MPD2    H713836   3.651   2.518   9.466  1.3555 -1.4389  4.0184
  943MPD2     C13837   3.211   1.222   9.851  0.0336  0.3609  0.1317
  943MPD2    C113838   3.189   1.092   9.875  0.1268  0.2847  0.5737
  943MPD2    C213839   3.227   1.035  10.001  0.0720 -0.3440  0.7652
  943MPD2    C313840   3.302   1.111  10.092  0.1113  0.1297 -0.2121
  943MPD2    C413841   3.329   1.236  10.056 -0.4992 -0.2031 -0.0016
  943MPD2    C513842   3.266   1.294   9.953 -0.3894  0.4111 -0.5213
  943MPD2     H13843   3.204   0.932  10.024  0.9826 -1.2489 -2.4874
  943MPD2    H113844   3.389   1.292  10.127  0.4005  0.0360 -0.9557
  943MPD2    H213845   3.178   1.276   9.763 -1.0963 -0.1242  0.2543
  943MPD2    H313846   3.284   1.395   9.919  0.8978  0.6174  0.7862
  943MPD2     N13847   3.356   1.065  10.217  0.2660  0.6145 -1.2566
  943MPD2    H513848   3.424   1.126  10.262 -1.7787  0.2280  2.3802
  943MPD2    N113849   3.128   1.012   9.770  0.7595 -0.0969 -0.1021
  943MPD2    H713850   3.111   1.052   9.678 -0.2019 -0.1476  0.0539
  944MPD2     C13851   3.664   0.599  10.947  0.1723 -0.3686 -0.7915
  944MPD2    C113852   3.675   0.461  10.916  0.0193  0.5318 -0.1178
  944MPD2    C213853   3.640   0.370  11.019 -0.4060 -0.1401  0.6943
  944MPD2    C313854   3.581   0.413  11.138  0.3878  0.4794 -0.4415
  944MPD2    C413855   3.569   0.549  11.159 -0.2942 -0.2304 -0.4944
  944MPD2    C513856   3.601   0.639  11.062  0.2833  0.7784  0.1022
  944MPD2     H13857   3.662   0.264  11.013 -3.0639 -0.8256  3.4663
  944MPD2    H113858   3.533   0.580  11.256  2.3243 -1.3776  0.8404
  944MPD2    H213859   3.700   0.671  10.875 -2.0858 -0.3434 -1.8659
  944MPD2    H313860   3.582   0.743  11.085 -0.0646  0.3832  1.6158
  944MPD2     N13861   3.538   0.310  11.233  0.6270 -0.2698  0.1508
  944MPD2    H513862   3.573   0.217  11.214 -0.5331 -0.7223  0.2370
  944MPD2    N113863   3.721   0.432  10.786 -0.2512 -0.3215 -0.2606
  944MPD2    H713864   3.750   0.511  10.730 -1.5676  0.9495  0.8526
    1TMC1    C113865   1.925   0.190  13.861 -0.0999 -0.5284  0.1072
    1TMC1    C213866   2.009   0.302  13.863  0.2008  0.0136  0.1245
    1TMC1    C313867   2.123   0.292  13.941  0.1047 -0.2508  0.3206
    1TMC1    C413868   1.947   0.078  13.938 -0.0116  0.1451  0.1920
    1TMC1    C513869   2.062   0.061  14.005  0.0514 -0.2144 -0.3469
    1TMC1    C613870   2.147   0.167  14.012  0.8910  0.4754 -1.0185
    1TMC1     C13871   1.783   0.201  13.833  0.4665  0.1700  0.1356
    1TMC1     O13872   1.721   0.095  13.815 -0.3140  0.0444 -0.2754
    1TMC1     H13873   1.990   0.384  13.795 -1.9507  0.9983  1.9365
    1TMC1    H113874   1.866   0.006  13.949  0.7141 -1.1031 -2.5014
    1TMC1    H213875   2.243   0.152  14.060 -1.1900  0.5231  3.0806
    1TMC1    C713876   2.084   4.694  14.104 -0.2156 -0.5162 -0.1283
    1TMC1    C813877   2.203   0.408  13.952  0.9065 -0.6980 -0.4339
    1TMC1    O113878   2.160   4.697  14.202 -0.2595 -0.0696  0.2022
    1TMC1    O213879   2.208   0.496  13.869  0.3227 -0.2791  0.4861
    1TMC1    O313880   2.030   4.583  14.052 -0.6501 -0.0996 -0.0442
    1TMC1    H313881   1.996   4.585  13.960  3.0488  0.4571 -1.3725
    1TMC1    O513882   2.276   0.393  14.065  0.1987  0.0202 -0.8024
    1TMC1    H513883   2.240   0.327  14.128  2.0186 -0.7996 -0.6247
    2MPD2     C13884   1.354   0.462  13.733 -0.3071  0.2176 -0.8518
    2MPD2    C113885   1.451   0.556  13.765 -0.0085  0.1186 -0.2135
    2MPD2    C213886   1.578   0.509  13.795 -0.4031 -0.1599  0.5194
    2MPD2    C313887   1.605   0.370  13.795 -0.4706 -0.4617  0.3854
    2MPD2    C413888   1.509   0.279  13.770 -0.0958 -0.6103  0.2260
    2MPD2    C513889   1.389   0.329  13.723 -1.3194  0.1528  0.2362
    2MPD2     H13890   1.660   0.575  13.820 -0.2843 -0.4926  1.0109
    2MPD2    H113891   1.525   0.172  13.773 -1.0314 -0.6813  2.6253
    2MPD2    H213892   1.251   0.484  13.708 -0.9029 -1.4056  0.1740
    2MPD2    H313893   1.318   0.254  13.690  1.1136 -2.6362  1.2622
    2MPD2     N13894   1.737   0.333  13.840  0.5229 -0.6704  0.5326
    2MPD2    H513895   1.807   0.403  13.863 -0.7682  1.0321 -0.6982
    2MPD2    N113896   1.413   0.690  13.772 -0.4314  0.3975 -0.0822
    2MPD2    H713897   1.322   0.713  13.733 -1.0093 -0.5387  0.7108
    3TMC2    C113898   1.429   0.918  13.815  0.6605  0.1183 -0.0527
    3TMC2    C213899   1.348   0.935  13.706  0.1956  0.4259 -0.4870
    3TMC2    C313900   1.297   1.061  13.686  0.3009  0.2130  0.5710
    3TMC2    C413901   1.451   1.021  13.902  0.1168 -0.2365 -0.4036
    3TMC2    C513902   1.410   1.146  13.871 -0.3824 -0.4665 -0.1688
    3TMC2    C613903   1.324   1.169  13.766  0.6662  0.0444 -0.4227
    3TMC2     C13904   1.490   0.791  13.839  0.3391 -0.6108 -0.2602
    3TMC2     O13905   1.575   0.772  13.925 -0.1842  0.0356 -0.6930
    3TMC2     H13906   1.325   0.860  13.632  1.0033  0.5931 -0.9094
    3TMC2    H113907   1.519   1.008  13.985 -0.8199  0.3863  0.4612
    3TMC2    H213908   1.288   1.267  13.739  0.2226  0.5221  1.8794
    3TMC2    C713909   1.458   1.247  13.956  0.2842  0.2879 -0.5898
    3TMC2    C813910   1.227   1.089  13.560  0.1340  0.4288 -0.5853
    3TMC2    O113911   1.477   1.219  14.073  0.1197  0.0915 -0.3822
    3TMC2    O213912   1.258   1.047  13.450 -0.5358 -0.3764 -0.4441
    3TMC2    O513913   1.111   1.142  13.602  0.3086 -0.2572 -0.1829
    3TMC2    H513914   1.086   1.123  13.695  1.5413 -0.3692  0.1232
    4TMC2    C113915   1.486   2.182  13.547  0.2081  0.9249  0.3439
    4TMC2    C213916   1.571   2.257  13.612 -0.7499  0.7141 -0.2994
    4TMC2    C313917   1.652   2.195  13.709  0.0522 -0.9884 -0.2229
    4TMC2    C413918   1.458   2.054  13.588 -0.3310  0.0348 -0.0745
    4TMC2    C513919   1.526   1.997  13.689  0.1536  0.2533  0.1186
    4TMC2    C613920   1.628   2.064  13.747  1.0230  0.3265  0.3132
    4TMC2     C13921   1.438   2.229  13.416  0.0213 -0.0993  0.3749
    4TMC2     O13922   1.521   2.304  13.364  0.2971  0.1987 -0.1967
    4TMC2     H13923   1.583   2.363  13.592  1.4552  0.4014 -0.6432
    4TMC2    H113924   1.382   1.990  13.545 -0.1754  1.0907 -1.9603
    4TMC2    H213925   1.703   2.032  13.819  2.1313  1.0657 -0.5052
    4TMC2    C713926   1.497   1.860  13.720  0.0397 -0.9227  0.3116
    4TMC2    C813927   1.765   2.257  13.770 -0.1891 -0.0571  0.0495
    4TMC2    O113928   1.419   1.791  13.655 -0.1532  0.0846  0.1937
    4TMC2    O213929   1.872   2.195  13.789 -0.0660  0.1507  0.4555
    4TMC2    O513930   1.755   2.393  13.774 -0.1855 -0.1318 -0.1144
    4TMC2    H513931   1.670   2.423  13.734 -1.3171 -0.2096  2.2752
    5MPD2     C13932   1.075   2.358  13.079  0.4949 -0.2093 -0.4690
    5MPD2    C113933   1.013   2.271  13.167  0.1725 -0.8611 -0.6961
    5MPD2    C213934   1.097   2.217  13.262  0.1167  0.2838 -0.6570
    5MPD2    C313935   1.233   2.254  13.278 -0.6154 -0.0218 -0.0986
    5MPD2    C413936   1.287   2.337  13.186 -0.5101 -0.1532  0.2815
    5MPD2    C513937   1.206   2.385  13.090  0.5936 -0.4770  0.8045
    5MPD2     H13938   1.057   2.149  13.336  0.4743  1.8751  1.0208
    5MPD2    H113939   1.389   2.374  13.191 -0.0173 -1.2880 -1.3034
    5MPD2    H213940   1.011   2.392  12.998  1.8359 -0.2850 -1.5603
    5MPD2    H313941   1.256   2.454  13.023  0.7505 -2.0978 -0.7450
    5MPD2     N13942   1.304   2.202  13.384  0.6244  0.2406 -0.5801
    5MPD2    H513943   1.256   2.147  13.454 -0.3175 -1.6420 -2.6969
    5MPD2    N113944   0.873   2.238  13.147  0.5860  0.1174  0.0810
    5MPD2    H713945   0.824   2.279  13.068 -0.6126 -0.1367  0.7006
    6MPD1     C13946   0.364   3.256  13.084  0.8636 -0.7722 -0.4650
    6MPD1    C113947   0.434   3.166  13.003  0.7688 -0.2098 -0.3481
    6MPD1    C213948   0.362   3.062  12.960 -0.5381 -0.6632 -0.2454
    6MPD1    C313949   0.235   3.031  13.011  0.1364  0.4007  0.6156
    6MPD1    C413950   0.181   3.121  13.106 -0.0125 -0.0144 -0.0482
    6MPD1    C513951   0.248   3.235  13.136  0.1440 -0.0792  0.2734
    6MPD1     H13952   0.406   2.995  12.887 -0.5584 -2.2596  1.2085
    6MPD1    H113953   0.082   3.112  13.148 -1.2735  1.6336 -2.6651
    6MPD1    H213954   0.404   3.354  13.106 -0.5875  0.1877 -2.0858
    6MPD1    H313955   0.197   3.309  13.197  0.5066 -0.6416  1.2648
    6MPD1     N13956   0.158   2.916  12.976 -0.0979  0.8259 -0.1476
    6MPD1    H513957   0.079   2.892  13.036  0.7539  2.2805  1.5746
    6MPD1    N113958   0.569   3.189  12.948  0.3804 -0.0264 -0.4342
    6MPD1    H613959   0.627   3.108  12.930 -0.7958 -0.9993  0.2064
    6MPD1    H713960   0.627   3.244  13.012  1.6550 -0.6383 -1.0659
    7MPD2     C13961   4.562   2.245  13.134  0.4720 -0.7839  0.8428
    7MPD2    C113962   4.674   2.328  13.132 -0.4025  0.3090 -0.1893
    7MPD2    C213963   0.057   2.277  13.171  0.2568 -0.2842  0.1918
    7MPD2    C313964   0.071   2.139  13.196  0.5936  0.4523  0.3115
    7MPD2    C413965   4.696   2.056  13.195  0.1412  0.1507 -0.1880
    7MPD2    C513966   4.577   2.109  13.158  0.7393  0.2905 -0.0337
    7MPD2     H13967   0.140   2.346  13.181  0.6666 -0.4597 -2.1357
    7MPD2    H113968   4.699   1.952  13.228  1.3961 -0.0160 -0.8085
    7MPD2    H213969   4.467   2.280  13.096  1.2282 -1.8977 -2.0991
    7MPD2    H313970   4.500   2.039  13.130 -0.2761  0.8366  1.4197
    7MPD2     N13971   0.197   2.076  13.228 -0.0654  0.4768 -0.2779
    7MPD2    H513972   0.204   1.975  13.236  0.4573  0.5515  0.2768
    7MPD2    N113973   4.677   2.464  13.088 -0.4916 -0.7564  0.3782
    7MPD2    H713974   0.029   2.510  13.090 -1.8313  1.9537 -1.4724
    8TMC3    C113975   0.436   2.071  13.220 -0.2661 -0.2872  0.0448
    8TMC3    C213976   0.556   2.123  13.257 -0.1506 -0.0232  0.8132
    8TMC3    C313977   0.659   2.142  13.171 -0.4103 -0.1562 -0.1296
    8TMC3    C413978   0.433   2.029  13.084 -0.1047  0.5970 -0.2862
    8TMC3    C513979   0.539   2.066  12.994  0.0870  0.0690  0.0247
    8TMC3    C613980   0.655   2.117  13.036 -0.0104  0.2651  0.2880
    8TMC3     C13981   0.314   2.149  13.251 -0.0804  0.0892  0.3313
    8TMC3     O13982   0.339   2.263  13.284  0.1448 -0.1850  0.0257
    8TMC3     H13983   0.562   2.146  13.363  2.8295 -3.1001  1.3142
    8TMC3    H113984   0.340   1.993  13.043  0.3975 -0.6236 -0.3478
    8TMC3    H213985   0.737   2.120  12.965 -1.2834 -0.7031 -1.2198
    8TMC3    C713986   0.511   2.105  12.866  0.5842  0.0894  0.3762
    8TMC3    C813987   0.792   2.166  13.232 -0.4755 -0.5769  0.3377
    8TMC3    O113988   0.557   2.216  12.846 -0.1891 -0.3761 -0.2777
    8TMC3    O213989   0.816   2.126  13.350  0.7556  0.3380  0.0189
    9TMC3    C113990   0.099   2.718  12.856 -0.7594  0.2361 -0.2193
    9TMC3    C213991   0.079   2.666  12.733 -0.5930 -0.3431 -0.0639
    9TMC3    C313992   4.707   2.587  12.713 -0.6462 -0.9238  0.3035
    9TMC3    C413993   0.012   2.692  12.960  0.2988  0.0672 -0.8188
    9TMC3    C513994   4.635   2.623  12.927  0.4125  0.8440  0.1013
    9TMC3    C613995   4.610   2.572  12.804 -0.5249 -0.2983 -0.0798
    9TMC3     C13996   0.168   2.849  12.860  0.7364 -0.3678  0.1901
    9TMC3     O13997   0.228   2.891  12.761  0.5648 -0.2768 -0.4097
    9TMC3     H13998   0.146   2.686  12.650  0.2494 -1.3008  0.3871
    9TMC3    H113999   0.028   2.735  13.058 -0.2992 -0.7764 -0.3511
    9TMC3    H214000   4.544   2.486  12.791 -0.6329  0.0464 -1.9127
    9TMC3    C714001   4.577   2.532  13.025 -0.2128  0.4625  0.2716
    9TMC3    C814002   4.731   2.463  12.639 -0.1513  0.0799 -0.2822
    9TMC3    O114003   4.455   2.509  13.014 -0.1633  0.1534  0.3532
    9TMC3    O214004   4.634   2.423  12.573  0.1366  0.6741  0.3187
   10MPD2     C14005   0.224   2.004  12.673  0.1345 -0.4396  0.9822
   10MPD2    C114006   0.294   2.096  12.747 -0.2526 -0.4750  0.0080
   10MPD2    C214007   0.252   2.231  12.769  0.2225  0.4561  0.3947
   10MPD2    C314008   0.141   2.271  12.692  0.1048 -0.0480  0.3298
   10MPD2    C414009   0.075   2.180  12.608  0.1498 -0.4089  0.0994
   10MPD2    C514010   0.120   2.057  12.598  0.4793  0.3077 -0.1738
   10MPD2     H14011   0.306   2.287  12.844 -0.2969  1.3309  0.1033
   10MPD2    H114012   4.718   2.204  12.560  0.7979  0.9260 -0.5277
   10MPD2    H214013   0.250   1.898  12.676 -2.7496 -1.1688  0.6924
   10MPD2    H314014   0.068   1.993  12.528  0.9922 -0.1193 -0.1675
   10MPD2     N14015   0.095   2.399  12.705 -0.1107 -0.0371  0.0513
   10MPD2    H514016   0.148   2.458  12.768  0.1217  0.4411 -0.5899
   10MPD2    N114017   0.407   2.038  12.808  0.0959  0.4433 -0.2780
   10MPD2    H714018   0.385   1.944  12.838 -0.9229  0.7594 -0.0456
   11MPD2     C14019   1.459   1.513  14.079  0.3868 -0.8135  0.2036
   11MPD2    C114020   1.479   1.492  13.945 -0.1486 -0.8467  0.4498
   11MPD2    C214021   1.508   1.601  13.862 -1.1656 -0.0326  0.6357
   11MPD2    C314022   1.529   1.723  13.917 -0.3217 -0.4691  0.4089
   11MPD2    C414023   1.517   1.744  14.054 -0.7249  0.5034  0.0423
   11MPD2    C514024   1.477   1.639  14.134  0.3453 -0.6522 -0.3262
   11MPD2     H14025   1.514   1.579  13.756  0.9903 -0.5751  0.8555
   11MPD2    H114026   1.545   1.839  14.099  1.1632  0.1814 -0.4814
   11MPD2    H214027   1.423   1.433  14.143 -0.1203 -1.7189 -1.2037
   11MPD2    H314028   1.465   1.652  14.241  1.7869  2.5598 -0.5596
   11MPD2     N14029   1.550   1.842  13.845 -0.1878  0.3076  0.1945
   11MPD2    H514030   1.586   1.926  13.889 -0.0284  0.1596  0.3440
   11MPD2    N114031   1.466   1.364  13.886  0.0782 -0.0599 -0.5151
   11MPD2    H714032   1.459   1.366  13.785 -0.0921  1.5365 -0.4766
    1MPD1     C14033   3.920   4.403  16.722 -1.0309  0.0198 -0.7881
    1MPD1    C114034   3.834   4.362  16.623 -0.0406 -0.1856 -0.2794
    1MPD1    C214035   3.842   4.235  16.569 -0.7895 -0.2833  0.4515
    1MPD1    C314036   3.941   4.151  16.613 -0.2588 -0.6870 -0.4918
    1MPD1    C414037   4.026   4.188  16.710  0.2731  0.2705 -0.1211
    1MPD1    C514038   4.010   4.309  16.764 -0.4250  0.4268 -0.8767
    1MPD1     H14039   3.773   4.207  16.490  1.4061  0.0483 -1.5935
    1MPD1    H114040   4.114   4.130  16.738  1.4134  2.3348  0.5948
    1MPD1    H214041   3.900   4.500  16.766  1.1915 -0.2535  0.7902
    1MPD1    H314042   4.068   4.336  16.851  0.7534  0.4449 -1.6696
    1MPD1     N14043   3.963   4.028  16.554 -0.8536 -0.2460  0.2910
    1MPD1    H514044   4.040   3.978  16.598  0.9172  1.8856 -0.3717
    1MPD1    N114045   3.756   4.465  16.555 -0.0227 -0.1152 -0.7413
    1MPD1    H614046   3.671   4.420  16.521  0.0107 -1.0685  0.4467
    1MPD1    H714047   3.732   4.543  16.616  4.3523  0.1819  0.5613
    2MPD1     C14048   0.098   3.897  16.250 -0.0793 -0.5562 -0.3894
    2MPD1    C114049   0.035   3.823  16.148  0.2037  0.0842 -1.0154
    2MPD1    C214050   4.635   3.806  16.155  0.3250 -0.3678  0.1529
    2MPD1    C314051   4.556   3.872  16.246  0.0067 -0.1343  0.6610
    2MPD1    C414052   4.623   3.961  16.341 -0.4700 -0.4938 -0.5037
    2MPD1    C514053   0.022   3.966  16.343  0.1590 -0.0038 -0.7754
    2MPD1     H14054   4.585   3.735  16.090  1.1873 -0.4539 -0.4114
    2MPD1    H114055   4.567   4.019  16.414  1.1250  1.3793 -0.7585
    2MPD1    H214056   0.206   3.908  16.254 -0.0333 -1.5951  1.1244
    2MPD1    H314057   0.066   4.030  16.419  1.4796  0.0458 -1.5796
    2MPD1     N14058   4.418   3.848  16.250 -0.2068 -0.0758 -0.1524
    2MPD1    H514059   4.369   3.791  16.182 -0.7599 -0.5470  0.6535
    2MPD1    N114060   0.108   3.728  16.071 -0.5336 -0.3208 -0.5823
    2MPD1    H614061   0.200   3.766  16.050 -0.6913 -0.6946 -1.9153
    2MPD1    H714062   0.065   3.712  15.980 -3.6725  2.7839  0.3694
    3TMC3    C114063   4.190   3.857  16.313  0.3571 -0.5446  0.1935
    3TMC3    C214064   4.147   3.840  16.181 -0.2419  0.2453 -0.2743
    3TMC3    C314065   4.008   3.830  16.158  0.2837  0.3281  0.7155
    3TMC3    C414066   4.109   3.866  16.416 -0.0425  0.5765 -0.5714
    3TMC3    C514067   3.972   3.857  16.393  0.4540 -0.6103  0.6926
    3TMC3    C614068   3.927   3.821  16.267 -0.2048 -0.9155  0.0425
    3TMC3     C14069   4.330   3.894  16.343 -0.5583  0.1065 -0.2704
    3TMC3     O14070   4.355   3.929  16.460  0.5904 -0.4225  0.4741
    3TMC3     H14071   4.218   3.846  16.099 -2.5235 -0.5445 -2.3012
    3TMC3    H114072   4.143   3.871  16.519  1.0441 -3.2128 -0.7441
    3TMC3    H214073   3.821   3.812  16.248 -0.3739 -0.7236  0.8871
    3TMC3    C714074   3.886   3.953  16.462 -0.3559 -0.1453  0.4238
    3TMC3    C814075   3.976   3.764  16.031  0.2990  0.3696  0.2808
    3TMC3    O114076   3.774   3.969  16.425  0.0258  0.7288  0.7040
    3TMC3    O214077   4.077   3.724  15.968 -0.1516  0.0784 -0.1564
    4MPD1     C14078   3.671   3.574  15.666 -0.1870 -0.2117  0.4315
    4MPD1    C114079   3.602   3.653  15.749  0.6268 -0.2481 -0.2771
    4MPD1    C214080   3.662   3.687  15.875  0.0585  0.0220 -0.4696
    4MPD1    C314081   3.791   3.676  15.903  0.8885 -0.6504 -0.5266
    4MPD1    C414082   3.857   3.602  15.812  0.4983  0.0223  0.3581
    4MPD1    C514083   3.799   3.552  15.693  0.1289 -0.3278  0.3017
    4MPD1     H14084   3.605   3.743  15.948 -0.5905 -0.5582 -0.5296
    4MPD1    H114085   3.956   3.565  15.838  0.8118 -0.9183 -2.1561
    4MPD1    H214086   3.627   3.544  15.572  0.7265 -1.3974  0.3927
    4MPD1    H314087   3.862   3.491  15.628 -1.7163 -2.3306  0.3773
    4MPD1     N14088   3.841   3.748  16.013 -0.1106 -0.0277  0.3819
    4MPD1    H514089   3.774   3.797  16.072 -1.7815 -0.5448 -1.0861
    4MPD1    N114090   3.468   3.674  15.726 -0.0191  0.0305 -0.2849
    4MPD1    H614091   3.421   3.747  15.778 -0.7568  0.5301 -1.6574
    4MPD1    H714092   3.439   3.699  15.632 -0.8786  0.2751  0.0444
    1TCq1    O114093   3.740   3.326  10.872  0.2089 -0.2218 -0.6565
    1TCq1    C114094   3.824   3.339  10.981  0.0799  0.0925  0.3232
    1TCq1    O214095   3.904   3.255  11.017 -0.5114  0.0606  0.0189
    1TCq1    C214096   3.838   3.480  11.009  0.6080 -0.6950 -0.2069
    1TCq1    C314097   3.963   3.530  11.041  0.1986 -0.6177 -0.4281
    1TCq1    C414098   3.977   3.654  11.087  0.0621  0.0264 -0.1595
    1TCq1    C514099   3.865   3.730  11.113  0.4169 -0.0419  0.0055
    1TCq1    C614100   3.741   3.683  11.078  0.6907 -0.2391  0.4805
    1TCq1    C714101   3.727   3.558  11.029  0.0922  0.4712  0.3065
    1TCq1    C814102   3.618   3.741  11.137 -0.5750  0.5622 -0.3663
    1TCq1    O414103   3.516   3.663  11.144 -0.0441  0.6956 -0.0832
    1TCq1    C914104   4.097   3.684  11.167 -0.7564 -0.3129 -0.1839
    1TCq1    O514105   4.194   3.608  11.149  0.3876  0.7252  0.6764
    1TCq1    O614106   4.098   3.782  11.245 -0.1013  0.2598  0.0345
    1TCq1    H114107   3.708   3.417  10.856  1.4298 -0.0503 -2.1014
    1TCq1    H214108   4.040   3.456  11.057 -0.7658 -1.3180  0.9542
    1TCq1    H314109   3.875   3.828  11.160 -0.0149  0.3778 -0.7891
    1TCq1    H414110   3.635   3.502  11.018  0.9511 -0.1186 -3.9662
    2MPD1     C14111   3.333   4.152  11.284 -0.0081  0.3100  0.4683
    2MPD1    C114112   3.472   4.181  11.293 -0.9731 -0.5787  1.3118
    2MPD1    C214113   3.570   4.089  11.252 -0.0417  0.4621 -0.6359
    2MPD1    C314114   3.530   3.963  11.212 -0.0923  0.1217 -0.0827
    2MPD1    C414115   3.392   3.928  11.209  0.5057 -0.1944 -0.0867
    2MPD1    C514116   3.302   4.025  11.243  0.8010 -0.8512 -0.4465
    2MPD1     H14117   3.671   4.126  11.236  1.0627 -1.7667  1.2856
    2MPD1    H114118   3.362   3.827  11.188  0.5102 -0.0527 -0.7598
    2MPD1    H214119   3.254   4.226  11.289 -1.9650 -1.8451  1.3722
    2MPD1    H314120   3.200   3.992  11.225  0.2878 -0.3342  1.5444
    2MPD1     N14121   3.626   3.877  11.163  0.4150  0.2093 -0.0216
    2MPD1    H514122   3.713   3.925  11.141  1.0220 -1.3896 -1.1690
    2MPD1    N114123   3.505   4.313  11.315  0.6590 -0.4512 -0.6757
    2MPD1    H614124   3.443   4.347  11.388  1.0637 -1.4660  0.1477
    2MPD1    H714125   3.593   4.316  11.365 -1.1657 -1.0296  2.6024
    1TMC1    C114126   1.942   2.647   9.001 -0.0850 -0.5200  0.8258
    1TMC1    C214127   1.940   2.524   8.937  0.0279  0.3976  0.1768
    1TMC1    C314128   1.812   2.490   8.898  0.5688  0.4905 -0.0115
    1TMC1    C414129   1.828   2.719   9.038 -0.1553  0.1971  0.1354
    1TMC1    C514130   1.707   2.672   8.999 -0.5120 -0.2265  1.0818
    1TMC1    C614131   1.699   2.553   8.936 -0.1270 -0.0778  0.2429
    1TMC1     C14132   2.069   2.718   9.011 -0.6641  0.3902  0.2294
    1TMC1     O14133   2.089   2.796   9.105  0.1294  0.6323  0.1831
    1TMC1     H14134   2.032   2.473   8.911  0.0359  0.3422  0.3187
    1TMC1    H114135   1.824   2.805   9.104 -1.2335  0.9126 -0.8387
    1TMC1    H214136   1.606   2.509   8.903  0.9373 -0.8849 -1.6448
    1TMC1    C714137   1.576   2.713   9.060  0.3730 -0.2654 -0.1337
    1TMC1    C814138   1.781   2.358   8.842 -0.4872 -0.2860 -0.5827
    1TMC1    O114139   1.505   2.638   9.126  0.4335  0.2799 -0.4523
    1TMC1    O214140   1.679   2.294   8.853  0.2991 -0.0190 -0.1705
    1TMC1    O314141   1.581   2.847   9.083 -0.1218 -0.3996 -0.4687
    1TMC1    H314142   1.634   2.892   9.014 -1.4620  1.8318 -0.0195
    1TMC1    O514143   1.865   2.337   8.742  0.5906  0.0496 -0.1699
    1TMC1    H514144   1.931   2.410   8.744 -0.5868  1.0872  1.1218
    2MPD1     C14145   2.548   2.831   8.822  0.2590  0.7042  0.5939
    2MPD1    C114146   2.500   2.726   8.748  0.2527  0.2974  0.1692
    2MPD1    C214147   2.368   2.682   8.778  0.5731  1.2621  0.1860
    2MPD1    C314148   2.290   2.734   8.887 -0.8087 -0.2476 -0.6049
    2MPD1    C414149   2.346   2.844   8.959 -0.3168 -0.1419  0.6670
    2MPD1    C514150   2.471   2.880   8.925 -0.6437 -0.0968  0.4862
    2MPD1     H14151   2.320   2.614   8.708 -0.4006 -1.3247  3.3783
    2MPD1    H114152   2.300   2.891   9.045  1.2936  1.4391  0.6488
    2MPD1    H214153   2.643   2.882   8.807  1.2220 -0.9628  0.9799
    2MPD1    H314154   2.526   2.953   8.984 -2.2329 -0.0448  1.9099
    2MPD1     N14155   2.163   2.682   8.913  0.3449 -0.2393 -0.0958
    2MPD1    H514156   2.136   2.626   8.833  0.7267  0.3404 -0.6360
    2MPD1    N114157   2.557   2.688   8.624 -0.2772 -0.2373  0.1493
    2MPD1    H614158   2.659   2.688   8.619 -0.2643  0.3084  0.4428
    2MPD1    H714159   2.527   2.593   8.602  0.3726 -0.4994  0.3757
    1MPD1     C14160   1.156   2.317  12.228 -0.3025 -0.3960  0.5914
    1MPD1    C114161   1.205   2.425  12.286 -0.2345  0.4254  0.5890
    1MPD1    C214162   1.346   2.437  12.277  0.2081  0.2038 -0.1880
    1MPD1    C314163   1.427   2.354  12.196  0.3151 -0.1380 -0.1706
    1MPD1    C414164   1.369   2.239  12.139  0.3362  0.8502  0.6900
    1MPD1    C514165   1.236   2.219  12.163  0.3495 -0.3044 -0.2392
    1MPD1     H14166   1.388   2.519  12.333  1.7412  0.4032 -1.6307
    1MPD1    H114167   1.426   2.152  12.110 -0.8940 -0.3186  1.7691
    1MPD1    H214168   1.052   2.295  12.250 -0.3308 -0.4735  0.3823
    1MPD1    H314169   1.180   2.134  12.126 -2.1028  2.5037 -2.8904
    1MPD1     N14170   1.561   2.378  12.196  0.4723 -0.5889 -0.1550
    1MPD1    H514171   1.593   2.463  12.242  0.9429 -2.1333  2.3951
    1MPD1    N114172   1.133   2.503  12.381  0.6450  0.5732  0.3532
    1MPD1    H614173   1.033   2.512  12.367  0.5106 -0.7122  0.4933
    1MPD1    H714174   1.175   2.596  12.387  0.2643  0.8264 -0.8457
    2MPD1     C14175   1.336   2.638  11.509 -0.2950 -0.2414  0.2051
    2MPD1    C114176   1.272   2.623  11.390  0.5655  0.6094  0.1146
    2MPD1    C214177   1.312   2.700  11.283 -0.7113 -0.0312  0.6427
    2MPD1    C314178   1.417   2.789  11.295  0.7828  1.5610 -1.0800
    2MPD1    C414179   1.490   2.797  11.415  0.1667 -0.1013  0.1319
    2MPD1    C514180   1.443   2.719  11.518 -0.2638 -0.8030 -0.6228
    2MPD1     H14181   1.273   2.679  11.184  2.8575 -1.5012 -0.4687
    2MPD1    H114182   1.588   2.843  11.419  0.4748 -0.7367 -0.0728
    2MPD1    H214183   1.302   2.587  11.599 -1.6150  0.7416  0.2632
    2MPD1    H314184   1.500   2.707  11.610 -1.1698  0.6901  0.1509
    2MPD1     N14185   1.475   2.864  11.188  0.0580  0.2226 -0.2405
    2MPD1    H514186   1.549   2.928  11.213 -0.0640  0.1609  0.2671
    2MPD1    N114187   1.171   2.529  11.373 -0.1789  0.2752  0.2549
    2MPD1    H614188   1.099   2.554  11.306 -0.5291  1.2697  1.0082
    2MPD1    H714189   1.127   2.501  11.461 -2.0510 -1.1836 -1.1506
    3MPD1     C14190   1.348   2.644  10.225 -0.4216 -0.0203 -0.8463
    3MPD1    C114191   1.329   2.578  10.344 -0.0585  0.2714 -0.7594
    3MPD1    C214192   1.395   2.615  10.458 -0.2297  0.2160  0.1079
    3MPD1    C314193   1.466   2.735  10.460  0.7506 -0.6062  0.4875
    3MPD1    C414194   1.472   2.814  10.343  0.0021  0.6542 -0.2760
    3MPD1    C514195   1.418   2.759  10.228  0.1989 -0.3603 -0.7593
    3MPD1     H14196   1.393   2.554  10.547 -0.9497  0.3103  0.1589
    3MPD1    H114197   1.519   2.911  10.349  0.0558  0.5162  1.4830
    3MPD1    H214198   1.305   2.613  10.130  0.4137 -2.3901 -0.4425
    3MPD1    H314199   1.419   2.818  10.137  1.4583 -0.9729 -1.1302
    3MPD1     N14200   1.505   2.784  10.581  0.4704 -0.8142 -0.6089
    3MPD1    H514201   1.482   2.732  10.665  0.9751  0.1591  0.1315
    3MPD1    N114202   1.257   2.457  10.335  0.1393  0.6887  0.6115
    3MPD1    H614203   1.186   2.465  10.262  2.8507 -0.0525 -2.1005
    3MPD1    H714204   1.218   2.418  10.420 -2.1454 -1.1825 -1.2683
    4MPD2     C14205   2.072   2.834  11.967 -0.3969  0.1898 -0.7958
    4MPD2    C114206   2.112   2.700  11.965  0.1117  0.4598  0.3690
    4MPD2    C214207   2.207   2.656  11.874 -0.5190  0.4381 -0.0311
    4MPD2    C314208   2.233   2.741  11.764 -0.1786 -0.3870 -0.5661
    4MPD2    C414209   2.182   2.871  11.762 -0.6145  1.0285 -0.6046
    4MPD2    C514210   2.113   2.922  11.871 -0.0949 -0.5643  0.1750
    4MPD2     H14211   2.240   2.553  11.869 -1.1898  0.1168  1.9807
    4MPD2    H114212   2.208   2.930  11.675  2.2709  0.5923 -0.0574
    4MPD2    H214213   2.008   2.874  12.045  2.7445  0.0724  1.8580
    4MPD2    H314214   2.076   3.023  11.881 -1.6104 -1.1420  0.4472
    4MPD2     N14215   2.316   2.706  11.655  0.4184  0.4757  0.0453
    4MPD2    H514216   2.324   2.772  11.578  3.7408 -1.8594 -1.6248
    4MPD2    N114217   2.074   2.609  12.057  0.5552 -0.4136 -0.3979
    4MPD2    H714218   2.114   2.516  12.060 -2.1305 -1.5579  0.2119
    5TMC3    C114219   1.945   2.498  12.214  0.0649  0.0377 -0.0478
    5TMC3    C214220   1.814   2.461  12.200 -0.3701  0.3083  0.0524
    5TMC3    C314221   1.788   2.360  12.116  0.3324 -0.3078 -0.1987
    5TMC3    C414222   2.045   2.408  12.178  0.2658  0.0264 -0.3996
    5TMC3    C514223   2.014   2.299  12.102  0.4777 -0.4337  0.4931
    5TMC3    C614224   1.881   2.272  12.074 -0.1978  0.4618 -0.6491
    5TMC3     C14225   1.980   2.627  12.156 -0.2473 -0.2485 -0.2851
    5TMC3     O14226   1.905   2.715  12.184 -0.4964  0.6094 -0.1560
    5TMC3     H14227   1.744   2.529  12.247  0.3385 -0.0932  1.6819
    5TMC3    H114228   2.146   2.426  12.215  0.0267 -2.3485  1.4317
    5TMC3    H214229   1.840   2.189  12.017 -2.1659  0.5466  0.6282
    5TMC3    C714230   2.114   2.263  12.001 -0.5701  0.1767  0.7393
    5TMC3    C814231   1.646   2.316  12.104 -0.3263  0.0734  0.1287
    5TMC3    O114232   2.210   2.343  12.002  0.1159 -0.6441  0.2940
    5TMC3    O214233   1.615   2.229  12.021 -0.0612  0.1325 -0.2515
    6TMC3    C114234   1.560   2.893  10.968 -0.0925  0.5851 -0.0731
    6TMC3    C214235   1.522   2.898  10.834  0.5706 -0.7496  0.8946
    6TMC3    C314236   1.621   2.915  10.741  0.1694  0.9583 -0.5072
    6TMC3    C414237   1.693   2.905  11.010  0.0806 -0.8177 -0.1361
    6TMC3    C514238   1.781   2.911  10.909 -0.7264  0.8157 -1.2445
    6TMC3    C614239   1.758   2.922  10.776  0.6869 -0.1319  0.5064
    6TMC3     C14240   1.449   2.850  11.052 -0.0889  0.4791 -0.3666
    6TMC3     O14241   1.352   2.795  11.008 -0.0357 -0.4012  0.5683
    6TMC3     H14242   1.416   2.882  10.816  0.6582  0.4702 -0.6792
    6TMC3    H114243   1.721   2.907  11.115 -2.5830  0.9540  0.5633
    6TMC3    H214244   1.837   2.938  10.703 -0.8649 -1.1587 -1.3883
    6TMC3    C714245   1.905   2.848  10.940 -0.2643  0.9331 -0.2381
    6TMC3    C814246   1.591   2.890  10.599 -0.1977 -0.6873 -0.1880
    6TMC3    O114247   1.938   2.829  11.060  0.0335 -0.2928  0.5761
    6TMC3    O214248   1.672   2.938  10.521  0.2907  0.3775  0.2726
    7MPD2     C14249   2.294   2.020  11.583  0.6782 -0.4029  0.0379
    7MPD2    C114250   2.308   2.150  11.623 -0.2059  0.1387 -0.0134
    7MPD2    C214251   2.255   2.182  11.750  0.1823 -1.2512  0.2502
    7MPD2    C314252   2.174   2.098  11.825 -0.0634  0.9411 -0.2533
    7MPD2    C414253   2.152   1.970  11.780 -0.0954  0.1466  1.1706
    7MPD2    C514254   2.218   1.934  11.660  0.2920  0.7624  0.1394
    7MPD2     H14255   2.267   2.285  11.783 -0.3894 -1.1197  0.0663
    7MPD2    H114256   2.098   1.900  11.842 -2.0867  1.5650  1.0004
    7MPD2    H214257   2.332   1.990  11.486  0.8167  1.9554 -0.6389
    7MPD2    H314258   2.203   1.834  11.623  0.4360  0.6136  0.4830
    7MPD2     N14259   2.091   2.144  11.930  0.5197  0.8171 -0.0810
    7MPD2    H514260   2.023   2.076  11.961  0.2684  0.9193 -0.4020
    7MPD2    N114261   2.389   2.246  11.562  0.1287 -0.0845  0.0700
    7MPD2    H714262   2.385   2.341  11.596  2.0871  0.3514 -0.9115
    8TMC3    C114263   2.486   2.362  11.399 -0.0654 -1.0054  1.0144
    8TMC3    C214264   2.419   2.411  11.284  0.8970 -0.3092  0.4481
    8TMC3    C314265   2.380   2.537  11.285 -0.3186 -0.1733  0.3104
    8TMC3    C414266   2.509   2.444  11.507  0.6997 -0.1490 -0.1491
    8TMC3    C514267   2.450   2.573  11.508 -0.0813  0.9274  0.2873
    8TMC3    C614268   2.394   2.628  11.394  0.3688  0.5810 -0.6524
    8TMC3     C14269   2.449   2.238  11.440  0.0830 -0.1650  0.3946
    8TMC3     O14270   2.450   2.147  11.359  0.4120  0.1634  0.3946
    8TMC3     H14271   2.377   2.341  11.212 -0.5515  1.5752 -0.5331
    8TMC3    H114272   2.545   2.406  11.602  1.0662 -1.6562 -0.8986
    8TMC3    H214273   2.346   2.725  11.399 -0.0912  0.3289 -0.1120
    8TMC3    C714274   2.372   2.583  11.635  0.0921  0.3364  0.0481
    8TMC3    C814275   2.306   2.600  11.179  0.0110  0.2821  0.8913
    8TMC3    O114276   2.358   2.478  11.695 -1.2194  0.4737  0.0373
    8TMC3    O214277   2.270   2.716  11.198 -0.4026 -0.6399 -0.1357
    9MPD2     C14278   2.213   2.450  10.853  0.1781 -0.0450 -0.3615
    9MPD2    C114279   2.215   2.541  10.952 -0.6433 -0.4583  0.8907
    9MPD2    C214280   2.126   2.645  10.950 -0.5164  0.2571 -0.3558
    9MPD2    C314281   2.033   2.655  10.846  0.0022  0.3434  0.1166
    9MPD2    C414282   2.050   2.568  10.740  0.0753 -0.6354 -0.3671
    9MPD2    C514283   2.142   2.472  10.739  0.9638 -0.7510  0.3534
    9MPD2     H14284   2.135   2.726  11.022 -3.1941  0.2649 -0.0158
    9MPD2    H114285   1.983   2.578  10.655  0.3197  0.4207 -0.4301
    9MPD2    H214286   2.284   2.369  10.858 -1.4878 -1.3602  2.0161
    9MPD2    H314287   2.137   2.400  10.658 -1.8756  0.7629 -0.8265
    9MPD2     N14288   1.940   2.764  10.836  0.0216 -0.1003  0.1537
    9MPD2    H514289   1.897   2.775  10.745 -1.3963 -2.5279  0.5295
    9MPD2    N114290   2.291   2.517  11.069  0.0971  0.0514  0.3356
    9MPD2    H714291   2.342   2.430  11.080  0.9232  0.5445  0.4268
    1MPD1     C14292   1.580   1.606  15.568 -0.7065 -0.5217 -0.0228
    1MPD1    C114293   1.584   1.614  15.430 -0.0088  0.0401  1.0970
    1MPD1    C214294   1.497   1.526  15.364  0.5308  0.4682  0.7805
    1MPD1    C314295   1.424   1.426  15.431  0.1363 -0.0992  0.5637
    1MPD1    C414296   1.431   1.416  15.568  0.1302 -0.0493 -0.1778
    1MPD1    C514297   1.500   1.510  15.631  0.1888  0.4048 -0.5072
    1MPD1     H14298   1.497   1.536  15.256  1.1048  1.9939  0.9184
    1MPD1    H114299   1.379   1.345  15.631 -0.5881  0.6905  0.0722
    1MPD1    H214300   1.622   1.684  15.630  0.7640 -1.3413  0.0087
    1MPD1    H314301   1.487   1.508  15.738  0.7254 -0.1710 -0.4554
    1MPD1     N14302   1.355   1.315  15.378  0.0038 -0.0814  0.2297
    1MPD1    H514303   1.316   1.255  15.450 -2.0347 -1.5639 -2.1360
    1MPD1    N114304   1.651   1.713  15.364 -0.0381 -0.1662 -0.3759
    1MPD1    H614305   1.738   1.744  15.407 -0.8940  1.9976 -0.2521
    1MPD1    H714306   1.674   1.706  15.264 -0.8497  0.4537 -0.6008
    2TMC2    C114307   1.115   1.104  15.056  0.0402 -0.4563  0.8638
    2TMC2    C214308   1.058   1.020  15.153 -0.1629 -0.0553  0.8999
    2TMC2    C314309   1.121   1.013  15.267  0.2081  0.0492  0.2293
    2TMC2    C414310   1.210   1.190  15.084  0.3440 -0.5067 -0.4012
    2TMC2    C514311   1.269   1.178  15.209  0.1268  0.2014  0.1195
    2TMC2    C614312   1.225   1.091  15.306  0.2789 -0.5950  0.1779
    2TMC2     C14313   1.025   1.125  14.941 -0.6085  0.4655  0.1056
    2TMC2     O14314   0.904   1.115  14.949  0.4819 -0.5042  0.0050
    2TMC2     H14315   0.959   0.978  15.145 -0.5814  0.9640  0.6256
    2TMC2    H114316   1.254   1.250  15.005 -3.2101  1.4591 -0.8475
    2TMC2    H214317   1.265   1.084  15.407  2.4947 -1.1077 -0.7476
    2TMC2    C714318   1.345   1.294  15.243  0.0298 -0.5486  0.8290
    2TMC2    C814319   1.044   0.937  15.360 -0.2977 -0.6431  0.2708
    2TMC2    O114320   1.380   1.368  15.151  0.6938  0.1173 -0.2527
    2TMC2    O214321   1.045   0.950  15.484 -0.4456 -0.0860 -0.6162
    2TMC2    O514322   1.026   0.817  15.299  0.1474 -0.0003  0.1727
    2TMC2    H514323   1.051   0.816  15.204 -0.4253 -0.0945  0.0220
    3MPD1     C14324   0.984   1.242  14.449 -0.0136  0.4759 -0.7408
    3MPD1    C114325   1.115   1.205  14.473 -0.3276  0.7647 -0.7299
    3MPD1    C214326   1.145   1.179  14.601 -0.3027  0.4486  0.2678
    3MPD1    C314327   1.052   1.175  14.700  0.9541  0.2060  0.0545
    3MPD1    C414328   0.923   1.212  14.666 -0.4072  0.1778 -0.1135
    3MPD1    C514329   0.886   1.245  14.537  0.9436 -1.0563  0.4804
    3MPD1     H14330   1.245   1.154  14.634 -0.6166 -0.8974  0.2189
    3MPD1    H114331   0.847   1.213  14.744 -1.3825 -1.0425 -1.0383
    3MPD1    H214332   0.955   1.274  14.350 -2.1550  1.3652  0.1733
    3MPD1    H314333   0.784   1.267  14.508  1.2994 -2.9435 -2.2276
    3MPD1     N14334   1.096   1.146  14.829  0.2607 -0.2072  0.1139
    3MPD1    H514335   1.197   1.138  14.836  0.2452 -1.9204 -1.6215
    3MPD1    N114336   1.212   1.227  14.373  0.1480  0.2417 -0.3244
    3MPD1    H614337   1.179   1.223  14.277  0.7858  1.4202 -0.5960
    3MPD1    H714338   1.284   1.155  14.376  0.8803  1.0110  0.7234
    1TMC1    C114339   0.299   0.979  13.250 -0.4873 -0.3487 -0.8967
    1TMC1    C214340   0.288   0.982  13.108  0.0972 -0.0845  0.5395
    1TMC1    C314341   0.383   0.927  13.030 -0.3389 -0.2192  0.3846
    1TMC1    C414342   0.420   0.939  13.304 -0.4063  0.5107  0.1466
    1TMC1    C514343   0.509   0.886  13.217 -0.2820 -0.7851  0.4715
    1TMC1    C614344   0.500   0.881  13.083  0.6524  0.0670  0.2653
    1TMC1     C14345   0.190   1.024  13.339  0.2681  0.0806 -0.2379
    1TMC1     O14346   0.093   1.055  13.274 -0.2282  0.3394  0.1795
    1TMC1     H14347   0.206   1.032  13.057  0.8539 -1.3161 -1.8709
    1TMC1    H114348   0.433   0.944  13.411 -1.1678  1.3122  0.2010
    1TMC1    H214349   0.555   0.814  13.018 -0.9047 -0.7835 -0.1787
    1TMC1    C714350   0.630   0.834  13.276  0.4647  0.1124 -0.5851
    1TMC1    C814351   0.341   0.866  12.909  0.0282 -0.0536 -0.1354
    1TMC1    O114352   0.698   0.741  13.229 -0.0845 -0.8579  0.2750
    1TMC1    O214353   0.229   0.816  12.898 -0.1621 -0.4543 -0.4724
    1TMC1    O314354   0.672   0.923  13.368  0.1714  0.1189 -0.3331
    1TMC1    H314355   0.612   1.001  13.363 -0.3993 -0.2982 -0.0003
    1TMC1    O514356   0.413   0.931  12.813 -0.0524 -0.2579 -0.2465
    1TMC1    H514357   0.491   0.982  12.843  2.0355 -3.7580  0.2732
    2MPD2     C14358   4.708   1.093  13.529  0.2463  0.1002  1.1302
    2MPD2    C114359   0.095   1.031  13.568 -0.0201 -0.3317  0.6790
    2MPD2    C214360   0.103   0.991  13.696 -0.2863 -0.5030  0.5539
    2MPD2    C314361   0.013   1.017  13.794 -0.1783  0.7833 -0.3388
    2MPD2    C414362   4.637   1.090  13.762 -0.2575  0.4925 -0.1946
    2MPD2    C514363   4.624   1.133  13.630 -0.0255 -0.3472 -0.6611
    2MPD2     H14364   0.191   0.933  13.721  0.7611 -0.1950 -2.4253
    2MPD2    H114365   4.565   1.121  13.837 -1.7270  1.6819 -2.1079
    2MPD2    H214366   4.681   1.136  13.433 -0.2603 -1.2340  0.6694
    2MPD2    H314367   4.539   1.194  13.602 -1.2013 -1.5067  0.3520
    2MPD2     N14368   0.041   0.973  13.931 -0.4291 -0.1746  0.1112
    2MPD2    H514369   0.132   0.932  13.947 -0.4802 -0.6701 -0.8879
    2MPD2    N114370   0.202   1.006  13.475 -0.5811 -0.5139  0.2778
    2MPD2    H714371   0.289   0.968  13.511 -0.0968  1.0137  0.7325
    3TCq1    O114372   4.636   0.952  14.607 -0.3939  0.2496  0.5442
    3TCq1    C114373   4.666   1.048  14.516  0.5514 -0.6492  0.4950
    3TCq1    O214374   4.632   1.166  14.520  0.4517 -0.0814 -0.1745
    3TCq1    C214375   4.726   0.984  14.403  0.2576  0.0283 -0.0948
    3TCq1    C314376   0.061   0.865  14.422 -0.0519  0.4380  0.2421
    3TCq1    C414377   0.115   0.799  14.316  0.0879  0.4330 -1.1201
    3TCq1    C514378   0.094   0.847  14.186 -0.3144 -0.0325  0.4383
    3TCq1    C614379   0.013   0.958  14.169  0.3524  0.4736  0.9225
    3TCq1    C714380   4.691   1.020  14.276 -0.0881 -0.1071 -0.1766
    3TCq1    C814381   4.702   0.998  14.038 -0.1778  0.2827  0.3141
    3TCq1    O414382   4.585   1.033  14.048 -0.6114 -0.1848 -0.0304
    3TCq1    C914383   0.175   0.671  14.338  0.0326  0.1784 -0.2922
    3TCq1    O514384   0.159   0.618  14.450 -0.2699  0.3781  0.1295
    3TCq1    O614385   0.217   0.615  14.229  0.1260 -0.3371  0.5591
    3TCq1    H114386   4.670   0.861  14.596 -1.3737 -0.0255 -0.2920
    3TCq1    H214387   0.093   0.833  14.520 -2.0703 -0.0864  0.7347
    3TCq1    H314388   0.143   0.803  14.100  0.3490 -1.2312  1.4108
    3TCq1    H414389   4.628   1.107  14.262 -1.8516 -1.2580  0.5406
    1MPD2     C14390   4.204   2.589  14.746 -0.3026 -0.4087 -0.3292
    1MPD2    C114391   4.153   2.463  14.721 -0.7025 -0.0272 -0.4469
    1MPD2    C214392   4.238   2.352  14.741  0.0016 -0.3882  0.2536
    1MPD2    C314393   4.357   2.364  14.809  0.4438 -0.1030  0.1059
    1MPD2    C414394   4.408   2.490  14.836 -0.0237  0.0077  0.6052
    1MPD2    C514395   4.328   2.602  14.809 -0.5681  0.0977 -0.1287
    1MPD2     H14396   4.210   2.250  14.715  0.0013 -0.1561 -0.6584
    1MPD2    H114397   4.504   2.502  14.883  0.1010  0.7033  0.1709
    1MPD2    H214398   4.150   2.678  14.717 -2.1512 -1.2616  0.4872
    1MPD2    H314399   4.367   2.699  14.837  3.2987 -1.3609 -0.4832
    1MPD2     N14400   4.434   2.248  14.818 -0.4556  0.6793 -0.2501
    1MPD2    H514401   4.397   2.155  14.797 -2.1273  1.3007 -0.0999
    1MPD2    N114402   4.029   2.460  14.661 -0.6057  0.2045 -0.1617
    1MPD2    H714403   3.980   2.541  14.625 -1.3706 -0.4432 -0.5890
    2TMC3    C114404   3.841   2.354  14.560 -0.6623 -0.3514  0.1156
    2TMC3    C214405   3.768   2.233  14.560  0.1533 -0.3395  0.2143
    2TMC3    C314406   3.736   2.180  14.436 -0.3400 -0.0859  0.2675
    2TMC3    C414407   3.877   2.418  14.442  0.6704 -0.2269  0.8127
    2TMC3    C514408   3.826   2.364  14.327 -0.1285  0.1017  1.0045
    2TMC3    C614409   3.759   2.247  14.320 -0.0670  0.2588  0.0381
    2TMC3     C14410   3.950   2.343  14.656 -0.3794  0.5317  0.7766
    2TMC3     O14411   3.970   2.233  14.705  0.6206 -0.3452  0.2182
    2TMC3     H14412   3.732   2.187  14.651  0.6397 -0.1985  0.4833
    2TMC3    H114413   3.956   2.493  14.443  0.0483  0.4163  1.3363
    2TMC3    H214414   3.724   2.215  14.222  1.9360 -0.5631 -0.3932
    2TMC3    C714415   3.839   2.440  14.205 -0.3297  0.4067  0.6363
    2TMC3    C814416   3.758   2.042  14.424 -0.4208  0.4328  0.6209
    2TMC3    O114417   3.762   2.405  14.118 -0.1308  0.0745 -0.2528
    2TMC3    O214418   3.714   1.988  14.323 -0.4144  0.3207 -0.5573
    3TCq1    O114419   4.618   3.447  14.043  0.0042 -0.3712  0.0069
    3TCq1    C114420   4.593   3.314  14.012  0.1609 -0.7053  0.5863
    3TCq1    O214421   4.622   3.256  13.909 -0.2159 -0.2331  0.2636
    3TCq1    C214422   4.473   3.267  14.091 -0.1793  0.3730  0.0520
    3TCq1    C314423   4.475   3.270  14.231 -0.0698 -0.7710  0.1329
    3TCq1    C414424   4.382   3.201  14.297  0.3201  0.0128  0.3548
    3TCq1    C514425   4.278   3.131  14.235 -0.8203 -1.1656 -0.2951
    3TCq1    C614426   4.277   3.140  14.102 -0.3293 -0.0821 -0.6329
    3TCq1    C714427   4.370   3.197  14.028  0.2426  0.4265 -0.1106
    3TCq1    C814428   4.172   3.069  14.035 -0.1622 -0.0145  0.2719
    3TCq1    O414429   4.148   3.098  13.919  0.8745  1.0367  0.1488
    3TCq1    C914430   4.381   3.201  14.442 -0.3701 -0.3086  0.5050
    3TCq1    O514431   4.441   3.287  14.503 -0.0870 -0.2828 -0.6510
    3TCq1    O614432   4.316   3.109  14.490  0.0574  0.1404 -0.2580
    3TCq1    H114433   4.585   3.468  14.133  1.6812 -2.5332  1.1331
    3TCq1    H214434   4.552   3.321  14.288 -0.0076 -1.2951  0.5161
    3TCq1    H314435   4.203   3.077  14.291 -3.1638  1.2108 -1.1875
    3TCq1    H414436   4.369   3.200  13.920 -2.4635  1.3601 -0.0393
    4MPD2     C14437   3.927   2.909  13.983 -0.2377  0.4848 -0.2717
    4MPD2    C114438   4.026   2.874  14.073  0.1839  0.2400 -0.4613
    4MPD2    C214439   4.019   2.756  14.140 -0.4708  0.0042  0.0937
    4MPD2    C314440   3.919   2.658  14.124  0.4187  0.5934  0.6674
    4MPD2    C414441   3.825   2.696  14.031  0.0930  0.1273  0.2403
    4MPD2    C514442   3.832   2.814  13.958  0.0823  0.0901  0.0587
    4MPD2     H14443   4.092   2.738  14.218  0.1248 -0.3991 -0.5484
    4MPD2    H114444   3.748   2.621  14.016 -1.5435  2.5400 -3.7177
    4MPD2    H214445   3.919   3.003  13.930 -2.4463  0.0099 -0.7855
    4MPD2    H314446   3.749   2.833  13.890 -0.2896 -4.6505 -0.7564
    4MPD2     N14447   3.924   2.549  14.212  0.8049  0.2935  0.5362
    4MPD2    H514448   3.992   2.558  14.286 -0.3697 -0.7372  1.7364
    4MPD2    N114449   4.124   2.959  14.110 -0.2096 -0.0640 -0.3388
    4MPD2    H714450   4.183   2.936  14.190 -1.8713 -1.4010  0.5019
    5TMC2    C114451   4.431   1.917  14.813 -0.1486 -0.1916 -0.6439
    5TMC2    C214452   4.387   1.874  14.931  0.0132 -0.2341  0.4473
    5TMC2    C314453   4.434   1.947  15.038  0.0774 -0.1383 -0.2442
    5TMC2    C414454   4.526   2.017  14.795  0.0990  0.2197 -0.0209
    5TMC2    C514455   4.569   2.094  14.907 -0.0100  1.0520  0.5666
    5TMC2    C614456   4.527   2.052  15.029 -0.0961  0.4341 -0.7814
    5TMC2     C14457   4.332   1.931  14.711  0.5392 -0.2139 -0.5226
    5TMC2     O14458   4.310   2.041  14.672 -0.4189  0.4587 -0.1862
    5TMC2     H14459   4.297   1.815  14.945  0.2057 -0.4286  0.8594
    5TMC2    H114460   4.540   2.057  14.695  2.3530 -0.4361  0.0315
    5TMC2    H214461   4.555   2.119  15.109  2.1203 -0.1926 -1.0319
    5TMC2    C714462   4.552   2.236  14.888 -0.3114  0.7261 -0.3157
    5TMC2    C814463   4.383   1.899  15.167 -0.2601 -0.5602  0.0593
    5TMC2    O114464   4.612   2.311  14.965 -0.1730 -0.0830  0.5268
    5TMC2    O214465   4.308   1.803  15.171  0.1519  0.0377  0.0933
    5TMC2    O514466   4.465   1.941  15.265 -0.1169 -0.1280 -0.0620
    5TMC2    H514467   4.547   1.990  15.242 -0.7015 -0.2452 -2.4539
    6MPD2     C14468   3.903   1.784  14.455  0.4999 -0.1910 -0.2827
    6MPD2    C114469   3.936   1.903  14.518  0.1383 -0.2252 -0.2755
    6MPD2    C214470   4.059   1.919  14.593 -0.3756 -0.0260 -0.4224
    6MPD2    C314471   4.141   1.812  14.604 -1.1713  0.3601 -0.0517
    6MPD2    C414472   4.101   1.695  14.544  0.5807 -0.2140  0.1360
    6MPD2    C514473   3.980   1.677  14.476 -0.2079  0.0400  1.0052
    6MPD2     H14474   4.072   2.006  14.657 -1.8115 -0.0988 -0.0097
    6MPD2    H114475   4.163   1.607  14.561  1.7804  0.4438 -0.7908
    6MPD2    H214476   3.812   1.771  14.397 -0.1623 -0.0004  0.7000
    6MPD2    H314477   3.952   1.580  14.437  1.7147  0.3896 -1.2417
    6MPD2     N14478   4.262   1.817  14.672 -0.2960 -0.0277 -0.1194
    6MPD2    H514479   4.310   1.730  14.691 -1.7424 -1.1277 -1.6364
    6MPD2    N114480   3.848   2.012  14.515 -0.0995  0.3137  0.3697
    6MPD2    H714481   3.874   2.095  14.569  0.6908 -0.7063  1.5727
  945NH4     N114482   1.876   3.538   1.577  0.6141  0.0720  0.3028
  945NH4     H214483   1.818   3.539   1.663 -0.2669 -0.2493 -0.2921
  945NH4     H314484   1.946   3.461   1.579 -0.6903 -1.1350  0.1383
  945NH4     H414485   1.920   3.631   1.564  0.1007  0.2339 -0.2643
  945NH4     H514486   1.812   3.526   1.496  0.3010 -0.4739  0.6337
  946SOD     NA14487   2.810   2.863  13.002  0.3446 -0.0441 -0.0404
  947SOD     NA14488   2.085   2.921  11.214 -0.2841 -0.5056 -0.8923
  948SOD     NA14489   2.197   4.559  12.465 -0.2283  0.0781 -0.2326
  949SOD     NA14490   0.736   4.207  15.518  0.4799 -0.4279 -0.1116
  950SOD     NA14491   3.385   3.749   4.917  0.2561  0.7361  0.4118
  951SOD     NA14492   4.288   3.326  10.812  0.0558  0.0513  0.6845
  952SOD     NA14493   0.186   0.118   2.649  0.2317 -0.0913 -0.2703
  953SOL     OW14494   2.081   2.585  17.220  0.5376 -0.3929 -0.6091
  953SOL    HW114495   2.040   2.659  17.176 -1.4680  0.1932  2.2518
  953SOL    HW214496   2.099   2.624  17.306  0.4489  3.1646 -2.2135
  954SOL     OW14497   2.178   3.395  10.377 -0.2081  0.1610  0.4937
  954SOL    HW114498   2.158   3.366  10.288  0.7131 -2.8692  1.2835
  954SOL    HW214499   2.273   3.409  10.371 -0.1636 -1.2751 -1.7946
  955SOL     OW14500   2.065   0.536   7.497 -0.0526 -0.3164  0.7858
  955SOL    HW114501   1.972   0.554   7.490  0.1976 -0.0174 -1.7139
  955SOL    HW214502   2.070   0.499   7.409 -1.2579  0.6914  0.2961
  956SOL     OW14503   2.478   3.257  11.299  0.1041  0.3335 -0.1055
  956SOL    HW114504   2.430   3.267  11.217 -0.6190 -0.1086  0.2562
  956SOL    HW214505   2.407   3.258  11.363  0.0735  3.3594 -0.2258
  957SOL     OW14506   3.824   2.579   5.538 -0.1516  0.1372 -0.6843
  957SOL    HW114507   3.867   2.535   5.465 -0.3016  0.2280 -0.8269
  957SOL    HW214508   3.895   2.632   5.575  0.6882 -2.1077  0.9541
  958SOL     OW14509   4.692   3.294  12.526 -0.0532  0.2777 -0.2951
  958SOL    HW114510   0.013   3.238  12.576 -1.1320 -0.9596 -0.4230
  958SOL    HW214511   4.664   3.223  12.468 -2.1568 -0.1033  1.1976
  959SOL     OW14512   2.704   0.672   8.114  0.0536  0.0448 -0.4115
  959SOL    HW114513   2.767   0.617   8.162 -0.3544 -0.0923 -0.0364
  959SOL    HW214514   2.741   0.671   8.025  1.3452  0.8376  0.1182
  960SOL     OW14515   0.261   4.013  16.928 -0.1779 -0.0820 -0.0155
  960SOL    HW114516   0.337   3.979  16.975 -0.5464  1.1447  1.4626
  960SOL    HW214517   0.277   4.108  16.926 -1.4009  0.1244  0.0100
  961SOL     OW14518   0.350   1.017   1.446  0.1138 -0.1273 -0.1686
  961SOL    HW114519   0.397   1.096   1.418 -0.1894  0.0899 -0.0589
  961SOL    HW214520   0.270   1.058   1.477  1.1461  1.4646  0.3770
  962SOL     OW14521   1.371   0.574   8.383 -0.2037 -0.0486  0.5691
  962SOL    HW114522   1.466   0.582   8.392 -0.0662 -1.3069  0.1342
  962SOL    HW214523   1.343   0.561   8.474 -2.9280 -0.0038 -0.2658
  963SOL     OW14524   3.559   0.592  16.686 -0.0179 -0.6278 -0.0128
  963SOL    HW114525   3.581   0.612  16.778 -1.4745 -0.7690  0.3670
  963SOL    HW214526   3.532   0.674  16.644 -1.2957 -0.4930  1.0471
  964SOL     OW14527   3.114   3.944  16.450  0.0595 -0.0732  0.2075
  964SOL    HW114528   3.121   3.932  16.355 -0.6238  1.4297 -0.0386
  964SOL    HW214529   3.026   3.975  16.470 -0.6622 -0.7870 -1.8587
  965SOL     OW14530   2.595   2.391   1.528 -0.3370  0.0013  0.0911
  965SOL    HW114531   2.664   2.365   1.589  0.4649  0.8105 -0.4652
  965SOL    HW214532   2.520   2.400   1.586  0.5989  0.0579  1.3122
  966SOL     OW14533   3.382   3.017   1.572 -0.4762 -0.5671 -0.1250
  966SOL    HW114534   3.400   2.994   1.663 -1.9794 -1.5668 -0.0799
  966SOL    HW214535   3.298   3.063   1.579 -0.7757 -0.8332 -1.9954
  967SOL     OW14536   4.232   1.759  17.162 -0.7167  0.1441  0.3957
  967SOL    HW114537   4.200   1.797  17.080 -0.4599  0.6367  0.5193
  967SOL    HW214538   4.207   1.822  17.229  1.8389  1.1733  0.3821
  968SOL     OW14539   1.631   0.820   8.636 -0.5538  0.7887  0.2546
  968SOL    HW114540   1.544   0.855   8.617 -1.1399 -1.2865 -0.8761
  968SOL    HW214541   1.646   0.778   8.552 -2.4277 -0.4474  0.5617
  969SOL     OW14542   3.843   3.762   2.659 -0.1598 -0.3017  0.2966
  969SOL    HW114543   3.937   3.776   2.672  0.3225 -1.0757 -2.4222
  969SOL    HW214544   3.824   3.686   2.715  2.0131 -1.9272 -1.2178
  970SOL     OW14545   1.367   1.458  16.112  0.2843 -0.6379  0.5038
  970SOL    HW114546   1.387   1.397  16.041  2.0932 -0.7039  1.0767
  970SOL    HW214547   1.437   1.437  16.173 -0.1310 -0.8032  0.9290
  971SOL     OW14548   2.199   0.436  13.612  0.0329 -0.1581  0.1329
  971SOL    HW114549   2.286   0.397  13.598  0.2849 -0.7534  3.2887
  971SOL    HW214550   2.213   0.462  13.703 -2.9030 -2.0107  1.1016
  972SOL     OW14551   0.863   2.566   4.174  0.2912  0.3282  0.5607
  972SOL    HW114552   0.792   2.508   4.147  0.6330  1.1563 -2.1517
  972SOL    HW214553   0.942   2.521   4.145  0.3549  0.9115 -0.1710
  973SOL     OW14554   4.557   4.626   3.309  0.2450  0.0746  0.4873
  973SOL    HW114555   4.592   4.589   3.228 -0.1078 -0.1328  0.4311
  973SOL    HW214556   4.606   4.708   3.312  0.8985 -0.3719  2.1120
  974SOL     OW14557   3.607   2.625   4.416  0.2293  0.2271 -0.3344
  974SOL    HW114558   3.623   2.716   4.443  2.2425 -0.5153  0.9522
  974SOL    HW214559   3.693   2.584   4.414 -0.4534 -1.2136  0.1876
  975SOL     OW14560   1.955   2.477   1.430  0.1524 -0.3398 -0.2626
  975SOL    HW114561   1.988   2.460   1.519 -1.5140 -0.7200  0.2849
  975SOL    HW214562   2.005   2.410   1.384  0.2080 -0.2618 -0.3152
  976SOL     OW14563   0.556   3.197   2.370 -0.0884  0.2018  0.0324
  976SOL    HW114564   0.650   3.194   2.351 -0.4640  1.5685 -2.0098
  976SOL    HW214565   0.529   3.113   2.407  2.0840  0.6879  2.7174
  977SOL     OW14566   4.019   0.551   1.732 -0.0026  0.3995 -0.2207
  977SOL    HW114567   4.054   0.470   1.770  1.9928  1.3370 -0.0454
  977SOL    HW214568   3.934   0.512   1.712 -1.4199  4.6143 -2.3128
  978SOL     OW14569   3.625   2.376  15.980 -0.5096 -0.3580  0.0513
  978SOL    HW114570   3.685   2.307  15.953 -0.2621  0.2753 -1.0080
  978SOL    HW214571   3.540   2.332  15.978  0.8995 -2.9358 -1.5270
  979SOL     OW14572   0.180   1.314   7.209 -0.0847  0.3690  0.6211
  979SOL    HW114573   0.236   1.310   7.132 -1.9588  2.1708 -0.8481
  979SOL    HW214574   0.229   1.272   7.280  0.6172  1.4850  0.8025
  980SOL     OW14575   1.145   2.179  16.585 -0.4571  0.0242  0.1540
  980SOL    HW114576   1.113   2.095  16.554  0.5578 -0.9008  1.6296
  980SOL    HW214577   1.175   2.146  16.670 -0.9644 -0.7647  0.0235
  981SOL     OW14578   3.179   0.547  11.510 -0.1411  0.0325  0.1520
  981SOL    HW114579   3.186   0.634  11.549 -1.0810  0.6707 -1.0872
  981SOL    HW214580   3.255   0.534  11.453  0.3619  0.5928  0.7041
  982SOL     OW14581   1.128   2.425   7.320 -0.3845  0.7909  0.4420
  982SOL    HW114582   1.103   2.337   7.294 -0.7092  0.3096  2.4157
  982SOL    HW214583   1.047   2.460   7.357  0.1320  3.1393 -0.6353
  983SOL     OW14584   3.671   1.389  12.503  0.1449 -0.1175  0.2320
  983SOL    HW114585   3.617   1.434  12.437 -0.1356  0.5176  0.8953
  983SOL    HW214586   3.670   1.452  12.574  1.3527 -0.2273  0.3390
  984SOL     OW14587   0.633   0.809   4.893 -0.0955  0.4686 -0.4738
  984SOL    HW114588   0.647   0.888   4.841 -0.9333 -0.3465 -1.9393
  984SOL    HW214589   0.592   0.756   4.825 -0.7555  1.5408 -0.9265
  985SOL     OW14590   3.707   2.227  13.571  0.1026 -0.1531  0.2147
  985SOL    HW114591   3.784   2.187  13.613  0.5363  0.5693  0.0992
  985SOL    HW214592   3.685   2.289  13.641 -3.7389 -1.7571  0.4498
  986SOL     OW14593   1.728   0.579   6.740 -0.7153  0.4799  0.3837
  986SOL    HW114594   1.739   0.669   6.771 -1.1984  0.7873 -0.3465
  986SOL    HW214595   1.800   0.531   6.782 -0.3429 -0.5399 -1.4340
  987SOL     OW14596   2.232   3.611  15.793 -0.3705  0.7943 -0.3837
  987SOL    HW114597   2.264   3.661  15.717  0.5219  0.2361 -0.3851
  987SOL    HW214598   2.189   3.539  15.746 -0.9939  1.0118 -0.1376
  988SOL     OW14599   3.373   4.612   4.333 -0.6271  0.1506  0.3298
  988SOL    HW114600   3.378   4.593   4.239 -0.4914  1.9071 -0.0085
  988SOL    HW214601   3.417   4.534   4.367 -1.6030 -0.5327  0.0519
  989SOL     OW14602   3.576   2.997   4.235 -0.5210  0.1905 -0.0602
  989SOL    HW114603   3.565   2.927   4.170  0.5173 -1.7485  1.8598
  989SOL    HW214604   3.535   2.965   4.315  0.3854  2.0052  1.1348
  990SOL     OW14605   0.350   4.707   4.775 -0.0619 -0.3249 -0.2816
  990SOL    HW114606   0.363   4.630   4.830  2.9255 -0.0532 -0.6124
  990SOL    HW214607   0.302   4.675   4.698  0.2160 -0.7519 -0.2752
  991SOL     OW14608   3.875   1.945   7.837  0.4177  0.1380 -0.2099
  991SOL    HW114609   3.889   2.020   7.779  0.1725  0.3058 -0.0522
  991SOL    HW214610   3.949   1.890   7.812  0.5157  0.8928 -1.6052
  992SOL     OW14611   2.025   2.691  12.564 -0.0927  0.2425  0.1764
  992SOL    HW114612   2.079   2.746  12.620 -0.1257  0.6192 -0.1655
  992SOL    HW214613   1.958   2.660  12.625  0.0975 -0.5960 -0.0367
  993SOL     OW14614   2.486   0.441   9.001  0.1876 -0.0407 -0.1444
  993SOL    HW114615   2.485   0.415   8.909 -0.0333  2.5730 -0.8728
  993SOL    HW214616   2.423   0.512   8.998 -1.1487 -1.1184  1.8994
  994SOL     OW14617   1.424   1.809   8.827 -0.4174  0.5312 -0.4243
  994SOL    HW114618   1.376   1.881   8.786 -0.9575  0.3813 -0.0474
  994SOL    HW214619   1.515   1.833   8.812 -0.2490 -0.4662 -1.0604
  995SOL     OW14620   0.645   1.880   1.654 -0.1831  0.5503  0.1191
  995SOL    HW114621   0.690   1.883   1.569 -0.8959 -1.0800 -0.3046
  995SOL    HW214622   0.612   1.970   1.664  1.4226  1.1428  0.0846
  996SOL     OW14623   3.678   1.206  13.346 -0.1734  0.7952  0.1092
  996SOL    HW114624   3.714   1.187  13.260 -1.1761 -2.2681  0.3747
  996SOL    HW214625   3.607   1.265  13.320  0.5001  0.4760 -2.4608
  997SOL     OW14626   4.452   2.780   3.595 -0.1231 -0.2915  0.1535
  997SOL    HW114627   4.436   2.808   3.505 -0.5632 -0.4073  0.1942
  997SOL    HW214628   4.513   2.845   3.629 -1.4195  1.4254 -0.8196
  998SOL     OW14629   4.326   4.558   2.889  0.0048  0.5642  0.2554
  998SOL    HW114630   4.327   4.643   2.846  0.4826  0.3000 -0.2558
  998SOL    HW214631   4.263   4.576   2.960 -1.8769 -2.9279 -0.5496
  999SOL     OW14632   1.050   1.491   6.111 -0.2926 -0.2399 -0.2599
  999SOL    HW114633   1.030   1.405   6.150  0.1590  0.9402  2.5799
  999SOL    HW214634   0.979   1.549   6.138 -1.2489 -1.7021  0.3994
 1000SOL     OW14635   0.138   0.293   8.590  0.0567 -0.5680 -0.3226
 1000SOL    HW114636   0.111   0.204   8.566 -1.3017  0.1602 -1.5140
 1000SOL    HW214637   0.104   0.307   8.679  2.7100 -1.7750  0.8601
 1001SOL     OW14638   1.739   0.743   4.416  0.8280 -0.1109 -0.7240
 1001SOL    HW114639   1.784   0.682   4.473 -0.1123 -2.3483 -2.3484
 1001SOL    HW214640   1.772   0.826   4.450  2.7966 -0.5204 -1.6091
 1002SOL     OW14641   4.339   0.148   7.045  0.7578 -0.2722 -0.5782
 1002SOL    HW114642   4.302   0.096   6.974  1.6226 -1.4365 -0.1863
 1002SOL    HW214643   4.285   0.126   7.120  1.1020  1.2700  0.1226
 1003SOL     OW14644   2.476   2.250  16.586  0.5348 -0.0083 -0.0733
 1003SOL    HW114645   2.438   2.270  16.671  0.7104  0.9209 -0.2149
 1003SOL    HW214646   2.398   2.252  16.531  0.0047 -0.9788  0.6388
 1004SOL     OW14647   3.023   0.168   1.406  0.0726  0.6404  0.1903
 1004SOL    HW114648   2.981   0.253   1.393 -1.3230 -0.3225 -1.6506
 1004SOL    HW214649   3.036   0.131   1.319 -0.5877 -1.1579  0.8509
 1005SOL     OW14650   3.583   3.395   6.115 -0.4255 -0.1858  0.0519
 1005SOL    HW114651   3.521   3.467   6.107  0.0931 -0.1369 -3.6936
 1005SOL    HW214652   3.644   3.420   6.184  0.4492 -3.9059  0.6330
 1006SOL     OW14653   2.945   3.965  17.344  0.1742 -0.4256  0.0867
 1006SOL    HW114654   2.927   4.026  17.415  1.5393  2.5374 -2.1380
 1006SOL    HW214655   2.917   3.884  17.387 -0.7047 -0.2372 -0.1309
 1007SOL     OW14656   4.253   3.402   6.320 -0.8007  0.3675 -0.2189
 1007SOL    HW114657   4.186   3.416   6.388 -0.8298  1.3200 -0.4488
 1007SOL    HW214658   4.333   3.422   6.369 -0.4580 -1.4722 -0.0212
 1008SOL     OW14659   1.831   4.585   9.454  0.3919  0.8678 -0.1679
 1008SOL    HW114660   1.830   4.636   9.535  2.2043  2.4463 -1.1296
 1008SOL    HW214661   1.844   4.647   9.382  3.1426  0.7640  0.2680
 1009SOL     OW14662   3.351   2.728  17.216 -0.3269  0.0305 -0.5197
 1009SOL    HW114663   3.392   2.789  17.276 -1.9141  0.2907  0.3205
 1009SOL    HW214664   3.263   2.765  17.216  0.2281  1.3171  0.0672
 1010SOL     OW14665   0.080   2.030   0.976  0.4897  0.6749 -0.2138
 1010SOL    HW114666   0.101   2.123   0.971  0.9107  0.6519  1.1160
 1010SOL    HW214667   0.040   2.013   0.891  0.3553 -0.4762  0.0754
 1011SOL     OW14668   3.020   2.559  10.815  0.4653 -0.0455 -0.1797
 1011SOL    HW114669   3.100   2.553  10.867 -0.8239  2.3279  2.1062
 1011SOL    HW214670   2.976   2.636  10.853  2.5829  0.5698  1.0355
 1012SOL     OW14671   1.005   2.726   8.676  0.0568 -0.3891  0.1679
 1012SOL    HW114672   1.017   2.805   8.728  0.9955  0.4149 -1.2670
 1012SOL    HW214673   0.913   2.732   8.650  0.2430  2.5702  0.1792
 1013SOL     OW14674   3.486   4.119   2.257 -0.1575  0.0394 -0.3991
 1013SOL    HW114675   3.443   4.086   2.336 -0.3498 -3.3725 -1.9491
 1013SOL    HW214676   3.405   4.140   2.211 -0.2568  1.9371  0.6403
 1014SOL     OW14677   4.417   1.312  11.880  0.3888  0.7721 -0.0192
 1014SOL    HW114678   4.480   1.257  11.833 -0.8489 -0.5901 -0.0748
 1014SOL    HW214679   4.460   1.311  11.965 -1.7070 -2.9465  0.9883
 1015SOL     OW14680   3.493   1.518  10.159 -0.7087 -0.1713 -0.1592
 1015SOL    HW114681   3.535   1.572  10.226  2.7092 -2.3496 -0.5943
 1015SOL    HW214682   3.469   1.596  10.108 -1.4347  0.7193  1.5449
 1016SOL     OW14683   2.003   2.277  17.262 -0.1686  0.1782  0.3882
 1016SOL    HW114684   1.923   2.301  17.308 -0.5311 -0.9075  0.2991
 1016SOL    HW214685   2.017   2.364  17.223  0.1468  0.1323  0.3948
 1017SOL     OW14686   1.096   4.529   3.539  0.3856  0.3854  0.1655
 1017SOL    HW114687   1.190   4.516   3.543  0.4704  1.6550  2.1580
 1017SOL    HW214688   1.093   4.618   3.505 -1.1836  1.4034  2.9950
 1018SOL     OW14689   0.615   1.492   6.565 -0.1168 -0.1997 -0.0393
 1018SOL    HW114690   0.602   1.401   6.538  1.5014 -0.7659  1.0821
 1018SOL    HW214691   0.583   1.545   6.491  1.3637 -0.5475 -0.9190
 1019SOL     OW14692   2.498   1.130   5.235 -0.5166  0.2550 -0.0057
 1019SOL    HW114693   2.448   1.060   5.276  0.4124 -0.1298  0.4665
 1019SOL    HW214694   2.568   1.080   5.192  1.4077  2.8576  0.0545
 1020SOL     OW14695   3.575   3.328  10.577  0.2431 -0.2868  0.4851
 1020SOL    HW114696   3.516   3.337  10.502 -0.0166 -0.0840  0.7151
 1020SOL    HW214697   3.529   3.382  10.641  0.7263  0.8956 -0.1536
 1021SOL     OW14698   0.424   3.344  17.452  0.0873 -0.5219 -0.2981
 1021SOL    HW114699   0.424   3.255  17.418  0.3183 -0.7107  0.2011
 1021SOL    HW214700   0.468   3.329  17.536 -3.2639 -2.2266  1.1387
 1022SOL     OW14701   3.975   1.647   7.013 -0.1667  0.4879 -0.1190
 1022SOL    HW114702   3.969   1.552   7.003  2.7827  0.2644  0.2000
 1022SOL    HW214703   3.885   1.669   6.986 -0.6501  0.1790  1.2590
 1023SOL     OW14704   2.988   4.422   7.134  0.1027 -0.2161  0.1677
 1023SOL    HW114705   2.935   4.431   7.213  1.0187  0.6749  0.6716
 1023SOL    HW214706   3.025   4.336   7.156 -0.1048 -0.5772 -0.8906
 1024SOL     OW14707   2.041   2.463   6.555 -0.0525 -0.1222  0.1367
 1024SOL    HW114708   2.057   2.513   6.475 -2.0123 -1.4658 -1.0907
 1024SOL    HW214709   2.079   2.517   6.624  2.7061 -1.1879 -0.5440
 1025SOL     OW14710   3.493   1.827  15.719  0.0263 -0.1657 -0.2640
 1025SOL    HW114711   3.487   1.733  15.734  1.2851 -0.3603 -0.9471
 1025SOL    HW214712   3.404   1.863  15.716 -0.1864 -0.5897  0.9617
 1026SOL     OW14713   4.630   1.493   0.889 -0.5449 -0.1548  0.0705
 1026SOL    HW114714   4.554   1.505   0.947 -1.8911 -0.4644 -1.6186
 1026SOL    HW214715   4.666   1.411   0.923  1.4701  0.7920  0.2255
 1027SOL     OW14716   0.243   1.161   7.868 -0.2034  0.0248  0.5540
 1027SOL    HW114717   0.185   1.093   7.904 -0.0831  0.4297  1.4946
 1027SOL    HW214718   0.224   1.160   7.774 -0.6354  1.0843  0.6346
 1028SOL     OW14719   2.218   1.045   2.510  0.1326  0.1593 -0.2111
 1028SOL    HW114720   2.270   1.123   2.491  0.7389 -0.4814 -1.1772
 1028SOL    HW214721   2.180   1.024   2.424  0.0980 -1.5109  0.2214
 1029SOL     OW14722   3.093   2.472   1.687 -0.1215 -0.6515  0.0325
 1029SOL    HW114723   3.121   2.518   1.766  0.4160 -2.1917  0.7595
 1029SOL    HW214724   3.137   2.387   1.699  0.1246 -0.5016  0.1967
 1030SOL     OW14725   0.068   0.598   4.972 -0.2013  0.2878  0.5054
 1030SOL    HW114726   0.091   0.560   4.887 -0.4655 -2.4486  1.6515
 1030SOL    HW214727   0.100   0.687   4.962  2.4357 -1.2662 -5.0904
 1031SOL     OW14728   0.773   2.065   8.711 -0.4814  0.0361  0.6280
 1031SOL    HW114729   0.769   2.116   8.792  2.5714  0.0886  0.7144
 1031SOL    HW214730   0.739   1.980   8.740  0.2411 -0.6983 -0.6506
 1032SOL     OW14731   3.496   0.183   2.315 -0.1356  0.1541 -0.0033
 1032SOL    HW114732   3.526   0.122   2.382 -2.3685 -0.3300  0.5597
 1032SOL    HW214733   3.456   0.253   2.367  0.1098 -0.3600  0.8727
 1033SOL     OW14734   0.546   0.493   2.246 -0.3323 -0.0986 -0.2722
 1033SOL    HW114735   0.470   0.453   2.205 -0.0153  0.3679 -1.2985
 1033SOL    HW214736   0.605   0.481   2.172 -1.2430  1.8459 -1.2893
 1034SOL     OW14737   2.424   0.209   2.827 -0.2987  0.0873 -0.1415
 1034SOL    HW114738   2.346   0.175   2.871  0.4891 -2.8476 -1.0340
 1034SOL    HW214739   2.431   0.296   2.866 -1.1948 -0.0192  0.2674
 1035SOL     OW14740   3.193   2.321   2.461 -0.1019  0.1421 -0.3475
 1035SOL    HW114741   3.259   2.291   2.524 -1.5493 -1.1264  0.5742
 1035SOL    HW214742   3.177   2.406   2.503  2.1767  1.0420 -1.3065
 1036SOL     OW14743   0.318   2.055   5.086 -0.7817 -0.0797 -0.4653
 1036SOL    HW114744   0.377   2.118   5.045  2.1460 -1.5187  1.5763
 1036SOL    HW214745   0.235   2.068   5.040 -1.2605 -0.4849  0.2905
 1037SOL     OW14746   3.062   4.107   0.421 -0.0217 -0.4143 -0.6732
 1037SOL    HW114747   3.002   4.180   0.441  0.9555  0.7503 -1.9823
 1037SOL    HW214748   3.013   4.025   0.426  3.3108 -2.3512  0.1795
 1038SOL     OW14749   0.683   3.138   2.933 -0.0640  0.1391  0.0895
 1038SOL    HW114750   0.762   3.085   2.922  0.0362  0.5578 -1.1718
 1038SOL    HW214751   0.697   3.220   2.887 -1.0626  0.1618 -0.1808
 1039SOL     OW14752   3.053   0.501   3.209 -0.2174  0.2572 -0.1905
 1039SOL    HW114753   2.981   0.451   3.248  0.2242  0.0117  0.2929
 1039SOL    HW214754   3.103   0.427   3.175  1.3190  1.1788  0.0807
 1040SOL     OW14755   2.073   0.025   2.670 -0.1348 -0.3386 -0.2917
 1040SOL    HW114756   2.044   0.052   2.583  1.4929  0.8989 -0.4557
 1040SOL    HW214757   2.067   0.107   2.719  0.6469 -1.5827  1.8970
 1041SOL     OW14758   0.820   2.866   3.817  0.3663  0.3084 -0.7389
 1041SOL    HW114759   0.849   2.946   3.774  0.6642  1.6889  2.0335
 1041SOL    HW214760   0.845   2.869   3.910  0.5716  2.4990 -0.8824
 1042SOL     OW14761   1.223   0.106   1.899  0.2309 -0.0228  0.1568
 1042SOL    HW114762   1.241   0.191   1.940  0.7085  1.3387 -2.8436
 1042SOL    HW214763   1.150   0.076   1.954  0.3917 -1.6321 -0.5139
 1043SOL     OW14764   3.256   1.746   2.069  0.1679  0.7925 -0.4117
 1043SOL    HW114765   3.326   1.801   2.035  0.6592  0.0108 -0.6744
 1043SOL    HW214766   3.182   1.777   2.017 -0.5057 -0.9647 -0.5226
 1044SOL     OW14767   2.374   0.213   7.144 -0.4117 -0.1623 -0.1780
 1044SOL    HW114768   2.404   0.141   7.088  0.1569  0.7381 -1.0379
 1044SOL    HW214769   2.306   0.167   7.194  0.2104  0.7978  1.5557
 1045SOL     OW14770   4.100   3.655  11.806 -0.0420  0.0827 -0.1411
 1045SOL    HW114771   4.144   3.731  11.768  0.1501 -0.7791 -1.6371
 1045SOL    HW214772   4.155   3.618  11.875 -1.6587 -0.7379  0.7198
 1046SOL     OW14773   1.172   3.850   9.190  0.4581 -0.5377  0.1364
 1046SOL    HW114774   1.129   3.878   9.270 -0.1783  2.2398 -1.1706
 1046SOL    HW214775   1.256   3.896   9.197 -0.5795  1.0244  2.0463
 1047SOL     OW14776   3.589   4.738  16.315  0.1498 -0.4617  0.2235
 1047SOL    HW114777   3.648   0.053  16.260 -0.1894  0.5457  0.8383
 1047SOL    HW214778   3.513   4.737  16.257 -0.7450  1.2538  1.3947
 1048SOL     OW14779   2.175   0.172   9.611 -0.9708  0.1862 -0.3771
 1048SOL    HW114780   2.206   0.118   9.538  0.6044  1.5739 -0.7455
 1048SOL    HW214781   2.090   0.209   9.589 -2.3340 -1.9007  1.3332
 1049SOL     OW14782   1.358   0.349   8.244 -0.7715 -0.3325  0.0434
 1049SOL    HW114783   1.436   0.330   8.191 -1.6836 -0.1690 -1.3355
 1049SOL    HW214784   1.373   0.441   8.266  1.2198 -0.5070 -0.5561
 1050SOL     OW14785   0.651   0.986   4.683  0.2904  0.1363  0.0403
 1050SOL    HW114786   0.599   0.944   4.615 -0.1773 -0.3676  0.7073
 1050SOL    HW214787   0.740   0.986   4.647  0.8782  0.4371  1.4613
 1051SOL     OW14788   1.135   3.036   3.071  0.1239  0.5437 -0.0202
 1051SOL    HW114789   1.149   2.973   3.142 -1.1265  0.2998  0.0217
 1051SOL    HW214790   1.226   3.050   3.044  0.2934 -4.0662 -1.9891
 1052SOL     OW14791   3.383   1.557  16.986  0.0452 -0.2770  0.1516
 1052SOL    HW114792   3.349   1.638  17.023  2.3303 -0.2366  2.1021
 1052SOL    HW214793   3.395   1.512  17.069 -3.9586 -0.4089  0.6872
 1053SOL     OW14794   2.709   0.083   6.797  0.1071  0.2104  0.2838
 1053SOL    HW114795   2.748   0.058   6.713 -1.6480  2.2106 -1.1019
 1053SOL    HW214796   2.739   0.008   6.849  0.9762 -0.9837 -1.9227
 1054SOL     OW14797   0.959   0.475   3.999  0.1415  0.6947 -0.1649
 1054SOL    HW114798   0.928   0.497   3.911 -0.9014 -0.8253 -0.1797
 1054SOL    HW214799   0.958   0.380   4.001 -0.1139  0.7087  0.3826
 1055SOL     OW14800   1.194   1.571   3.853 -0.0668 -0.1989  0.0081
 1055SOL    HW114801   1.110   1.585   3.809  1.3837  0.3590 -2.5369
 1055SOL    HW214802   1.250   1.569   3.776  1.4242 -1.3969  1.1254
 1056SOL     OW14803   1.390   2.592  15.003  0.2545  0.1729  0.1624
 1056SOL    HW114804   1.328   2.541  15.056 -0.2929  0.4730 -0.1937
 1056SOL    HW214805   1.401   2.541  14.923 -0.0176 -2.3099  1.7115
 1057SOL     OW14806   0.753   2.757   8.430 -0.8593 -0.3117  0.3169
 1057SOL    HW114807   0.801   2.815   8.370  0.0607 -1.6581 -0.2391
 1057SOL    HW214808   0.750   2.813   8.508 -3.5817  1.1974 -0.8563
 1058SOL     OW14809   4.367   2.578   1.589 -0.5896  0.1109 -0.1115
 1058SOL    HW114810   4.309   2.613   1.656  1.0638  0.4911  1.1187
 1058SOL    HW214811   4.364   2.484   1.610  0.1369  0.4451  1.4524
 1059SOL     OW14812   1.697   3.916  10.007 -0.1089  0.2154 -0.1350
 1059SOL    HW114813   1.662   3.850  10.067  2.4067  1.0723  2.2849
 1059SOL    HW214814   1.617   3.964   9.985 -0.7638 -1.4486 -1.4324
 1060SOL     OW14815   0.869   0.975   7.382  0.0767  0.3499 -0.1266
 1060SOL    HW114816   0.833   1.059   7.355  0.3600  0.5777  0.2079
 1060SOL    HW214817   0.807   0.914   7.343 -0.3358  0.0977  0.9234
 1061SOL     OW14818   2.632   0.137   8.372  0.6114  0.2824 -0.4156
 1061SOL    HW114819   2.602   0.181   8.293  0.9794 -1.0192 -1.2787
 1061SOL    HW214820   2.587   0.053   8.380  0.8664  0.3393  1.5981
 1062SOL     OW14821   1.581   2.739  16.124 -0.7396 -0.0511 -0.1491
 1062SOL    HW114822   1.573   2.829  16.154 -0.6056  0.2688 -1.0618
 1062SOL    HW214823   1.660   2.739  16.070 -0.2093  1.4219  0.6503
 1063SOL     OW14824   2.137   3.133   2.707 -0.4810  0.4807  0.0176
 1063SOL    HW114825   2.217   3.185   2.701 -0.4554  0.5061  0.5322
 1063SOL    HW214826   2.160   3.093   2.792 -0.8640 -3.5164 -1.7369
 1064SOL     OW14827   3.483   1.447  12.907 -0.2144  0.1956  0.4880
 1064SOL    HW114828   3.478   1.371  12.966 -0.0020  0.4134  0.7869
 1064SOL    HW214829   3.576   1.452  12.886 -0.9018 -0.2489 -2.6380
 1065SOL     OW14830   2.290   4.721   2.347 -0.4628  0.1521  0.2832
 1065SOL    HW114831   2.338   0.004   2.267 -0.9547  4.7407  1.1892
 1065SOL    HW214832   2.350   4.652   2.376  1.4285  1.3121 -0.8012
 1066SOL     OW14833   2.712   1.626   5.538  0.3326 -0.6251  1.0606
 1066SOL    HW114834   2.749   1.570   5.470  2.2447  1.0025  0.7524
 1066SOL    HW214835   2.724   1.565   5.611  0.8408 -0.7186  0.8991
 1067SOL     OW14836   3.577   2.235  14.000 -0.0073 -0.1927  0.4078
 1067SOL    HW114837   3.627   2.206  13.923  1.3672 -1.2686  1.7166
 1067SOL    HW214838   3.632   2.307  14.032 -1.1698  0.9488 -0.1705
 1068SOL     OW14839   0.799   3.587   1.882  0.3425  0.6051  0.0181
 1068SOL    HW114840   0.737   3.561   1.815 -2.1791  0.7458  2.2777
 1068SOL    HW214841   0.793   3.683   1.887  0.1014  0.5436  0.9851
 1069SOL     OW14842   2.933   1.243   3.278  0.8073 -0.0180  0.4734
 1069SOL    HW114843   2.928   1.157   3.237 -1.5376 -0.7508  2.3252
 1069SOL    HW214844   2.845   1.276   3.263  0.2986 -0.7372  1.9098
 1070SOL     OW14845   1.850   0.395   1.428 -0.7364 -0.0966 -0.0953
 1070SOL    HW114846   1.759   0.406   1.401 -0.6468 -0.1297 -0.4051
 1070SOL    HW214847   1.845   0.428   1.518  3.0330  0.8760 -0.2442
 1071SOL     OW14848   4.518   0.375   8.607 -0.2951  0.1264  0.5558
 1071SOL    HW114849   4.554   0.308   8.666  0.1821  0.8551  1.0773
 1071SOL    HW214850   4.585   0.372   8.539 -0.2288 -0.2014  0.6356
 1072SOL     OW14851   3.499   1.784   8.756 -0.1512 -0.2888  0.6846
 1072SOL    HW114852   3.477   1.695   8.783  1.9257 -0.8110  0.6326
 1072SOL    HW214853   3.583   1.764   8.714 -1.4691 -1.0362 -1.6045
 1073SOL     OW14854   1.436   2.695   6.546  0.4757 -0.1468 -0.1402
 1073SOL    HW114855   1.354   2.662   6.582  0.4341  0.1781  0.0636
 1073SOL    HW214856   1.412   2.768   6.490 -0.4106  0.8769  1.5846
 1074SOL     OW14857   3.986   1.238   3.362 -0.1100  0.4252  0.0575
 1074SOL    HW114858   4.047   1.181   3.315  1.6273  0.6435  2.0759
 1074SOL    HW214859   3.905   1.235   3.311 -0.1323 -0.9687  0.1926
 1075SOL     OW14860   0.448   1.363  17.575 -0.0658 -0.2130  0.1581
 1075SOL    HW114861   0.541   1.355  17.600 -0.0104 -0.8221 -0.2365
 1075SOL    HW214862   0.439   1.298  17.505 -3.0235 -1.1591  1.3967
 1076SOL     OW14863   0.339   2.195   0.655  0.3469 -0.0132  0.1612
 1076SOL    HW114864   0.311   2.158   0.571  1.7500  0.5801 -0.5677
 1076SOL    HW214865   0.423   2.153   0.673  1.7686  1.2902 -3.4090
 1077SOL     OW14866   4.677   0.729   6.537  0.2448  0.2611 -0.2384
 1077SOL    HW114867   0.004   0.708   6.603 -0.1023 -1.4241 -0.4349
 1077SOL    HW214868   4.707   0.813   6.502 -0.3892  0.1322 -1.1156
 1078SOL     OW14869   3.947   1.928   4.841  0.3563 -0.0513  0.3329
 1078SOL    HW114870   3.908   1.986   4.775 -0.3582  0.0926  0.8759
 1078SOL    HW214871   4.035   1.963   4.856  0.5696 -0.0001 -1.0650
 1079SOL     OW14872   0.255   2.551   6.756  0.1420  0.7226  0.0808
 1079SOL    HW114873   0.238   2.476   6.699  0.3710 -0.0430  1.0115
 1079SOL    HW214874   0.308   2.607   6.700 -0.5924  0.5620 -0.7648
 1080SOL     OW14875   0.636   0.219   6.985  0.0451 -0.3017 -0.6850
 1080SOL    HW114876   0.607   0.307   6.964  2.0013  0.6986  0.7197
 1080SOL    HW214877   0.679   0.199   6.902 -0.0394  2.1868 -1.3340
 1081SOL     OW14878   0.479   4.441   5.381  0.2871 -0.2016 -0.3859
 1081SOL    HW114879   0.545   4.380   5.412  1.5347  1.0858 -0.4755
 1081SOL    HW214880   0.411   4.408   5.440 -0.6231  0.0689 -1.2859
 1082SOL     OW14881   1.668   0.081  15.401 -0.4972  0.0132  0.3748
 1082SOL    HW114882   1.707   0.034  15.328 -0.9111  0.5177 -0.1854
 1082SOL    HW214883   1.620   0.017  15.453  0.5319 -0.7216  0.3978
 1083SOL     OW14884   4.289   2.109   2.700  0.3978 -0.6148  0.2506
 1083SOL    HW114885   4.265   2.191   2.657  1.4088 -2.3708 -3.6824
 1083SOL    HW214886   4.286   2.130   2.793  0.0696 -0.6217  0.2412
 1084SOL     OW14887   4.456   4.399   2.154 -0.2844 -0.1222 -0.6972
 1084SOL    HW114888   4.483   4.438   2.071  2.3473 -2.1752 -0.8078
 1084SOL    HW214889   4.388   4.463   2.177  0.9713  0.6724  0.8185
 1085SOL     OW14890   1.624   4.184   3.823 -0.4808  0.4234 -0.0573
 1085SOL    HW114891   1.636   4.100   3.867  1.8082  1.0478  0.5273
 1085SOL    HW214892   1.667   4.173   3.739  0.1836  1.3214  0.1645
 1086SOL     OW14893   2.365   3.242   7.271  0.5378  0.5837  0.1894
 1086SOL    HW114894   2.341   3.242   7.179  0.8476 -0.1247  0.1088
 1086SOL    HW214895   2.299   3.304   7.303 -1.0480 -0.2246 -1.5185
 1087SOL     OW14896   1.555   4.273   2.875  0.4664 -0.3629  0.4028
 1087SOL    HW114897   1.491   4.324   2.924 -0.8658 -0.4860 -1.2353
 1087SOL    HW214898   1.530   4.184   2.898  0.6821 -0.0388  1.8932
 1088SOL     OW14899   2.190   3.901  15.652  0.2589 -0.3352  0.7542
 1088SOL    HW114900   2.225   3.829  15.599 -1.0724  0.5517 -1.3072
 1088SOL    HW214901   2.101   3.909  15.620 -0.2371 -0.8462  2.0260
 1089SOL     OW14902   4.611   2.027   2.217 -0.6556  0.0918  0.5940
 1089SOL    HW114903   4.670   1.994   2.149 -1.3141 -1.5666  0.8317
 1089SOL    HW214904   4.573   1.947   2.253 -1.3829  0.5332  0.7911
 1090SOL     OW14905   1.183   3.202   8.517  0.1599 -0.0768 -0.2309
 1090SOL    HW114906   1.240   3.125   8.509 -0.6908 -0.9173  1.7271
 1090SOL    HW214907   1.241   3.274   8.491 -0.0566 -0.3333 -1.3987
 1091SOL     OW14908   0.114   1.638   4.183 -0.0763  0.5385  0.0214
 1091SOL    HW114909   0.021   1.616   4.176  0.3263 -1.3164  0.3864
 1091SOL    HW214910   0.106   1.730   4.205 -0.2078 -0.1779  2.9207
 1092SOL     OW14911   0.950   0.904  14.728  0.5098  0.5438  0.3776
 1092SOL    HW114912   0.947   0.903  14.632  0.4339 -1.9642  0.4247
 1092SOL    HW214913   0.943   0.997  14.749 -1.5336  0.7491 -1.2041
 1093SOL     OW14914   3.293   4.243  10.488 -0.1825 -0.1522  0.5119
 1093SOL    HW114915   3.240   4.291  10.551  0.1194 -0.2504  0.8428
 1093SOL    HW214916   3.378   4.241  10.531 -0.0237 -2.1613  0.1091
 1094SOL     OW14917   1.156   4.679   2.306  0.1256  0.6899 -0.1464
 1094SOL    HW114918   1.158   4.608   2.371  2.8890 -1.0888 -2.2179
 1094SOL    HW214919   1.130   0.006   2.371 -0.9988  1.0347 -0.9370
 1095SOL     OW14920   3.901   3.881   7.046  0.0234 -0.6351  0.1582
 1095SOL    HW114921   3.832   3.929   7.001  2.1883  0.8682 -1.5307
 1095SOL    HW214922   3.885   3.923   7.131 -0.2898 -2.4628  1.0268
 1096SOL     OW14923   1.279   2.090   2.724  0.2396 -0.5465  0.2121
 1096SOL    HW114924   1.226   2.135   2.658 -2.0749 -1.5282  1.3708
 1096SOL    HW214925   1.369   2.094   2.694  0.1824 -0.1989  0.0837
 1097SOL     OW14926   2.797   4.367   7.655 -0.0993 -0.5012 -0.2330
 1097SOL    HW114927   2.737   4.439   7.637 -2.9322 -2.0810  2.9529
 1097SOL    HW214928   2.734   4.295   7.660 -0.3682 -0.1439  1.7073
 1098SOL     OW14929   1.338   1.927   0.277  0.2251 -0.4945  0.6111
 1098SOL    HW114930   1.276   1.855   0.285  2.5357 -2.3870  1.8347
 1098SOL    HW214931   1.281   2.000   0.256  0.3208 -1.0935 -1.7214
 1099SOL     OW14932   1.255   2.837  17.201  0.0914 -0.1008 -0.3724
 1099SOL    HW114933   1.235   2.903  17.267  0.3539 -1.9110  1.4872
 1099SOL    HW214934   1.349   2.846  17.182  0.2339  4.4928  2.5195
 1100SOL     OW14935   4.255   0.590   8.017  0.4135  0.7343 -0.4575
 1100SOL    HW114936   4.174   0.634   8.041  1.6325  1.3766  2.5024
 1100SOL    HW214937   4.237   0.577   7.924  0.0102  0.8650 -0.3954
 1101SOL     OW14938   0.162   3.586   6.917 -0.4609  0.2573  0.0638
 1101SOL    HW114939   0.116   3.670   6.911  0.4945  0.6390 -1.9542
 1101SOL    HW214940   0.085   3.532   6.897  1.3445 -2.4927  0.6812
 1102SOL     OW14941   1.236   0.580   6.732 -0.2455  0.2738  0.5971
 1102SOL    HW114942   1.159   0.564   6.785 -0.7436 -2.1673 -0.8381
 1102SOL    HW214943   1.283   0.498   6.751 -1.6078 -0.3899  1.0697
 1103SOL     OW14944   3.721   3.606   4.155 -0.5125  0.4107 -0.4317
 1103SOL    HW114945   3.795   3.546   4.155 -0.3755  0.5671 -2.1367
 1103SOL    HW214946   3.696   3.603   4.247  1.5926  2.0271  0.1941
 1104SOL     OW14947   1.068   4.012   5.578 -0.6991 -0.0315  0.4440
 1104SOL    HW114948   1.108   4.010   5.664 -0.4011  1.2348  0.3379
 1104SOL    HW214949   1.127   4.080   5.547 -0.8103 -0.7113 -1.2670
 1105SOL     OW14950   4.360   1.406   4.379 -0.0579  0.1421 -0.3565
 1105SOL    HW114951   4.402   1.422   4.463  1.4776  0.1330 -1.1340
 1105SOL    HW214952   4.353   1.495   4.345 -0.5532  0.1980 -0.1206
 1106SOL     OW14953   4.608   2.607   3.758  0.0505 -0.2438  0.4439
 1106SOL    HW114954   4.584   2.517   3.777  0.3555 -0.5489 -0.5984
 1106SOL    HW214955   4.571   2.625   3.671  1.2215  0.6992  0.1396
 1107SOL     OW14956   3.288   3.803   8.142 -0.3375 -0.4320  0.1035
 1107SOL    HW114957   3.381   3.786   8.130 -0.2978  0.7527 -1.2414
 1107SOL    HW214958   3.248   3.767   8.063  2.5281  0.7762 -1.8639
 1108SOL     OW14959   1.512   2.568   5.328 -0.2659  0.1460 -0.5293
 1108SOL    HW114960   1.482   2.561   5.419 -1.5660  0.5362 -0.9317
 1108SOL    HW214961   1.433   2.539   5.282 -0.2829 -1.7586  0.6972
 1109SOL     OW14962   1.756   0.613  16.408  0.5497  0.0778 -0.3717
 1109SOL    HW114963   1.755   0.580  16.497  0.2651  1.3695  0.0990
 1109SOL    HW214964   1.776   0.533  16.359 -0.7158 -0.9833  0.8643
 1110SOL     OW14965   1.887   2.202   0.472  0.2806 -0.0947  0.3972
 1110SOL    HW114966   1.863   2.142   0.542 -0.5064  0.3417  0.4996
 1110SOL    HW214967   1.817   2.187   0.408  1.3648  0.5174 -0.9301
 1111SOL     OW14968   0.388   3.828   6.797  0.7169 -0.2274  0.0688
 1111SOL    HW114969   0.412   3.789   6.880  1.2899  1.0567  0.5122
 1111SOL    HW214970   0.394   3.749   6.743  2.2369 -0.0706  0.0171
 1112SOL     OW14971   0.426   1.014   6.709 -0.3229  0.1171  0.1511
 1112SOL    HW114972   0.333   0.999   6.695  0.3238 -2.7327 -0.9576
 1112SOL    HW214973   0.437   1.109   6.711 -0.2271  0.1107 -0.1192
 1113SOL     OW14974   1.516   3.378   3.151  0.2331 -0.2592  0.1687
 1113SOL    HW114975   1.466   3.393   3.231 -0.3067 -0.9643 -0.0421
 1113SOL    HW214976   1.543   3.286   3.162  2.5204  0.3782  0.0199
 1114SOL     OW14977   1.165   4.604  14.055 -0.0413 -0.3706  0.2752
 1114SOL    HW114978   1.092   4.547  14.032  0.8744 -0.4574 -2.3953
 1114SOL    HW214979   1.206   4.616  13.969 -1.9776  0.0978 -0.5726
 1115SOL     OW14980   4.375   1.729   2.656  0.1335  0.5112 -0.1548
 1115SOL    HW114981   4.394   1.798   2.593  0.3183  1.2284  0.6892
 1115SOL    HW214982   4.292   1.758   2.693 -0.2405 -1.8919  0.9049
 1116SOL     OW14983   4.014   2.508   5.092  0.0889 -0.0380  0.5469
 1116SOL    HW114984   4.098   2.525   5.049 -0.6773 -0.3184 -1.0354
 1116SOL    HW214985   3.941   2.535   5.036  0.2337 -0.4719  0.1494
 1117SOL     OW14986   2.019   2.859   8.292 -0.1563  0.5407  0.6680
 1117SOL    HW114987   1.974   2.920   8.350 -0.3863 -0.3683  1.4404
 1117SOL    HW214988   1.955   2.852   8.221  0.6784 -1.2064  0.0989
 1118SOL     OW14989   1.820   3.039  11.829 -0.9602 -0.2777 -0.0251
 1118SOL    HW114990   1.839   3.126  11.864  3.0844 -0.2240 -2.3936
 1118SOL    HW214991   1.784   3.002  11.910  3.6553 -0.0691  2.0835
 1119SOL     OW14992   0.924   3.588   5.266  0.2009  0.1067  0.0518
 1119SOL    HW114993   0.961   3.663   5.311  1.8260 -0.7838  0.1757
 1119SOL    HW214994   0.852   3.575   5.328 -2.1215 -1.3680 -2.8915
 1120SOL     OW14995   3.606   2.030  15.580 -0.4191 -0.5440  0.5576
 1120SOL    HW114996   3.529   2.063  15.533  1.1293  1.0948 -0.8576
 1120SOL    HW214997   3.571   1.964  15.639 -1.4599 -0.5157 -0.0277
 1121SOL     OW14998   1.418   0.507   4.754  0.0262 -0.4500 -0.1970
 1121SOL    HW114999   1.326   0.482   4.766 -0.2324  1.1700  1.2305
 1121SOL    HW215000   1.396   0.600   4.747 -2.1179 -0.9910 -0.9716
 1122SOL     OW15001   3.636   1.816   3.596  0.2078  0.8280  0.4340
 1122SOL    HW115002   3.623   1.792   3.688  1.6539 -1.3057  0.0689
 1122SOL    HW215003   3.688   1.895   3.607  0.7135  0.8418 -2.0703
 1123SOL     OW15004   3.649   1.808   7.907 -0.2639 -0.3674  0.1410
 1123SOL    HW115005   3.648   1.778   7.816 -0.0946  1.0711 -0.3330
 1123SOL    HW215006   3.725   1.865   7.900 -0.5332  0.1134  1.2081
 1124SOL     OW15007   4.020   3.093   8.983  0.1614 -0.7647  0.5738
 1124SOL    HW115008   4.103   3.059   8.949 -0.4859 -1.1860 -0.5872
 1124SOL    HW215009   3.967   3.049   8.917  0.8832 -2.0322  0.8216
 1125SOL     OW15010   2.342   4.374   5.051  0.4202 -0.2758  0.0524
 1125SOL    HW115011   2.433   4.356   5.076  0.8439  2.2034  0.2490
 1125SOL    HW215012   2.336   4.328   4.967 -0.8568 -1.0575  0.5837
 1126SOL     OW15013   0.110   1.636   8.073  0.1477  0.3162 -0.2218
 1126SOL    HW115014   0.059   1.558   8.095 -0.8647  0.9481 -0.3339
 1126SOL    HW215015   0.150   1.613   7.989  0.8400 -3.6125  1.1864
 1127SOL     OW15016   0.385   4.356   2.006  0.0344 -0.3396 -0.1775
 1127SOL    HW115017   0.420   4.368   1.918  1.9320 -2.9010  0.2422
 1127SOL    HW215018   0.317   4.291   1.988 -0.7069  0.4195 -0.1007
 1128SOL     OW15019   3.122   3.765  11.464 -0.0260  0.1599 -0.2659
 1128SOL    HW115020   3.124   3.672  11.489 -0.9286  0.3141  0.3540
 1128SOL    HW215021   3.125   3.752  11.369  1.9518  1.6749 -0.4221
 1129SOL     OW15022   1.569   4.710   6.836 -0.3065 -0.4478  0.9219
 1129SOL    HW115023   1.564   4.737   6.744 -0.7368 -1.8227  0.5376
 1129SOL    HW215024   1.539   0.051   6.880  0.4594 -0.4075  1.3736
 1130SOL     OW15025   0.510   2.682   2.217 -0.1736 -0.1943 -0.0934
 1130SOL    HW115026   0.453   2.619   2.173 -2.4605  1.0261  1.0927
 1130SOL    HW215027   0.593   2.635   2.217 -0.0333  0.0542 -0.0051
 1131SOL     OW15028   1.076   1.546   4.954  0.4894  0.2921  0.3032
 1131SOL    HW115029   1.024   1.496   5.017 -0.6788  0.9948 -0.1194
 1131SOL    HW215030   1.101   1.627   4.999 -0.5810  0.3099  0.8721
 1132SOL     OW15031   3.121   3.059   6.316  0.6875 -0.2582 -0.2565
 1132SOL    HW115032   3.089   2.970   6.328 -1.7172  0.9314  2.3161
 1132SOL    HW215033   3.152   3.051   6.226  2.4070 -1.4771  0.4453
 1133SOL     OW15034   3.112   4.464   8.355 -0.1049  0.1271 -0.3468
 1133SOL    HW115035   3.109   4.369   8.364  1.2062  0.1397  0.2845
 1133SOL    HW215036   3.126   4.479   8.261  1.7997 -0.7183 -0.1902
 1134SOL     OW15037   4.686   3.201   3.249  0.2403  0.0603 -0.2295
 1134SOL    HW115038   4.591   3.209   3.256  0.0890 -1.0145 -1.0047
 1134SOL    HW215039   4.707   3.291   3.276  2.3806 -0.7080  0.6591
 1135SOL     OW15040   2.185   0.054   3.027 -0.2120 -0.0010 -0.8685
 1135SOL    HW115041   2.226   0.106   3.097 -0.3749  0.1791 -0.9081
 1135SOL    HW215042   2.192   4.701   3.056 -1.8994  0.4631  1.0284
 1136SOL     OW15043   3.907   0.470   2.019  0.0158  0.2702  0.3823
 1136SOL    HW115044   3.976   0.427   1.968 -0.1729  1.0422 -0.5025
 1136SOL    HW215045   3.954   0.503   2.096  1.8595 -0.1405 -0.5562
 1137SOL     OW15046   3.567   3.796   8.046 -0.2943  0.7542 -0.0408
 1137SOL    HW115047   3.656   3.788   8.082 -1.4790 -1.0541  2.4836
 1137SOL    HW215048   3.580   3.862   7.979  0.5885 -0.1504 -0.7582
 1138SOL     OW15049   0.615   0.410   3.844  0.0298 -0.4358  0.0818
 1138SOL    HW115050   0.608   0.322   3.880 -1.3969 -0.4073 -0.1315
 1138SOL    HW215051   0.656   0.401   3.758  0.9258  2.7066  0.1484
 1139SOL     OW15052   3.042   0.898   3.424 -0.1492 -0.0658 -0.4723
 1139SOL    HW115053   3.031   0.922   3.332 -1.2187  2.2415  0.2598
 1139SOL    HW215054   3.095   0.819   3.422 -0.6281 -0.4464  1.7893
 1140SOL     OW15055   3.658   4.094   8.160  0.1710  0.2473  0.3764
 1140SOL    HW115056   3.565   4.071   8.166  0.5199 -1.3173 -0.2832
 1140SOL    HW215057   3.676   4.121   8.250 -1.6860 -2.1499  1.4424
 1141SOL     OW15058   1.240   0.537  10.022  0.0006 -0.1967  0.5712
 1141SOL    HW115059   1.225   0.623  10.063  2.8922  0.4470  0.2897
 1141SOL    HW215060   1.164   0.485  10.047  1.1935 -1.4752  1.4692
 1142SOL     OW15061   0.376   1.208   5.047 -0.1408  0.6290  0.6394
 1142SOL    HW115062   0.333   1.194   5.132  0.9275 -2.6862  0.6438
 1142SOL    HW215063   0.465   1.181   5.070 -0.6200 -1.2469  0.3223
 1143SOL     OW15064   1.467   3.039   4.364 -0.6229 -0.2531 -0.2681
 1143SOL    HW115065   1.522   3.056   4.288 -1.7776 -1.1053 -1.3018
 1143SOL    HW215066   1.389   3.090   4.339  0.0304  1.2531  0.7406
 1144SOL     OW15067   1.376   3.260   9.336 -0.3282  0.0699  0.6798
 1144SOL    HW115068   1.290   3.275   9.298  1.0259 -0.8275 -2.7691
 1144SOL    HW215069   1.379   3.165   9.326 -1.6368  0.4859 -3.6116
 1145SOL     OW15070   3.735   2.773   1.875  0.3275 -0.4523 -0.9608
 1145SOL    HW115071   3.828   2.753   1.862  1.0175  1.2992  1.4306
 1145SOL    HW215072   3.744   2.815   1.960 -2.5697 -1.1616 -0.3281
 1146SOL     OW15073   3.649   4.244   9.032 -0.1783  0.0400 -0.1483
 1146SOL    HW115074   3.560   4.210   9.046 -0.4575  0.8554  0.0668
 1146SOL    HW215075   3.651   4.255   8.937 -0.7501 -1.0386 -0.2851
 1147SOL     OW15076   3.004   3.808   1.944  0.0662  0.1770 -0.4035
 1147SOL    HW115077   3.087   3.834   1.905 -0.9122 -0.3991 -2.9357
 1147SOL    HW215078   2.992   3.867   2.018  0.3293 -0.4286  0.1231
 1148SOL     OW15079   1.824   3.705   6.720  0.2283  0.3320  0.0071
 1148SOL    HW115080   1.754   3.640   6.719 -1.8177  2.4692  2.1387
 1148SOL    HW215081   1.850   3.702   6.628 -0.2284  1.3376 -0.1603
 1149SOL     OW15082   0.629   1.624   6.793  0.0205 -0.2472  0.8643
 1149SOL    HW115083   0.615   1.568   6.716 -2.7352 -0.6090  1.6227
 1149SOL    HW215084   0.650   1.709   6.754 -2.3124  1.0983  2.5294
 1150SOL     OW15085   0.765   0.444  13.487 -0.7323 -0.3499 -0.1360
 1150SOL    HW115086   0.807   0.450  13.401 -0.4389  0.9295  0.0820
 1150SOL    HW215087   0.838   0.443  13.549 -2.1040  0.9104  1.5326
 1151SOL     OW15088   4.703   3.595   8.200 -0.5977  0.2817 -0.0570
 1151SOL    HW115089   4.613   3.614   8.175 -1.1701 -1.5112  0.7127
 1151SOL    HW215090   4.727   3.686   8.180  2.8197 -1.2309 -2.8863
 1152SOL     OW15091   1.729   2.971   4.220  0.0280  1.0553 -0.2061
 1152SOL    HW115092   1.734   2.943   4.311 -2.6220 -0.8329 -0.6398
 1152SOL    HW215093   1.795   3.038   4.201  1.8192 -0.8866 -0.7718
 1153SOL     OW15094   1.478   4.002   4.886 -0.3399  0.2321  0.0658
 1153SOL    HW115095   1.482   3.945   4.962 -0.2536  0.0953 -0.0408
 1153SOL    HW215096   1.510   4.082   4.927 -1.5052  0.6300  0.2120
 1154SOL     OW15097   1.498   1.197   3.690  0.0791  0.4107  0.1113
 1154SOL    HW115098   1.585   1.215   3.727 -1.1332 -2.9220  4.6739
 1154SOL    HW215099   1.441   1.268   3.721  0.0939  1.2408 -1.7409
 1155SOL     OW15100   3.018   0.421   5.855 -0.1321  0.2989 -0.5879
 1155SOL    HW115101   3.049   0.414   5.765  1.0180  0.2184 -0.1956
 1155SOL    HW215102   2.929   0.387   5.850  0.4053 -1.2160 -0.0003
 1156SOL     OW15103   2.193   0.626   9.541  0.2031  0.4327  0.5311
 1156SOL    HW115104   2.240   0.546   9.514 -1.5220  0.4563 -2.5296
 1156SOL    HW215105   2.186   0.607   9.634 -1.4530  1.2926  0.5839
 1157SOL     OW15106   2.459   0.455   0.491 -0.0896  0.2376 -0.2783
 1157SOL    HW115107   2.370   0.483   0.511  0.1319 -0.6579  1.9472
 1157SOL    HW215108   2.506   0.496   0.563 -1.2724 -0.0050  0.6236
 1158SOL     OW15109   3.885   2.433   3.373 -0.1277 -0.0683  0.5220
 1158SOL    HW115110   3.798   2.397   3.389  0.3032 -0.7219  1.4475
 1158SOL    HW215111   3.913   2.368   3.308 -0.5220 -0.2232  0.5115
 1159SOL     OW15112   1.792   2.744   2.532 -0.4385 -0.2975 -0.0611
 1159SOL    HW115113   1.729   2.803   2.573 -0.0032  1.4717 -1.9605
 1159SOL    HW215114   1.857   2.805   2.497  0.1764 -1.3673 -0.7994
 1160SOL     OW15115   2.054   1.610   4.543 -0.0712  0.1777 -0.6521
 1160SOL    HW115116   2.102   1.530   4.524 -1.4401 -0.5456 -1.0709
 1160SOL    HW215117   2.123   1.658   4.589  0.2646 -0.6888 -0.2560
 1161SOL     OW15118   1.964   2.565  11.237  0.1137  0.8839 -0.3597
 1161SOL    HW115119   1.974   2.483  11.188  0.3159 -0.0744  1.2822
 1161SOL    HW215120   1.955   2.627  11.164 -0.4002  0.7886 -0.3773
 1162SOL     OW15121   3.719   0.702   9.373  0.2237  0.1785 -0.0188
 1162SOL    HW115122   3.717   0.607   9.360 -3.3444  0.0185  1.7663
 1162SOL    HW215123   3.742   0.715   9.465  3.0068 -2.9319 -0.2494
 1163SOL     OW15124   3.462   1.563  15.975  0.7656  0.2614  0.7703
 1163SOL    HW115125   3.467   1.477  16.015  2.7216 -1.3865 -2.9766
 1163SOL    HW215126   3.512   1.543  15.895 -2.0321 -0.1774 -0.8868
 1164SOL     OW15127   3.809   1.630   8.384 -0.0518 -0.4183 -0.0776
 1164SOL    HW115128   3.903   1.628   8.365  0.1017  0.6841  0.5816
 1164SOL    HW215129   3.781   1.703   8.329  2.4236 -0.2772 -1.1226
 1165SOL     OW15130   1.844   4.379  16.772 -0.0213 -0.1799  0.4262
 1165SOL    HW115131   1.838   4.289  16.741  1.0016  0.0984 -0.6228
 1165SOL    HW215132   1.875   4.421  16.691 -0.1914  0.0957  0.5041
 1166SOL     OW15133   4.350   0.387   9.333  0.1491  0.5931  0.0998
 1166SOL    HW115134   4.437   0.402   9.371 -0.1084  0.8608  0.5722
 1166SOL    HW215135   4.357   0.435   9.250  0.9333 -2.0660 -1.3775
 1167SOL     OW15136   2.208   3.759  12.978  0.7081  0.1522 -0.1660
 1167SOL    HW115137   2.276   3.809  13.024  0.5412 -0.2391  0.5115
 1167SOL    HW215138   2.232   3.668  12.997 -0.3500 -0.0041  0.3873
 1168SOL     OW15139   4.374   1.819   3.547 -0.4507  0.2158  0.2654
 1168SOL    HW115140   4.431   1.747   3.573 -1.0205 -0.6280 -0.8572
 1168SOL    HW215141   4.424   1.895   3.579  0.0440  0.0199 -0.0416
 1169SOL     OW15142   2.300   1.033   8.345 -0.3712  0.1504 -0.2028
 1169SOL    HW115143   2.326   1.077   8.426 -3.4123 -0.2637  0.9910
 1169SOL    HW215144   2.262   0.955   8.384  2.3283 -0.2806  1.5544
 1170SOL     OW15145   4.616   0.339   1.326 -0.3347  0.0216 -0.1179
 1170SOL    HW115146   4.563   0.342   1.247 -0.6326 -1.5290  0.0200
 1170SOL    HW215147   4.694   0.389   1.302 -0.2954 -0.0767 -0.1966
 1171SOL     OW15148   1.523   0.444  13.459 -0.4788  0.2231 -0.1179
 1171SOL    HW115149   1.458   0.388  13.502 -0.3331 -0.8141 -1.2415
 1171SOL    HW215150   1.595   0.445  13.522 -1.1744 -1.3798  0.7019
 1172SOL     OW15151   3.194   0.986  15.539 -0.3711 -0.1885 -0.3558
 1172SOL    HW115152   3.288   0.968  15.536 -0.2850  0.6004 -2.1114
 1172SOL    HW215153   3.180   0.989  15.444 -1.0115  0.2122 -0.2468
 1173SOL     OW15154   3.201   0.630   5.589 -0.7237 -0.3063  0.7233
 1173SOL    HW115155   3.175   0.546   5.628 -2.5102  0.2209  0.6370
 1173SOL    HW215156   3.253   0.596   5.516  0.6729  1.4140  0.9216
 1174SOL     OW15157   1.619   3.502   2.691  0.5712  0.7335 -0.1603
 1174SOL    HW115158   1.601   3.469   2.779  2.4686 -0.0053 -0.0445
 1174SOL    HW215159   1.538   3.478   2.645  1.1032  0.4906 -0.9668
 1175SOL     OW15160   3.764   3.697   0.902  0.5869 -0.1327 -0.1292
 1175SOL    HW115161   3.726   3.770   0.950  0.1383  1.2293 -2.5770
 1175SOL    HW215162   3.724   3.614   0.931  0.9566  0.3268  1.7096
 1176SOL     OW15163   0.333   0.796   3.449  0.3218 -0.0228  0.3063
 1176SOL    HW115164   0.296   0.872   3.493  1.0308  2.1173 -2.8529
 1176SOL    HW215165   0.344   0.831   3.361 -1.4853  0.3658  0.2442
 1177SOL     OW15166   2.484   3.926   0.952 -0.0596  0.2583 -0.4533
 1177SOL    HW115167   2.483   4.007   1.004  1.8551  0.3528 -0.5609
 1177SOL    HW215168   2.468   3.971   0.869 -2.6253 -2.4873 -1.4182
 1178SOL     OW15169   4.402   2.269  12.138  0.3995 -0.1407  0.3575
 1178SOL    HW115170   4.402   2.336  12.070 -1.8204  1.6391  2.0820
 1178SOL    HW215171   4.452   2.321  12.201 -0.3079  2.0923 -0.9298
 1179SOL     OW15172   0.933   1.191   0.075 -0.4044  0.4009  0.0481
 1179SOL    HW115173   0.886   1.253   0.019 -0.9058  2.9753  3.2810
 1179SOL    HW215174   1.016   1.174   0.030 -1.0493 -1.4942 -0.4230
 1180SOL     OW15175   0.554   4.081  10.391  0.4951 -0.4840 -0.0085
 1180SOL    HW115176   0.610   4.129  10.330 -2.3250  1.1841 -1.2981
 1180SOL    HW215177   0.599   4.085  10.476 -1.6023 -1.4852  1.1492
 1181SOL     OW15178   2.268   3.380   8.595 -0.3979  0.1009  0.6154
 1181SOL    HW115179   2.227   3.376   8.682 -0.4388  0.2512  0.6028
 1181SOL    HW215180   2.196   3.415   8.543  1.0551 -0.0463 -1.4861
 1182SOL     OW15181   1.303   0.307   6.819 -0.0746 -0.7911  0.0838
 1182SOL    HW115182   1.385   0.303   6.770  1.0450 -1.6555  2.0117
 1182SOL    HW215183   1.347   0.280   6.900  1.7379 -3.1697 -1.7109
 1183SOL     OW15184   2.366   4.053   4.149  0.4252 -0.2749 -0.3471
 1183SOL    HW115185   2.327   4.021   4.067  0.5014  1.5215 -1.0864
 1183SOL    HW215186   2.424   4.126   4.126  0.7449 -0.4552 -0.1123
 1184SOL     OW15187   0.698   0.770  11.448  0.0507  0.1076  0.4727
 1184SOL    HW115188   0.624   0.819  11.484  1.3036  3.1590 -1.0538
 1184SOL    HW215189   0.682   0.689  11.495 -0.0477  0.6166  1.3215
 1185SOL     OW15190   2.219   4.574   6.843  0.5342 -0.0630  0.6865
 1185SOL    HW115191   2.280   4.532   6.904  0.9208  0.3165  0.5622
 1185SOL    HW215192   2.175   4.632   6.904  1.4519 -0.2073  1.4854
 1186SOL     OW15193   3.143   2.426   7.768 -0.4569  0.5424  0.4482
 1186SOL    HW115194   3.054   2.410   7.736 -0.8130  1.0728  1.1806
 1186SOL    HW215195   3.180   2.338   7.770 -0.7271  0.4229  0.1607
 1187SOL     OW15196   2.278   0.284  11.345  0.1190  0.1217 -0.1293
 1187SOL    HW115197   2.328   0.303  11.266  0.1683  1.6787  0.2739
 1187SOL    HW215198   2.193   0.318  11.318  1.2526  1.5503 -1.8929
 1188SOL     OW15199   0.517   3.499   4.626 -0.0237 -0.5944 -0.4975
 1188SOL    HW115200   0.587   3.557   4.597  1.6543 -2.0666  0.5795
 1188SOL    HW215201   0.535   3.417   4.581  0.8873  0.4017 -1.9653
 1189SOL     OW15202   3.233   0.190   5.195  0.4619 -0.0878  0.0824
 1189SOL    HW115203   3.248   0.266   5.138  0.1233 -0.0610  0.0275
 1189SOL    HW215204   3.309   0.191   5.254  0.6789 -0.6338 -0.1841
 1190SOL     OW15205   1.006   2.106   4.525  0.4756 -0.3556  0.5288
 1190SOL    HW115206   1.041   2.032   4.477  0.2483  0.9445 -1.6414
 1190SOL    HW215207   0.941   2.144   4.467  0.5328  0.3046  0.8932
 1191SOL     OW15208   4.270   0.829  15.891 -0.0350  0.5189  0.4643
 1191SOL    HW115209   4.313   0.772  15.955  2.4362  0.9305 -0.8102
 1191SOL    HW215210   4.205   0.768  15.858  0.2329  0.9561 -0.8424
 1192SOL     OW15211   2.557   0.968   1.281 -0.1796 -0.6319 -0.0984
 1192SOL    HW115212   2.646   0.984   1.314 -0.1852 -1.5723  0.3615
 1192SOL    HW215213   2.515   1.018   1.350  1.0634 -0.7902  0.7772
 1193SOL     OW15214   4.436   2.830   3.321  0.5629 -0.3207  0.1020
 1193SOL    HW115215   4.529   2.813   3.311  0.4040 -1.0400 -0.1733
 1193SOL    HW215216   4.400   2.762   3.264  3.8909 -0.7544 -1.4495
 1194SOL     OW15217   1.831   3.538   0.799  0.2647 -1.1675  0.2040
 1194SOL    HW115218   1.773   3.587   0.741  0.6062  1.0871  1.7536
 1194SOL    HW215219   1.916   3.577   0.776 -0.1403 -0.2741  0.2242
 1195SOL     OW15220   4.337   3.097   4.917  0.1189  0.1260  0.3661
 1195SOL    HW115221   4.295   3.181   4.933  2.4257  1.6498 -1.5613
 1195SOL    HW215222   4.382   3.082   5.000 -1.1392  0.8213  1.1764
 1196SOL     OW15223   0.670   0.952   6.593  0.5214  0.0482  0.3890
 1196SOL    HW115224   0.578   0.955   6.619 -0.3717 -1.0421 -2.6447
 1196SOL    HW215225   0.711   1.018   6.647  0.2510 -0.5453  1.3179
 1197SOL     OW15226   3.446   2.008   5.717  0.1713  0.4965  0.8517
 1197SOL    HW115227   3.408   2.028   5.631 -1.6339  1.7766  1.9554
 1197SOL    HW215228   3.369   1.975   5.764  0.7610 -0.7484  0.9300
 1198SOL     OW15229   2.965   2.241  15.802 -0.3619  0.0423 -0.2629
 1198SOL    HW115230   2.895   2.176  15.805  0.0988 -0.4633 -0.3927
 1198SOL    HW215231   2.995   2.214  15.715  1.6084  0.5346  0.2605
 1199SOL     OW15232   4.662   0.198  16.151  0.1542 -0.3281  0.1339
 1199SOL    HW115233   4.567   0.193  16.160 -0.1787  0.2243 -3.2354
 1199SOL    HW215234   4.692   0.145  16.225  1.3838  0.3836  0.1447
 1200SOL     OW15235   2.727   2.508  16.215  0.6033 -0.5972  0.2594
 1200SOL    HW115236   2.746   2.439  16.278  1.2778  0.6146  1.3634
 1200SOL    HW215237   2.758   2.467  16.133  0.8316 -0.5635  0.3299
 1201SOL     OW15238   2.713   2.335  16.479  0.1002 -0.5347  0.5103
 1201SOL    HW115239   2.743   2.245  16.465  3.6676  1.0190 -1.9096
 1201SOL    HW215240   2.634   2.314  16.529  0.1449  1.6693  1.5091
 1202SOL     OW15241   4.115   1.703   0.122 -0.0683  0.0695  0.1786
 1202SOL    HW115242   4.195   1.672   0.079  1.4033  2.8307  0.9532
 1202SOL    HW215243   4.132   1.796   0.113  2.3523 -0.3134  0.8889
 1203SOL     OW15244   1.518   0.215   6.990  0.0828  0.3656  0.0869
 1203SOL    HW115245   1.474   0.213   7.075 -1.3088 -2.3613 -0.6909
 1203SOL    HW215246   1.586   0.282   6.989  1.5372 -1.0953  0.6488
 1204SOL     OW15247   2.698   2.743   5.339 -0.5552 -0.3595 -0.2055
 1204SOL    HW115248   2.626   2.680   5.342  0.4728 -1.6091 -1.6684
 1204SOL    HW215249   2.766   2.691   5.298  0.7628  1.1323  0.0792
 1205SOL     OW15250   3.193   1.921   4.774 -0.0595 -0.0655  0.1159
 1205SOL    HW115251   3.243   1.847   4.807 -0.0944 -0.0974  0.0960
 1205SOL    HW215252   3.241   1.993   4.815  0.8156 -1.6157  1.7827
 1206SOL     OW15253   1.686   2.488   1.298 -0.0235 -0.2075 -0.3189
 1206SOL    HW115254   1.622   2.473   1.367 -1.2246  0.7249 -1.2543
 1206SOL    HW215255   1.770   2.469   1.340 -0.7784 -0.9345  0.8575
 1207SOL     OW15256   3.310   3.013   3.108  0.1824  0.8294  0.2937
 1207SOL    HW115257   3.387   2.975   3.066 -0.4879 -0.2849  0.0528
 1207SOL    HW215258   3.242   3.000   3.042  2.8602 -1.4314 -2.0140
 1208SOL     OW15259   3.183   1.982   8.164 -0.9517 -0.2553 -0.6904
 1208SOL    HW115260   3.244   1.915   8.133 -1.8587 -1.6120  0.4141
 1208SOL    HW215261   3.160   1.957   8.254 -0.1182  2.2991  0.2315
 1209SOL     OW15262   2.160   3.322   5.259 -0.3617  0.0146 -0.0882
 1209SOL    HW115263   2.131   3.410   5.278 -1.4867 -0.5689  0.8529
 1209SOL    HW215264   2.128   3.305   5.170  0.0515  0.1735 -0.2650
 1210SOL     OW15265   2.886   1.267   2.134  0.1813  0.2599 -0.1588
 1210SOL    HW115266   2.871   1.352   2.094  0.7649  0.6151  0.3861
 1210SOL    HW215267   2.962   1.281   2.191 -2.0164  2.9062  2.1268
 1211SOL     OW15268   4.293   2.048   7.857 -0.3023 -0.3051 -0.6498
 1211SOL    HW115269   4.263   2.110   7.789 -2.3113 -0.0671  0.4417
 1211SOL    HW215270   4.234   1.976   7.835 -2.0682  1.4365 -1.7626
 1212SOL     OW15271   3.084   1.587  12.424  0.0052  0.2337  0.0823
 1212SOL    HW115272   3.161   1.537  12.450  0.1663 -0.2080 -1.2478
 1212SOL    HW215273   3.026   1.512  12.413 -0.3866  0.5430  0.0347
 1213SOL     OW15274   3.827   4.028   3.789 -0.0325 -0.2211  0.5606
 1213SOL    HW115275   3.843   4.040   3.883  0.3474  1.2786  0.2945
 1213SOL    HW215276   3.733   4.014   3.804  0.1191 -1.3107  0.4831
 1214SOL     OW15277   1.502   3.781   5.056  0.3576 -0.7477 -0.1590
 1214SOL    HW115278   1.515   3.741   5.142 -1.1995  0.4858  0.6550
 1214SOL    HW215279   1.438   3.723   5.014 -1.2816 -0.4727  1.9819
 1215SOL     OW15280   2.119   0.684  11.034 -0.0094  0.1397  0.1275
 1215SOL    HW115281   2.029   0.716  11.032 -0.5781 -1.4468  0.1461
 1215SOL    HW215282   2.146   0.714  10.947  1.0566 -0.8049  0.1362
 1216SOL     OW15283   4.449   2.078  12.411  0.2373 -0.2399  0.4141
 1216SOL    HW115284   4.371   2.057  12.360 -0.0687 -0.3147  0.9218
 1216SOL    HW215285   4.413   2.055  12.496  1.4403 -1.5241  0.5776
 1217SOL     OW15286   0.094   1.667   0.468  0.4044 -0.2924 -0.1273
 1217SOL    HW115287   0.092   1.584   0.420 -1.2992  0.2990 -1.1147
 1217SOL    HW215288   0.144   1.709   0.398  1.6605 -4.0877 -1.5449
 1218SOL     OW15289   0.873   1.593   2.886 -0.3564 -0.8691 -0.1435
 1218SOL    HW115290   0.869   1.584   2.791 -2.3268  0.1701 -0.1605
 1218SOL    HW215291   0.965   1.621   2.895  0.1374 -1.4179 -3.7790
 1219SOL     OW15292   2.630   1.567  16.219  0.3046 -0.0150 -0.3891
 1219SOL    HW115293   2.675   1.642  16.180  1.6925  1.0411  3.2587
 1219SOL    HW215294   2.606   1.523  16.137  1.7272 -2.1007  0.2909
 1220SOL     OW15295   1.803   3.355   7.298  0.4024  0.1859 -0.4448
 1220SOL    HW115296   1.716   3.322   7.321 -0.7490  2.5490 -1.4449
 1220SOL    HW215297   1.813   3.317   7.211  0.0752  0.3162 -0.5385
 1221SOL     OW15298   0.083   1.207   6.240  0.7391  0.2316 -0.3276
 1221SOL    HW115299   0.160   1.259   6.216  0.5801  0.6462  0.0600
 1221SOL    HW215300   0.120   1.120   6.257  0.7045  0.7432  2.4950
 1222SOL     OW15301   0.110   2.291   1.111  0.5449  0.3319 -0.2808
 1222SOL    HW115302   0.180   2.286   1.177  0.2347  1.7309  0.1606
 1222SOL    HW215303   0.038   2.248   1.157  1.6050 -1.8278 -0.6144
 1223SOL     OW15304   1.435   1.076  14.314 -0.2928  0.1304 -0.4410
 1223SOL    HW115305   1.445   1.150  14.254  0.8800  0.7550  0.5359
 1223SOL    HW215306   1.506   1.088  14.377 -0.2910 -2.8955  0.1131
 1224SOL     OW15307   4.695   2.878   0.686 -0.1709 -0.4676  0.5834
 1224SOL    HW115308   0.005   2.810   0.733  0.2165 -0.3548  0.3504
 1224SOL    HW215309   4.615   2.866   0.737 -0.2988  0.9245  0.7111
 1225SOL     OW15310   3.858   4.065  11.054  0.2662 -0.2266  0.9871
 1225SOL    HW115311   3.934   4.028  11.009  0.4709 -1.0705  2.0203
 1225SOL    HW215312   3.902   4.145  11.084  0.8231 -1.1659  2.6748
 1226SOL     OW15313   0.703   2.183   1.141 -0.2756  0.0021  0.0557
 1226SOL    HW115314   0.621   2.202   1.095 -0.9642 -1.4771  0.6551
 1226SOL    HW215315   0.704   2.087   1.133  0.2551  0.0729 -0.7716
 1227SOL     OW15316   4.625   1.203  16.508 -0.4900  0.0009 -0.5805
 1227SOL    HW115317   4.543   1.213  16.556  0.1096  3.2213 -0.2221
 1227SOL    HW215318   4.612   1.149  16.430 -0.7215  0.1788 -0.6624
 1228SOL     OW15319   3.671   3.104   1.771  0.2057 -0.3575  0.2864
 1228SOL    HW115320   3.583   3.120   1.806 -0.5869 -0.1707 -1.7582
 1228SOL    HW215321   3.657   3.014   1.741  2.5989 -1.1062  1.3962
 1229SOL     OW15322   1.072   3.020   1.095  0.3861 -0.3275 -0.2995
 1229SOL    HW115323   1.042   3.034   1.005  0.9862 -0.6306 -0.5535
 1229SOL    HW215324   1.069   3.106   1.137 -0.8867  0.6758 -2.4599
 1230SOL     OW15325   2.296   1.541   7.548  0.1465  0.2779 -0.3187
 1230SOL    HW115326   2.269   1.560   7.458  1.4882  0.1599 -0.7498
 1230SOL    HW215327   2.216   1.565   7.595 -0.5092  0.0554 -1.3291
 1231SOL     OW15328   3.616   2.192   6.752 -0.3252  0.4008  0.2210
 1231SOL    HW115329   3.546   2.227   6.697 -2.5554 -1.3750  1.9534
 1231SOL    HW215330   3.568   2.175   6.832  1.0185 -4.8437 -0.1300
 1232SOL     OW15331   0.953   4.359  15.936 -0.0578  0.3146  0.5827
 1232SOL    HW115332   0.966   4.452  15.919  1.6387 -0.5056 -2.6524
 1232SOL    HW215333   1.039   4.323  15.912 -0.8187  0.4419 -2.3209
 1233SOL     OW15334   1.533   3.384   2.160 -0.5033  0.1832 -0.4093
 1233SOL    HW115335   1.557   3.338   2.240 -0.4839  0.9786  0.0442
 1233SOL    HW215336   1.462   3.334   2.120 -1.9814  0.8798  1.3374
 1234SOL     OW15337   2.647   2.352   7.498  0.2293 -0.1744 -0.1600
 1234SOL    HW115338   2.651   2.406   7.419  0.5316 -2.7055 -1.8598
 1234SOL    HW215339   2.624   2.421   7.562 -3.8977  0.0362 -1.8409
 1235SOL     OW15340   3.368   4.579   6.278  0.0260 -0.0897  0.2194
 1235SOL    HW115341   3.410   4.503   6.318  1.3071  0.4484 -0.1215
 1235SOL    HW215342   3.443   4.635   6.258 -0.2687  0.7425  1.4547
 1236SOL     OW15343   2.230   3.007  11.063 -0.5674  0.2735 -0.0564
 1236SOL    HW115344   2.278   2.967  10.991 -1.2921 -0.3240 -0.2125
 1236SOL    HW215345   2.270   3.092  11.080 -3.6567  2.2491 -2.6809
 1237SOL     OW15346   2.345   0.327   4.691  0.2868  0.4196 -0.1200
 1237SOL    HW115347   2.393   0.339   4.609  0.1693 -0.9555 -0.3908
 1237SOL    HW215348   2.412   0.291   4.748 -1.6283  0.2821  2.0536
 1238SOL     OW15349   3.744   1.141   0.839  0.5931 -0.1787  0.2797
 1238SOL    HW115350   3.831   1.113   0.810 -0.3489  0.8861 -3.5207
 1238SOL    HW215351   3.774   1.217   0.890 -0.7495 -0.3992  1.3809
 1239SOL     OW15352   4.208   3.396   4.103 -0.2867 -0.1311  0.2689
 1239SOL    HW115353   4.230   3.324   4.044 -1.3990  0.2692 -0.6408
 1239SOL    HW215354   4.149   3.452   4.052  0.2953 -0.8906 -1.2596
 1240SOL     OW15355   4.608   3.800   4.448 -0.2827 -0.2498 -0.0626
 1240SOL    HW115356   4.588   3.860   4.521 -0.3258 -0.2056 -0.1114
 1240SOL    HW215357   4.520   3.777   4.422  0.8464 -3.4761 -1.0052
 1241SOL     OW15358   2.447   0.371  13.533  0.0271  0.2612  0.1900
 1241SOL    HW115359   2.425   0.281  13.557  0.4486 -0.1204 -0.8394
 1241SOL    HW215360   2.433   0.366  13.439 -0.3961  1.2325  0.1965
 1242SOL     OW15361   4.116   2.284   4.197  1.2281 -0.0065 -0.2545
 1242SOL    HW115362   4.089   2.340   4.124 -0.9464 -1.4314 -0.5413
 1242SOL    HW215363   4.123   2.201   4.151 -1.6915 -1.2566  1.5640
 1243SOL     OW15364   0.092   1.773  12.267 -0.5936  0.5057  0.2182
 1243SOL    HW115365   0.083   1.744  12.358 -1.9349 -1.9155 -0.6851
 1243SOL    HW215366   0.026   1.842  12.271 -1.3298 -0.1793 -0.1556
 1244SOL     OW15367   2.500   2.568   5.318  0.0102 -0.2826  0.4478
 1244SOL    HW115368   2.536   2.534   5.236  0.5282  0.7030  0.2624
 1244SOL    HW215369   2.416   2.608   5.294  0.8137  1.0770 -0.0593
 1245SOL     OW15370   3.147   1.927   4.018 -0.1974  0.8873  0.4715
 1245SOL    HW115371   3.076   1.950   3.958  0.9056  0.5946 -0.9307
 1245SOL    HW215372   3.222   1.953   3.965 -0.4147  1.3690  0.3977
 1246SOL     OW15373   4.385   3.349  16.662 -0.1283 -0.0614 -0.0238
 1246SOL    HW115374   4.472   3.325  16.693 -1.3133 -1.3333  2.2654
 1246SOL    HW215375   4.366   3.281  16.597  3.0998 -0.8142 -0.1431
 1247SOL     OW15376   0.770   0.206   4.301  0.4934  0.0175  0.2386
 1247SOL    HW115377   0.802   0.187   4.213  0.7444  0.1018  0.3111
 1247SOL    HW215378   0.831   0.273   4.331  0.6639  0.0666 -0.2143
 1248SOL     OW15379   1.958   0.446   6.549 -0.1134 -0.7228  0.6350
 1248SOL    HW115380   1.982   0.531   6.512  1.7200 -1.1558  0.8279
 1248SOL    HW215381   1.926   0.405   6.469 -0.6753 -0.6465  0.8164
 1249SOL     OW15382   2.375   2.061  17.195 -0.0851 -0.2378  0.2277
 1249SOL    HW115383   2.284   2.060  17.164  0.5472  0.4580 -1.6380
 1249SOL    HW215384   2.421   2.057  17.111 -0.8420 -0.1673 -0.1875
 1250SOL     OW15385   0.382   4.123   2.290 -0.3203  0.6815  0.1807
 1250SOL    HW115386   0.386   4.050   2.352  1.1676 -1.4396 -2.4064
 1250SOL    HW215387   0.313   4.180   2.324  1.3196  1.8240  1.6100
 1251SOL     OW15388   3.464   1.317   5.044  0.3303 -0.2072  0.1708
 1251SOL    HW115389   3.461   1.343   5.137 -1.7146 -1.2530  0.3892
 1251SOL    HW215390   3.543   1.367   5.023 -0.7101  1.1553 -0.5005
 1252SOL     OW15391   2.089   1.580   6.278 -0.7604  0.0714  0.2181
 1252SOL    HW115392   2.091   1.540   6.365 -2.0341 -2.0064 -0.6946
 1252SOL    HW215393   2.038   1.657   6.300  1.1292  1.7331 -1.2173
 1253SOL     OW15394   3.589   4.664   5.924  0.3900  1.0881  0.2606
 1253SOL    HW115395   3.675   4.704   5.920  0.8994  0.0084  0.5075
 1253SOL    HW215396   3.534   4.724   5.874 -1.5003 -1.7340 -1.0803
 1254SOL     OW15397   0.560   1.492  16.784  0.5342  0.1680  0.0976
 1254SOL    HW115398   0.610   1.428  16.733  2.9020  1.0379  1.2841
 1254SOL    HW215399   0.621   1.514  16.855 -1.5287  0.3996  1.8084
 1255SOL     OW15400   4.125   0.619  15.802  0.3894 -0.3251 -0.2061
 1255SOL    HW115401   4.041   0.639  15.761  0.7851 -0.3366 -1.0165
 1255SOL    HW215402   4.182   0.599  15.727  0.3855 -0.3871 -0.1924
 1256SOL     OW15403   3.376   3.652   2.970  0.9919  0.5372 -0.0645
 1256SOL    HW115404   3.451   3.609   3.010  0.9092  0.9963  0.5855
 1256SOL    HW215405   3.337   3.574   2.930 -1.2806  0.9236  1.3764
 1257SOL     OW15406   3.735   3.294  12.684  0.2904 -0.3940  0.3103
 1257SOL    HW115407   3.802   3.363  12.690 -0.1729  0.1030 -0.1832
 1257SOL    HW215408   3.656   3.345  12.664 -0.1189 -1.4463 -0.7454
 1258SOL     OW15409   2.526   4.690   5.807  0.5058 -0.0233  0.1866
 1258SOL    HW115410   2.602   0.009   5.796  0.7518 -0.9100 -2.7384
 1258SOL    HW215411   2.505   4.664   5.717  0.3575 -0.4801  0.3510
 1259SOL     OW15412   0.005   3.990   3.622 -0.3884 -0.4911 -0.2765
 1259SOL    HW115413   0.006   4.086   3.618 -1.4252 -0.5312 -1.3777
 1259SOL    HW215414   4.666   3.978   3.677 -2.1276  2.9629 -1.9779
 1260SOL     OW15415   2.355   4.489   4.580 -0.1927  0.1711  0.1945
 1260SOL    HW115416   2.298   4.540   4.637 -0.9354 -0.4425  0.0049
 1260SOL    HW215417   2.439   4.534   4.577  0.4999 -1.0421  0.8938
 1261SOL     OW15418   2.595   4.389   5.164  0.4815 -0.4548 -0.2566
 1261SOL    HW115419   2.565   4.394   5.255  1.4993 -0.7151  0.0962
 1261SOL    HW215420   2.689   4.408   5.162  0.3876  0.0201 -0.2088
 1262SOL     OW15421   2.611   0.741   5.159 -0.1636 -0.2888 -0.0538
 1262SOL    HW115422   2.587   0.744   5.252 -0.1064 -1.0628 -0.0145
 1262SOL    HW215423   2.688   0.798   5.156  1.1175 -2.0128 -0.3607
 1263SOL     OW15424   1.497   2.394  10.145  0.0988 -0.1517  0.1874
 1263SOL    HW115425   1.428   2.392  10.211  0.5650 -1.4125  0.6231
 1263SOL    HW215426   1.480   2.481  10.108  0.9541  0.7183  1.8384
 1264SOL     OW15427   2.728   3.595  12.231  0.5544 -0.0812  0.1045
 1264SOL    HW115428   2.811   3.633  12.259  0.8188  0.4698 -1.4726
 1264SOL    HW215429   2.752   3.550  12.150 -1.0208  0.1922 -0.5220
 1265SOL     OW15430   1.404   4.085   2.999 -0.1433  0.4332 -0.6231
 1265SOL    HW115431   1.325   4.034   2.983 -0.3137  0.4454  0.1763
 1265SOL    HW215432   1.441   4.042   3.076 -1.2951  0.9715  0.2266
 1266SOL     OW15433   1.644   0.636   3.264 -0.1302  0.1471  0.5130
 1266SOL    HW115434   1.581   0.633   3.192 -0.8605 -1.6618  1.2462
 1266SOL    HW215435   1.729   0.643   3.221  1.2748  0.0704  3.3170
 1267SOL     OW15436   0.364   3.960   2.815 -0.4249  0.9978 -0.3207
 1267SOL    HW115437   0.451   3.998   2.826  1.0016 -2.5075  0.4374
 1267SOL    HW215438   0.306   4.029   2.848 -1.0491  1.4157 -2.3202
 1268SOL     OW15439   3.555   1.432   7.865  0.4917 -0.8829  0.3706
 1268SOL    HW115440   3.608   1.456   7.940  1.4535 -1.3857 -0.1417
 1268SOL    HW215441   3.600   1.353   7.833  0.1172 -1.3051  0.9023
 1269SOL     OW15442   4.113   2.044   6.877  0.1505  0.6736 -0.1727
 1269SOL    HW115443   4.050   2.080   6.814  0.9809 -0.7246 -1.8192
 1269SOL    HW215444   4.089   2.086   6.959 -0.5454  0.6750 -0.3782
 1270SOL     OW15445   0.927   2.276   1.252 -0.1305 -0.2307  0.5881
 1270SOL    HW115446   0.935   2.368   1.227 -2.0591 -0.3094 -0.2975
 1270SOL    HW215447   0.845   2.250   1.212 -0.1628 -1.0802  1.1947
 1271SOL     OW15448   3.646   4.516   2.131 -0.0423  1.0186 -0.4279
 1271SOL    HW115449   3.587   4.477   2.067  0.7618 -0.3497 -0.3397
 1271SOL    HW215450   3.665   4.437   2.183  0.4920  1.0432 -0.5921
 1272SOL     OW15451   3.019   2.542   3.735  0.2143 -0.3533 -0.0691
 1272SOL    HW115452   3.016   2.604   3.662 -1.5399 -0.0130  0.3095
 1272SOL    HW215453   3.009   2.466   3.677  0.9241 -0.0578 -0.5848
 1273SOL     OW15454   2.415   3.756  14.153  0.2707  0.8604  0.5330
 1273SOL    HW115455   2.370   3.758  14.068  1.6551  1.8339 -0.1776
 1273SOL    HW215456   2.508   3.750  14.135 -0.1136 -0.8597 -0.8865
 1274SOL     OW15457   3.134   3.971   9.405  0.6242 -0.0542  0.6953
 1274SOL    HW115458   3.123   4.040   9.471 -1.5157 -0.6183  0.9312
 1274SOL    HW215459   3.204   3.924   9.449  1.1150  0.3139  0.3147
 1275SOL     OW15460   1.516   1.822   8.335 -0.5368 -0.2419  0.2572
 1275SOL    HW115461   1.597   1.803   8.288 -0.0720  1.1375  0.4878
 1275SOL    HW215462   1.545   1.881   8.405  0.6394  0.1168 -0.5311
 1276SOL     OW15463   2.014   1.133   6.997 -0.8353 -0.3277  0.6486
 1276SOL    HW115464   1.974   1.144   7.084  2.3503 -0.2049  2.0932
 1276SOL    HW215465   2.097   1.176   7.017 -0.6837 -0.3880  0.1390
 1277SOL     OW15466   0.635   3.682  15.337 -0.4402  0.3853 -0.2032
 1277SOL    HW115467   0.647   3.703  15.430 -0.3131  0.6230 -0.2744
 1277SOL    HW215468   0.601   3.592  15.343 -1.1262  0.7591  1.5631
 1278SOL     OW15469   0.780   2.814   5.882  0.0534  0.3639 -0.0375
 1278SOL    HW115470   0.710   2.788   5.941  0.7006 -1.0151  0.1055
 1278SOL    HW215471   0.844   2.837   5.950 -1.2503 -2.4566  2.1276
 1279SOL     OW15472   0.726   3.653   9.169 -0.3887 -0.1748  0.5583
 1279SOL    HW115473   0.770   3.724   9.216 -1.8484  0.2293  1.3234
 1279SOL    HW215474   0.638   3.687   9.152 -0.1062  0.3308  0.0874
 1280SOL     OW15475   0.033   0.088  10.053  0.2422 -0.2779  0.1938
 1280SOL    HW115476   0.067   0.107  10.140  0.9940 -3.0689  0.4892
 1280SOL    HW215477   0.117   0.098  10.008  1.3572  1.5496  2.6937
 1281SOL     OW15478   3.687   3.061   7.368 -0.2577 -0.1199  0.0373
 1281SOL    HW115479   3.767   3.016   7.396 -0.3901 -0.7570 -0.6296
 1281SOL    HW215480   3.650   3.099   7.448  2.1242  0.5193  0.8483
 1282SOL     OW15481   3.757   3.589   5.580  0.2719  0.5950  0.3786
 1282SOL    HW115482   3.667   3.589   5.546  0.4580  0.7335 -0.1231
 1282SOL    HW215483   3.741   3.608   5.672 -0.6064 -1.5544  0.6552
 1283SOL     OW15484   2.695   1.575   4.153  0.3321 -0.5182 -0.2928
 1283SOL    HW115485   2.694   1.657   4.104 -0.0418 -1.8071 -2.4403
 1283SOL    HW215486   2.603   1.549   4.151  0.3952 -0.8668  0.9049
 1284SOL     OW15487   0.987   1.142  15.866  0.8562  0.1185 -0.0779
 1284SOL    HW115488   0.927   1.127  15.793  0.5027  1.0851  0.0078
 1284SOL    HW215489   0.996   1.237  15.857  1.5100  0.1555  0.9911
 1285SOL     OW15490   0.505   2.407   5.931 -0.5242  0.2679 -0.2388
 1285SOL    HW115491   0.464   2.427   6.015  0.1578  0.3942  0.0675
 1285SOL    HW215492   0.583   2.357   5.955 -0.6256  0.6045  0.8229
 1286SOL     OW15493   2.563   2.430   5.087 -0.1013 -0.5881  0.2067
 1286SOL    HW115494   2.648   2.392   5.065  0.7912  1.1129  0.7104
 1286SOL    HW215495   2.514   2.402   5.010 -2.8741  2.1425  0.9686
 1287SOL     OW15496   3.820   2.926   2.115 -0.3468  0.3156  0.0481
 1287SOL    HW115497   3.803   2.942   2.208  0.0939  1.0747 -0.0070
 1287SOL    HW215498   3.805   3.012   2.077  0.6417  2.1960  3.9238
 1288SOL     OW15499   4.526   1.513   2.564 -0.2200 -0.6107  0.4269
 1288SOL    HW115500   4.469   1.441   2.593 -1.5453  0.0662 -0.5169
 1288SOL    HW215501   4.490   1.582   2.620 -0.4195  1.3355 -2.1289
 1289SOL     OW15502   3.232   3.693   0.539  0.4039 -0.1432 -0.4163
 1289SOL    HW115503   3.218   3.766   0.600 -1.7117 -2.2990  1.6805
 1289SOL    HW215504   3.190   3.620   0.584 -0.1092  1.2725  1.3811
 1290SOL     OW15505   3.415   2.484   3.338  0.0279 -0.6247 -0.0321
 1290SOL    HW115506   3.434   2.427   3.264 -0.4523  0.6173 -1.1163
 1290SOL    HW215507   3.326   2.460   3.363  0.4053  0.4465  2.2921
 1291SOL     OW15508   2.228   3.769   7.444 -0.0546 -0.2629 -0.0506
 1291SOL    HW115509   2.270   3.854   7.434  0.6466 -0.6086 -0.0344
 1291SOL    HW215510   2.172   3.783   7.367  0.0562 -0.0207 -0.0873
 1292SOL     OW15511   2.000   1.583   9.735 -0.4973 -0.1586  0.1499
 1292SOL    HW115512   1.972   1.493   9.718  0.8236 -0.1062 -2.3137
 1292SOL    HW215513   1.923   1.613   9.783 -0.2238  0.1675  0.3806
 1293SOL     OW15514   0.970   3.312   4.936 -0.6286 -0.1728 -0.1287
 1293SOL    HW115515   0.897   3.257   4.964  0.6828 -0.5990  2.4876
 1293SOL    HW215516   1.039   3.293   5.000  0.1843  0.9388 -0.6807
 1294SOL     OW15517   2.077   2.437  12.848  0.0421 -0.0401  0.6320
 1294SOL    HW115518   2.070   2.358  12.795 -1.4380  1.1160 -0.8961
 1294SOL    HW215519   1.987   2.463  12.868 -0.2042 -0.1514 -0.3261
 1295SOL     OW15520   1.603   3.827   4.699  0.6775 -0.1398 -0.7761
 1295SOL    HW115521   1.658   3.905   4.707 -0.8185  0.9170 -0.6679
 1295SOL    HW215522   1.543   3.854   4.768  1.0949 -1.2322  0.0091
 1296SOL     OW15523   0.824   2.199   3.267 -0.1484  0.2381  0.6976
 1296SOL    HW115524   0.894   2.145   3.230 -1.4439 -0.2529 -1.0219
 1296SOL    HW215525   0.879   2.272   3.296  1.4300 -0.2859 -0.9585
 1297SOL     OW15526   4.448   0.770  12.432 -0.3765  0.8656 -0.0380
 1297SOL    HW115527   4.434   0.756  12.526  0.7340 -4.5697 -0.6687
 1297SOL    HW215528   4.374   0.724  12.395  1.0631 -1.4101 -0.0896
 1298SOL     OW15529   1.247   2.913   0.821  0.0808 -0.2774  0.5305
 1298SOL    HW115530   1.330   2.953   0.846  0.4500 -0.8963  0.2894
 1298SOL    HW215531   1.191   2.957   0.885 -0.8411  1.0915 -1.1970
 1299SOL     OW15532   1.079   0.969   2.987  0.0361  0.1604 -0.2180
 1299SOL    HW115533   1.015   1.039   2.977 -0.7607 -0.6776 -1.0566
 1299SOL    HW215534   1.158   0.994   2.938 -0.6937 -1.1872 -2.0618
 1300SOL     OW15535   1.679   4.132   3.566 -0.4184 -0.4020  0.2047
 1300SOL    HW115536   1.594   4.159   3.532 -0.4860 -0.5871  0.2255
 1300SOL    HW215537   1.671   4.037   3.574 -1.6397 -0.2576  0.5640
 1301SOL     OW15538   0.789   3.689   2.563  0.2127 -0.2973  0.6768
 1301SOL    HW115539   0.882   3.699   2.541 -0.1534  2.3912  0.4361
 1301SOL    HW215540   0.749   3.755   2.507  1.4436  3.0174  3.7182
 1302SOL     OW15541   3.852   2.738   1.434  0.1434  0.1649  0.1442
 1302SOL    HW115542   3.801   2.680   1.377  2.3557 -0.5761 -1.0659
 1302SOL    HW215543   3.878   2.672   1.499 -0.7967  1.5832  1.9557
 1303SOL     OW15544   2.276   1.752   4.727 -0.1581  0.3228 -0.0512
 1303SOL    HW115545   2.304   1.843   4.716  2.3629 -0.4036  0.3812
 1303SOL    HW215546   2.346   1.710   4.677 -1.0011 -0.3278 -0.7022
 1304SOL     OW15547   2.097   1.969   5.364  0.2254  0.2415  0.7322
 1304SOL    HW115548   2.037   2.018   5.308 -0.3525 -0.6696  0.5467
 1304SOL    HW215549   2.113   1.902   5.297 -1.9617 -1.2161  1.6500
 1305SOL     OW15550   2.427   4.559   4.067  0.0277  0.2257 -0.1535
 1305SOL    HW115551   2.385   4.607   4.138  0.2323 -1.5784  1.1848
 1305SOL    HW215552   2.352   4.568   4.008 -0.2600 -1.5775 -0.0501
 1306SOL     OW15553   3.820   0.159   2.580  0.3219 -0.3341  0.0957
 1306SOL    HW115554   3.755   0.106   2.534  1.2068 -1.8375  0.5810
 1306SOL    HW215555   3.850   0.092   2.641  1.3413  0.2136  0.2115
 1307SOL     OW15556   4.549   1.985   1.157  0.1579 -0.0228 -0.3334
 1307SOL    HW115557   4.556   2.075   1.125 -1.9737  0.0015 -0.6883
 1307SOL    HW215558   4.582   1.938   1.081 -0.9443 -0.9151 -0.2429
 1308SOL     OW15559   0.588   4.476   2.438  0.2629 -0.5407  0.4182
 1308SOL    HW115560   0.607   4.569   2.429 -0.0761 -0.5358 -0.2555
 1308SOL    HW215561   0.581   4.453   2.345  0.1130  0.8066  0.1051
 1309SOL     OW15562   4.724   1.535   5.782  0.3968  0.8641  0.1487
 1309SOL    HW115563   4.668   1.552   5.706 -0.8628 -1.0944  0.6436
 1309SOL    HW215564   4.672   1.473   5.833 -1.0072  0.3566 -1.8962
 1310SOL     OW15565   2.557   0.065   6.127 -0.0152 -0.4221 -0.0264
 1310SOL    HW115566   2.607   0.147   6.120 -1.2669  0.4405  1.0559
 1310SOL    HW215567   2.533   0.080   6.218  2.1322  2.8482  0.0084
 1311SOL     OW15568   0.497   3.592   1.980  0.0100  0.0578 -0.6325
 1311SOL    HW115569   0.496   3.575   1.886  1.8979  0.9849 -0.8153
 1311SOL    HW215570   0.543   3.675   1.972 -0.0813  0.3356  1.8021
 1312SOL     OW15571   0.713   1.851   6.637  0.3062 -0.0015 -0.1696
 1312SOL    HW115572   0.710   1.908   6.713  0.1475 -1.2849  0.7905
 1312SOL    HW215573   0.668   1.894   6.565  0.5003 -0.7925 -0.7688
 1313SOL     OW15574   1.967   2.067  15.960  0.5774 -0.3596  0.2960
 1313SOL    HW115575   2.049   2.066  16.009 -0.8289  2.6812  2.7215
 1313SOL    HW215576   1.989   2.069  15.867 -0.4535 -3.8467 -0.0244
 1314SOL     OW15577   0.783   3.854   7.148  0.6939 -0.5249  0.3246
 1314SOL    HW115578   0.740   3.939   7.137  1.7865 -0.0176 -0.0753
 1314SOL    HW215579   0.873   3.883   7.165  0.2820  2.7669 -3.1697
 1315SOL     OW15580   4.375   0.426  13.554 -0.1737 -0.1538  0.2951
 1315SOL    HW115581   4.353   0.455  13.643  0.6837 -1.6996  1.0203
 1315SOL    HW215582   4.459   0.385  13.576  0.2247  1.6515  2.1375
 1316SOL     OW15583   2.033   0.776   1.660 -0.3193  0.2938  0.1335
 1316SOL    HW115584   2.055   0.782   1.753 -2.8763 -1.4980  0.8476
 1316SOL    HW215585   1.993   0.862   1.645  0.7650  0.8391  0.4030
 1317SOL     OW15586   2.703   4.370  13.738  0.1602 -0.8403 -0.3282
 1317SOL    HW115587   2.624   4.315  13.737 -1.4332  1.4389 -0.4180
 1317SOL    HW215588   2.720   4.378  13.832 -0.8283  1.6231 -0.3678
 1318SOL     OW15589   4.671   4.228  11.342 -0.1606 -0.0248  0.5046
 1318SOL    HW115590   4.585   4.264  11.323 -0.1596  0.1064  0.7471
 1318SOL    HW215591   4.647   4.141  11.310 -0.1220 -0.0158  0.4521
 1319SOL     OW15592   4.001   2.215   8.502  0.5355 -0.0018 -0.1060
 1319SOL    HW115593   3.915   2.174   8.508  0.7723 -0.5938 -0.7451
 1319SOL    HW215594   4.048   2.148   8.453  1.1014 -0.4475  1.0561
 1320SOL     OW15595   1.071   0.630   5.763  0.1889  0.6469 -0.3276
 1320SOL    HW115596   1.092   0.560   5.825 -0.3373  1.7688  1.0899
 1320SOL    HW215597   0.976   0.623   5.759  0.1888  0.5226 -0.1152
 1321SOL     OW15598   4.319   3.846   3.445 -0.4055  0.2761  0.0902
 1321SOL    HW115599   4.356   3.780   3.504  1.3525  0.6937 -0.5566
 1321SOL    HW215600   4.323   3.820   3.353 -1.7095  2.0891 -0.4749
 1322SOL     OW15601   4.355   3.884   2.509 -0.3619  0.5019  0.4317
 1322SOL    HW115602   4.344   3.866   2.416  2.8162 -2.2848  0.5894
 1322SOL    HW215603   4.373   3.978   2.506  2.2497 -0.0307 -0.2725
 1323SOL     OW15604   1.261   1.901   6.695  0.0264  0.4644 -0.2281
 1323SOL    HW115605   1.297   1.963   6.758 -1.9271  0.1406  1.2224
 1323SOL    HW215606   1.345   1.872   6.658  0.7886  2.1366  0.2158
 1324SOL     OW15607   3.389   1.327   1.759  0.4812 -0.4316  0.2050
 1324SOL    HW115608   3.415   1.371   1.840  1.0793 -0.0053 -0.2072
 1324SOL    HW215609   3.409   1.236   1.778  1.1174 -0.1198  1.0478
 1325SOL     OW15610   2.896   0.919   5.411  0.0544  0.3081 -0.1913
 1325SOL    HW115611   2.801   0.917   5.421 -0.0652  1.7574 -1.0472
 1325SOL    HW215612   2.925   0.872   5.489  0.2268 -0.2233 -0.5741
 1326SOL     OW15613   2.374   1.149   6.183 -0.6879  0.4972  0.2995
 1326SOL    HW115614   2.374   1.244   6.197 -1.0334  0.5370  0.0358
 1326SOL    HW215615   2.392   1.118   6.272  0.5628 -1.7065 -0.7198
 1327SOL     OW15616   1.691   2.015  14.056 -0.0451 -0.1257 -0.4795
 1327SOL    HW115617   1.671   2.016  14.150  0.6652 -0.9069 -0.3153
 1327SOL    HW215618   1.754   1.943  14.050  1.5888  1.4064 -1.4913
 1328SOL     OW15619   0.457   0.074   3.799  0.3395  0.5769 -0.5221
 1328SOL    HW115620   0.401   0.139   3.757  0.5654  2.5889  2.2814
 1328SOL    HW215621   0.396   0.002   3.811  0.1515  0.5703 -1.5117
 1329SOL     OW15622   2.538   1.881  14.935 -0.0101 -0.1954 -0.0925
 1329SOL    HW115623   2.583   1.899  14.853 -0.2456  1.7882  0.2031
 1329SOL    HW215624   2.466   1.939  14.910  1.1884  1.9288  1.3760
 1330SOL     OW15625   3.020   0.579  16.842 -0.0614 -0.2379 -0.3064
 1330SOL    HW115626   2.956   0.645  16.869 -0.4128 -0.8484  0.3295
 1330SOL    HW215627   3.088   0.587  16.909 -0.4308  1.1893 -0.0972
 1331SOL     OW15628   3.970   1.372  10.069 -0.0351 -0.0291 -0.1665
 1331SOL    HW115629   3.961   1.357  10.163  2.0699  1.5671  0.2743
 1331SOL    HW215630   3.877   1.386  10.049  0.0217  0.7903  0.1829
 1332SOL     OW15631   1.189   1.427   0.131 -0.3940 -0.2893  0.3172
 1332SOL    HW115632   1.279   1.402   0.113 -0.1794 -0.9201  2.2842
 1332SOL    HW215633   1.189   1.510   0.083  0.8263 -0.5446 -0.1109
 1333SOL     OW15634   1.827   1.369  16.886  0.5076 -0.3489 -0.3163
 1333SOL    HW115635   1.824   1.277  16.914  0.3294 -0.3824 -0.4512
 1333SOL    HW215636   1.764   1.407  16.947 -0.6235 -1.0353 -1.0431
 1334SOL     OW15637   1.936   3.886   9.834 -0.3830 -0.4784 -0.0825
 1334SOL    HW115638   1.993   3.960   9.857 -0.8437 -0.4526  0.9873
 1334SOL    HW215639   1.855   3.912   9.877 -0.4701  2.4810 -2.0268
 1335SOL     OW15640   3.318   0.209   8.703  0.0053  0.3118 -0.1244
 1335SOL    HW115641   3.381   0.277   8.731 -0.5258  1.4399 -1.6660
 1335SOL    HW215642   3.235   0.254   8.716 -0.4466 -1.0671  1.6827
 1336SOL     OW15643   3.071   1.659   4.310 -0.2137 -0.3567  0.3164
 1336SOL    HW115644   3.008   1.588   4.297  0.5175 -0.8019 -0.6848
 1336SOL    HW215645   3.024   1.737   4.279 -0.4766 -0.8663 -0.5737
 1337SOL     OW15646   3.489   4.398  11.739 -0.1385 -0.2657 -0.1158
 1337SOL    HW115647   3.500   4.456  11.663  1.6130  0.6994  0.8785
 1337SOL    HW215648   3.411   4.446  11.767 -0.7888 -1.3184 -0.1493
 1338SOL     OW15649   2.177   3.492  15.363  0.1452 -0.2606 -0.0660
 1338SOL    HW115650   2.183   3.485  15.268  1.0237 -0.2104 -0.0122
 1338SOL    HW215651   2.117   3.420  15.384  0.8953 -1.0354 -0.5850
 1339SOL     OW15652   1.418   3.883   6.157 -0.0990 -0.1598 -0.6818
 1339SOL    HW115653   1.353   3.947   6.187 -0.2649  0.3826 -2.1719
 1339SOL    HW215654   1.495   3.938   6.174  0.2396 -1.0851  0.7627
 1340SOL     OW15655   2.728   1.389   7.139  0.0213 -1.0795 -0.0570
 1340SOL    HW115656   2.702   1.480   7.130 -1.2273 -1.4350 -0.0349
 1340SOL    HW215657   2.823   1.382   7.126  0.1529  0.3506  0.1400
 1341SOL     OW15658   1.133   4.411  13.469  0.1398 -0.0580 -0.3760
 1341SOL    HW115659   1.053   4.373  13.505  1.1897 -3.2620 -1.3700
 1341SOL    HW215660   1.103   4.498  13.445  0.2103 -0.0606 -0.4768
 1342SOL     OW15661   0.658   3.986   2.843  0.3845 -0.2245 -0.4505
 1342SOL    HW115662   0.653   4.075   2.878  0.0003 -0.4995  0.1737
 1342SOL    HW215663   0.746   3.983   2.804  0.7544  1.7766  0.2413
 1343SOL     OW15664   0.731   2.312   5.351  0.2097 -0.7422 -0.3057
 1343SOL    HW115665   0.777   2.251   5.294  0.9996 -0.3837 -0.0496
 1343SOL    HW215666   0.643   2.275   5.349  0.4002 -1.2615  1.3034
 1344SOL     OW15667   3.064   4.524   4.778 -0.1835  0.0651 -0.2538
 1344SOL    HW115668   2.977   4.492   4.757 -0.6970  0.1605  1.7144
 1344SOL    HW215669   3.040   4.610   4.814  0.8409  1.2959 -2.4684
 1345SOL     OW15670   4.293   4.395   5.498  0.2492 -0.2493 -0.8295
 1345SOL    HW115671   4.286   4.393   5.593  0.6459 -2.1613 -0.8413
 1345SOL    HW215672   4.247   4.478   5.489  0.6421 -0.2268 -2.7137
 1346SOL     OW15673   1.431   1.138   0.730 -0.1828 -0.0081  0.6754
 1346SOL    HW115674   1.419   1.222   0.687  0.9083  0.0942  0.5766
 1346SOL    HW215675   1.424   1.082   0.653  1.3988  0.0378  0.5042
 1347SOL     OW15676   1.395   2.101   2.108 -0.3012  0.7925  0.0409
 1347SOL    HW115677   1.368   2.009   2.114 -0.5015  0.8784  0.4456
 1347SOL    HW215678   1.315   2.145   2.137 -1.2300  0.6799 -2.3396
 1348SOL     OW15679   3.065   1.864  12.300  0.3212  0.0104 -0.3961
 1348SOL    HW115680   3.076   1.785  12.352  2.6787  1.6954  1.6954
 1348SOL    HW215681   2.975   1.893  12.313 -0.0275 -1.6660  0.8715
 1349SOL     OW15682   0.063   4.259   3.597 -0.1537 -0.2692  0.1914
 1349SOL    HW115683   0.112   4.324   3.647 -2.1005  1.1602  0.2700
 1349SOL    HW215684   4.719   4.303   3.573  0.2999  0.8500  0.7085
 1350SOL     OW15685   2.661   2.816   3.009  0.2182  0.5710 -0.3533
 1350SOL    HW115686   2.642   2.773   3.092  2.3007  2.6201  1.1892
 1350SOL    HW215687   2.708   2.894   3.038  1.3587 -0.0159 -0.6099
 1351SOL     OW15688   0.279   0.357   4.484 -0.1159 -0.2877  0.0389
 1351SOL    HW115689   0.345   0.300   4.444 -1.4900 -1.2020 -0.9726
 1351SOL    HW215690   0.272   0.426   4.418 -0.7031 -0.1553  0.2415
 1352SOL     OW15691   0.900   3.086  16.014 -0.3190 -0.2541 -0.2319
 1352SOL    HW115692   0.842   3.153  16.051 -0.8501  0.5039 -2.4780
 1352SOL    HW215693   0.973   3.138  15.981 -0.2447 -0.2065  0.0087
 1353SOL     OW15694   3.948   3.596   8.586 -0.1348 -0.1343  0.5273
 1353SOL    HW115695   3.938   3.501   8.586 -1.1244 -0.0046 -1.8201
 1353SOL    HW215696   4.036   3.601   8.625 -0.2589  0.9088  0.6926
 1354SOL     OW15697   2.131   0.788   9.339  0.6312 -0.8035 -0.1361
 1354SOL    HW115698   2.163   0.730   9.408  0.3909 -0.0001  0.6611
 1354SOL    HW215699   2.188   0.864   9.354 -0.5842  0.1038 -0.0273
 1355SOL     OW15700   3.266   0.247   8.236  0.6120  0.2176 -0.1811
 1355SOL    HW115701   3.304   0.301   8.305  0.0949  1.1239 -0.6033
 1355SOL    HW215702   3.234   0.313   8.174  0.9811 -0.0853 -0.6865
 1356SOL     OW15703   4.582   4.006   2.119  0.2905  0.5440  0.2577
 1356SOL    HW115704   4.645   4.011   2.192  0.3620  1.3614  0.1407
 1356SOL    HW215705   4.643   4.012   2.045  0.5606  1.4332  0.5538
 1357SOL     OW15706   0.544   1.106   1.729  0.8499  0.0568 -0.5802
 1357SOL    HW115707   0.590   1.024   1.708  0.9240  0.0725 -0.4737
 1357SOL    HW215708   0.459   1.071   1.702  1.8831  1.2510 -5.3445
 1358SOL     OW15709   0.715   3.926   3.182 -0.3203  0.2839 -0.1098
 1358SOL    HW115710   0.702   3.872   3.104 -0.6233  0.0596  0.0959
 1358SOL    HW215711   0.809   3.945   3.175 -0.2756  0.0796 -0.0584
 1359SOL     OW15712   0.056   2.376  15.207  0.2567  0.0322  0.4653
 1359SOL    HW115713   0.002   2.346  15.281 -1.7524  0.4448 -0.8479
 1359SOL    HW215714   4.732   2.354  15.137  1.0292  1.5976 -0.7006
 1360SOL     OW15715   2.914   2.998  16.068 -0.2199 -0.6660  0.4810
 1360SOL    HW115716   2.852   3.029  16.134  0.3211  1.6872 -0.1178
 1360SOL    HW215717   2.893   2.906  16.085 -2.5492 -0.5135 -1.5572
 1361SOL     OW15718   0.787   3.913   9.333  0.2297  0.7570 -0.1958
 1361SOL    HW115719   0.879   3.934   9.348  0.7945  0.4032 -2.9882
 1361SOL    HW215720   0.746   3.996   9.310 -0.8456  0.1762 -0.3655
 1362SOL     OW15721   2.048   3.562  11.774  0.3817 -0.3840 -0.1623
 1362SOL    HW115722   2.092   3.479  11.790 -0.6293 -0.3476  2.9347
 1362SOL    HW215723   2.111   3.623  11.811  0.7304 -0.9526  0.1801
 1363SOL     OW15724   0.738   0.351   9.048  0.3264  0.7291  0.4004
 1363SOL    HW115725   0.789   0.341   8.968  0.8891  1.2996  0.6851
 1363SOL    HW215726   0.665   0.403   9.017 -2.1431 -1.3160  2.6777
 1364SOL     OW15727   1.793   3.607   5.092 -0.8523 -0.5959 -0.0115
 1364SOL    HW115728   1.752   3.532   5.047 -0.2671 -0.7040 -0.3695
 1364SOL    HW215729   1.720   3.646   5.140 -0.5144 -0.5688  0.4769
 1365SOL     OW15730   0.535   1.715  16.281 -0.3468 -0.0581  0.1441
 1365SOL    HW115731   0.597   1.788  16.281 -1.5210  0.9292 -0.9607
 1365SOL    HW215732   0.468   1.745  16.342 -1.2816  2.0083 -1.9463
 1366SOL     OW15733   1.278   3.208   2.616  0.9510  0.0619 -0.5827
 1366SOL    HW115734   1.356   3.188   2.564  0.2147 -2.5301 -0.6517
 1366SOL    HW215735   1.233   3.124   2.619 -0.1477  0.7024  1.0476
 1367SOL     OW15736   2.793   4.607   1.371  0.7288 -0.3381 -0.1919
 1367SOL    HW115737   2.865   4.648   1.420 -1.0645  0.2774  1.9144
 1367SOL    HW215738   2.770   4.535   1.430  1.3224 -0.7893 -0.5086
 1368SOL     OW15739   1.021   2.193   8.637 -0.3427 -0.2998  0.0175
 1368SOL    HW115740   1.039   2.121   8.576  1.5454  0.0212  0.1840
 1368SOL    HW215741   0.930   2.166   8.652 -0.2659 -0.4496  0.2148
 1369SOL     OW15742   2.950   1.844   4.164 -0.2526 -0.0029 -0.1192
 1369SOL    HW115743   3.028   1.863   4.112 -0.1621 -1.6313 -0.5995
 1369SOL    HW215744   2.882   1.827   4.099 -0.1143 -1.1765  0.0375
 1370SOL     OW15745   1.734   2.371   3.112 -0.1134 -0.3658 -0.0502
 1370SOL    HW115746   1.684   2.349   3.033  3.2850 -0.2518 -2.2432
 1370SOL    HW215747   1.767   2.458   3.091  2.8420 -1.3766  0.3730
 1371SOL     OW15748   4.631   0.565   6.178 -0.0206 -0.3076 -0.6662
 1371SOL    HW115749   4.691   0.546   6.106  0.2382 -1.5569 -0.1313
 1371SOL    HW215750   4.576   0.630   6.134 -0.9508 -0.6339  0.0049
 1372SOL     OW15751   0.573   2.783   3.879  0.5220 -0.8756 -0.0136
 1372SOL    HW115752   0.650   2.830   3.844  0.6483 -0.6640  0.5520
 1372SOL    HW215753   0.607   2.704   3.921  1.8009  1.0088  2.5355
 1373SOL     OW15754   0.598   2.210   4.456 -0.3369  0.0114  0.4099
 1373SOL    HW115755   0.622   2.126   4.496 -3.4788 -0.9248  0.3396
 1373SOL    HW215756   0.668   2.213   4.390 -0.2770  1.2833  0.5345
 1374SOL     OW15757   4.429   3.851  15.354 -0.1704 -0.1840 -0.1388
 1374SOL    HW115758   4.352   3.794  15.355  0.4036 -0.9242  1.7539
 1374SOL    HW215759   4.407   3.902  15.432  1.2443  0.0362  0.1087
 1375SOL     OW15760   3.775   3.020   1.150 -0.6860  0.3125  0.0157
 1375SOL    HW115761   3.687   3.019   1.187 -0.0213 -1.8757  1.5720
 1375SOL    HW215762   3.833   3.001   1.224 -1.2660  1.8103  0.8313
 1376SOL     OW15763   0.030   4.609  14.502  0.0911  0.3108 -0.1440
 1376SOL    HW115764   0.006   4.658  14.424 -1.3597  0.7547  0.5848
 1376SOL    HW215765   4.710   4.534  14.484 -0.3989  1.4050 -3.0424
 1377SOL     OW15766   2.476   3.225   4.340  0.0627 -0.6174 -0.0506
 1377SOL    HW115767   2.496   3.132   4.338  0.3766 -0.5110 -1.7360
 1377SOL    HW215768   2.384   3.226   4.313 -0.6933 -2.6467  2.5409
 1378SOL     OW15769   1.116   0.989   4.676 -0.5370  0.2279  0.1567
 1378SOL    HW115770   1.149   1.008   4.764  0.5588 -0.0738 -0.1877
 1378SOL    HW215771   1.110   1.079   4.645 -1.0224  0.0477 -0.2704
 1379SOL     OW15772   4.679   3.387   7.065  0.0749 -0.0040  0.2102
 1379SOL    HW115773   4.674   3.315   7.128  2.1663  0.3347  0.7600
 1379SOL    HW215774   4.723   3.339   6.995 -0.0690 -1.0481  0.8377
 1380SOL     OW15775   1.222   3.748   8.759 -0.3366  0.1984  0.4596
 1380SOL    HW115776   1.166   3.800   8.817  0.3661  0.5103  0.8594
 1380SOL    HW215777   1.203   3.779   8.671  1.2495  2.2494  0.8466
 1381SOL     OW15778   1.715   2.962   8.887 -0.0944 -0.6803  0.0505
 1381SOL    HW115779   1.745   3.052   8.875 -1.3818 -0.4249 -1.2126
 1381SOL    HW215780   1.693   2.938   8.797 -2.1142  2.2283 -0.2012
 1382SOL     OW15781   2.590   2.374  13.837 -0.0360 -0.0870 -0.3298
 1382SOL    HW115782   2.552   2.456  13.806 -2.2250 -0.7365  0.6524
 1382SOL    HW215783   2.671   2.411  13.873 -0.5718 -1.4463  2.2355
 1383SOL     OW15784   3.258   1.483  10.430  0.2010  0.0746 -0.3695
 1383SOL    HW115785   3.262   1.492  10.525 -1.0365 -2.7939 -0.0513
 1383SOL    HW215786   3.256   1.571  10.393  0.4050  0.3217  0.2116
 1384SOL     OW15787   0.401   1.830   8.523  0.4515 -0.4215 -0.0288
 1384SOL    HW115788   0.391   1.909   8.470  1.5288 -0.0400  0.3161
 1384SOL    HW215789   0.310   1.810   8.543  0.1428  0.8930 -0.0984
 1385SOL     OW15790   0.104   4.306   8.192  0.0268  0.5355 -0.3295
 1385SOL    HW115791   0.104   4.290   8.286  0.7965 -1.5149 -0.6705
 1385SOL    HW215792   0.187   4.353   8.183  0.5419 -0.2547  0.3603
 1386SOL     OW15793   4.467   2.125   6.704  0.3629  0.1220 -0.2232
 1386SOL    HW115794   4.450   2.093   6.792 -0.1361 -0.5638 -0.5649
 1386SOL    HW215795   4.431   2.213   6.709  2.5812  0.9679  0.5486
 1387SOL     OW15796   2.002   3.305  11.627 -0.3868 -0.2340 -0.2095
 1387SOL    HW115797   1.920   3.326  11.670 -0.5195 -0.8829 -0.1500
 1387SOL    HW215798   2.059   3.320  11.703  0.7945 -0.2713 -1.0771
 1388SOL     OW15799   0.769   4.218   8.192  0.1631  0.7103 -0.0575
 1388SOL    HW115800   0.802   4.165   8.264 -0.6777 -0.0329 -0.2202
 1388SOL    HW215801   0.823   4.181   8.122 -0.4896 -0.6778  0.1785
 1389SOL     OW15802   2.949   1.465   8.982  0.2019 -0.0666 -0.0954
 1389SOL    HW115803   2.926   1.555   8.959  0.2894 -0.0770 -0.2264
 1389SOL    HW215804   2.865   1.419   8.982  0.7171 -0.9940  0.7981
 1390SOL     OW15805   4.280   0.905   8.549 -0.0413  0.7297 -0.4705
 1390SOL    HW115806   4.227   0.851   8.608  1.0221  0.5626  0.3363
 1390SOL    HW215807   4.259   0.990   8.590 -1.7261 -0.2390  0.7145
 1391SOL     OW15808   0.453   0.905   8.458 -0.1718 -0.3576 -0.0334
 1391SOL    HW115809   0.409   0.915   8.542 -0.1980  0.4275 -0.1387
 1391SOL    HW215810   0.393   0.946   8.395  0.7572  0.7761 -0.1760
 1392SOL     OW15811   1.047   1.585   5.808  0.0020  0.0973  0.8195
 1392SOL    HW115812   1.053   1.606   5.901 -0.6201 -2.2653  1.3725
 1392SOL    HW215813   1.137   1.558   5.789 -0.0866 -0.6175  1.4218
 1393SOL     OW15814   3.079   0.591   3.655 -0.1204 -0.1550 -0.1675
 1393SOL    HW115815   3.005   0.566   3.600 -0.8578 -0.5384  0.9988
 1393SOL    HW215816   3.032   0.621   3.733 -1.3709 -4.1187  0.6104
 1394SOL     OW15817   1.175   3.303   5.157  0.3357 -0.1489  0.7924
 1394SOL    HW115818   1.116   3.302   5.233  0.2800  0.1150  0.7510
 1394SOL    HW215819   1.189   3.212   5.132  1.0765  0.5937 -1.4380
 1395SOL     OW15820   2.413   4.132   9.034 -0.1571 -0.7932 -0.0520
 1395SOL    HW115821   2.418   4.045   8.993  1.5285 -0.8311  0.2347
 1395SOL    HW215822   2.344   4.126   9.101 -0.7210 -0.2214 -0.5870
 1396SOL     OW15823   1.176   3.748  14.472 -0.3675  0.0914  0.3037
 1396SOL    HW115824   1.163   3.744  14.378  0.0717 -0.1548  0.2496
 1396SOL    HW215825   1.159   3.656  14.491 -1.6347  0.0466 -1.0722
 1397SOL     OW15826   0.779   0.287  12.072  0.0817  0.1125 -0.4799
 1397SOL    HW115827   0.730   0.364  12.043 -0.7376 -0.1778  0.1489
 1397SOL    HW215828   0.856   0.322  12.116 -1.4011  2.8446 -0.0762
 1398SOL     OW15829   1.475   1.394   0.075 -0.5543 -0.2063  0.9797
 1398SOL    HW115830   1.483   1.457   0.003  0.7458 -1.2434  0.2222
 1398SOL    HW215831   1.568   1.375   0.084 -0.3640  0.5827  0.7072
 1399SOL     OW15832   4.480   0.341   6.044 -0.1222  0.5947  0.2150
 1399SOL    HW115833   4.474   0.425   6.089  1.5357  0.5503  0.5219
 1399SOL    HW215834   4.464   0.359   5.951  0.8365  0.1048 -0.0417
 1400SOL     OW15835   3.718   1.802   1.713  0.0780  0.5619  0.1298
 1400SOL    HW115836   3.737   1.889   1.676  0.1393  0.3537 -0.3297
 1400SOL    HW215837   3.680   1.758   1.638 -0.6581  0.0423  0.8128
 1401SOL     OW15838   4.276   1.180   7.477 -0.5740  0.0059 -0.2514
 1401SOL    HW115839   4.365   1.211   7.494 -0.5332 -1.1239  1.6359
 1401SOL    HW215840   4.222   1.259   7.477 -0.3159  0.1787 -1.9757
 1402SOL     OW15841   4.547   3.043   5.701  0.7183 -0.6750 -0.0132
 1402SOL    HW115842   4.465   3.084   5.671  0.4654 -0.1462  1.3750
 1402SOL    HW215843   4.563   3.107   5.770  0.2501 -1.1081  0.4987
 1403SOL     OW15844   2.911   1.282   8.164  0.2357 -0.5331 -0.8570
 1403SOL    HW115845   2.904   1.204   8.108 -0.0819  0.4483 -2.1684
 1403SOL    HW215846   3.001   1.309   8.151  0.3016  0.8907  2.4727
 1404SOL     OW15847   2.452   3.405  15.475 -0.2836 -0.4130  0.5727
 1404SOL    HW115848   2.366   3.384  15.511 -0.5785 -2.9573 -1.6686
 1404SOL    HW215849   2.490   3.317  15.466  2.4596  0.6021  1.9070
 1405SOL     OW15850   0.360   4.213   8.652 -0.0082 -0.2716 -0.2193
 1405SOL    HW115851   0.426   4.282   8.656 -0.2738  0.0830 -1.6685
 1405SOL    HW215852   0.339   4.194   8.743 -1.0469 -0.8148 -0.5675
 1406SOL     OW15853   0.640   0.232  12.784  0.4958  0.3065 -0.1280
 1406SOL    HW115854   0.571   0.166  12.780  0.8168  0.1378 -3.3107
 1406SOL    HW215855   0.664   0.239  12.691  2.4657 -2.2402  0.1985
 1407SOL     OW15856   0.722   2.526  11.742  0.4146  0.0326 -0.4605
 1407SOL    HW115857   0.708   2.606  11.691  1.3549  1.3687  1.3971
 1407SOL    HW215858   0.725   2.457  11.676 -0.7609  0.2687 -0.7547
 1408SOL     OW15859   2.985   2.092   7.897  0.4873  0.5967  0.1239
 1408SOL    HW115860   2.997   2.174   7.944 -0.5237  0.7106  0.1875
 1408SOL    HW215861   2.956   2.038   7.970  1.1164  0.1611  0.0518
 1409SOL     OW15862   0.525   1.608  17.446  0.5043 -0.7158  0.4696
 1409SOL    HW115863   0.483   1.535  17.493 -0.7277 -0.6663 -0.5481
 1409SOL    HW215864   0.453   1.641  17.392  0.1133  0.0446  1.4571
 1410SOL     OW15865   4.630   3.024   8.224  0.1388 -0.3789  0.0632
 1410SOL    HW115866   4.552   2.973   8.244 -0.9061  1.9526  1.9920
 1410SOL    HW215867   4.666   3.023   8.313  1.0186  2.8323 -0.2558
 1411SOL     OW15868   0.736   4.390   5.462 -0.3839 -0.0648 -0.1757
 1411SOL    HW115869   0.792   4.440   5.522 -0.4763 -0.0795 -0.0758
 1411SOL    HW215870   0.757   4.424   5.375 -0.9196 -1.4767 -0.8447
 1412SOL     OW15871   2.856   2.470  15.576 -0.3525  0.2620  0.2331
 1412SOL    HW115872   2.858   2.483  15.670  0.7446 -1.1258  0.4090
 1412SOL    HW215873   2.766   2.500  15.567 -0.3033  0.9686  2.2157
 1413SOL     OW15874   0.058   2.331   5.889  0.2039  0.0136  0.1531
 1413SOL    HW115875   0.109   2.402   5.931  0.0743  0.5437 -0.5913
 1413SOL    HW215876   4.729   2.333   5.958  0.2496  2.6801  0.1205
 1414SOL     OW15877   0.739   2.212  17.230 -0.0608  0.0053  0.1707
 1414SOL    HW115878   0.811   2.274  17.221  1.3436 -1.5014  1.0354
 1414SOL    HW215879   0.705   2.250  17.311 -0.3402 -0.6086  0.3441
 1415SOL     OW15880   0.788   2.734   9.136 -0.3715 -0.3925 -0.2710
 1415SOL    HW115881   0.758   2.667   9.198 -0.3126  1.1325  1.4094
 1415SOL    HW215882   0.865   2.695   9.096  0.8782 -0.3022  2.0253
 1416SOL     OW15883   3.826   0.156   8.161 -0.6751  0.1651  0.1024
 1416SOL    HW115884   3.888   0.215   8.204 -1.6828  1.7691 -0.6584
 1416SOL    HW215885   3.890   0.101   8.115  0.3702  1.6653 -0.2312
 1417SOL     OW15886   4.032   4.476   7.425 -0.0567 -0.1490 -0.4843
 1417SOL    HW115887   3.972   4.550   7.415 -1.6573 -1.2409  1.0266
 1417SOL    HW215888   4.106   4.515   7.378  0.7398  1.0673  1.7797
 1418SOL     OW15889   0.565   1.416  10.610  0.3531  0.0221  0.1648
 1418SOL    HW115890   0.601   1.336  10.649 -1.3453 -1.2535 -0.8889
 1418SOL    HW215891   0.641   1.471  10.590 -0.2035  0.1105 -1.6908
 1419SOL     OW15892   1.318   3.248   4.282 -0.1286  0.2631  0.0912
 1419SOL    HW115893   1.382   3.314   4.307  1.3005 -1.8072  1.8593
 1419SOL    HW215894   1.244   3.273   4.338  0.8175 -0.8858  1.8568
 1420SOL     OW15895   3.071   1.307  16.106  0.2581 -0.4651  0.4218
 1420SOL    HW115896   3.121   1.277  16.031  1.2306 -1.7178  1.5710
 1420SOL    HW215897   3.056   1.399  16.085  0.0714 -0.5975 -0.0164
 1421SOL     OW15898   1.066   1.583  14.915 -0.3520 -0.5324  0.2115
 1421SOL    HW115899   1.026   1.665  14.946 -1.0463  0.3057 -2.8794
 1421SOL    HW215900   0.993   1.522  14.929 -0.2225 -0.7613 -0.1383
 1422SOL     OW15901   1.520   1.300   2.178  0.2193  0.2232 -0.3422
 1422SOL    HW115902   1.448   1.332   2.124 -0.3414  1.4757  1.1540
 1422SOL    HW215903   1.548   1.225   2.126  0.8305 -1.4352  2.4159
 1423SOL     OW15904   0.567   0.075  13.504 -0.0868  0.0107 -0.0224
 1423SOL    HW115905   0.578   4.719  13.519 -0.5782 -0.0284  0.1041
 1423SOL    HW215906   0.615   0.075  13.421  0.7769  1.1723  0.4796
 1424SOL     OW15907   1.581   3.658   7.264 -0.0731  0.0992 -0.2559
 1424SOL    HW115908   1.562   3.708   7.185  0.1400  0.2197 -0.2309
 1424SOL    HW215909   1.672   3.678   7.284 -0.1049 -0.0683  0.0611
 1425SOL     OW15910   2.798   3.586   7.426  0.8655 -0.4184  0.3764
 1425SOL    HW115911   2.858   3.661   7.423 -0.9110  0.9734 -0.5762
 1425SOL    HW215912   2.720   3.626   7.387  1.7189  0.9429  0.0693
 1426SOL     OW15913   3.207   2.881   0.494  0.2634 -0.3826  0.0690
 1426SOL    HW115914   3.276   2.935   0.531 -0.7244  0.8432  0.1465
 1426SOL    HW215915   3.141   2.894   0.562  1.8992 -1.0217  1.7459
 1427SOL     OW15916   4.131   3.563   0.124 -0.5097  0.0165  0.9874
 1427SOL    HW115917   4.082   3.576   0.205 -2.5490 -0.2596 -0.1981
 1427SOL    HW215918   4.061   3.526   0.070  0.4945 -0.8097  0.2646
 1428SOL     OW15919   4.158   0.408   0.386 -0.2545  0.0799  0.3337
 1428SOL    HW115920   4.243   0.393   0.426  0.2566 -1.3764 -1.3100
 1428SOL    HW215921   4.173   0.480   0.324  0.4496  1.8299  2.5715
 1429SOL     OW15922   3.686   4.708   0.945  0.1095 -0.3748  0.2213
 1429SOL    HW115923   3.781   4.721   0.945 -0.0368  0.7061 -0.2267
 1429SOL    HW215924   3.655   0.022   1.020  1.8605 -0.3962  0.9794
 1430SOL     OW15925   1.513   1.851  11.061  0.0678  0.5924 -0.6335
 1430SOL    HW115926   1.475   1.858  10.973 -0.7104 -0.9844 -0.4227
 1430SOL    HW215927   1.603   1.833  11.034 -0.2694 -0.1605 -1.2523
 1431SOL     OW15928   2.717   0.489  16.572 -0.0952  0.4929 -0.1810
 1431SOL    HW115929   2.788   0.549  16.551 -2.3358  2.5961 -1.7301
 1431SOL    HW215930   2.635   0.528  16.542  0.1235  2.1292  1.3322
 1432SOL     OW15931   4.548   4.432   4.295  0.1789  0.2995  0.5100
 1432SOL    HW115932   4.466   4.453   4.340 -0.6661  3.8794 -2.7435
 1432SOL    HW215933   4.618   4.425   4.361  0.0022  2.0390  0.8815
 1433SOL     OW15934   3.285   1.178   7.297  0.3130  0.0807  0.4113
 1433SOL    HW115935   3.328   1.255   7.261 -0.0226  1.3033  2.6249
 1433SOL    HW215936   3.313   1.113   7.232  0.9418  1.2999 -0.5262
 1434SOL     OW15937   4.281   1.545   1.679  0.1991  0.1977  0.5566
 1434SOL    HW115938   4.289   1.560   1.585 -0.8206  2.2609  0.7977
 1434SOL    HW215939   4.294   1.631   1.719 -1.4416  0.6033  0.2383
 1435SOL     OW15940   3.990   1.486   6.285 -0.2818  0.1251 -0.2112
 1435SOL    HW115941   4.076   1.527   6.278 -0.0411  0.2373  3.4885
 1435SOL    HW215942   3.966   1.507   6.375  0.6411 -0.7271  0.2261
 1436SOL     OW15943   0.658   2.288  14.729  0.2917 -0.6325  0.3186
 1436SOL    HW115944   0.573   2.253  14.702 -0.7133 -1.2200  4.2430
 1436SOL    HW215945   0.638   2.364  14.783  3.4308  0.4060 -0.0111
 1437SOL     OW15946   0.882   3.003   9.231 -0.0936 -0.5981  0.4095
 1437SOL    HW115947   0.869   2.915   9.195  0.9387 -0.3165 -0.6358
 1437SOL    HW215948   0.910   2.976   9.319 -0.4552  1.8529  1.2975
 1438SOL     OW15949   1.763   0.545   0.192  0.0821 -0.5969 -0.4992
 1438SOL    HW115950   1.802   0.501   0.268  1.8648  3.5047  0.9946
 1438SOL    HW215951   1.732   0.469   0.144 -0.7171 -0.5275 -0.0883
 1439SOL     OW15952   0.595   1.294   8.180  0.2104 -0.3932 -0.8421
 1439SOL    HW115953   0.543   1.305   8.260  2.5908  2.7249  0.2681
 1439SOL    HW215954   0.676   1.338   8.203  0.6106 -2.2718  1.3180
 1440SOL     OW15955   3.492   0.201   4.910 -0.1817 -0.6894 -0.0315
 1440SOL    HW115956   3.519   0.276   4.857 -0.8734 -1.0668 -0.9068
 1440SOL    HW215957   3.436   0.150   4.852 -1.7883  0.8494  0.1701
 1441SOL     OW15958   0.570   1.583   5.952  0.3991 -0.0026 -0.4684
 1441SOL    HW115959   0.476   1.586   5.934  0.6748 -3.0208 -2.3449
 1441SOL    HW215960   0.603   1.669   5.926  1.3580  0.1933  1.4276
 1442SOL     OW15961   3.672   1.685   7.659  0.2791 -0.1249 -0.2709
 1442SOL    HW115962   3.715   1.743   7.596 -0.9293  0.3950 -0.6401
 1442SOL    HW215963   3.701   1.602   7.622  0.6225  0.4513 -1.3056
 1443SOL     OW15964   0.582   2.058  16.529 -0.0495 -0.1239  0.6172
 1443SOL    HW115965   0.611   2.030  16.442  1.3665 -0.1660  1.0968
 1443SOL    HW215966   0.619   2.146  16.527 -1.1961  0.3406 -0.5533
 1444SOL     OW15967   4.016   3.434  15.283  1.0737 -0.1145  0.2064
 1444SOL    HW115968   4.041   3.358  15.231 -0.3783 -1.1785  1.0553
 1444SOL    HW215969   4.097   3.482  15.303  1.6765 -0.6935 -0.8753
 1445SOL     OW15970   2.309   1.539  10.436 -0.0585 -0.0542 -0.2284
 1445SOL    HW115971   2.343   1.628  10.428 -1.3629  0.5041  0.4112
 1445SOL    HW215972   2.316   1.513  10.344 -1.6982 -0.1445 -0.3294
 1446SOL     OW15973   4.080   1.600   8.277 -0.5265  0.3927  0.0208
 1446SOL    HW115974   4.145   1.639   8.335  0.1423 -0.4145 -0.1859
 1446SOL    HW215975   4.078   1.509   8.305 -3.0171  0.1850 -0.7945
 1447SOL     OW15976   0.709   4.684  14.872  0.7073 -0.1226  0.1422
 1447SOL    HW115977   0.680   4.724  14.790 -0.9340 -1.1745  0.2112
 1447SOL    HW215978   0.649   4.618  14.906 -2.3635  1.8232 -1.5842
 1448SOL     OW15979   4.569   1.354   6.987 -0.1236  0.0369 -0.4167
 1448SOL    HW115980   4.480   1.387   6.997  0.3191  0.2357  2.7835
 1448SOL    HW215981   4.624   1.430   7.005 -0.9110  0.2961  0.8326
 1449SOL     OW15982   1.189   4.064  14.986 -0.6065  0.2004  0.2081
 1449SOL    HW115983   1.225   4.045  14.900 -0.8526  2.1421 -0.3376
 1449SOL    HW215984   1.107   4.015  14.979  0.2918 -1.4771  1.4991
 1450SOL     OW15985   0.465   0.427   9.345 -0.3073 -0.2916  0.1221
 1450SOL    HW115986   0.534   0.492   9.363 -1.2964  1.1384 -1.3071
 1450SOL    HW215987   0.474   0.386   9.431  3.0312  2.0313  0.8822
 1451SOL     OW15988   1.474   1.329   7.827 -0.2382  0.3122 -0.0645
 1451SOL    HW115989   1.406   1.359   7.886 -0.2852 -0.6089  0.3546
 1451SOL    HW215990   1.514   1.412   7.799  0.0434 -0.2445 -1.3344
 1452SOL     OW15991   1.408   4.530   8.788  0.4311  0.0350 -0.1211
 1452SOL    HW115992   1.479   4.592   8.769  1.8541 -0.2623  4.3184
 1452SOL    HW215993   1.446   4.497   8.869  0.8098 -0.9715 -0.7131
 1453SOL     OW15994   2.976   0.865   6.470 -0.0198 -0.3502 -0.6734
 1453SOL    HW115995   3.041   0.796   6.456  0.5938  0.1188 -0.1315
 1453SOL    HW215996   2.944   0.831   6.554 -0.6195  1.6287 -0.0878
 1454SOL     OW15997   2.179   4.040   7.828  0.4083  0.1483 -0.1976
 1454SOL    HW115998   2.118   4.047   7.901  0.0408  0.3515 -0.5265
 1454SOL    HW215999   2.115   4.016   7.761 -0.5571  2.2656 -0.0273
 1455SOL     OW16000   4.587   0.668  10.227  0.1199  0.3017 -0.2220
 1455SOL    HW116001   4.573   0.748  10.278  1.4441 -0.2787  1.0340
 1455SOL    HW216002   4.633   0.711  10.154  1.4249  1.9209  1.5473
 1456SOL     OW16003   0.327   4.100   7.972  0.4988 -0.3502  0.9454
 1456SOL    HW116004   0.252   4.140   7.928  2.6262 -0.0064 -2.3850
 1456SOL    HW216005   0.399   4.122   7.913 -0.6526 -0.4371 -0.4827
 1457SOL     OW16006   4.101   1.172   1.553  0.5642  0.3441  0.2739
 1457SOL    HW116007   4.193   1.149   1.540 -0.3112 -2.8839 -0.2658
 1457SOL    HW216008   4.093   1.217   1.469  0.2464 -0.2845 -0.0355
 1458SOL     OW16009   3.060   0.542   5.067  0.2650  0.0348 -0.4653
 1458SOL    HW116010   3.137   0.490   5.046  0.3199  0.4247 -1.2549
 1458SOL    HW216011   3.059   0.536   5.162 -1.3366  0.7179 -0.4370
 1459SOL     OW16012   3.126   0.974   2.679 -0.2810 -0.4499  0.1309
 1459SOL    HW116013   3.036   1.007   2.674 -0.5764 -1.1926  0.5400
 1459SOL    HW216014   3.101   0.884   2.699 -0.1142 -0.9041 -1.7554
 1460SOL     OW16015   4.187   1.940   5.033  0.1560  0.1732  0.2266
 1460SOL    HW116016   4.173   1.858   5.080  1.8542  0.7110  1.7043
 1460SOL    HW216017   4.270   1.962   5.077  0.5937 -2.1016  0.5440
 1461SOL     OW16018   0.905   3.374   9.922  0.1459  0.3574 -0.1280
 1461SOL    HW116019   0.974   3.402   9.982  2.6276  0.3214 -2.9350
 1461SOL    HW216020   0.933   3.420   9.842  2.5242 -0.2478  0.3639
 1462SOL     OW16021   1.567   3.959   8.704  0.1591 -0.0978 -0.1819
 1462SOL    HW116022   1.500   4.021   8.675 -3.3574 -2.7898  2.2818
 1462SOL    HW216023   1.600   4.024   8.767  0.2267  0.8155 -1.1458
 1463SOL     OW16024   4.624   2.818   0.312  0.0585  0.1708 -0.2793
 1463SOL    HW116025   4.625   2.744   0.250 -1.6077 -0.7642  0.8196
 1463SOL    HW216026   4.650   2.892   0.258 -0.1302 -0.1865 -0.8649
 1464SOL     OW16027   3.384   4.393  13.707 -0.2083  0.7416  0.1103
 1464SOL    HW116028   3.441   4.341  13.650 -0.6023  1.7092 -1.1621
 1464SOL    HW216029   3.340   4.450  13.643 -0.6107 -1.7885 -1.8574
 1465SOL     OW16030   1.185   0.514   7.291  0.3487 -0.2769 -0.0882
 1465SOL    HW116031   1.112   0.478   7.242 -1.0544  1.6595  0.5957
 1465SOL    HW216032   1.162   0.606   7.288 -0.0501 -0.3645  0.2995
 1466SOL     OW16033   4.014   2.134   2.310 -0.3019 -0.2532  0.0412
 1466SOL    HW116034   4.013   2.206   2.373  0.5975 -1.8860  1.9226
 1466SOL    HW216035   3.990   2.062   2.369 -1.3478 -1.6062 -2.0177
 1467SOL     OW16036   0.684   3.406   6.873  0.4694 -0.9870  0.0281
 1467SOL    HW116037   0.686   3.436   6.964 -0.5431  0.3698 -0.3973
 1467SOL    HW216038   0.636   3.324   6.881  0.3418 -0.9404 -0.2484
 1468SOL     OW16039   3.517   3.247   2.075 -0.4006 -0.2042  0.2329
 1468SOL    HW116040   3.604   3.216   2.051 -0.2240 -0.1525  0.8217
 1468SOL    HW216041   3.466   3.232   1.995 -0.4138 -0.0062  0.2044
 1469SOL     OW16042   2.475   1.515   5.787 -0.2140  0.1080 -0.1652
 1469SOL    HW116043   2.536   1.449   5.820  1.0046  0.4400 -1.7888
 1469SOL    HW216044   2.519   1.598   5.802 -0.5705  0.3149 -0.2716
 1470SOL     OW16045   4.022   2.489   6.099 -0.7175 -0.6888  0.4185
 1470SOL    HW116046   4.036   2.468   6.007  0.5237 -0.0370  0.4531
 1470SOL    HW216047   3.960   2.559   6.078 -0.7729 -0.1787  2.2934
 1471SOL     OW16048   4.676   1.641  17.231  0.2453  0.3434  0.5304
 1471SOL    HW116049   4.592   1.645  17.276  0.5005 -0.8083  1.1254
 1471SOL    HW216050   4.640   1.624  17.144 -1.5914 -0.3436  1.4263
 1472SOL     OW16051   1.987   3.025   2.501  0.1701  0.5440  0.1056
 1472SOL    HW116052   2.018   3.057   2.586 -1.4001  2.4320 -0.0441
 1472SOL    HW216053   2.067   3.037   2.449 -1.1835  1.2840 -1.7772
 1473SOL     OW16054   4.013   2.535   7.530 -0.2900 -0.1219  0.1235
 1473SOL    HW116055   4.072   2.507   7.459 -0.4100  0.6211 -0.2684
 1473SOL    HW216056   4.080   2.588   7.574  0.2228  0.9925 -1.9852
 1474SOL     OW16057   2.278   1.137  15.830 -0.0459 -0.0274 -0.5138
 1474SOL    HW116058   2.265   1.228  15.802 -0.4987  0.5408  1.5252
 1474SOL    HW216059   2.338   1.148  15.904  2.6313 -0.3234 -2.6667
 1475SOL     OW16060   0.162   2.305  16.540  0.1283  0.5603 -0.0096
 1475SOL    HW116061   0.133   2.262  16.459 -3.2246 -0.2330  1.6251
 1475SOL    HW216062   0.249   2.338  16.518 -0.5053  1.0438 -1.8032
 1476SOL     OW16063   4.262   1.792   5.694  0.1452 -0.3709 -0.1743
 1476SOL    HW116064   4.217   1.875   5.685  1.6105  0.7478  2.6322
 1476SOL    HW216065   4.194   1.737   5.657 -1.3304  0.0744  1.8615
 1477SOL     OW16066   3.858   2.106  11.529 -0.3059 -0.1185 -0.0332
 1477SOL    HW116067   3.921   2.059  11.473  0.2976  0.3404  0.2569
 1477SOL    HW216068   3.806   2.154  11.464  0.0368  0.0886 -0.1546
 1478SOL     OW16069   4.138   4.587   7.809 -0.1301 -0.4450  0.2609
 1478SOL    HW116070   4.153   4.656   7.875 -1.2575  1.0007 -0.9969
 1478SOL    HW216071   4.082   4.641   7.754  0.1907 -0.3998 -0.0248
 1479SOL     OW16072   2.096   3.873   8.480  0.2364  0.2094 -0.4369
 1479SOL    HW116073   2.026   3.822   8.441  0.1008  0.8965 -1.0758
 1479SOL    HW216074   2.168   3.809   8.473  0.5598  0.6772 -1.3936
 1480SOL     OW16075   0.604   3.798   6.589  0.8911  0.3805  0.0498
 1480SOL    HW116076   0.586   3.715   6.634 -4.3098  2.7474  2.3339
 1480SOL    HW216077   0.606   3.856   6.665  0.7082  0.4594 -0.0077
 1481SOL     OW16078   1.898   1.933  10.339 -0.0497 -0.4799 -0.4286
 1481SOL    HW116079   1.971   1.872  10.342  0.5428  0.1474 -1.9504
 1481SOL    HW216080   1.864   1.918  10.251  0.4725  3.5606 -1.3179
 1482SOL     OW16081   2.926   4.687  13.394 -0.1324  0.4180  0.1088
 1482SOL    HW116082   2.909   4.649  13.480  0.8485 -1.6581 -0.6053
 1482SOL    HW216083   2.991   0.013  13.424  0.8963 -0.4082 -0.3721
 1483SOL     OW16084   0.136   4.704   4.023  0.8692  0.7610  0.2293
 1483SOL    HW116085   0.146   0.060   4.038  1.3931  0.7268  0.0819
 1483SOL    HW216086   0.104   4.700   3.933 -1.9032  5.9485  0.9562
 1484SOL     OW16087   3.557   3.458   6.511 -0.0799  0.2387  0.0188
 1484SOL    HW116088   3.612   3.529   6.541  1.5522  0.5769 -3.7072
 1484SOL    HW216089   3.614   3.424   6.442 -0.6387 -1.2356  0.2822
 1485SOL     OW16090   0.888   0.738   8.677  0.3399  0.0616  0.1686
 1485SOL    HW116091   0.804   0.730   8.633  0.1217 -3.8691  1.3258
 1485SOL    HW216092   0.932   0.659   8.645  0.6794  0.1834  0.3362
 1486SOL     OW16093   4.261   1.637   8.890 -0.1894  0.1315  0.7062
 1486SOL    HW116094   4.305   1.695   8.952  1.0574  0.6511 -0.6801
 1486SOL    HW216095   4.315   1.559   8.903 -1.7411 -1.0089  0.2592
 1487SOL     OW16096   2.704   0.011  13.193  0.2901  0.2246  0.5997
 1487SOL    HW116097   2.629   0.050  13.238 -0.4239 -0.2354 -0.1966
 1487SOL    HW216098   2.778   0.025  13.251 -1.0814  1.5043  2.0199
 1488SOL     OW16099   2.921   1.755   2.075 -0.3118 -0.2415  0.6059
 1488SOL    HW116100   2.907   1.685   2.138 -0.6146 -0.1469  0.6422
 1488SOL    HW216101   2.844   1.758   2.018  1.1560  0.1230 -1.3896
 1489SOL     OW16102   3.846   3.974   4.727 -0.0657  0.1692 -0.3809
 1489SOL    HW116103   3.884   4.022   4.653  4.0609 -0.8285  1.0968
 1489SOL    HW216104   3.793   4.047   4.759 -1.8769 -0.3893 -2.0674
 1490SOL     OW16105   2.807   1.130   2.617 -0.0841 -0.7301  0.4516
 1490SOL    HW116106   2.840   1.174   2.695  0.6216  2.4792 -1.6241
 1490SOL    HW216107   2.832   1.198   2.554  0.6015 -0.5286  0.9406
 1491SOL     OW16108   3.502   1.359   2.993 -0.5253 -0.1428 -0.1818
 1491SOL    HW116109   3.517   1.324   2.904  0.3058 -1.4328  0.4577
 1491SOL    HW216110   3.557   1.302   3.047  1.6505  0.2650 -1.9155
 1492SOL     OW16111   0.980   4.049   4.355  0.1485 -0.9880  0.4445
 1492SOL    HW116112   0.983   4.141   4.380 -1.3095 -0.6877 -0.5143
 1492SOL    HW216113   1.074   4.033   4.365  0.6816  2.6371  1.2462
 1493SOL     OW16114   1.160   4.179   4.942 -0.4766  0.5836  0.7009
 1493SOL    HW116115   1.160   4.087   4.915  1.1815  0.4598  1.1206
 1493SOL    HW216116   1.252   4.203   4.928 -0.4409  0.2108  0.2808
 1494SOL     OW16117   4.188   2.080   7.415 -0.1797  0.0440  0.3029
 1494SOL    HW116118   4.146   2.073   7.329 -0.0669 -1.7734  0.3891
 1494SOL    HW216119   4.276   2.071   7.377  0.3313 -2.3402  2.0333
 1495SOL     OW16120   3.260   4.717   4.983  0.4572  0.1791  0.2734
 1495SOL    HW116121   3.236   0.027   5.062  0.6870  2.4518 -1.0522
 1495SOL    HW216122   3.240   0.040   4.912  0.0717  1.4920  1.5034
 1496SOL     OW16123   1.155   2.446   4.754  0.5029  0.1560  0.2043
 1496SOL    HW116124   1.229   2.503   4.735  1.2962 -0.0216  2.8398
 1496SOL    HW216125   1.102   2.463   4.676 -1.1320  0.9656  1.4990
 1497SOL     OW16126   2.373   2.180  12.295  0.2819  0.1523 -0.3488
 1497SOL    HW116127   2.419   2.159  12.377 -1.5154 -0.7632  0.4162
 1497SOL    HW216128   2.436   2.226  12.240 -0.2391 -1.3628 -2.1915
 1498SOL     OW16129   2.359   2.020   4.482 -0.9473  0.1319  0.1465
 1498SOL    HW116130   2.418   1.980   4.546 -0.1688  2.0885  0.6620
 1498SOL    HW216131   2.321   1.941   4.444 -2.6845  1.3501 -0.6621
 1499SOL     OW16132   3.067   2.536   2.589 -0.1924 -0.2721 -0.3371
 1499SOL    HW116133   3.088   2.590   2.665  0.8236 -0.9129 -0.1600
 1499SOL    HW216134   3.066   2.607   2.525 -0.8957  0.2828  0.3011
 1500SOL     OW16135   4.201   2.018  17.322  0.0036 -0.6370  0.0717
 1500SOL    HW116136   4.230   2.086  17.383 -0.1500  0.0707 -0.6340
 1500SOL    HW216137   4.111   2.048  17.314  0.1366 -0.4356 -0.7190
 1501SOL     OW16138   3.486   3.813  10.765 -0.4236 -0.4744  0.3955
 1501SOL    HW116139   3.523   3.897  10.791  0.1285 -0.8848  0.9357
 1501SOL    HW216140   3.500   3.809  10.670 -1.0836 -0.1987  0.2889
 1502SOL     OW16141   0.566   2.560  12.359  0.1604  0.5048 -0.3329
 1502SOL    HW116142   0.641   2.605  12.398 -0.8768  2.2844 -0.3981
 1502SOL    HW216143   0.599   2.511  12.284 -3.2477 -2.5805  0.1357
 1503SOL     OW16144   4.017   4.377   4.088 -0.1383 -0.7566 -0.0037
 1503SOL    HW116145   4.097   4.388   4.036 -1.8676  4.4905 -1.5642
 1503SOL    HW216146   3.950   4.399   4.024  0.3341 -0.1589 -0.3005
 1504SOL     OW16147   0.946   0.397   8.330 -0.6440 -0.5700  0.5546
 1504SOL    HW116148   0.890   0.360   8.261 -0.3850  1.3886 -0.7339
 1504SOL    HW216149   0.959   0.477   8.278 -1.4916 -0.5041  0.4393
 1505SOL     OW16150   3.365   3.210   8.094  0.1030  0.2663 -0.1802
 1505SOL    HW116151   3.420   3.207   8.015  0.5399 -2.0582  0.2204
 1505SOL    HW216152   3.292   3.259   8.056 -0.0716  1.4146  1.6672
 1506SOL     OW16153   0.856   1.061   5.414  0.4976 -0.4079 -0.2299
 1506SOL    HW116154   0.877   1.011   5.493 -0.2690  0.3197  0.4347
 1506SOL    HW216155   0.876   0.990   5.353 -0.6977 -1.0216  0.0747
 1507SOL     OW16156   1.534   1.376   6.731  0.6874  0.0435 -0.2044
 1507SOL    HW116157   1.547   1.458   6.780 -0.7859  0.1631 -0.0117
 1507SOL    HW216158   1.479   1.336   6.799  1.1262  0.6845  0.5373
 1508SOL     OW16159   4.159   1.201   6.621  0.6544 -0.0546 -0.1514
 1508SOL    HW116160   4.213   1.219   6.544  0.2507  1.6865 -0.0337
 1508SOL    HW216161   4.161   1.106   6.621  1.7990 -0.0231  0.5393
 1509SOL     OW16162   1.323   1.816  14.601 -0.1641  0.0851  0.7183
 1509SOL    HW116163   1.297   1.896  14.647 -0.6082  0.5333 -0.3249
 1509SOL    HW216164   1.244   1.764  14.618 -1.4052  1.4768 -0.7214
 1510SOL     OW16165   0.476   3.582  16.514  0.1456  0.1378  0.4343
 1510SOL    HW116166   0.421   3.569  16.591  0.5704  2.2566  1.0690
 1510SOL    HW216167   0.561   3.566  16.556  0.6150  1.7328  0.0980
 1511SOL     OW16168   2.875   2.584   3.307 -0.3830  0.4843 -0.8475
 1511SOL    HW116169   2.807   2.602   3.372  0.6531  2.8616 -0.4495
 1511SOL    HW216170   2.843   2.622   3.226  0.0132  0.3563 -1.0654
 1512SOL     OW16171   2.729   0.278   6.140  0.4339  0.1987  0.0407
 1512SOL    HW116172   2.805   0.235   6.100  0.5366 -1.1008  1.6251
 1512SOL    HW216173   2.781   0.338   6.193 -0.3028  0.2628  0.6960
 1513SOL     OW16174   2.716   0.594   6.033  0.2184  0.2222  0.2020
 1513SOL    HW116175   2.691   0.617   5.944 -1.4078  1.0040  0.8625
 1513SOL    HW216176   2.669   0.511   6.036 -1.2386  1.1129  2.3519
 1514SOL     OW16177   0.793   1.593   4.537 -0.2695 -0.5794  0.0543
 1514SOL    HW116178   0.795   1.537   4.614  0.8087 -0.6409 -0.0239
 1514SOL    HW216179   0.709   1.569   4.497  0.0674 -1.1787 -0.3009
 1515SOL     OW16180   2.068   2.270   5.931  0.1351 -0.3099  0.0029
 1515SOL    HW116181   1.994   2.225   5.890 -0.0459 -0.1289  0.1277
 1515SOL    HW216182   2.056   2.355   5.887  3.1506  1.1147  1.8987
 1516SOL     OW16183   2.407   4.237   8.118  0.4018 -0.2355  0.2334
 1516SOL    HW116184   2.441   4.156   8.081  2.5444 -0.1411  1.9928
 1516SOL    HW216185   2.392   4.204   8.206 -2.6430 -0.2706 -0.2727
 1517SOL     OW16186   3.278   2.244   1.718 -0.0951 -0.0827 -0.0513
 1517SOL    HW116187   3.294   2.188   1.794 -1.7965  1.2732  1.3133
 1517SOL    HW216188   3.362   2.225   1.675 -0.0664 -2.7072  1.1821
 1518SOL     OW16189   0.628   1.382  15.137  0.5522  0.8329 -0.3123
 1518SOL    HW116190   0.575   1.337  15.202  0.8776 -1.2935 -1.5283
 1518SOL    HW216191   0.563   1.422  15.079  1.8473  0.2862 -2.1487
 1519SOL     OW16192   4.559   1.635  10.297 -0.0097  0.0931  0.3813
 1519SOL    HW116193   4.653   1.621  10.294 -0.3331 -2.2431  1.6796
 1519SOL    HW216194   4.537   1.634  10.204 -1.0367 -2.4199  0.6599
 1520SOL     OW16195   3.140   4.573   8.044  0.1723 -0.6373  0.2560
 1520SOL    HW116196   3.118   4.483   8.023 -2.0168  0.3252 -1.5177
 1520SOL    HW216197   3.228   4.573   8.083 -0.3380 -0.0903  1.4137
 1521SOL     OW16198   0.217   0.700   1.652  0.3577 -0.7911 -0.2041
 1521SOL    HW116199   0.183   0.614   1.627 -1.4642 -0.5639  1.4933
 1521SOL    HW216200   0.277   0.729   1.583 -0.5086  0.8670 -0.2662
 1522SOL     OW16201   2.593   2.553  15.412  0.6324  0.3735  0.1511
 1522SOL    HW116202   2.502   2.525  15.396  0.1845  0.9191  1.6768
 1522SOL    HW216203   2.594   2.620  15.481 -1.2934  0.3688  0.1838
 1523SOL     OW16204   2.842   2.478  15.271 -0.6327  0.3471  0.6265
 1523SOL    HW116205   2.862   2.470  15.364 -0.5916  0.7911  0.6552
 1523SOL    HW216206   2.773   2.544  15.266 -2.3514 -1.5814 -1.3566
 1524SOL     OW16207   1.740   4.210   5.260  0.0438 -0.0610 -0.1277
 1524SOL    HW116208   1.669   4.172   5.312 -0.7029  1.9841  0.3476
 1524SOL    HW216209   1.732   4.154   5.183  0.9808  0.1902 -0.4149
 1525SOL     OW16210   1.768   1.738   0.714 -0.1612 -0.1638 -0.4713
 1525SOL    HW116211   1.688   1.737   0.768  1.4485  1.2450  1.9550
 1525SOL    HW216212   1.834   1.698   0.770  1.1930  1.1609 -1.1325
 1526SOL     OW16213   1.071   3.056   4.757 -0.2604  0.1325 -0.5927
 1526SOL    HW116214   1.043   2.982   4.704 -2.4581  0.0482  0.6953
 1526SOL    HW216215   1.020   3.046   4.837  0.3333 -0.6371 -0.3099
 1527SOL     OW16216   2.519   0.358  14.794  0.4275  0.4131  0.1351
 1527SOL    HW116217   2.536   0.367  14.701  1.2884 -0.5722  0.1951
 1527SOL    HW216218   2.492   0.267  14.785 -1.6129  1.1504 -1.1209
 1528SOL     OW16219   0.088   3.637  16.910  0.4887  0.2601  0.0393
 1528SOL    HW116220   0.170   3.648  16.862 -0.7532  1.7515 -1.7469
 1528SOL    HW216221   0.048   3.724  16.907  0.9196  0.4681  0.2752
 1529SOL     OW16222   2.140   2.960   6.613 -0.5148 -0.5524  0.4909
 1529SOL    HW116223   2.131   3.043   6.659 -0.3222 -0.6888  0.7783
 1529SOL    HW216224   2.192   2.975   6.534 -0.2796 -0.5013  0.6587
 1530SOL     OW16225   1.444   3.920   8.174  0.0645 -0.5786  0.0716
 1530SOL    HW116226   1.534   3.937   8.203  0.7862 -0.2619 -2.3359
 1530SOL    HW216227   1.414   4.009   8.153  1.4885  0.2913  1.6747
 1531SOL     OW16228   0.926   3.879   4.125 -0.3146  0.7693 -0.3025
 1531SOL    HW116229   0.844   3.832   4.137 -0.0432  0.1970 -0.7084
 1531SOL    HW216230   0.929   3.926   4.209 -1.6286 -2.2720  1.4603
 1532SOL     OW16231   4.250   2.833  17.571 -0.5185 -0.2320 -0.0909
 1532SOL    HW116232   4.328   2.865  17.526  0.0717 -0.3147  0.8627
 1532SOL    HW216233   4.277   2.853  17.661  0.3127  0.0603 -0.4039
 1533SOL     OW16234   0.887   4.030  17.067 -0.5177 -0.0559  0.1609
 1533SOL    HW116235   0.828   4.008  17.139 -2.6196  0.2955 -1.4758
 1533SOL    HW216236   0.823   4.029  16.996 -0.6644  0.0625  0.2920
 1534SOL     OW16237   1.116   1.791   6.403  0.1561 -0.2117  0.0672
 1534SOL    HW116238   1.029   1.755   6.383  0.0066  0.2952 -0.2173
 1534SOL    HW216239   1.111   1.833   6.489 -3.1943  0.2504 -0.3204
 1535SOL     OW16240   1.970   2.449   5.728  0.0319  0.7948  0.4099
 1535SOL    HW116241   1.998   2.533   5.693  0.6385  0.8538  1.0405
 1535SOL    HW216242   1.875   2.450   5.720  0.2053 -1.1294 -1.8377
 1536SOL     OW16243   1.658   1.940   2.246  0.2324  0.1176  0.2943
 1536SOL    HW116244   1.709   1.952   2.166  2.5278  0.8353  1.8640
 1536SOL    HW216245   1.573   1.974   2.220  0.1851  0.0448  0.3531
 1537SOL     OW16246   3.735   4.030   6.927  0.2867  0.1581 -0.0787
 1537SOL    HW116247   3.766   4.064   6.843  3.2636 -0.4766  0.7518
 1537SOL    HW216248   3.668   4.098   6.935 -0.0719 -0.3714  1.3879
 1538SOL     OW16249   0.383   2.566   5.668 -0.6521 -0.2876 -0.0967
 1538SOL    HW116250   0.302   2.560   5.718 -0.2811 -0.5781  0.4667
 1538SOL    HW216251   0.418   2.649   5.700 -2.1657  0.0606  0.6205
 1539SOL     OW16252   3.226   0.137   9.372  0.5606  0.5925  0.0261
 1539SOL    HW116253   3.133   0.137   9.350  0.5317  1.5405  0.1289
 1539SOL    HW216254   3.224   0.105   9.462  0.1088 -2.4360 -1.0567
 1540SOL     OW16255   0.641   3.747   2.993 -0.4795  0.4725 -0.4724
 1540SOL    HW116256   0.603   3.813   2.935  0.4004 -0.2825 -1.9015
 1540SOL    HW216257   0.715   3.726   2.936  0.1753 -0.3597  0.6661
 1541SOL     OW16258   2.911   0.875   8.835  0.0337  0.2455  0.1060
 1541SOL    HW116259   2.816   0.869   8.823  0.4075 -0.6193 -2.4173
 1541SOL    HW216260   2.939   0.786   8.813  0.3998  0.9902 -2.4692
 1542SOL     OW16261   0.262   4.371   9.112  0.3727  0.8113 -0.1333
 1542SOL    HW116262   0.277   4.297   9.053  1.2954  1.6492 -0.9632
 1542SOL    HW216263   0.168   4.383   9.099  0.0461  0.3666  1.8313
 1543SOL     OW16264   2.691   4.225   8.317 -0.3743  0.7014 -0.0058
 1543SOL    HW116265   2.730   4.198   8.400  0.9780  0.9838 -0.5487
 1543SOL    HW216266   2.626   4.157   8.300  1.1663 -0.4374 -1.2352
 1544SOL     OW16267   1.087   1.949   1.224 -0.0331 -0.2224 -0.0701
 1544SOL    HW116268   1.134   1.878   1.180 -0.5552  0.6195 -1.9925
 1544SOL    HW216269   1.029   1.975   1.152  1.1278  0.4287 -0.7702
 1545SOL     OW16270   2.472   2.628   4.437 -0.2737  0.3834  0.1383
 1545SOL    HW116271   2.462   2.607   4.530  2.2314 -1.2502  0.0412
 1545SOL    HW216272   2.543   2.692   4.437  0.3069 -0.2556  1.6451
 1546SOL     OW16273   3.960   3.631   8.958  1.0131 -0.0775  0.2517
 1546SOL    HW116274   3.872   3.605   8.933  0.5967  1.2101  0.3821
 1546SOL    HW216275   3.998   3.545   8.974 -0.7708 -1.0602 -0.8817
 1547SOL     OW16276   3.151   1.684  17.305  0.3638 -0.4625  0.5467
 1547SOL    HW116277   3.148   1.762  17.360 -0.1165 -0.1821  0.1170
 1547SOL    HW216278   3.214   1.722  17.244  0.6335  1.2424  1.8728
 1548SOL     OW16279   0.432   2.518   8.912 -0.1178  0.0896  0.3661
 1548SOL    HW116280   0.433   2.517   9.008  1.0621 -1.5543  0.3419
 1548SOL    HW216281   0.339   2.517   8.890  0.1453 -1.5964 -0.7154
 1549SOL     OW16282   0.351   1.029   4.088  0.2927  0.5389 -0.0460
 1549SOL    HW116283   0.350   1.012   3.994  0.9318  1.3391 -0.1938
 1549SOL    HW216284   0.272   0.981   4.115 -0.3750  2.2142  0.9735
 1550SOL     OW16285   4.257   1.739   6.971  0.3051 -0.2235 -0.4005
 1550SOL    HW116286   4.162   1.734   6.986  0.9234 -2.8311  2.4842
 1550SOL    HW216287   4.265   1.702   6.883 -2.3830 -1.3898 -0.1747
 1551SOL     OW16288   1.176   3.472   5.442  0.4391  0.6375  0.5305
 1551SOL    HW116289   1.087   3.443   5.422  1.0197 -2.0845  1.9388
 1551SOL    HW216290   1.171   3.566   5.425 -0.6743  0.5867  0.5723
 1552SOL     OW16291   3.689   4.659   8.030  0.1143 -0.2647 -0.1282
 1552SOL    HW116292   3.708   4.725   8.096 -1.2087 -0.5263  0.5136
 1552SOL    HW216293   3.617   4.611   8.072  0.0726 -0.6734 -0.6544
 1553SOL     OW16294   1.396   4.452   9.524 -0.3458 -0.2377 -0.7080
 1553SOL    HW116295   1.378   4.546   9.529  1.6010  0.1105 -0.3009
 1553SOL    HW216296   1.451   4.434   9.448  1.4146 -2.8495  1.2247
 1554SOL     OW16297   2.214   1.590   1.477 -0.2842  0.0538  0.1375
 1554SOL    HW116298   2.200   1.683   1.495  0.3287 -0.2895  2.3598
 1554SOL    HW216299   2.244   1.604   1.387  1.9458  0.9404  1.0174
 1555SOL     OW16300   1.149   4.335   8.840  0.4492  0.3685 -0.2570
 1555SOL    HW116301   1.075   4.396   8.841 -0.8935 -1.2567  0.2145
 1555SOL    HW216302   1.213   4.364   8.775 -0.8834  1.4921 -1.0827
 1556SOL     OW16303   1.655   0.525   0.832  0.2334 -0.3393  0.0866
 1556SOL    HW116304   1.640   0.435   0.863 -0.6165 -0.2158  0.0161
 1556SOL    HW216305   1.659   0.514   0.737 -0.1247 -1.6376  0.2257
 1557SOL     OW16306   1.709   0.334   8.406  0.1816  0.0563  0.5903
 1557SOL    HW116307   1.798   0.367   8.395 -0.6517  2.3066  0.6176
 1557SOL    HW216308   1.721   0.260   8.346 -1.2585  2.4557 -2.6118
 1558SOL     OW16309   1.480   2.522   3.919  0.1178 -0.3377 -0.2284
 1558SOL    HW116310   1.408   2.541   3.979 -0.5454 -0.5858 -0.9488
 1558SOL    HW216311   1.541   2.481   3.981  1.8244  0.8727 -1.1339
 1559SOL     OW16312   2.814   4.652   3.726 -0.5098  0.0984  0.7137
 1559SOL    HW116313   2.878   4.638   3.797 -0.3374  1.2974  0.7887
 1559SOL    HW216314   2.850   4.587   3.666  0.4482  0.5689  0.7712
 1560SOL     OW16315   1.960   3.009   0.567 -0.2272  0.3843 -0.3075
 1560SOL    HW116316   2.014   3.087   0.577 -0.7913  0.6303  0.8884
 1560SOL    HW216317   1.977   2.983   0.477  1.4245  0.8991 -0.1376
 1561SOL     OW16318   0.817   3.056   5.320  0.0046 -0.0570  0.6336
 1561SOL    HW116319   0.782   3.027   5.404 -2.2580 -2.7115 -1.2266
 1561SOL    HW216320   0.842   2.977   5.273  1.0810  0.1396  0.8628
 1562SOL     OW16321   3.563   0.027  10.450  0.0295 -0.4373  0.4796
 1562SOL    HW116322   3.529   0.087  10.384 -0.5356 -1.5507 -0.2400
 1562SOL    HW216323   3.508   4.687  10.438 -3.1190  2.2209 -2.1404
 1563SOL     OW16324   2.122   1.487   6.524 -0.0853  0.0948  0.1645
 1563SOL    HW116325   2.106   1.505   6.616 -1.3826 -1.9378  0.3308
 1563SOL    HW216326   2.191   1.422   6.536 -0.3310 -0.4090 -1.1339
 1564SOL     OW16327   1.953   1.769  16.408  0.2326 -0.1908 -0.6701
 1564SOL    HW116328   1.917   1.855  16.431 -1.4256 -1.2266  0.5391
 1564SOL    HW216329   1.982   1.731  16.491 -1.6165 -1.4486 -0.5987
 1565SOL     OW16330   0.090   3.848   6.974 -0.3015 -0.4018  0.0420
 1565SOL    HW116331   0.046   3.878   6.895 -0.2947 -2.7202 -0.8264
 1565SOL    HW216332   0.090   3.924   7.032  0.4660 -0.1213 -0.3244
 1566SOL     OW16333   0.991   3.854   8.996 -0.2411  0.5337 -0.6354
 1566SOL    HW116334   0.991   3.949   8.995  1.6601  0.4993 -3.6290
 1566SOL    HW216335   1.056   3.843   9.066 -2.0225 -1.3620  0.7278
 1567SOL     OW16336   3.753   0.429   4.724 -0.2912 -0.6111 -0.6049
 1567SOL    HW116337   3.698   0.442   4.647  1.1803  0.7029 -1.4332
 1567SOL    HW216338   3.723   0.507   4.770 -0.6562 -1.1982  0.1680
 1568SOL     OW16339   3.271   0.656   7.824  0.4590 -0.2775 -0.1202
 1568SOL    HW116340   3.353   0.608   7.835  0.2884 -0.3632  0.7386
 1568SOL    HW216341   3.239   0.643   7.913  0.3133  2.1763  0.1781
 1569SOL     OW16342   1.671   0.497   2.603  0.5853 -0.3290 -0.5130
 1569SOL    HW116343   1.758   0.483   2.640  0.8202 -1.2519 -1.3921
 1569SOL    HW216344   1.682   0.496   2.508  0.1356  0.1399 -0.5706
 1570SOL     OW16345   1.872   3.720   7.850 -0.5620  0.3329 -0.1955
 1570SOL    HW116346   1.821   3.647   7.813  2.0077 -1.7511  0.3478
 1570SOL    HW216347   1.848   3.720   7.942  1.7599  0.4576  0.3917
 1571SOL     OW16348   1.337   1.051   1.306  0.0435 -0.2448 -0.0623
 1571SOL    HW116349   1.409   1.005   1.261 -0.3025 -0.6157 -0.2444
 1571SOL    HW216350   1.292   1.081   1.227  0.3172  2.4282  0.8007
 1572SOL     OW16351   3.370   2.281   6.654  0.0958  0.0487  0.4574
 1572SOL    HW116352   3.354   2.327   6.571  2.5774 -1.6744 -1.0049
 1572SOL    HW216353   3.372   2.358   6.710 -3.1694 -1.2794  2.4043
 1573SOL     OW16354   1.738   4.024   7.231 -0.2226 -0.2254  0.0947
 1573SOL    HW116355   1.735   4.033   7.326  1.3071  0.1540  0.1042
 1573SOL    HW216356   1.709   4.110   7.198 -0.3113 -0.7878 -1.2993
 1574SOL     OW16357   3.708   1.516   8.907  0.0767  0.5609 -0.0980
 1574SOL    HW116358   3.736   1.435   8.948  2.9319  1.0820 -1.0559
 1574SOL    HW216359   3.794   1.553   8.887 -0.4503  2.2096  0.6673
 1575SOL     OW16360   2.483   1.827  11.026  0.1948  0.3814 -0.6598
 1575SOL    HW116361   2.570   1.862  11.046  0.3731 -1.2523  1.4878
 1575SOL    HW216362   2.428   1.880  11.083 -1.3496 -0.7650 -1.1025
 1576SOL     OW16363   3.850   1.274  16.788  0.8013 -0.2760 -0.0439
 1576SOL    HW116364   3.908   1.341  16.751  0.3395  0.6451  0.9091
 1576SOL    HW216365   3.766   1.284  16.745  1.9663 -2.3910 -2.8420
 1577SOL     OW16366   2.648   1.185   4.669  0.0231  0.5468  0.0898
 1577SOL    HW116367   2.682   1.152   4.587  1.2692 -2.3969  1.8167
 1577SOL    HW216368   2.559   1.211   4.643  0.0749 -0.1416 -0.7486
 1578SOL     OW16369   3.023   0.184  10.866 -0.1369  0.4560 -0.9396
 1578SOL    HW116370   3.014   0.100  10.821 -2.0144  1.1545 -1.8727
 1578SOL    HW216371   2.939   0.191  10.910  0.2397 -0.8513 -0.0033
 1579SOL     OW16372   3.756   4.314  11.465  0.0611 -0.0356 -0.5119
 1579SOL    HW116373   3.847   4.287  11.471  0.4060  1.2265 -0.0481
 1579SOL    HW216374   3.768   4.409  11.467  0.6464 -0.1700  1.7393
 1580SOL     OW16375   3.847   0.185   1.266  0.4591 -0.2388 -0.0355
 1580SOL    HW116376   3.806   0.140   1.340  1.9050 -1.5934 -0.0583
 1580SOL    HW216377   3.792   0.260   1.241  0.0120 -0.2354  0.9632
 1581SOL     OW16378   1.786   4.566   8.087 -0.6481 -0.5095 -0.2852
 1581SOL    HW116379   1.814   4.627   8.019 -1.3263  0.4815  0.3241
 1581SOL    HW216380   1.692   4.585   8.090 -1.3057 -3.7840  0.1148
 1582SOL     OW16381   1.868   1.348   8.647 -0.2688 -0.0365 -0.3477
 1582SOL    HW116382   1.831   1.260   8.648  0.0898 -0.1854  1.0252
 1582SOL    HW216383   1.961   1.329   8.662 -0.7545 -0.4077  2.1423
 1583SOL     OW16384   1.392   1.217   3.436 -0.5365 -0.1746  0.0026
 1583SOL    HW116385   1.424   1.160   3.506 -2.1186  0.9732  1.6385
 1583SOL    HW216386   1.391   1.300   3.484 -1.2236  0.1501 -0.5808
 1584SOL     OW16387   0.569   1.193  14.153  0.0800 -0.0264 -0.0061
 1584SOL    HW116388   0.558   1.287  14.167 -2.1582  0.0413 -1.9731
 1584SOL    HW216389   0.478   1.170  14.131 -0.4977  0.8420  1.4794
 1585SOL     OW16390   0.616   2.968   4.337 -0.2977  0.3733 -0.0269
 1585SOL    HW116391   0.532   2.924   4.353  0.6875 -1.8514 -1.0126
 1585SOL    HW216392   0.679   2.896   4.334 -0.8522 -0.1828  1.6865
 1586SOL     OW16393   2.051   3.266   6.375 -0.1930  0.2147  0.5763
 1586SOL    HW116394   1.971   3.247   6.327  1.0416 -1.9200 -0.6171
 1586SOL    HW216395   2.114   3.209   6.332 -0.1662 -2.5765  4.3057
 1587SOL     OW16396   2.292   3.182   6.974 -0.0662  0.1722  0.4524
 1587SOL    HW116397   2.254   3.103   6.934  1.3654  0.2464 -1.0197
 1587SOL    HW216398   2.213   3.230   6.996 -0.6505 -0.2053 -0.8486
 1588SOL     OW16399   4.501   4.567   6.646  0.9493 -0.2231 -0.5958
 1588SOL    HW116400   4.582   4.558   6.596  0.0448  0.9769 -2.2651
 1588SOL    HW216401   4.536   4.581   6.734  1.6119 -2.5428 -0.4938
 1589SOL     OW16402   3.771   4.637   4.764 -0.0986 -0.3570  0.4823
 1589SOL    HW116403   3.833   4.589   4.819  1.6653  0.7499 -0.5095
 1589SOL    HW216404   3.837   4.681   4.710 -0.3352 -0.5126  0.0647
 1590SOL     OW16405   3.942   0.633   9.066  0.3110 -0.6866  0.0064
 1590SOL    HW116406   4.013   0.683   9.107 -0.7657  1.4366 -0.7197
 1590SOL    HW216407   3.923   0.566   9.131 -1.3184  0.4286  0.6814
 1591SOL     OW16408   0.572   0.426  12.379 -0.3033 -0.2500  0.2019
 1591SOL    HW116409   0.566   0.337  12.413  2.2842 -0.0407  1.2131
 1591SOL    HW216410   0.547   0.479  12.455  0.1424  3.0197 -1.9464
 1592SOL     OW16411   3.285   3.603   4.076  0.0018 -0.6123 -0.6843
 1592SOL    HW116412   3.259   3.687   4.114  1.9320 -0.3132 -0.0582
 1592SOL    HW216413   3.194   3.576   4.059  0.4472 -2.6657  0.2924
 1593SOL     OW16414   0.179   0.759  16.617  0.6018 -0.2134 -0.2584
 1593SOL    HW116415   0.129   0.738  16.538 -0.9527 -0.8119  0.9072
 1593SOL    HW216416   0.177   0.854  16.605  1.0672 -0.0862  0.7124
 1594SOL     OW16417   0.804   2.131  13.946  0.3341 -0.1580  0.6696
 1594SOL    HW116418   0.859   2.183  13.888  2.3540 -3.9604 -0.7901
 1594SOL    HW216419   0.812   2.183  14.026 -0.8389  1.5798 -0.3370
 1595SOL     OW16420   1.970   3.805   1.604 -0.1537 -0.0117 -0.0614
 1595SOL    HW116421   1.982   3.842   1.692  1.0854  0.9513 -0.6383
 1595SOL    HW216422   1.962   3.889   1.558 -2.4973 -0.4485 -0.4613
 1596SOL     OW16423   3.835   1.910   0.300  0.5258  0.3596 -0.4752
 1596SOL    HW116424   3.746   1.888   0.330  0.9937 -0.3422  0.4088
 1596SOL    HW216425   3.850   1.870   0.214  1.3697 -3.5166  1.4995
 1597SOL     OW16426   3.501   3.087   6.435  0.7485 -0.3419 -0.5403
 1597SOL    HW116427   3.512   3.071   6.529 -1.6674 -1.5231 -0.4528
 1597SOL    HW216428   3.572   3.149   6.421  1.4422 -0.8825  0.5845
 1598SOL     OW16429   1.403   1.146  12.962 -0.6287  0.0554  0.0209
 1598SOL    HW116430   1.437   1.131  13.051 -0.7063 -0.5335 -0.0481
 1598SOL    HW216431   1.341   1.216  12.984  0.7168  1.8094 -1.8028
 1599SOL     OW16432   2.919   4.417   2.211 -0.3389 -0.7052 -0.1489
 1599SOL    HW116433   2.937   4.323   2.205 -1.7877 -0.9824 -0.1106
 1599SOL    HW216434   2.868   4.421   2.292  0.4290  2.0151  0.2198
 1600SOL     OW16435   4.102   3.830   2.607  0.4885 -0.3970  0.8001
 1600SOL    HW116436   4.196   3.847   2.596  0.8372 -1.2998  2.3307
 1600SOL    HW216437   4.064   3.918   2.603  0.8482 -0.2262  1.1782
 1601SOL     OW16438   4.489   0.746   3.277 -0.8300 -0.2866 -0.2821
 1601SOL    HW116439   4.417   0.796   3.316  0.0442  0.2672  0.6160
 1601SOL    HW216440   4.457   0.707   3.195 -1.8518 -1.9395  0.9108
 1602SOL     OW16441   2.132   0.453   5.175  0.3992  0.6369 -0.4167
 1602SOL    HW116442   2.038   0.439   5.181  0.6540  0.2562  2.3586
 1602SOL    HW216443   2.149   0.517   5.105  2.4249 -1.7359 -2.1067
 1603SOL     OW16444   3.544   3.300  12.970  0.1394  0.2229  0.4025
 1603SOL    HW116445   3.638   3.315  12.961  0.2140 -2.9308 -4.0862
 1603SOL    HW216446   3.513   3.322  12.881 -1.7464  0.2368  1.0593
 1604SOL     OW16447   2.200   1.357   2.943 -1.0286  0.1589 -0.4023
 1604SOL    HW116448   2.268   1.373   2.878 -1.2540  1.3811 -0.3284
 1604SOL    HW216449   2.244   1.307   3.012  0.0960  0.6913 -0.7387
 1605SOL     OW16450   3.811   2.413   1.841 -0.3166 -0.5299 -0.7830
 1605SOL    HW116451   3.722   2.445   1.854 -0.0207 -1.0507  2.3816
 1605SOL    HW216452   3.823   2.369   1.925  0.9877 -1.7860 -1.6208
 1606SOL     OW16453   3.926   0.875   9.802  0.0523  0.0335 -0.3539
 1606SOL    HW116454   4.016   0.847   9.818 -0.0894  0.4970  1.1985
 1606SOL    HW216455   3.917   0.942   9.869  0.2320 -1.4500  1.1597
 1607SOL     OW16456   0.848   3.692  17.096  0.4195 -0.1781 -0.4530
 1607SOL    HW116457   0.834   3.770  17.148 -3.7385 -1.0829 -0.1979
 1607SOL    HW216458   0.922   3.657  17.146  0.3552  0.4476  0.0733
 1608SOL     OW16459   3.647   2.502  12.643  0.2436  1.1463 -0.1667
 1608SOL    HW116460   3.652   2.508  12.548  2.1489 -1.8552 -0.2770
 1608SOL    HW216461   3.710   2.432  12.662 -1.3434  0.1542  1.5296
 1609SOL     OW16462   1.513   0.314   5.560  0.2528 -0.9453 -0.0028
 1609SOL    HW116463   1.433   0.367   5.556  0.9365  0.1699  1.2897
 1609SOL    HW216464   1.534   0.321   5.653 -0.9642  0.7749  0.1438
 1610SOL     OW16465   1.398   2.559   9.667  0.1248 -0.8370 -0.6015
 1610SOL    HW116466   1.460   2.503   9.714  0.1748  0.2498  0.6151
 1610SOL    HW216467   1.344   2.573   9.745 -0.1749 -0.7475 -0.8275
 1611SOL     OW16468   2.554   0.973  12.209 -0.1317 -0.2953 -0.4073
 1611SOL    HW116469   2.621   0.913  12.176 -1.6433 -1.6168 -1.0531
 1611SOL    HW216470   2.511   1.003  12.129 -0.6872 -0.3679 -0.1383
 1612SOL     OW16471   2.787   1.784   0.823  0.2425 -0.7149 -0.0420
 1612SOL    HW116472   2.824   1.855   0.772  2.0179 -0.7183  1.2502
 1612SOL    HW216473   2.868   1.738   0.842 -0.2547 -0.9252  1.6252
 1613SOL     OW16474   0.547   0.780   8.998 -0.2681 -0.1019  0.2763
 1613SOL    HW116475   0.565   0.841   8.927 -0.8501  0.8272  0.9338
 1613SOL    HW216476   0.509   0.840   9.062  2.2429 -0.4621  2.1418
 1614SOL     OW16477   3.113   1.382   2.942 -0.4112 -0.1366  0.1218
 1614SOL    HW116478   3.180   1.407   2.879 -0.4097  3.3337  1.4797
 1614SOL    HW216479   3.057   1.460   2.941 -0.0569  0.1194  0.4171
 1615SOL     OW16480   3.698   4.289   2.279  0.1627 -0.0569  0.2602
 1615SOL    HW116481   3.751   4.239   2.341  0.3205  1.4989  1.3758
 1615SOL    HW216482   3.626   4.227   2.267  0.8926 -0.7235 -0.6746
 1616SOL     OW16483   0.810   2.796   0.794 -0.4342  0.0432 -0.0220
 1616SOL    HW116484   0.789   2.871   0.850 -0.1197  0.4969 -0.5193
 1616SOL    HW216485   0.720   2.768   0.773 -0.9883  0.6948  1.4472
 1617SOL     OW16486   0.113   3.605   6.474  0.4213  0.0377 -0.2339
 1617SOL    HW116487   0.197   3.650   6.474  0.1003  0.6272  0.2291
 1617SOL    HW216488   0.119   3.558   6.557 -2.4727 -0.0040 -0.0399
 1618SOL     OW16489   1.321   4.253  13.361 -0.3266 -0.5386  0.2526
 1618SOL    HW116490   1.259   4.278  13.430  0.1653 -1.0737  0.8868
 1618SOL    HW216491   1.287   4.300  13.285  0.0074  1.6187  1.4344
 1619SOL     OW16492   2.637   4.589   7.619  0.4496 -0.0013  0.2651
 1619SOL    HW116493   2.635   4.656   7.550  0.4754  1.1507  1.3732
 1619SOL    HW216494   2.639   4.640   7.700  2.0814 -1.9904  1.4773
 1620SOL     OW16495   3.012   2.569  15.839 -0.1630  0.1193 -0.0491
 1620SOL    HW116496   3.045   2.658  15.828  1.2178 -0.2671  1.0138
 1620SOL    HW216497   3.066   2.507  15.790 -1.0124 -0.9838  0.3974
 1621SOL     OW16498   0.557   1.868  13.638 -0.0575 -0.3227  0.5844
 1621SOL    HW116499   0.475   1.823  13.618  1.3529 -1.7538 -1.9827
 1621SOL    HW216500   0.526   1.957  13.657 -0.2101  0.0852 -1.6070
 1622SOL     OW16501   1.121   2.038  13.536  0.0644  0.3652  0.6922
 1622SOL    HW116502   1.132   2.002  13.624  1.5046  0.5139  0.5767
 1622SOL    HW216503   1.106   1.956  13.488  0.0404  1.6949 -1.5485
 1623SOL     OW16504   1.590   0.047   7.267 -0.5785 -0.1839 -0.4368
 1623SOL    HW116505   1.517   4.724   7.279 -0.2410 -0.5824 -0.3828
 1623SOL    HW216506   1.589   0.089   7.181 -1.0144  3.2549  1.2376
 1624SOL     OW16507   1.214   2.629   1.092  0.0072  0.3030 -0.2929
 1624SOL    HW116508   1.252   2.633   1.180  0.4768  0.5950 -0.5092
 1624SOL    HW216509   1.213   2.533   1.095  1.2580  0.3099  0.3786
 1625SOL     OW16510   3.044   0.244  12.453  0.1963 -0.3949 -0.2737
 1625SOL    HW116511   3.085   0.312  12.399  0.9652 -1.0223 -0.4838
 1625SOL    HW216512   3.119   0.186  12.463 -0.0707 -1.3533 -3.7927
 1626SOL     OW16513   2.291   3.187   5.638 -0.7754 -0.2273  0.3465
 1626SOL    HW116514   2.274   3.256   5.702 -2.0595 -0.5611  0.3678
 1626SOL    HW216515   2.363   3.233   5.595 -0.0789  0.7089  2.5371
 1627SOL     OW16516   3.967   0.648   6.764 -0.3127 -0.2324 -0.4973
 1627SOL    HW116517   3.924   0.563   6.764 -3.6768  1.4992  2.2786
 1627SOL    HW216518   4.034   0.618   6.703 -0.3972  0.2267 -0.8167
 1628SOL     OW16519   0.452   4.077   6.674  0.3477 -0.1958  0.1883
 1628SOL    HW116520   0.404   4.001   6.708 -2.3289  1.6179  0.5403
 1628SOL    HW216521   0.532   4.065   6.725  0.6016 -2.3760 -0.7009
 1629SOL     OW16522   1.320   4.603   7.166 -0.1209  0.4130 -0.1412
 1629SOL    HW116523   1.335   4.621   7.259  0.0363  0.0205 -0.0930
 1629SOL    HW216524   1.252   4.669   7.149 -0.4805 -0.1684 -0.9291
 1630SOL     OW16525   1.627   1.950  12.087 -0.7718  0.1697  0.4498
 1630SOL    HW116526   1.642   1.916  11.999  0.1005 -0.9679  1.0217
 1630SOL    HW216527   1.645   2.041  12.064  0.6023  0.1374  1.3263
 1631SOL     OW16528   1.363   2.871   8.837  0.0904 -0.6895 -0.4684
 1631SOL    HW116529   1.379   2.961   8.809  1.0763  0.2088  3.0066
 1631SOL    HW216530   1.322   2.881   8.922 -0.5492  0.8236 -0.9680
 1632SOL     OW16531   4.295   3.596  13.148 -0.5018  0.2841 -0.4080
 1632SOL    HW116532   4.361   3.644  13.198  1.6999 -0.2851 -2.7507
 1632SOL    HW216533   4.348   3.539  13.092 -1.7578 -1.0302 -0.2463
 1633SOL     OW16534   0.721   4.684  14.249 -0.1708  0.1293  0.1658
 1633SOL    HW116535   0.816   4.681  14.253 -0.1813 -2.1165 -0.8882
 1633SOL    HW216536   0.702   0.038  14.231 -0.0691  0.1354  0.0924
 1634SOL     OW16537   4.731   1.055  14.889 -0.4907  0.5851  0.1427
 1634SOL    HW116538   0.011   0.963  14.909 -3.2809 -0.0492 -0.3483
 1634SOL    HW216539   4.637   1.050  14.871 -0.5226 -1.3423  0.8663
 1635SOL     OW16540   1.026   3.513  10.155 -0.0625  0.2344 -0.2946
 1635SOL    HW116541   1.050   3.584  10.215  1.0224 -1.8455  1.7279
 1635SOL    HW216542   0.957   3.463  10.197  0.2231  1.6884  1.9238
 1636SOL     OW16543   2.057   1.471  12.218 -0.1630  0.4425 -0.0846
 1636SOL    HW116544   2.038   1.385  12.180 -1.9821  0.4835  0.6914
 1636SOL    HW216545   2.129   1.504  12.165  1.3813 -1.1779  1.0017
 1637SOL     OW16546   3.757   2.730   5.249 -0.1484 -0.2459  0.2632
 1637SOL    HW116547   3.710   2.653   5.217 -0.6919 -0.0488  0.5921
 1637SOL    HW216548   3.849   2.707   5.258 -0.1171 -0.4314 -0.5475
 1638SOL     OW16549   4.330   2.590   9.407 -0.6359 -0.0406  0.1194
 1638SOL    HW116550   4.376   2.659   9.454  0.0676  1.0104 -2.0989
 1638SOL    HW216551   4.400   2.531   9.380 -0.7286  0.8001 -2.0369
 1639SOL     OW16552   2.637   0.415   4.761 -0.1398  0.1659 -0.6380
 1639SOL    HW116553   2.672   0.452   4.842  1.6840 -1.8473 -0.5233
 1639SOL    HW216554   2.592   0.332   4.781  1.2965 -0.6698 -0.8563
 1640SOL     OW16555   3.695   2.106  16.226  0.0396 -0.1678  0.2528
 1640SOL    HW116556   3.764   2.172  16.218  0.0745 -0.2848 -0.3686
 1640SOL    HW216557   3.696   2.083  16.133 -1.1123  0.0490  0.1915
 1641SOL     OW16558   1.940   1.870  14.936  0.2310 -0.6620 -0.6921
 1641SOL    HW116559   1.957   1.964  14.925  1.8175 -0.9272 -0.5461
 1641SOL    HW216560   1.958   1.828  14.852  2.7060 -1.0258  0.0244
 1642SOL     OW16561   0.916   3.541  15.186  0.0164  0.4200 -0.4839
 1642SOL    HW116562   0.993   3.489  15.161 -0.3437  0.2363 -1.2034
 1642SOL    HW216563   0.898   3.569  15.096  0.9683  3.4149  0.2883
 1643SOL     OW16564   3.542   3.824  14.587 -0.6275 -0.5168 -0.3458
 1643SOL    HW116565   3.522   3.731  14.576 -0.7950 -0.1678 -3.1209
 1643SOL    HW216566   3.530   3.839  14.680 -1.7893 -0.3856 -0.5159
 1644SOL     OW16567   0.461   1.144   8.836 -0.3167 -0.1279 -0.2211
 1644SOL    HW116568   0.448   1.236   8.857  3.5090  0.3635 -0.0363
 1644SOL    HW216569   0.506   1.114   8.914 -0.2281 -0.3696 -0.3639
 1645SOL     OW16570   0.511   3.814   7.945 -0.0264  0.6923 -0.4692
 1645SOL    HW116571   0.453   3.839   7.872 -0.8700 -3.6800 -1.2511
 1645SOL    HW216572   0.579   3.767   7.898 -1.6479  0.1451 -2.2953
 1646SOL     OW16573   2.118   2.285   6.212 -0.0830  0.3534  0.1827
 1646SOL    HW116574   2.101   2.269   6.119  2.0060  1.5131 -0.3985
 1646SOL    HW216575   2.183   2.355   6.212  1.2603 -0.9083  0.0528
 1647SOL     OW16576   2.046   3.758   0.800  0.0092  0.2115 -0.8125
 1647SOL    HW116577   2.138   3.733   0.808 -0.2142 -0.9830 -1.8412
 1647SOL    HW216578   2.054   3.821   0.728 -1.5550 -0.6110 -1.7270
 1648SOL     OW16579   2.848   3.697   5.833  0.2899  0.6156 -0.2811
 1648SOL    HW116580   2.809   3.640   5.899  2.6774 -1.0978 -0.3598
 1648SOL    HW216581   2.936   3.659   5.825 -1.2632 -2.8388 -0.9424
 1649SOL     OW16582   1.321   3.310   5.626 -1.1853  0.0654 -0.1479
 1649SOL    HW116583   1.358   3.383   5.674 -0.6010 -0.0380 -0.4287
 1649SOL    HW216584   1.278   3.353   5.552 -2.1177 -1.5106 -0.5242
 1650SOL     OW16585   3.771   1.309   0.092  0.5782  0.2765  0.4649
 1650SOL    HW116586   3.726   1.393   0.096  0.0489 -0.0577  1.5290
 1650SOL    HW216587   3.780   1.287  17.749  3.5604  0.5746  0.6731
 1651SOL     OW16588   2.999   1.661   8.090 -0.0709  0.3907 -0.3312
 1651SOL    HW116589   2.916   1.694   8.054 -1.3548 -1.6129  0.7900
 1651SOL    HW216590   2.977   1.648   8.182  0.5410  2.8875  0.1704
 1652SOL     OW16591   0.160   0.916  11.971  0.0136  0.2981  0.1719
 1652SOL    HW116592   0.115   0.914  11.887  1.0430  0.6942 -0.3754
 1652SOL    HW216593   0.133   1.002  12.002  1.7774  2.0513 -3.2198
 1653SOL     OW16594   2.402   4.288   9.508 -0.4184  0.3372  0.0599
 1653SOL    HW116595   2.369   4.262   9.593  1.2084  0.2541  0.6721
 1653SOL    HW216596   2.494   4.265   9.517 -0.7805 -0.5277  1.4615
 1654SOL     OW16597   0.136   3.943   6.021 -0.6202  0.3135 -0.2894
 1654SOL    HW116598   0.051   3.901   6.035 -0.1492 -0.6677 -0.3892
 1654SOL    HW216599   0.195   3.869   6.008  1.2946  1.5911  1.1231
 1655SOL     OW16600   1.112   2.105   7.402  0.0403 -0.2555 -0.0660
 1655SOL    HW116601   1.177   2.039   7.424  0.3234  0.3533  0.9094
 1655SOL    HW216602   1.114   2.155   7.484  2.5129 -0.1841 -0.1602
 1656SOL     OW16603   1.461   4.354   3.492 -0.1384 -0.1119  0.6501
 1656SOL    HW116604   1.409   4.276   3.514  1.5993 -1.0443  1.4728
 1656SOL    HW216605   1.432   4.410   3.564  2.6901  0.6316  1.2016
 1657SOL     OW16606   2.533   1.987   2.513 -0.8564 -0.8019  0.2286
 1657SOL    HW116607   2.457   1.935   2.485  0.4074 -2.3599 -0.3492
 1657SOL    HW216608   2.519   2.011   2.604  1.4758 -1.0189  0.6364
 1658SOL     OW16609   3.949   2.625   2.725 -0.0559  0.3094 -0.0665
 1658SOL    HW116610   4.022   2.647   2.667 -1.9013  0.8916 -2.1710
 1658SOL    HW216611   3.893   2.696   2.695  0.9915  0.8657 -0.7211
 1659SOL     OW16612   1.746   0.482   9.510 -0.4290 -0.7287 -0.6828
 1659SOL    HW116613   1.712   0.569   9.533  1.0694 -0.8969  2.2467
 1659SOL    HW216614   1.670   0.442   9.467  0.0272 -0.1800 -2.0037
 1660SOL     OW16615   1.493   0.400   6.272 -0.0806  0.0282  0.6577
 1660SOL    HW116616   1.533   0.333   6.327  0.2460 -0.2590  0.0762
 1660SOL    HW216617   1.403   0.371   6.256  0.6679 -1.9854  0.0066
 1661SOL     OW16618   4.540   1.397  10.653  0.9099  0.1346  0.0287
 1661SOL    HW116619   4.636   1.397  10.655  0.9209 -1.1841 -0.1015
 1661SOL    HW216620   4.529   1.492  10.654  2.5531  0.3659 -2.1108
 1662SOL     OW16621   1.908   2.083   5.797  0.6606  0.3854  0.3294
 1662SOL    HW116622   1.906   1.987   5.792  1.0410  0.3450  1.1220
 1662SOL    HW216623   1.956   2.123   5.724 -0.8337  0.9255 -0.3538
 1663SOL     OW16624   1.528   2.067  12.403 -0.5481  0.2763  0.2864
 1663SOL    HW116625   1.606   2.112  12.373 -0.4886 -0.0214 -0.0067
 1663SOL    HW216626   1.537   1.980  12.363  1.0956  0.3479  0.5258
 1664SOL     OW16627   3.538   1.235  15.742 -0.1698  0.6283  0.9082
 1664SOL    HW116628   3.521   1.148  15.780 -1.9290  0.4423 -0.3015
 1664SOL    HW216629   3.617   1.257  15.792 -1.3137  2.5417  1.8554
 1665SOL     OW16630   0.720   2.674   7.597 -0.2982  0.1211 -0.3734
 1665SOL    HW116631   0.713   2.732   7.521 -0.1634 -0.6266 -0.9546
 1665SOL    HW216632   0.746   2.739   7.663 -0.4886  2.1338 -2.2562
 1666SOL     OW16633   1.889   0.942   3.946 -0.0206 -0.1057  0.1983
 1666SOL    HW116634   1.911   0.923   4.037 -1.7013 -1.4536  0.3240
 1666SOL    HW216635   1.887   0.852   3.914  0.4551  0.5042 -1.5675
 1667SOL     OW16636   1.627   1.345   8.959 -1.3746  0.3359  0.1737
 1667SOL    HW116637   1.675   1.425   8.979  0.5573 -1.1881  1.5580
 1667SOL    HW216638   1.697   1.298   8.914 -0.6559 -0.3705  2.0390
 1668SOL     OW16639   2.719   1.118   4.418 -0.2747 -0.1730 -0.6524
 1668SOL    HW116640   2.732   1.158   4.332  0.8836  0.9813  0.0571
 1668SOL    HW216641   2.802   1.075   4.437 -0.7879 -1.5320 -1.4935
 1669SOL     OW16642   1.488   1.355   1.563 -0.4032 -0.0289 -0.0110
 1669SOL    HW116643   1.565   1.349   1.507 -0.8369 -0.3763 -0.5766
 1669SOL    HW216644   1.458   1.445   1.565 -3.8230 -1.1634  0.3517
 1670SOL     OW16645   4.375   0.211   8.863  0.3499  0.0113 -0.0128
 1670SOL    HW116646   4.410   0.178   8.945  0.7795  1.4134  0.3756
 1670SOL    HW216647   4.365   0.139   8.800  0.2234 -0.4559  0.5467
 1671SOL     OW16648   1.356   2.691   8.248  0.4000  0.4239  0.7689
 1671SOL    HW116649   1.268   2.682   8.286  0.9068  1.8242  2.2570
 1671SOL    HW216650   1.337   2.657   8.160  1.4569 -1.8350  1.4276
 1672SOL     OW16651   2.435   3.997   4.875  0.2291  0.2344 -0.6582
 1672SOL    HW116652   2.497   3.948   4.821  1.4079  1.5957 -0.5322
 1672SOL    HW216653   2.489   4.009   4.952  2.6263 -2.5198 -1.8956
 1673SOL     OW16654   2.167   1.635   1.802  0.4899 -0.0018 -0.2964
 1673SOL    HW116655   2.209   1.711   1.762 -0.7681  0.7546 -0.1715
 1673SOL    HW216656   2.133   1.585   1.727 -1.9283  2.4843 -0.8561
 1674SOL     OW16657   2.375   1.280   3.135  0.0688  0.2204  0.4017
 1674SOL    HW116658   2.432   1.251   3.064 -2.0894 -1.5493 -0.6028
 1674SOL    HW216659   2.453   1.299   3.188  0.3704  0.8306 -0.2589
 1675SOL     OW16660   3.991   0.461   3.612  0.4637 -0.7213  0.3103
 1675SOL    HW116661   4.013   0.410   3.691  0.8539  1.7731  1.8083
 1675SOL    HW216662   4.065   0.450   3.553  1.1326  1.7756  0.7023
 1676SOL     OW16663   2.209   4.555   6.486  0.2185  0.3652 -0.1566
 1676SOL    HW116664   2.172   4.641   6.500  1.3612  0.8228  0.0752
 1676SOL    HW216665   2.174   4.499   6.555 -0.2565  1.7674  0.7163
 1677SOL     OW16666   2.571   0.837   9.003  0.4254 -0.1403  1.0638
 1677SOL    HW116667   2.617   0.847   8.920 -0.6676  0.5650  0.5363
 1677SOL    HW216668   2.604   0.758   9.047  1.2699  0.4575  1.5000
 1678SOL     OW16669   2.663   1.997  16.184 -0.2287  0.2408 -0.6627
 1678SOL    HW116670   2.612   1.951  16.251  0.7245  1.1225  0.6621
 1678SOL    HW216671   2.602   2.070  16.173 -0.9924 -0.3779 -0.5434
 1679SOL     OW16672   1.593   3.647   4.008 -0.1977 -0.3873 -0.1805
 1679SOL    HW116673   1.664   3.646   4.072 -1.9010 -0.5115  1.7046
 1679SOL    HW216674   1.520   3.630   4.068 -0.4964 -2.9263 -1.2652
 1680SOL     OW16675   4.156   3.567   5.163  0.1590 -0.6581 -0.3226
 1680SOL    HW116676   4.160   3.647   5.110  0.1547  1.1438  2.3973
 1680SOL    HW216677   4.079   3.525   5.125  0.1740 -2.1331  1.2579
 1681SOL     OW16678   2.421   1.441   9.497 -0.1304 -0.2368  0.0236
 1681SOL    HW116679   2.454   1.508   9.437  0.2248 -0.2496  0.2048
 1681SOL    HW216680   2.500   1.422   9.548 -0.7342 -0.8976  0.7085
 1682SOL     OW16681   2.450   3.021  13.032  0.0778 -0.8123  0.5015
 1682SOL    HW116682   2.394   3.026  13.109  0.5482 -0.0398  0.7945
 1682SOL    HW216683   2.405   3.071  12.964  0.1027  1.4788  2.1710
 1683SOL     OW16684   4.315   3.889  15.629  0.5744  0.1830 -1.2933
 1683SOL    HW116685   4.371   3.873  15.704 -0.5362  0.6781 -0.3638
 1683SOL    HW216686   4.254   3.815  15.633  1.4151 -0.4456 -0.3037
 1684SOL     OW16687   1.347   0.445   5.200 -0.6476  0.7448 -0.1240
 1684SOL    HW116688   1.411   0.379   5.174 -1.2926  0.3475 -0.7171
 1684SOL    HW216689   1.276   0.427   5.138  0.6866 -0.9382 -1.1637
 1685SOL     OW16690   3.673   2.029   1.549 -0.1479 -0.3298 -0.1807
 1685SOL    HW116691   3.724   2.057   1.473 -1.3321 -0.8692 -1.1813
 1685SOL    HW216692   3.604   1.983   1.502 -1.2862  0.9124  0.2480
 1686SOL     OW16693   1.370   0.758   9.377 -0.1660  0.3513  0.2446
 1686SOL    HW116694   1.343   0.832   9.323 -0.7551 -0.7320 -0.9384
 1686SOL    HW216695   1.462   0.776   9.395  0.1792  0.3972 -1.5707
 1687SOL     OW16696   3.180   3.205   6.908 -0.2433 -0.1975  0.2130
 1687SOL    HW116697   3.222   3.142   6.849  0.2441  0.0062  0.3441
 1687SOL    HW216698   3.098   3.156   6.923 -0.3974  0.0354  0.1360
 1688SOL     OW16699   4.266   3.017   0.794  0.1510 -0.3747  0.1101
 1688SOL    HW116700   4.258   3.100   0.747 -0.2680  0.8109  2.2523
 1688SOL    HW216701   4.221   3.049   0.873 -1.1202 -0.6806 -0.4807
 1689SOL     OW16702   3.595   1.123   3.159 -0.0246  0.4053 -0.2197
 1689SOL    HW116703   3.648   1.068   3.101 -0.4605  0.3455 -0.5599
 1689SOL    HW216704   3.508   1.085   3.150 -0.4814  1.3805  0.1469
 1690SOL     OW16705   3.516   1.882   6.861 -0.2313  0.3013 -0.5892
 1690SOL    HW116706   3.455   1.929   6.804 -1.2610  0.0433  0.2964
 1690SOL    HW216707   3.594   1.935   6.849  1.0971 -1.8662 -1.4625
 1691SOL     OW16708   3.658   3.176   8.385  0.3082 -0.0724 -0.6229
 1691SOL    HW116709   3.611   3.252   8.418 -0.2624  0.2808 -2.2327
 1691SOL    HW216710   3.726   3.160   8.450 -0.1319 -1.7243 -0.5620
 1692SOL     OW16711   3.434   2.845   1.836 -0.1511 -0.2249 -0.3148
 1692SOL    HW116712   3.451   2.795   1.917 -1.3431  0.8549  0.5952
 1692SOL    HW216713   3.473   2.794   1.765  2.0047  1.5860 -0.4171
 1693SOL     OW16714   0.565   1.678   0.257 -0.2061 -0.0105 -0.1165
 1693SOL    HW116715   0.622   1.741   0.213  0.9846 -0.6544  0.5161
 1693SOL    HW216716   0.592   1.691   0.348  1.8156 -1.1517 -0.5534
 1694SOL     OW16717   2.851   4.183   3.086  0.6724 -0.1831  0.1065
 1694SOL    HW116718   2.838   4.226   3.002  1.5284 -3.2208 -1.5984
 1694SOL    HW216719   2.876   4.094   3.061  3.2737  0.1884  1.4160
 1695SOL     OW16720   0.262   4.219  12.330  0.6156  0.1344  1.2069
 1695SOL    HW116721   0.336   4.218  12.391  2.5384  0.0288 -1.1097
 1695SOL    HW216722   0.207   4.282  12.376  0.8494  1.1773  0.0597
 1696SOL     OW16723   4.559   1.997  17.298 -0.0874  0.0639 -0.5142
 1696SOL    HW116724   4.477   1.996  17.249 -1.4241  0.6147  1.6770
 1696SOL    HW216725   4.601   2.065  17.245  2.0679 -1.0035 -0.1978
 1697SOL     OW16726   1.768   1.187  11.946 -0.0734 -0.3703  0.1399
 1697SOL    HW116727   1.690   1.207  11.997 -1.0199 -0.7011 -1.1803
 1697SOL    HW216728   1.842   1.201  12.004 -1.3547 -0.4062  1.7889
 1698SOL     OW16729   2.762   1.220   4.187 -1.2287  0.5246 -0.2812
 1698SOL    HW116730   2.670   1.237   4.168 -1.4025 -0.5694 -0.4250
 1698SOL    HW216731   2.797   1.221   4.098 -0.3939 -2.6576  0.0249
 1699SOL     OW16732   3.032   2.698   5.647  0.0367 -0.0530  0.1983
 1699SOL    HW116733   3.018   2.777   5.698  0.6139  1.0210 -1.3185
 1699SOL    HW216734   2.949   2.683   5.601  1.2742  2.0911 -2.7421
 1700SOL     OW16735   3.565   0.476   4.540  0.2315 -0.4006  0.3812
 1700SOL    HW116736   3.497   0.416   4.510 -0.5073  0.0514  1.1737
 1700SOL    HW216737   3.599   0.498   4.453 -0.4775  0.0736  0.2226
 1701SOL     OW16738   3.311   4.691   1.248 -0.2492  1.1519 -0.0345
 1701SOL    HW116739   3.351   0.005   1.178  2.6641  0.3844  1.0582
 1701SOL    HW216740   3.252   4.645   1.188  1.2995 -2.2014  1.0105
 1702SOL     OW16741   3.115   1.888   5.186 -0.1898  0.1425  0.5124
 1702SOL    HW116742   3.035   1.868   5.137 -0.7857 -1.2934  2.0571
 1702SOL    HW216743   3.133   1.970   5.141 -0.8384 -0.4782 -0.8648
 1703SOL     OW16744   1.718   0.239   5.385 -0.6696  0.1339 -0.0150
 1703SOL    HW116745   1.649   0.293   5.424  0.5190  1.9317 -0.4123
 1703SOL    HW216746   1.688   0.159   5.429  4.6665 -2.1627 -0.5352
 1704SOL     OW16747   0.630   1.043   5.638  0.0725 -0.2840  0.1885
 1704SOL    HW116748   0.643   1.095   5.559 -1.5152 -2.7572 -1.6996
 1704SOL    HW216749   0.718   1.007   5.648  0.9062  1.7071  0.0025
 1705SOL     OW16750   2.708   2.772   6.143  0.3298  0.1644 -0.5921
 1705SOL    HW116751   2.754   2.692   6.120 -0.2310 -0.4754  0.4861
 1705SOL    HW216752   2.758   2.801   6.220 -0.8739 -1.0023  0.6385
 1706SOL     OW16753   3.322   2.634   7.621  0.0429 -0.2038 -0.4689
 1706SOL    HW116754   3.293   2.557   7.669  2.1188 -0.8186 -0.2166
 1706SOL    HW216755   3.274   2.629   7.538 -0.4303 -1.0279 -0.1448
 1707SOL     OW16756   4.507   2.613  17.673  0.4270  0.6281 -0.7098
 1707SOL    HW116757   4.489   2.553  17.601  0.1501  0.0641 -0.1736
 1707SOL    HW216758   4.498   2.696  17.625  3.1446  1.3740  0.0589
 1708SOL     OW16759   0.503   2.278   6.227  0.0117  0.4971 -0.2416
 1708SOL    HW116760   0.511   2.367   6.262 -0.2625  0.7356 -0.7774
 1708SOL    HW216761   0.592   2.247   6.240 -0.7178 -0.1290  3.1816
 1709SOL     OW16762   0.778   0.163   6.064 -0.0032 -0.3512 -0.5262
 1709SOL    HW116763   0.815   0.240   6.021  3.2712 -2.0110 -0.6844
 1709SOL    HW216764   0.856   0.108   6.069  0.2769  0.2393  1.5751
 1710SOL     OW16765   0.022   4.677  15.668 -0.7766 -0.6356 -0.5916
 1710SOL    HW116766   0.052   4.720  15.588  0.2318  0.0504  0.1372
 1710SOL    HW216767   4.688   4.733  15.699  0.0497  0.6702 -1.0460
 1711SOL     OW16768   3.874   1.882   3.845  0.6555  0.3082  0.0193
 1711SOL    HW116769   3.831   1.967   3.852  1.5442  0.7745 -0.1073
 1711SOL    HW216770   3.947   1.913   3.791  1.2316  0.5642  0.9304
 1712SOL     OW16771   3.603   3.980   2.931 -0.6867 -0.2209 -0.1153
 1712SOL    HW116772   3.533   3.964   2.868  1.9845 -0.7738 -2.9320
 1712SOL    HW216773   3.551   3.960   3.009  0.3815  0.3249  0.7355
 1713SOL     OW16774   1.927   4.380  11.497 -0.8469 -0.1816  0.0447
 1713SOL    HW116775   2.013   4.360  11.533 -0.1415  2.4411 -0.1873
 1713SOL    HW216776   1.942   4.364  11.404 -2.4621 -0.3399 -0.1979
 1714SOL     OW16777   4.065   3.919  10.182 -0.3434 -0.3983 -0.0607
 1714SOL    HW116778   3.986   3.865  10.187  0.6725 -1.8786 -0.0399
 1714SOL    HW216779   4.080   3.954  10.269 -2.9728 -0.8898  0.5975
 1715SOL     OW16780   0.921   2.914  17.053  0.1749 -0.0183 -0.3385
 1715SOL    HW116781   1.011   2.943  17.071  0.7592 -2.1323  0.1680
 1715SOL    HW216782   0.910   2.956  16.968  0.5235 -0.4081 -0.5752
 1716SOL     OW16783   3.281   3.230   8.678 -0.3862  0.1655  0.1812
 1716SOL    HW116784   3.187   3.245   8.670  0.1900  2.4005 -2.4039
 1716SOL    HW216785   3.288   3.168   8.751 -0.6309 -1.3418 -1.0716
 1717SOL     OW16786   1.268   3.398  17.373  0.0537  0.1912  0.2516
 1717SOL    HW116787   1.329   3.353  17.432  1.0847  1.5857  0.2526
 1717SOL    HW216788   1.252   3.474  17.428 -0.5901  0.6585 -0.5911
 1718SOL     OW16789   1.903   1.188  15.687  0.3818  0.6524  0.4670
 1718SOL    HW116790   1.949   1.190  15.603  0.9743  0.7881  0.7912
 1718SOL    HW216791   1.901   1.092  15.696  3.5985  0.4504 -0.7635
 1719SOL     OW16792   3.303   3.595   8.953  0.0985  0.5537  0.2563
 1719SOL    HW116793   3.325   3.512   8.996  0.7451  0.7440  0.2989
 1719SOL    HW216794   3.232   3.610   9.016  0.6577  2.1189  0.5059
 1720SOL     OW16795   4.664   4.325   2.311  0.7406 -0.5957 -0.2502
 1720SOL    HW116796   4.593   4.331   2.246  1.7111 -2.8780 -1.5179
 1720SOL    HW216797   4.731   4.335   2.243  0.5246  0.1869 -0.3560
 1721SOL     OW16798   0.865   2.567   2.490 -0.5102 -0.6111  0.1126
 1721SOL    HW116799   0.873   2.494   2.552  0.3602 -1.3949 -0.9229
 1721SOL    HW216800   0.834   2.524   2.410  1.0868  0.7863 -1.2542
 1722SOL     OW16801   2.014   3.206   5.485  0.3371  0.4070  0.1303
 1722SOL    HW116802   2.066   3.262   5.427  1.1262  1.1967  1.6163
 1722SOL    HW216803   2.047   3.123   5.451  1.4073  1.4033 -1.2851
 1723SOL     OW16804   0.877   1.609   2.632 -0.4402  0.3607 -0.5888
 1723SOL    HW116805   0.967   1.630   2.608 -0.3291 -1.7994 -2.0779
 1723SOL    HW216806   0.866   1.562   2.550  0.6551 -2.0334  0.6333
 1724SOL     OW16807   0.034   4.597   6.550  0.5508  0.2248  0.0921
 1724SOL    HW116808   0.103   4.653   6.585  0.9366 -1.2194  1.6010
 1724SOL    HW216809   0.000   4.648   6.476  1.8899 -1.0464 -1.3853
 1725SOL     OW16810   0.390   4.290   3.916  0.2898 -0.3604 -0.0551
 1725SOL    HW116811   0.452   4.222   3.943 -0.8238 -2.0672 -1.7345
 1725SOL    HW216812   0.363   4.338   3.994  0.7472 -0.4015  0.1265
 1726SOL     OW16813   0.416   3.180   7.293  0.0058  0.2707 -0.3034
 1726SOL    HW116814   0.383   3.136   7.372 -0.2362 -1.7027 -1.5179
 1726SOL    HW216815   0.487   3.231   7.333  0.3160 -1.2308  1.0427
 1727SOL     OW16816   0.671   1.514   5.636  0.0433 -0.4231 -0.4822
 1727SOL    HW116817   0.669   1.442   5.573  1.5337 -0.6563 -0.2471
 1727SOL    HW216818   0.591   1.567   5.630  1.3420  1.7931  1.6403
 1728SOL     OW16819   4.229   3.023   4.500  0.0205 -0.3033  0.1462
 1728SOL    HW116820   4.196   3.098   4.450 -1.6671 -0.2169  1.4060
 1728SOL    HW216821   4.267   2.983   4.421  1.0052  2.6458 -0.9033
 1729SOL     OW16822   0.419   2.245   7.801  0.3373 -0.3371 -0.3408
 1729SOL    HW116823   0.339   2.296   7.786 -0.8440 -3.5164 -4.9619
 1729SOL    HW216824   0.382   2.174   7.853  2.1798 -1.0636 -0.0292
 1730SOL     OW16825   0.260   4.703   4.359  0.1150 -0.3051 -0.0870
 1730SOL    HW116826   0.295   0.036   4.305  1.5823 -1.7590 -1.0220
 1730SOL    HW216827   0.214   0.013   4.428  0.2821 -1.0997  0.5776
 1731SOL     OW16828   0.713   1.050  15.185  0.6992 -0.1409 -0.0921
 1731SOL    HW116829   0.660   0.980  15.146  0.9881 -0.2605 -0.2689
 1731SOL    HW216830   0.755   1.078  15.103 -0.5322 -0.2051 -0.7477
 1732SOL     OW16831   2.575   0.638   1.471 -0.6425  0.2151  0.0214
 1732SOL    HW116832   2.488   0.598   1.482 -1.1823  1.6475  0.8682
 1732SOL    HW216833   2.556   0.730   1.487 -0.5347  0.3569 -0.6590
 1733SOL     OW16834   2.643   0.779   5.797  0.4267  0.1071  0.6674
 1733SOL    HW116835   2.585   0.728   5.740  0.9594 -1.7803  1.8376
 1733SOL    HW216836   2.575   0.811   5.857 -0.2421  0.4622 -0.2651
 1734SOL     OW16837   1.657   0.386   3.730 -0.4598 -0.1031  0.0214
 1734SOL    HW116838   1.620   0.457   3.677  1.6404  1.8650  1.1745
 1734SOL    HW216839   1.746   0.413   3.704 -0.1266 -2.5625 -1.4063
 1735SOL     OW16840   0.124   2.819   8.234 -0.1114 -0.4340 -0.3545
 1735SOL    HW116841   0.041   2.860   8.208  1.4423  0.3172 -4.2127
 1735SOL    HW216842   0.177   2.876   8.177 -1.2613  0.8061 -0.1972
 1736SOL     OW16843   0.286   1.912  13.522  0.7720 -0.2044  0.3392
 1736SOL    HW116844   0.197   1.902  13.487  0.4711  1.5650  0.5670
 1736SOL    HW216845   0.277   1.993  13.573 -0.6741 -0.6906  0.8773
 1737SOL     OW16846   3.034   0.283   4.887 -0.0957  0.3223 -0.2507
 1737SOL    HW116847   3.084   0.343   4.831 -0.7915  0.9461 -0.2102
 1737SOL    HW216848   2.948   0.322   4.870 -0.4318 -0.8951 -1.3415
 1738SOL     OW16849   3.103   2.147  11.220  0.3437  1.0471  0.0313
 1738SOL    HW116850   3.084   2.146  11.126  2.4587 -0.4755 -0.3951
 1738SOL    HW216851   3.047   2.220  11.246 -0.4934  0.4669 -0.1698
 1739SOL     OW16852   0.631   0.389   2.512 -0.3156  0.1336 -0.1475
 1739SOL    HW116853   0.603   0.442   2.437  1.4100  0.1152 -0.7909
 1739SOL    HW216854   0.726   0.376   2.515 -0.1978  1.0078 -0.0870
 1740SOL     OW16855   3.636   2.018   9.718  0.3634 -0.1017  0.5937
 1740SOL    HW116856   3.562   2.065   9.757 -1.3218 -1.2386 -1.2438
 1740SOL    HW216857   3.694   2.084   9.679  0.2017 -0.5542 -0.4093
 1741SOL     OW16858   2.311   2.689  12.750 -0.0009  0.1081  0.2885
 1741SOL    HW116859   2.260   2.685  12.831  0.2615  0.8192  0.4843
 1741SOL    HW216860   2.328   2.598  12.724  0.7216  1.1802 -3.0640
 1742SOL     OW16861   2.127   2.306   0.138 -0.0449  0.3805  0.0675
 1742SOL    HW116862   2.182   2.381   0.115 -0.6112  1.3704  1.9090
 1742SOL    HW216863   2.148   2.304   0.231 -1.6412  1.6202  0.4422
 1743SOL     OW16864   2.137   4.266   2.835 -0.1123  0.6051  0.3062
 1743SOL    HW116865   2.180   4.195   2.788  1.2972 -0.7447  3.6578
 1743SOL    HW216866   2.176   4.336   2.783  0.5763  0.4039  0.5484
 1744SOL     OW16867   0.723   3.234   9.332  0.1694 -0.3480 -0.5739
 1744SOL    HW116868   0.745   3.148   9.295  2.1495  0.2599 -0.7810
 1744SOL    HW216869   0.711   3.279   9.248 -2.0759  0.7621  0.3370
 1745SOL     OW16870   0.100   2.927   5.329  0.0024 -0.0389 -0.1958
 1745SOL    HW116871   0.190   2.955   5.343  0.0110 -0.6627  1.0333
 1745SOL    HW216872   0.084   2.974   5.248 -1.6285 -0.3921 -0.0952
 1746SOL     OW16873   0.418   3.223  13.695 -0.0680  0.1918  0.2112
 1746SOL    HW116874   0.399   3.239  13.603 -0.3438 -0.3782  0.1652
 1746SOL    HW216875   0.348   3.163  13.723 -0.8418  0.2303 -1.5915
 1747SOL     OW16876   0.494   2.487   6.449  0.1732 -1.0388 -0.2555
 1747SOL    HW116877   0.400   2.475   6.439 -0.0145  2.2854 -2.6246
 1747SOL    HW216878   0.496   2.578   6.479  1.9244 -1.6673  1.5374
 1748SOL     OW16879   1.662   0.438   7.682  0.1410  0.3304 -0.5977
 1748SOL    HW116880   1.660   0.511   7.744 -0.7433 -1.7582  1.8740
 1748SOL    HW216881   1.577   0.400   7.704  0.8475 -0.3547  0.9702
 1749SOL     OW16882   0.043   3.102   7.552 -0.1876 -0.8508  0.1618
 1749SOL    HW116883   0.058   3.167   7.483 -2.1580 -0.9413 -0.3454
 1749SOL    HW216884   0.036   3.029   7.491 -2.0851  0.2955 -0.9985
 1750SOL     OW16885   0.170   3.985   0.598 -0.1223  0.1449  0.3742
 1750SOL    HW116886   0.255   3.944   0.582 -0.0105  0.4325  0.2351
 1750SOL    HW216887   0.107   3.917   0.619 -0.8605  0.2316 -1.5822
 1751SOL     OW16888   3.532   4.498   2.407 -0.8329  0.2587  0.6863
 1751SOL    HW116889   3.464   4.506   2.340 -2.2860  0.1696  2.1444
 1751SOL    HW216890   3.596   4.432   2.381 -1.4815  1.0100 -2.7187
 1752SOL     OW16891   1.790   3.065   5.026 -0.0602 -0.0275  0.1596
 1752SOL    HW116892   1.819   3.153   5.051  1.3365  0.2294 -2.3937
 1752SOL    HW216893   1.822   3.067   4.936  0.8454  0.1228  0.4833
 1753SOL     OW16894   4.595   1.954  11.131 -0.3071 -0.0772  0.0470
 1753SOL    HW116895   4.654   1.934  11.204  0.3170 -1.7519 -0.9055
 1753SOL    HW216896   4.582   2.048  11.144  3.0789  0.8182 -2.7055
 1754SOL     OW16897   2.934   4.485   3.556 -0.2997 -0.0598 -0.1116
 1754SOL    HW116898   2.999   4.501   3.488 -2.3828  0.9649 -1.8345
 1754SOL    HW216899   2.948   4.391   3.573 -0.7520  0.0125  0.6847
 1755SOL     OW16900   1.222   0.152   4.156  0.4188 -0.6793  0.0483
 1755SOL    HW116901   1.310   0.170   4.187 -0.3195  0.5345  1.4901
 1755SOL    HW216902   1.198   0.241   4.129 -2.1148 -0.6884  2.1842
 1756SOL     OW16903   0.386   1.296   3.757  0.6409  0.4277  0.1418
 1756SOL    HW116904   0.477   1.290   3.728  0.5760  3.5335 -0.7308
 1756SOL    HW216905   0.391   1.370   3.818 -2.3514 -0.8518  1.9372
 1757SOL     OW16906   4.197   3.506   8.661 -0.2187 -0.0462  0.1213
 1757SOL    HW116907   4.255   3.468   8.595 -0.0685  0.5603 -0.0962
 1757SOL    HW216908   4.224   3.459   8.740 -0.6704 -0.5456 -0.0177
 1758SOL     OW16909   4.348   3.940   1.798  0.3407  0.0063  0.5668
 1758SOL    HW116910   4.389   3.941   1.712  1.8157 -2.4416  1.2455
 1758SOL    HW216911   4.383   3.856   1.827  2.8215  0.7303 -0.3420
 1759SOL     OW16912   3.410   0.771  12.011 -0.0616 -0.8378 -0.1068
 1759SOL    HW116913   3.489   0.764  11.956 -0.4980  0.9067 -0.9729
 1759SOL    HW216914   3.397   0.679  12.034 -2.5311 -0.3940  0.2723
 1760SOL     OW16915   2.167   0.494   3.503 -0.1378 -0.1491  0.3610
 1760SOL    HW116916   2.156   0.431   3.432 -1.9587  0.2508  0.3157
 1760SOL    HW216917   2.254   0.464   3.531  0.6444  1.2420 -0.5918
 1761SOL     OW16918   3.243   4.057   3.808 -0.3379 -0.0047  0.2711
 1761SOL    HW116919   3.250   4.144   3.845 -0.1608 -0.5408  1.4806
 1761SOL    HW216920   3.289   3.992   3.862  0.1248  0.5880  0.5818
 1762SOL     OW16921   3.567   0.101   8.244 -0.2855 -0.0934  0.4481
 1762SOL    HW116922   3.658   0.129   8.236  0.1579 -1.2345  1.3385
 1762SOL    HW216923   3.539   0.135   8.329 -3.2479 -0.4930 -0.3914
 1763SOL     OW16924   3.136   4.264  13.723 -0.1177  0.9811 -0.2392
 1763SOL    HW116925   3.095   4.263  13.810 -3.7816  0.0020 -1.9683
 1763SOL    HW216926   3.225   4.292  13.744  0.0444 -0.0145  0.4214
 1764SOL     OW16927   4.616   2.227   7.321 -0.3205  0.1400  0.3436
 1764SOL    HW116928   4.697   2.260   7.282  0.3453 -0.1085  1.5012
 1764SOL    HW216929   4.629   2.133   7.325  1.0809  0.4032  1.9122
 1765SOL     OW16930   4.590   3.057   7.806 -0.5464 -0.4869  0.9882
 1765SOL    HW116931   4.684   3.063   7.824 -0.7083  2.5331  0.7934
 1765SOL    HW216932   4.559   3.121   7.870  2.6351 -0.1402  2.1986
 1766SOL     OW16933   3.176   2.411   2.089 -0.1956 -0.1689  0.3291
 1766SOL    HW116934   3.090   2.451   2.108 -0.0728 -0.7145  2.0648
 1766SOL    HW216935   3.190   2.451   2.003  0.7551  0.1549  0.6375
 1767SOL     OW16936   0.598   1.717   4.005 -0.1119  0.6108 -0.5037
 1767SOL    HW116937   0.560   1.711   3.917  1.3206 -0.8995 -1.0148
 1767SOL    HW216938   0.559   1.793   4.049 -0.6262  0.3427 -0.4935
 1768SOL     OW16939   4.129   2.152  15.294 -0.4139  0.3669 -0.0393
 1768SOL    HW116940   4.168   2.229  15.254  1.0108 -1.7380 -2.6990
 1768SOL    HW216941   4.105   2.102  15.216 -1.4818 -0.8265  1.0421
 1769SOL     OW16942   4.527   3.909   9.655  0.0821  0.3254  0.2496
 1769SOL    HW116943   4.517   3.829   9.706 -0.3805 -0.4392 -1.0479
 1769SOL    HW216944   4.450   3.959   9.682 -0.6239 -0.1170 -0.9578
 1770SOL     OW16945   0.566   0.181  12.500  0.1596  0.3350 -0.3878
 1770SOL    HW116946   0.521   0.098  12.487  0.4151  0.3114 -1.1380
 1770SOL    HW216947   0.660   0.161  12.493  0.6690  2.6954 -0.2844
 1771SOL     OW16948   1.369   3.827   5.649 -0.1758  0.4679 -0.0941
 1771SOL    HW116949   1.427   3.878   5.704 -0.9858 -0.3751  1.5230
 1771SOL    HW216950   1.291   3.829   5.704 -0.6620  2.2595 -0.8256
 1772SOL     OW16951   3.651   2.881   5.477  0.2173 -0.1835  0.2265
 1772SOL    HW116952   3.738   2.899   5.513 -1.4422  1.3857  3.4150
 1772SOL    HW216953   3.664   2.815   5.408 -0.8086  2.7757 -2.7832
 1773SOL     OW16954   0.723   3.450   5.778 -0.0361 -0.5386  0.2202
 1773SOL    HW116955   0.781   3.389   5.733 -1.1917 -1.4913  0.0382
 1773SOL    HW216956   0.740   3.431   5.871  0.5579 -0.0039  0.2190
 1774SOL     OW16957   3.851   0.746   5.043  0.1064  0.0198  0.2577
 1774SOL    HW116958   3.761   0.739   5.011  0.4949  2.0804 -1.3115
 1774SOL    HW216959   3.861   0.675   5.106  0.7286  0.4833  0.6778
 1775SOL     OW16960   1.647   4.281   4.616  0.0477 -0.6290  0.1995
 1775SOL    HW116961   1.678   4.291   4.706  1.3867 -0.6030 -0.2667
 1775SOL    HW216962   1.685   4.359   4.576 -1.2067 -0.4068 -0.5516
 1776SOL     OW16963   0.904   3.777  16.681 -0.1207  0.5988  0.9651
 1776SOL    HW116964   0.919   3.850  16.621  0.3788 -0.3599 -0.0734
 1776SOL    HW216965   0.900   3.709  16.613  1.2322  1.7505 -0.2566
 1777SOL     OW16966   4.265   2.578   7.636  0.1566  0.0786  0.5630
 1777SOL    HW116967   4.277   2.666   7.671 -0.8861  0.4710 -0.0871
 1777SOL    HW216968   4.315   2.586   7.555 -1.4308 -2.3921 -0.6258
 1778SOL     OW16969   3.606   1.612   9.134  0.0387  0.3688 -0.0108
 1778SOL    HW116970   3.645   1.575   9.055 -0.0082  0.8876 -0.2804
 1778SOL    HW216971   3.596   1.529   9.180  1.0936 -0.7384 -1.8163
 1779SOL     OW16972   2.881   1.636  14.032  0.0760 -0.7731  0.1280
 1779SOL    HW116973   2.922   1.720  14.015 -1.9124 -0.0930 -1.4081
 1779SOL    HW216974   2.788   1.658  14.038  0.6287  0.8323  2.8288
 1780SOL     OW16975   4.177   0.382   8.760 -0.6420 -0.2437  0.6984
 1780SOL    HW116976   4.252   0.329   8.787 -1.4089 -1.6524  0.0547
 1780SOL    HW216977   4.184   0.353   8.669 -1.8678  0.2812  0.4436
 1781SOL     OW16978   1.655   3.357  12.345 -0.4742  0.2675 -0.6354
 1781SOL    HW116979   1.581   3.339  12.286 -0.6056 -0.9578 -0.0938
 1781SOL    HW216980   1.658   3.283  12.406 -0.9824 -0.0018 -0.9343
 1782SOL     OW16981   1.749   2.709   5.106 -0.6970  0.0946  0.7242
 1782SOL    HW116982   1.747   2.615   5.122 -0.1959 -0.2292 -1.1037
 1782SOL    HW216983   1.730   2.720   5.013 -0.8547  0.8176  0.8422
 1783SOL     OW16984   1.683   0.561   4.681 -0.1904 -0.1499 -0.1795
 1783SOL    HW116985   1.651   0.650   4.696 -2.5041 -0.9691 -0.3083
 1783SOL    HW216986   1.604   0.514   4.706 -1.3238  2.0536  0.3998
 1784SOL     OW16987   4.409   3.250   3.302 -0.5262  0.3626 -0.1281
 1784SOL    HW116988   4.370   3.335   3.321  1.2936  1.0765  0.4039
 1784SOL    HW216989   4.375   3.228   3.215 -0.0545  0.2708 -0.2845
 1785SOL     OW16990   1.094   4.160   2.561 -0.5924  0.1642 -0.4966
 1785SOL    HW116991   1.072   4.234   2.505  0.6864 -0.5457 -1.9502
 1785SOL    HW216992   1.188   4.178   2.565 -0.6619  0.3582  0.2373
 1786SOL     OW16993   0.124   2.294  14.802  1.3847  0.0635 -0.0924
 1786SOL    HW116994   0.154   2.258  14.885 -1.1705 -0.1305  0.7510
 1786SOL    HW216995   0.033   2.264  14.807  0.8507  1.4524 -1.3109
 1787SOL     OW16996   4.079   3.661  12.989  0.2422 -0.4841 -0.1203
 1787SOL    HW116997   4.152   3.652  13.049 -1.0208 -0.6017  1.3950
 1787SOL    HW216998   4.004   3.658  13.049 -0.4081 -1.4369 -0.9523
 1788SOL     OW16999   3.775   0.596   6.168  0.1400 -0.3604 -0.0618
 1788SOL    HW117000   3.777   0.577   6.261  2.1488 -0.9021 -0.2151
 1788SOL    HW217001   3.788   0.691   6.162 -1.8883 -0.0527  0.6899
 1789SOL     OW17002   1.644   4.248   1.859 -0.2281  0.2328 -0.3026
 1789SOL    HW117003   1.676   4.283   1.942 -2.2156  0.1051  0.5035
 1789SOL    HW217004   1.553   4.279   1.858  0.4798  2.2721 -2.7752
 1790SOL     OW17005   1.267   1.767   5.123  0.3629  0.5385 -0.3263
 1790SOL    HW117006   1.302   1.680   5.105  2.3180  0.6476  2.9132
 1790SOL    HW217007   1.336   1.819   5.082 -0.1836  1.8007  0.3515
 1791SOL     OW17008   2.720   2.053  16.514 -0.4513 -0.0384  0.1891
 1791SOL    HW117009   2.657   2.021  16.450 -0.8093  2.4410 -0.6921
 1791SOL    HW217010   2.783   1.981  16.524 -0.6825 -0.4184 -1.2302
 1792SOL     OW17011   3.851   1.765   0.054  0.0944 -0.2884 -1.0073
 1792SOL    HW117012   3.884   1.808  17.724 -0.6812  1.8342 -0.1889
 1792SOL    HW217013   3.925   1.712   0.081  2.9351  3.1123 -2.0844
 1793SOL     OW17014   2.752   3.223   9.150  0.0750 -0.0639  0.0535
 1793SOL    HW117015   2.725   3.185   9.234  0.0864  0.0600  0.1127
 1793SOL    HW217016   2.675   3.275   9.127  1.0547  1.4016  0.1197
 1794SOL     OW17017   3.503   2.844  12.193  0.2779  0.2162  0.5436
 1794SOL    HW117018   3.589   2.841  12.234 -0.0464  0.9523  1.2600
 1794SOL    HW217019   3.522   2.893  12.112 -0.0522 -1.3238 -0.4735
 1795SOL     OW17020   3.667   1.098   5.233  0.0992 -0.1548 -0.3736
 1795SOL    HW117021   3.680   1.149   5.313  0.5936  1.6022 -1.5870
 1795SOL    HW217022   3.582   1.057   5.254 -0.5152  0.8190 -0.9841
 1796SOL     OW17023   3.477   0.540   2.254  0.2279 -0.1420 -0.7451
 1796SOL    HW117024   3.570   0.520   2.256  0.5274  1.5185  1.1712
 1796SOL    HW217025   3.447   0.499   2.335  1.0835  0.3831 -0.1736
 1797SOL     OW17026   3.628   2.051   6.271  0.3935 -0.4883 -0.4674
 1797SOL    HW117027   3.555   2.111   6.287 -1.4562 -2.8844  0.0157
 1797SOL    HW217028   3.585   1.966   6.270 -0.4879 -0.0523 -0.1048
 1798SOL     OW17029   4.156   3.920   8.533  0.1331  0.3761  0.3432
 1798SOL    HW117030   4.142   3.919   8.628  0.0701 -0.3202  0.3239
 1798SOL    HW217031   4.166   4.015   8.533 -0.1555  0.4169 -2.9680
 1799SOL     OW17032   2.767   4.496   0.349 -0.2894 -0.3391 -0.0893
 1799SOL    HW117033   2.717   4.430   0.301  0.3794 -0.3939 -0.7087
 1799SOL    HW217034   2.715   4.498   0.429  0.6667 -1.1960  0.5559
 1800SOL     OW17035   3.458   0.464   9.778 -0.3300 -0.0003 -0.2019
 1800SOL    HW117036   3.388   0.403   9.803  0.4235 -1.6593 -2.1258
 1800SOL    HW217037   3.408   0.542   9.753  0.7955  1.1548  1.2183
 1801SOL     OW17038   3.677   2.355   2.971 -0.1943 -0.5214  0.4516
 1801SOL    HW117039   3.582   2.357   2.981 -0.2837  1.3214 -0.9137
 1801SOL    HW217040   3.689   2.267   3.008 -1.8406 -1.1618 -0.5387
 1802SOL     OW17041   3.221   2.598   1.881 -0.0219 -0.4480 -0.1010
 1802SOL    HW117042   3.310   2.581   1.850 -0.1689  0.2677 -0.9087
 1802SOL    HW217043   3.233   2.659   1.954 -0.8768  0.4419 -0.7149
 1803SOL     OW17044   4.024   4.505  10.509  0.2881 -0.5288 -0.1428
 1803SOL    HW117045   3.993   4.537  10.424 -1.1315  0.0485  0.5814
 1803SOL    HW217046   3.949   4.511  10.568  1.8581  2.3474  1.5772
 1804SOL     OW17047   3.523   3.784  16.710 -0.3275 -0.0657  0.4214
 1804SOL    HW117048   3.430   3.786  16.690 -0.5118  1.1774  1.3797
 1804SOL    HW217049   3.551   3.700  16.674  0.0557  0.9258 -1.5673
 1805SOL     OW17050   1.515   0.441  14.973 -0.7371 -0.1709  0.2213
 1805SOL    HW117051   1.528   0.408  15.062  0.0945 -2.0870 -0.6117
 1805SOL    HW217052   1.598   0.488  14.967 -1.2767  0.8534  0.7755
 1806SOL     OW17053   1.742   2.510  16.963 -0.2696 -0.3618 -0.2084
 1806SOL    HW117054   1.794   2.435  16.991  0.3200 -0.2975 -1.1461
 1806SOL    HW217055   1.805   2.577  16.990 -1.7131  1.1634 -0.6011
 1807SOL     OW17056   1.289   1.442   2.472 -0.4657 -0.2488 -0.5692
 1807SOL    HW117057   1.227   1.375   2.501 -0.1110 -0.3213  0.0098
 1807SOL    HW217058   1.356   1.453   2.539 -0.5143  0.1009 -0.5772
 1808SOL     OW17059   4.086   0.386   9.433  0.2897  0.4072 -0.3073
 1808SOL    HW117060   4.085   0.461   9.491  0.8670 -1.5554  2.2317
 1808SOL    HW217061   4.177   0.373   9.407  0.5290 -1.7175  1.5883
 1809SOL     OW17062   0.322   0.479   3.663  0.1580 -0.8490  0.3598
 1809SOL    HW117063   0.257   0.550   3.662  0.3071 -0.7212 -1.6563
 1809SOL    HW217064   0.393   0.541   3.644  0.6200 -0.8359  2.1451
 1810SOL     OW17065   3.620   4.557   8.608 -0.0974 -0.6756 -0.4866
 1810SOL    HW117066   3.531   4.589   8.617 -0.1331 -1.3379  1.4924
 1810SOL    HW217067   3.673   4.636   8.598 -0.5538 -0.1112  1.7454
 1811SOL     OW17068   2.982   2.252   3.648  0.4490 -0.2751 -0.2414
 1811SOL    HW117069   2.967   2.171   3.598 -0.5906  0.8675 -1.8015
 1811SOL    HW217070   2.897   2.296   3.647  0.5280 -0.0982  0.7320
 1812SOL     OW17071   4.705   3.733   5.183 -0.0030  0.3558  0.1378
 1812SOL    HW117072   4.614   3.715   5.161 -0.1376  1.0269  0.1609
 1812SOL    HW217073   0.013   3.676   5.120 -0.2932  0.5436 -0.2462
 1813SOL     OW17074   0.197   2.434  17.472  0.4522 -0.1326 -0.3168
 1813SOL    HW117075   0.275   2.384  17.498  0.0417 -0.5288  0.1491
 1813SOL    HW217076   0.212   2.463  17.382 -0.5623  2.4767  0.3620
 1814SOL     OW17077   0.969   0.265   9.857 -0.6949 -0.0205 -0.3835
 1814SOL    HW117078   1.059   0.254   9.827 -0.1874  1.3472  0.6522
 1814SOL    HW217079   0.946   0.179   9.892 -1.0375 -0.7457 -2.4113
 1815SOL     OW17080   3.973   0.227   6.919 -0.0647  0.1542  0.1387
 1815SOL    HW117081   3.991   0.214   7.012 -0.7891 -1.1442  0.1042
 1815SOL    HW217082   3.982   0.140   6.879  0.5161 -0.2725  1.1886
 1816SOL     OW17083   1.282   1.364   5.992 -0.6206  0.3531  0.0136
 1816SOL    HW117084   1.335   1.352   6.071 -0.6745 -0.5083 -0.0817
 1816SOL    HW217085   1.204   1.392   6.040 -1.2355  0.2696 -0.9205
 1817SOL     OW17086   2.189   0.908   6.105  0.4668 -0.2930  0.5065
 1817SOL    HW117087   2.212   0.998   6.127  0.8099 -0.2774  0.0812
 1817SOL    HW217088   2.273   0.862   6.100  0.5459 -0.1162  0.2097
 1818SOL     OW17089   0.095   3.512   6.197  0.1241  0.1262  0.1558
 1818SOL    HW117090   0.039   3.589   6.192 -0.2415 -0.1756 -0.3868
 1818SOL    HW217091   0.091   3.491   6.290 -1.6765 -1.7435 -0.3279
 1819SOL     OW17092   2.996   2.265   6.619 -0.1192 -0.2158  0.8738
 1819SOL    HW117093   2.987   2.309   6.703  0.7499  0.1118  0.7979
 1819SOL    HW217094   3.069   2.206   6.637 -0.3800 -1.0055 -0.6811
 1820SOL     OW17095   3.778   1.242   8.972  0.5692  0.0097 -0.7543
 1820SOL    HW117096   3.694   1.215   9.010  2.0228  0.5570  2.8680
 1820SOL    HW217097   3.836   1.203   9.038 -1.0522 -3.8872 -1.5899
 1821SOL     OW17098   0.172   4.404   4.331 -0.1566  0.1227  0.2990
 1821SOL    HW117099   0.131   4.482   4.369  2.7150  0.8058  2.0266
 1821SOL    HW217100   0.147   4.341   4.398  0.7823 -1.1971 -0.5909
 1822SOL     OW17101   2.998   4.162  16.753  0.1804 -0.0566  0.0759
 1822SOL    HW117102   2.977   4.111  16.675 -2.6485  2.3059 -0.6962
 1822SOL    HW217103   2.969   4.248  16.723 -1.4769 -0.9820 -0.9933
 1823SOL     OW17104   0.884   0.381   4.663 -0.1811  0.3007 -0.6700
 1823SOL    HW117105   0.832   0.416   4.591  0.3059  0.0907 -1.1173
 1823SOL    HW217106   0.807   0.365   4.719  0.2128 -1.8649 -0.7288
 1824SOL     OW17107   2.047   1.217  17.105 -0.3371  0.3041  0.0893
 1824SOL    HW117108   2.076   1.298  17.146 -1.0463  0.2793  0.6370
 1824SOL    HW217109   2.083   1.238  17.019 -0.8127 -0.9355 -0.4088
 1825SOL     OW17110   1.403   4.070   7.797  0.0198 -0.3386 -0.1725
 1825SOL    HW117111   1.438   3.989   7.835  0.3085 -0.1300  0.0091
 1825SOL    HW217112   1.403   4.126   7.875  1.3098 -0.2244 -0.2535
 1826SOL     OW17113   0.903   3.975   8.356 -0.2721  0.3262  0.0605
 1826SOL    HW117114   0.842   3.938   8.420  0.1718 -2.2260 -0.9969
 1826SOL    HW217115   0.879   3.933   8.273  3.5693 -1.3317 -0.2302
 1827SOL     OW17116   1.019   4.186   7.610 -0.2918  0.2403  0.4871
 1827SOL    HW117117   1.102   4.187   7.658  0.6758  1.1483 -1.2171
 1827SOL    HW217118   1.040   4.193   7.517 -1.6366 -1.3884  0.0830
 1828SOL     OW17119   0.729   3.428   3.590  0.0965 -0.3788 -0.1183
 1828SOL    HW117120   0.785   3.413   3.514 -0.6417 -0.5997 -0.6265
 1828SOL    HW217121   0.674   3.502   3.564  0.3458  0.2324  1.0784
 1829SOL     OW17122   3.323   3.229  17.230 -0.0618  0.3447  0.2779
 1829SOL    HW117123   3.290   3.181  17.155 -0.8844  2.1250 -0.4893
 1829SOL    HW217124   3.400   3.271  17.190 -1.6067  2.5736 -0.3082
 1830SOL     OW17125   3.172   0.001   1.751 -0.0084 -0.1613 -0.9553
 1830SOL    HW117126   3.196   4.705   1.838  0.4457 -0.2304 -1.1105
 1830SOL    HW217127   3.262   0.006   1.719  1.2837 -0.6071  2.5548
 1831SOL     OW17128   4.059   4.112   3.543  0.1023 -0.2430  0.1308
 1831SOL    HW117129   4.154   4.100   3.547  0.2614  0.5719 -1.5441
 1831SOL    HW217130   4.043   4.080   3.632  0.4850 -0.6041  0.0685
 1832SOL     OW17131   1.964   1.740  12.188 -0.1698  0.1143  0.6415
 1832SOL    HW117132   1.945   1.771  12.277 -1.2779  1.0780  0.0629
 1832SOL    HW217133   2.016   1.663  12.209 -2.0694 -1.3363 -0.0579
 1833SOL     OW17134   0.895   3.116   3.713  0.2392  0.0946 -0.4187
 1833SOL    HW117135   0.853   3.121   3.627  1.0687 -0.2619 -0.8396
 1833SOL    HW217136   0.834   3.183   3.745  1.1852  0.6969  0.1352
 1834SOL     OW17137   2.027   1.014   5.252  0.5234 -0.2652 -0.2803
 1834SOL    HW117138   1.980   1.027   5.334 -1.5290 -2.9793 -1.0493
 1834SOL    HW217139   2.002   0.922   5.244 -0.2394 -0.1312  0.6500
 1835SOL     OW17140   0.572   3.110   8.524 -0.2496 -0.2267 -0.1818
 1835SOL    HW117141   0.653   3.059   8.529 -1.1565 -1.4817  1.6894
 1835SOL    HW217142   0.516   3.038   8.553 -0.1870  0.5345  1.8669
 1836SOL     OW17143   3.907   3.225   7.765 -0.1321 -0.5497 -0.6377
 1836SOL    HW117144   3.999   3.200   7.779 -0.5249 -0.3858  2.1806
 1836SOL    HW217145   3.915   3.300   7.706 -0.1687  2.7903  3.6120
 1837SOL     OW17146   3.993   4.565  14.790  0.4106  0.2507 -0.0595
 1837SOL    HW117147   4.006   4.616  14.710  0.7949  1.3098  0.6856
 1837SOL    HW217148   3.954   4.633  14.845  0.1874  0.8728 -0.9749
 1838SOL     OW17149   4.371   4.287   0.922  0.4306 -0.1087  0.5643
 1838SOL    HW117150   4.364   4.295   0.827 -0.8410 -0.4005  0.6313
 1838SOL    HW217151   4.281   4.263   0.946  0.0347 -0.4399 -1.2561
 1839SOL     OW17152   1.677   1.755   7.627 -0.5524 -0.0256  0.6037
 1839SOL    HW117153   1.729   1.794   7.556 -1.4827  0.0679 -0.0376
 1839SOL    HW217154   1.692   1.825   7.690 -2.3897  1.2225 -0.3271
 1840SOL     OW17155   2.995   4.126  11.097 -0.7044  0.8770 -0.2514
 1840SOL    HW117156   3.074   4.143  11.046 -0.8359 -1.0588 -1.1002
 1840SOL    HW217157   2.987   4.032  11.081  1.7802  0.7001 -0.4628
 1841SOL     OW17158   2.508   0.607   5.614 -0.1445  0.0660  0.2199
 1841SOL    HW117159   2.433   0.553   5.641  0.3485 -0.6428  0.1615
 1841SOL    HW217160   2.472   0.668   5.550 -1.2875 -1.1940 -0.3368
 1842SOL     OW17161   0.604   2.301   1.370  0.3397 -0.8519  0.0623
 1842SOL    HW117162   0.665   2.276   1.440  1.7333  3.1095  0.2849
 1842SOL    HW217163   0.654   2.276   1.293  0.0701  1.7641 -0.9730
 1843SOL     OW17164   1.535   2.277   0.548  0.3572 -0.0518  0.6526
 1843SOL    HW117165   1.557   2.365   0.518 -0.7532  0.5566  1.6490
 1843SOL    HW217166   1.500   2.234   0.469 -0.4908  0.4600  0.7510
 1844SOL     OW17167   4.207   4.060   7.245 -0.6169 -0.4450  0.2475
 1844SOL    HW117168   4.215   4.115   7.323  0.5719  0.3682 -0.4561
 1844SOL    HW217169   4.255   3.981   7.269 -2.6000 -0.8556  2.8602
 1845SOL     OW17170   1.382   0.679   6.234  1.1895 -0.1818 -0.1755
 1845SOL    HW117171   1.444   0.607   6.235  0.8901 -0.4343  0.5759
 1845SOL    HW217172   1.339   0.666   6.149  0.7796 -1.8829  0.2934
 1846SOL     OW17173   0.955   1.766   5.110 -0.2356 -0.5821 -0.1041
 1846SOL    HW117174   0.933   1.796   5.199  0.3049  0.4751 -0.3342
 1846SOL    HW217175   1.033   1.819   5.097 -0.3964  0.0621  1.5640
 1847SOL     OW17176   1.528   1.499   0.950  0.0239  0.2253  0.0556
 1847SOL    HW117177   1.511   1.428   0.888 -0.1196  1.1709 -0.9804
 1847SOL    HW217178   1.621   1.486   0.966 -0.1846  1.4758  2.3558
 1848SOL     OW17179   2.775   2.406   0.419  0.9632  0.4662 -0.8031
 1848SOL    HW117180   2.702   2.466   0.402 -0.3150 -1.2402 -1.3032
 1848SOL    HW217181   2.778   2.416   0.514  1.0082 -1.5654 -0.5823
 1849SOL     OW17182   4.280   3.331   0.047 -0.0733 -0.8457 -0.3379
 1849SOL    HW117183   4.218   3.262   0.023  0.2000 -0.5542 -1.8989
 1849SOL    HW217184   4.224   3.402   0.078  1.9949  0.4366  0.4753
 1850SOL     OW17185   2.965   0.705   3.063  0.3316 -0.5077  0.2686
 1850SOL    HW117186   3.022   0.652   3.119  1.9716 -0.3353 -1.2604
 1850SOL    HW217187   2.925   0.641   3.005 -0.6149  0.0995  0.2536
 1851SOL     OW17188   4.135   0.300   7.427 -0.2097 -0.3174  0.5166
 1851SOL    HW117189   4.216   0.251   7.410 -1.1250 -1.3524 -0.8961
 1851SOL    HW217190   4.125   0.295   7.522 -0.1232 -2.5776  0.4240
 1852SOL     OW17191   2.238   2.992   5.447 -0.4543 -0.1864 -0.0684
 1852SOL    HW117192   2.244   3.065   5.509 -0.1378 -1.6617  1.6385
 1852SOL    HW217193   2.321   2.987   5.401 -0.7912  1.9690 -0.9203
 1853SOL     OW17194   3.276   4.575  12.808 -0.1302 -0.0196  0.2070
 1853SOL    HW117195   3.254   4.512  12.877 -1.2059  0.2573  0.1257
 1853SOL    HW217196   3.267   4.651  12.865  0.1193  1.3226 -1.5370
 1854SOL     OW17197   2.983   1.723   3.728  0.4254 -0.2375  0.3391
 1854SOL    HW117198   2.917   1.706   3.796 -0.3748  2.1921  0.1761
 1854SOL    HW217199   3.041   1.651   3.751 -0.3822 -0.2871  2.2054
 1855SOL     OW17200   1.563   3.838  17.485 -0.0255 -0.6690  0.1234
 1855SOL    HW117201   1.495   3.891  17.526  0.4074 -0.7862  0.9914
 1855SOL    HW217202   1.642   3.868  17.529  0.6049  0.1582 -1.5743
 1856SOL     OW17203   1.237   0.192   8.011  0.1087  0.1021  0.0842
 1856SOL    HW117204   1.282   0.251   8.071  0.0155  1.1871 -0.9163
 1856SOL    HW217205   1.176   0.254   7.971 -1.5031  0.4707  3.1528
 1857SOL     OW17206   1.982   0.260  16.531 -0.8095  0.3233  0.4550
 1857SOL    HW117207   1.970   0.166  16.546 -0.8909  0.0454 -1.3191
 1857SOL    HW217208   1.894   0.285  16.503 -0.1718  1.3928 -0.5775
 1858SOL     OW17209   3.421   3.795   0.865 -0.6441 -0.1779 -0.2046
 1858SOL    HW117210   3.421   3.814   0.771  0.9686  1.4932  0.1369
 1858SOL    HW217211   3.341   3.744   0.876 -0.6223 -0.2584 -0.4135
 1859SOL     OW17212   0.598   0.091  12.049 -0.0079 -0.3112 -0.6317
 1859SOL    HW117213   0.668   0.155  12.056 -0.2315  0.1517 -2.6918
 1859SOL    HW217214   0.563   0.105  11.961 -0.0438 -0.6827 -0.6761
 1860SOL     OW17215   3.373   2.023  14.521 -0.1537 -0.3320 -0.5144
 1860SOL    HW117216   3.411   1.981  14.598 -0.6584 -0.6961 -0.4620
 1860SOL    HW217217   3.382   1.951  14.459 -2.0672  0.2888 -1.5189
 1861SOL     OW17218   4.722   3.199  13.687 -0.2154  0.2422  0.3915
 1861SOL    HW117219   4.631   3.204  13.658  0.2750 -1.3352 -1.3764
 1861SOL    HW217220   4.713   3.224  13.779 -1.6740  1.5693 -0.1094
 1862SOL     OW17221   0.594   3.440  16.705 -0.0101 -0.2056  0.3036
 1862SOL    HW117222   0.664   3.430  16.641 -0.6441 -2.5258 -0.0494
 1862SOL    HW217223   0.646   3.438  16.785  0.5267 -1.0914 -0.0645
 1863SOL     OW17224   4.522   2.786   9.485  0.2475  0.5666 -0.0507
 1863SOL    HW117225   4.560   2.772   9.572 -1.5448 -0.7310  0.5333
 1863SOL    HW217226   4.444   2.838   9.506 -1.0177 -0.8939 -1.1151
 1864SOL     OW17227   2.506   3.520   3.147  0.2738  0.6178 -0.1278
 1864SOL    HW117228   2.487   3.599   3.198 -0.8257 -0.1017  0.5843
 1864SOL    HW217229   2.585   3.478   3.181 -0.6061 -1.7234 -0.9570
 1865SOL     OW17230   2.114   1.085   6.479  0.9142  0.5961 -0.3779
 1865SOL    HW117231   2.063   1.021   6.528  1.6730  2.6490  3.1511
 1865SOL    HW217232   2.053   1.157   6.463 -2.1620 -1.0712  3.6450
 1866SOL     OW17233   1.483   3.859   9.698  0.0278 -0.5853 -0.0239
 1866SOL    HW117234   1.532   3.785   9.733 -0.3129  0.1424  1.9956
 1866SOL    HW217235   1.557   3.908   9.661 -2.2137  1.8674 -1.2724
 1867SOL     OW17236   1.775   0.839   6.804  0.3187 -0.2345 -0.7091
 1867SOL    HW117237   1.701   0.876   6.852  2.0914  0.3070  1.6034
 1867SOL    HW217238   1.848   0.846   6.866 -1.3465  0.5975  1.1806
 1868SOL     OW17239   1.974   1.411   2.496 -0.1561  0.0387 -0.1267
 1868SOL    HW117240   1.961   1.324   2.532 -0.3439 -0.3963 -1.2469
 1868SOL    HW217241   1.895   1.418   2.442  1.1196  3.2111 -1.5793
 1869SOL     OW17242   1.651   3.281   6.028  0.4027 -0.3126  0.0042
 1869SOL    HW117243   1.695   3.222   6.088 -0.2228 -0.6337  0.1431
 1869SOL    HW217244   1.632   3.215   5.962  1.6182 -1.2705  0.6097
 1870SOL     OW17245   0.062   0.826   1.260  0.5166  0.0401 -0.0641
 1870SOL    HW117246   0.049   0.857   1.350  0.8494 -0.6918  0.2361
 1870SOL    HW217247   0.021   0.739   1.265  0.6442 -0.0368 -0.4240
 1871SOL     OW17248   2.611   2.863   4.485 -0.0943  0.1433 -0.2632
 1871SOL    HW117249   2.668   2.939   4.474 -0.9429  0.7534 -0.4245
 1871SOL    HW217250   2.637   2.836   4.573  0.9501 -0.0161 -0.6208
 1872SOL     OW17251   1.657   4.277   7.191  0.5577  0.1405  0.7080
 1872SOL    HW117252   1.582   4.316   7.147  0.6441 -0.7910 -0.2836
 1872SOL    HW217253   1.658   4.329   7.270  0.6409  0.5971  0.4055
 1873SOL     OW17254   3.376   3.900   3.990 -0.8127  0.0676 -0.6671
 1873SOL    HW117255   3.422   3.817   3.982 -0.4315  0.4277 -2.1412
 1873SOL    HW217256   3.409   3.944   4.069  0.7873  0.1557 -1.3855
 1874SOL     OW17257   2.543   3.533  12.434  1.0224  0.0933  0.2676
 1874SOL    HW117258   2.612   3.539  12.367 -0.7442  0.8873 -1.4828
 1874SOL    HW217259   2.571   3.463  12.493 -0.3701  0.3313  1.2107
 1875SOL     OW17260   4.266   2.540   8.258 -0.5050 -0.2631  0.0318
 1875SOL    HW117261   4.233   2.611   8.312  2.6054 -0.0075  1.5587
 1875SOL    HW217262   4.269   2.477   8.330  1.1956  0.5468  0.6556
 1876SOL     OW17263   0.999   2.414   5.333 -0.2583  0.5788 -0.3075
 1876SOL    HW117264   1.020   2.366   5.414 -0.6309  1.5746  0.3821
 1876SOL    HW217265   0.912   2.378   5.312 -0.7580  2.5130 -1.4807
 1877SOL     OW17266   3.174   2.826   2.623  0.5071 -0.3569  0.3133
 1877SOL    HW117267   3.168   2.793   2.534  0.6331  1.5164 -0.3932
 1877SOL    HW217268   3.165   2.921   2.612 -3.1737 -0.5547  1.7567
 1878SOL     OW17269   1.981   1.042  13.016  0.0410 -0.1431 -0.0984
 1878SOL    HW117270   1.973   1.004  12.929 -0.2879  0.2264 -0.2291
 1878SOL    HW217271   2.035   1.119  12.996 -2.5173  1.4422 -0.9403
 1879SOL     OW17272   3.483   3.584   8.729  0.5389  0.2615 -0.4865
 1879SOL    HW117273   3.470   3.670   8.689  2.0830  1.2540  1.1361
 1879SOL    HW217274   3.428   3.594   8.807  1.2762  0.2343  0.0351
 1880SOL     OW17275   2.463   0.493  14.495 -0.5104 -0.0535  0.3407
 1880SOL    HW117276   2.373   0.487  14.528 -0.3550  1.2544  0.9767
 1880SOL    HW217277   2.456   0.520  14.403 -1.3067  1.4264  0.8369
 1881SOL     OW17278   4.102   2.257  14.985  0.6489  0.0552  0.2361
 1881SOL    HW117279   4.113   2.272  14.891  0.2036 -2.8264 -0.3016
 1881SOL    HW217280   4.059   2.171  14.986 -1.8706  1.2968 -0.8452
 1882SOL     OW17281   0.278   1.599  14.482 -0.7605  0.2932 -0.0664
 1882SOL    HW117282   0.367   1.571  14.506 -0.1343  1.4950 -0.9571
 1882SOL    HW217283   0.230   1.542  14.542  1.3397 -0.9989  0.3891
 1883SOL     OW17284   1.608   4.553   3.866 -0.1049  0.4464 -0.3739
 1883SOL    HW117285   1.612   4.585   3.776  0.4536  0.5638 -0.3081
 1883SOL    HW217286   1.608   4.633   3.920  0.8081  1.0176 -1.2213
 1884SOL     OW17287   3.044   2.752   2.999  0.1635 -0.0609  0.0736
 1884SOL    HW117288   3.099   2.735   3.075 -1.0642 -3.6855  0.1680
 1884SOL    HW217289   3.102   2.809   2.948  1.1483 -1.9079 -0.9131
 1885SOL     OW17290   0.773   3.468   2.154 -0.1019 -0.2838  0.0459
 1885SOL    HW117291   0.758   3.554   2.193  0.3714 -0.2541  0.1628
 1885SOL    HW217292   0.772   3.489   2.060  1.2526  1.5457  0.4398
 1886SOL     OW17293   2.795   0.991   1.375 -0.2778 -0.0254 -0.5138
 1886SOL    HW117294   2.845   1.070   1.395 -1.9955  0.7198  0.8735
 1886SOL    HW217295   2.831   0.934   1.442  0.0750  1.9807  1.0034
 1887SOL     OW17296   4.540   3.533  17.327  0.4112  0.0489  0.5856
 1887SOL    HW117297   4.514   3.587  17.402  0.2040 -0.8979  1.2036
 1887SOL    HW217298   4.493   3.580  17.259  0.9788 -0.7216 -0.3438
 1888SOL     OW17299   4.670   0.323   5.759  0.1297  0.4829  0.3146
 1888SOL    HW117300   4.712   0.280   5.833 -0.4049  1.1366  1.0002
 1888SOL    HW217301   4.731   0.307   5.687 -0.7821 -2.3208  0.1522
 1889SOL     OW17302   0.967   3.032   4.364 -0.0946 -0.2850 -1.4466
 1889SOL    HW117303   0.994   2.981   4.441 -0.0101 -0.4188 -1.5657
 1889SOL    HW217304   0.874   3.053   4.377 -0.0970 -0.5727 -0.9833
 1890SOL     OW17305   1.305   0.256  14.966  0.0276 -0.7940  0.2113
 1890SOL    HW117306   1.358   0.186  14.927  0.0199 -0.1110 -1.0524
 1890SOL    HW217307   1.376   0.320  14.966  2.5796 -3.6405 -0.7626
 1891SOL     OW17308   3.693   2.044  10.016  0.5240  0.0725 -0.0875
 1891SOL    HW117309   3.695   1.996   9.933  0.5426 -2.1009  1.1776
 1891SOL    HW217310   3.651   2.123   9.981  0.3452  0.1988  0.4134
 1892SOL     OW17311   3.435   3.978   1.092 -0.4923  0.0118  0.1111
 1892SOL    HW117312   3.433   3.932   1.008  0.2968  0.0500  0.0762
 1892SOL    HW217313   3.356   3.941   1.130 -0.5569  0.9726  0.9274
 1893SOL     OW17314   0.575   4.120  16.192 -0.4469 -0.2675  0.6347
 1893SOL    HW117315   0.505   4.184  16.180 -0.8711 -0.4164  2.2480
 1893SOL    HW217316   0.640   4.157  16.133 -1.2762 -0.7629 -0.5824
 1894SOL     OW17317   1.625   3.335   0.787  0.0346  0.0503 -0.5578
 1894SOL    HW117318   1.582   3.360   0.705  1.0652  1.4798 -0.6700
 1894SOL    HW217319   1.698   3.397   0.791  0.2011  0.1380 -4.3572
 1895SOL     OW17320   3.780   0.680   8.480  0.3450  0.3782  0.2401
 1895SOL    HW117321   3.796   0.684   8.385 -0.3628  0.9633  0.1440
 1895SOL    HW217322   3.836   0.604   8.498 -1.0370 -0.9263 -0.9163
 1896SOL     OW17323   3.044   4.614  16.776 -0.0086 -0.0145 -0.0272
 1896SOL    HW117324   3.041   4.683  16.710  1.2491  1.7941  1.7837
 1896SOL    HW217325   3.022   4.675  16.847 -0.2308  0.1758 -0.2583
 1897SOL     OW17326   0.774   1.741   5.786  0.0006 -0.2240 -0.4670
 1897SOL    HW117327   0.767   1.652   5.752  1.4925 -1.0407  1.3853
 1897SOL    HW217328   0.864   1.747   5.818 -0.6926  1.1717  1.2050
 1898SOL     OW17329   3.336   2.211   9.720 -0.1127 -0.0148  0.1554
 1898SOL    HW117330   3.410   2.247   9.671  0.9610 -2.1375  0.2162
 1898SOL    HW217331   3.346   2.254   9.805  0.4918 -1.5235  0.8439
 1899SOL     OW17332   4.242   2.382   7.844  0.2002 -0.1983  0.0975
 1899SOL    HW117333   4.277   2.432   7.770 -0.8830  0.2943 -0.0822
 1899SOL    HW217334   4.242   2.297   7.799  0.9073  0.6656 -1.5560
 1900SOL     OW17335   3.418   4.289   5.160  0.3237 -0.4251 -0.1855
 1900SOL    HW117336   3.422   4.231   5.084  0.5435 -0.4767 -0.1355
 1900SOL    HW217337   3.501   4.336   5.148  0.6581 -0.8316  0.5773
 1901SOL     OW17338   2.992   3.904   7.149  0.6310 -0.0010  0.0761
 1901SOL    HW117339   2.922   3.922   7.086 -1.3051 -0.8415  2.0105
 1901SOL    HW217340   2.947   3.866   7.225 -1.0516 -0.0401 -0.9279
 1902SOL     OW17341   1.678   0.311  11.717  0.5894 -0.6695 -0.0786
 1902SOL    HW117342   1.744   0.377  11.740 -1.6784  1.9556 -1.2156
 1902SOL    HW217343   1.614   0.307  11.788  2.8477 -4.6948  1.7850
 1903SOL     OW17344   0.783   3.221  15.174 -0.9987 -0.2803 -0.1607
 1903SOL    HW117345   0.854   3.190  15.118 -0.4747  1.9899 -0.7465
 1903SOL    HW217346   0.781   3.311  15.142  0.7299 -0.2987 -0.2875
 1904SOL     OW17347   0.912   4.362   9.821 -0.1130 -0.0051 -0.3895
 1904SOL    HW117348   0.818   4.352   9.835  0.1320 -1.6092  0.0710
 1904SOL    HW217349   0.935   4.355   9.728  3.3043  0.4016  0.4139
 1905SOL     OW17350   2.247   0.910   3.578 -0.5064 -0.4818  0.0562
 1905SOL    HW117351   2.284   0.977   3.635  0.2296 -2.1856  1.5798
 1905SOL    HW217352   2.317   0.895   3.513 -1.9178  1.8137 -1.9965
 1906SOL     OW17353   4.304   4.724   4.642  0.1376 -0.5572  0.2406
 1906SOL    HW117354   4.307   4.636   4.606  1.1758 -0.5122  0.2327
 1906SOL    HW217355   4.312   4.713   4.737  1.0975  0.8558  0.3222
 1907SOL     OW17356   0.574   0.469   6.989 -0.2884 -0.7415  0.2655
 1907SOL    HW117357   0.592   0.514   6.907 -0.4796 -0.3836  0.4235
 1907SOL    HW217358   0.611   0.542   7.037  3.0055 -1.9387 -0.4885
 1908SOL     OW17359   2.025   0.165   7.376  0.0646 -0.6317 -0.2391
 1908SOL    HW117360   2.104   0.118   7.352  1.9981  1.5056  1.8242
 1908SOL    HW217361   2.053   0.195   7.463 -0.6543 -3.2410  0.9004
 1909SOL     OW17362   1.379   1.147   5.822 -1.2076  0.0183 -0.3320
 1909SOL    HW117363   1.320   1.199   5.877 -2.0919 -0.3073 -0.9689
 1909SOL    HW217364   1.394   1.193   5.739  1.1051  0.3985  0.2797
 1910SOL     OW17365   1.223   3.619   8.156  0.3671 -0.1751  0.1164
 1910SOL    HW117366   1.147   3.597   8.102  0.7007 -1.0376  0.0057
 1910SOL    HW217367   1.288   3.559   8.121  0.6262  1.0613 -1.5639
 1911SOL     OW17368   3.922   3.749  11.446 -0.3463  0.6877 -0.1970
 1911SOL    HW117369   3.894   3.663  11.415 -2.5650  1.6875 -0.9388
 1911SOL    HW217370   3.991   3.770  11.383 -0.5399  0.0804 -0.6123
 1912SOL     OW17371   4.554   3.948  13.169  0.7713  0.0337 -0.7694
 1912SOL    HW117372   4.629   4.005  13.186 -0.0302  0.5662  0.9513
 1912SOL    HW217373   4.561   3.937  13.074  1.4688 -1.8404 -0.5024
 1913SOL     OW17374   0.743   0.732   1.415  0.1583  0.4542 -0.3614
 1913SOL    HW117375   0.682   0.664   1.389  2.3154 -1.3664 -0.6934
 1913SOL    HW217376   0.706   0.751   1.501  0.9914  2.3075 -0.4035
 1914SOL     OW17377   0.753   4.509   3.355 -0.5288  0.2072  0.2076
 1914SOL    HW117378   0.686   4.556   3.304 -1.8431 -0.5821  1.2071
 1914SOL    HW217379   0.691   4.455   3.404  2.1970 -2.8227  0.2732
 1915SOL     OW17380   2.568   3.569   8.275  0.3918  0.5537 -0.1079
 1915SOL    HW117381   2.480   3.551   8.242 -0.1543  2.8129  0.1502
 1915SOL    HW217382   2.553   3.519   8.355  1.2795  0.1571 -0.1903
 1916SOL     OW17383   1.490   0.081   2.932  0.4468 -0.1354 -0.4379
 1916SOL    HW117384   1.425   0.125   2.986  0.9623 -0.8320  0.7582
 1916SOL    HW217385   1.433   0.020   2.885 -0.7686  1.1867 -0.6910
 1917SOL     OW17386   2.122   0.387  11.076 -0.6500  0.3485 -0.3405
 1917SOL    HW117387   2.064   0.415  11.147  0.7047 -2.9773  2.0454
 1917SOL    HW217388   2.146   0.471  11.036 -0.5327  0.6946  0.4485
 1918SOL     OW17389   3.491   2.696   6.404 -0.1068  0.0511  0.3733
 1918SOL    HW117390   3.494   2.619   6.349  0.7787  0.5666 -0.2962
 1918SOL    HW217391   3.426   2.668   6.468  2.3252  0.1490  2.9186
 1919SOL     OW17392   2.849   4.560  17.288  0.1547  0.5824  0.6144
 1919SOL    HW117393   2.940   4.582  17.311 -0.4511  2.9177  0.8168
 1919SOL    HW217394   2.814   4.522  17.369  0.5043 -0.9510  0.0487
 1920SOL     OW17395   1.803   1.185   2.764 -0.7048  0.6291 -0.0461
 1920SOL    HW117396   1.746   1.196   2.688  0.2557 -1.2609 -1.0587
 1920SOL    HW217397   1.884   1.154   2.721 -0.7533  0.3217  0.0846
 1921SOL     OW17398   0.725   2.872   2.032  0.3311 -0.0537  0.2243
 1921SOL    HW117399   0.727   2.776   2.033  2.5940 -0.0318 -3.1012
 1921SOL    HW217400   0.635   2.890   2.004  0.8744  2.9861  0.4188
 1922SOL     OW17401   1.335   3.978   3.704  0.0186 -0.4977  0.3760
 1922SOL    HW117402   1.277   3.904   3.685 -0.9092  0.3098  0.0735
 1922SOL    HW217403   1.345   3.986   3.799 -0.2589  3.2549  0.0984
 1923SOL     OW17404   4.403   2.801  11.946 -0.0285 -0.3220 -0.2262
 1923SOL    HW117405   4.350   2.869  11.903  0.4024 -1.6234 -2.8584
 1923SOL    HW217406   4.355   2.719  11.933 -2.0775  0.5266  1.9066
 1924SOL     OW17407   1.295   0.380  12.953 -0.5185  0.3537 -0.1917
 1924SOL    HW117408   1.206   0.401  12.924 -0.9201  0.4522  1.1269
 1924SOL    HW217409   1.274   0.301  13.003  1.8762 -0.6004 -0.7083
 1925SOL     OW17410   0.081   2.254   2.016  0.2260  0.6142  0.2922
 1925SOL    HW117411   4.726   2.277   2.029  0.7164  2.2925  0.8536
 1925SOL    HW217412   0.083   2.208   1.932  1.1129 -0.0768  0.6967
 1926SOL     OW17413   0.335   3.506  17.255  0.0930  0.4324  0.4835
 1926SOL    HW117414   0.239   3.495  17.256  0.4087 -2.2281  2.1623
 1926SOL    HW217415   0.353   3.451  17.331  0.3614  1.1326  0.9160
 1927SOL     OW17416   1.978   3.878   5.447  0.6394  0.4449  0.7627
 1927SOL    HW117417   1.976   3.889   5.352 -1.3061  1.2899  0.9033
 1927SOL    HW217418   1.934   3.796   5.467  0.6041  0.9769  2.9025
 1928SOL     OW17419   0.266   2.859   3.707 -0.2225 -0.1963 -0.0235
 1928SOL    HW117420   0.255   2.771   3.671  0.9664  0.5928 -2.3199
 1928SOL    HW217421   0.177   2.883   3.731 -0.2585 -0.6198  0.2695
 1929SOL     OW17422   4.295   0.971   5.518  0.4591 -0.4552 -0.3519
 1929SOL    HW117423   4.295   0.962   5.422 -1.7636 -0.3540 -0.3681
 1929SOL    HW217424   4.384   1.003   5.533 -0.6130  1.9142  0.9967
 1930SOL     OW17425   1.977   3.906   7.697 -0.0200  0.1535  0.2812
 1930SOL    HW117426   1.935   3.857   7.626  1.4874 -1.5400  0.5678
 1930SOL    HW217427   1.978   3.835   7.761 -1.1445 -1.8928 -1.9623
 1931SOL     OW17428   1.035   0.938  12.386  0.5867 -0.2194 -0.2399
 1931SOL    HW117429   1.095   0.980  12.325  0.4943 -0.0271 -0.1973
 1931SOL    HW217430   0.983   0.883  12.327 -1.9903 -0.3791  2.1739
 1932SOL     OW17431   0.879   4.637   7.999  0.0991  0.4023 -0.1878
 1932SOL    HW117432   0.891   4.586   8.079 -1.9695  0.6816  0.2982
 1932SOL    HW217433   0.788   4.616   7.980  0.8800 -2.3424 -0.9384
 1933SOL     OW17434   2.250   4.315  17.635 -0.0815 -0.3965 -0.2786
 1933SOL    HW117435   2.166   4.295  17.593 -0.4562 -0.7741  0.6647
 1933SOL    HW217436   2.279   4.391  17.584  0.7441  0.3637  1.3309
 1934SOL     OW17437   4.526   0.416   7.792  0.1232  0.0097  0.7762
 1934SOL    HW117438   4.584   0.485   7.761  0.2361 -0.7304 -0.6533
 1934SOL    HW217439   4.485   0.390   7.709  2.8051  0.1432 -0.5846
 1935SOL     OW17440   4.355   4.168   2.902  0.4516  0.1788 -0.1453
 1935SOL    HW117441   4.287   4.214   2.952 -1.2898 -1.7779 -0.6857
 1935SOL    HW217442   4.388   4.230   2.837  1.1679 -1.8996 -1.7355
 1936SOL     OW17443   2.914   4.170  11.340  0.4147  0.3491 -0.6116
 1936SOL    HW117444   2.913   4.260  11.307 -0.1264  1.7466  3.1846
 1936SOL    HW217445   2.945   4.122  11.263 -0.5924 -0.7437 -0.3290
 1937SOL     OW17446   3.438   4.653   4.048  0.3213  0.1381  0.8312
 1937SOL    HW117447   3.393   4.634   3.966 -0.7400  2.5156  0.8448
 1937SOL    HW217448   3.520   4.678   4.006 -1.1027 -1.3552 -2.8415
 1938SOL     OW17449   3.285   0.386   5.018 -0.3024  0.4600  0.1676
 1938SOL    HW117450   3.322   0.438   4.946  1.5757 -0.5687  0.3856
 1938SOL    HW217451   3.337   0.308   4.999 -1.4056 -0.0218 -0.8097
 1939SOL     OW17452   0.523   1.674   1.302 -0.6040 -0.1002 -0.0171
 1939SOL    HW117453   0.594   1.617   1.275 -1.8472 -1.7342  0.1528
 1939SOL    HW217454   0.451   1.620   1.271 -0.3511 -0.7132  0.4707
 1940SOL     OW17455   1.912   3.642   3.413  0.1188 -0.0415 -0.0335
 1940SOL    HW117456   1.929   3.673   3.502 -0.2854  0.9930 -0.3196
 1940SOL    HW217457   1.990   3.670   3.365  0.2647 -0.7484 -0.2098
 1941SOL     OW17458   0.263   4.714   8.386 -0.2473 -0.3235  0.3754
 1941SOL    HW117459   0.330   4.667   8.436 -1.0151 -0.1815  1.5469
 1941SOL    HW217460   0.178   4.716   8.429 -0.1754  2.8191  0.3798
 1942SOL     OW17461   2.076   4.734   7.003  0.0787 -0.1108 -0.1465
 1942SOL    HW117462   2.106   0.083   7.031 -3.3033  1.2590 -0.8658
 1942SOL    HW217463   1.988   0.011   6.970  0.3735 -2.2623 -1.8591
 1943SOL     OW17464   3.865   2.478   2.310  0.2433 -0.2846  0.4218
 1943SOL    HW117465   3.847   2.438   2.225 -0.2882  0.7366  0.0520
 1943SOL    HW217466   3.912   2.412   2.361 -0.2297  1.1248  2.6790
 1944SOL     OW17467   3.668   3.026   4.992  0.3741  0.1136 -0.5904
 1944SOL    HW117468   3.746   3.026   5.048 -0.7743  0.2863  1.0141
 1944SOL    HW217469   3.713   3.055   4.913 -1.3122  2.6418 -0.6313
 1945SOL     OW17470   0.751   0.069   4.756  0.1954  0.1723 -0.1028
 1945SOL    HW117471   0.745   0.048   4.663 -0.3376 -0.2590  0.0341
 1945SOL    HW217472   0.714   4.728   4.795  1.7830 -0.0647  0.9455
 1946SOL     OW17473   0.688   1.875   6.208 -0.0569  0.5596  0.2499
 1946SOL    HW117474   0.601   1.863   6.246 -0.4765  0.7994 -0.6364
 1946SOL    HW217475   0.684   1.971   6.206  1.0180  0.6035  0.0192
 1947SOL     OW17476   1.722   1.997  15.797  0.2621 -0.4132 -0.4431
 1947SOL    HW117477   1.764   1.947  15.867  3.3430  1.9316 -0.6123
 1947SOL    HW217478   1.710   2.077  15.847  2.0329 -0.8056  0.6142
 1948SOL     OW17479   4.511   2.219  16.777 -0.1300 -0.5479  0.1947
 1948SOL    HW117480   4.552   2.140  16.811 -0.5749 -0.8416  0.0432
 1948SOL    HW217481   4.564   2.289  16.815  0.3943 -1.3577  0.9507
 1949SOL     OW17482   4.726   4.493   4.609  0.3248  0.7903 -0.5992
 1949SOL    HW117483   4.733   4.399   4.624 -1.8147  0.8687  0.8176
 1949SOL    HW217484   4.714   4.532   4.695  0.6804  0.8077 -0.5578
 1950SOL     OW17485   1.718   1.237   5.843  0.4666  0.0680  0.0000
 1950SOL    HW117486   1.647   1.235   5.907 -1.3377 -1.2299 -2.0614
 1950SOL    HW217487   1.793   1.273   5.892  2.1495 -0.0182 -2.5012
 1951SOL     OW17488   1.182   3.090   4.122  0.7616 -0.0533  0.1357
 1951SOL    HW117489   1.229   3.144   4.185 -1.8933  0.1565  1.9367
 1951SOL    HW217490   1.088   3.107   4.131  0.6243 -0.2251 -0.9107
 1952SOL     OW17491   4.593   4.629  10.379  0.4715 -0.0393  0.0053
 1952SOL    HW117492   4.597   4.651  10.286  0.2441  0.3072  0.0746
 1952SOL    HW217493   4.515   4.575  10.372  2.8845 -3.4154 -0.8002
 1953SOL     OW17494   0.799   3.428  16.535  0.3173  0.4508 -0.4102
 1953SOL    HW117495   0.782   3.481  16.457  0.1744 -1.2254 -1.5109
 1953SOL    HW217496   0.839   3.353  16.492  2.4746  0.9714  0.6776
 1954SOL     OW17497   2.658   2.935   1.926  0.6054 -0.4334 -0.7418
 1954SOL    HW117498   2.717   3.004   1.899  1.5709 -0.9202  0.1251
 1954SOL    HW217499   2.720   2.886   1.980 -2.6072 -1.2602  2.2624
 1955SOL     OW17500   1.589   4.343   9.335  0.1133  0.1143  0.3932
 1955SOL    HW117501   1.680   4.319   9.315  0.5842  0.5558  1.9862
 1955SOL    HW217502   1.540   4.313   9.259 -1.0198  0.1187  1.1278
 1956SOL     OW17503   1.177   3.456   8.689  0.0922  0.2176  0.1089
 1956SOL    HW117504   1.258   3.502   8.711  0.0130 -0.2843  1.4039
 1956SOL    HW217505   1.181   3.466   8.593 -1.2380  0.5274  0.0830
 1957SOL     OW17506   1.889   2.555   3.986 -0.4132  0.0578 -0.1613
 1957SOL    HW117507   1.828   2.609   4.036  2.1667  2.4823  0.3420
 1957SOL    HW217508   1.875   2.593   3.900  1.6907 -0.7724 -0.8741
 1958SOL     OW17509   4.438   3.677  16.531 -0.1967 -0.3368  0.7086
 1958SOL    HW117510   4.439   3.772  16.521  1.4018 -0.4188  0.1483
 1958SOL    HW217511   4.532   3.666  16.544 -0.0598  0.3456  0.2791
 1959SOL     OW17512   3.766   4.385   0.328 -0.2897 -0.2575 -0.2289
 1959SOL    HW117513   3.785   4.439   0.251 -1.4154 -0.7884 -0.8840
 1959SOL    HW217514   3.788   4.297   0.297 -0.4894 -0.3113 -0.2153
 1960SOL     OW17515   0.562   1.809  17.672  0.5341 -0.1775 -0.7017
 1960SOL    HW117516   0.650   1.783  17.702  0.6114  0.4180 -0.3959
 1960SOL    HW217517   0.548   1.753  17.596 -0.6058 -3.3263  1.8052
 1961SOL     OW17518   1.313   2.178   0.687 -0.8876  0.2506 -0.7142
 1961SOL    HW117519   1.290   2.242   0.754  1.6231 -1.9552  2.2529
 1961SOL    HW217520   1.396   2.206   0.647 -0.4284  3.4219  2.4834
 1962SOL     OW17521   3.354   3.779   2.171  0.1112 -0.3508 -0.0655
 1962SOL    HW117522   3.419   3.732   2.224 -1.2220 -1.4930  0.5526
 1962SOL    HW217523   3.403   3.794   2.090  1.4457 -0.7031  0.6868
 1963SOL     OW17524   2.752   3.133   8.778 -0.1166 -0.1988 -0.2906
 1963SOL    HW117525   2.676   3.177   8.816  0.3046 -0.3475  0.7456
 1963SOL    HW217526   2.743   3.172   8.691  0.9978  0.8438  0.0559
 1964SOL     OW17527   4.289   1.427   8.054 -0.2570  0.0211  0.2249
 1964SOL    HW117528   4.300   1.400   7.963 -0.8216  0.9286 -0.1215
 1964SOL    HW217529   4.230   1.500   8.034 -1.9869 -1.0306  1.4897
 1965SOL     OW17530   0.934   3.700   9.548  0.4054 -1.0477 -0.2140
 1965SOL    HW117531   0.858   3.645   9.529 -0.7720  0.4385  0.1235
 1965SOL    HW217532   0.947   3.742   9.463  2.7231  0.1584  0.7462
 1966SOL     OW17533   4.391   0.388  14.148 -0.0882 -0.0930 -0.6963
 1966SOL    HW117534   4.332   0.324  14.109 -1.4973 -0.5933  2.3038
 1966SOL    HW217535   4.358   0.407  14.236  1.1472  0.9809 -0.4651
 1967SOL     OW17536   2.404   0.059   3.248  0.1575  0.4294 -0.1655
 1967SOL    HW117537   2.315   0.077   3.277 -0.2891 -2.7244  0.4496
 1967SOL    HW217538   2.392   4.710   3.208 -0.5238  0.2291  0.4739
 1968SOL     OW17539   4.650   0.142   3.012  0.6024  0.1562 -0.1304
 1968SOL    HW117540   4.648   0.230   3.048  1.3236  1.2934 -2.8782
 1968SOL    HW217541   4.693   0.099   3.086  0.0886 -1.4634 -0.7744
 1969SOL     OW17542   3.242   3.176   6.510  0.2567 -0.0727 -0.5069
 1969SOL    HW117543   3.178   3.127   6.460  1.0364  0.0592 -1.6366
 1969SOL    HW217544   3.325   3.143   6.473  0.7014  0.2987  0.1546
 1970SOL     OW17545   1.826   1.390   3.220  0.2116 -0.0130  0.1529
 1970SOL    HW117546   1.875   1.337   3.282 -1.2331 -0.1858  1.1517
 1970SOL    HW217547   1.862   1.349   3.141  1.5654  1.9365 -0.2419
 1971SOL     OW17548   3.724   3.879  17.241 -0.2143  0.3292 -0.3244
 1971SOL    HW117549   3.787   3.920  17.182 -2.0213  0.2078 -2.3365
 1971SOL    HW217550   3.778   3.816  17.287 -2.5279 -0.8917  0.7129
 1972SOL     OW17551   2.803   3.302   4.967  0.3590 -0.5102  0.2346
 1972SOL    HW117552   2.787   3.219   5.012  2.3186 -1.3050 -0.5336
 1972SOL    HW217553   2.717   3.343   4.971  0.9390  0.4868  2.2983
 1973SOL     OW17554   0.861   0.390   5.913  0.4348 -0.6844 -0.0666
 1973SOL    HW117555   0.854   0.448   5.837  0.2847 -0.1089  0.3854
 1973SOL    HW217556   0.852   0.445   5.990 -0.8553  0.3917 -0.9967
 1974SOL     OW17557   2.166   0.282   4.300 -0.0222  0.1899 -0.3265
 1974SOL    HW117558   2.116   0.362   4.314  1.0060  0.8082 -0.2318
 1974SOL    HW217559   2.193   0.250   4.387 -1.1301  0.4350  0.0997
 1975SOL     OW17560   3.177   0.373   2.356 -0.6902 -0.4340  0.1515
 1975SOL    HW117561   3.153   0.393   2.266  2.9898 -2.1345 -1.1861
 1975SOL    HW217562   3.158   0.460   2.392  0.2081 -0.1513 -0.0502
 1976SOL     OW17563   2.438   1.722  17.699  0.2240 -0.0637 -0.6281
 1976SOL    HW117564   2.372   1.660  17.668  1.1860 -0.6032 -1.5585
 1976SOL    HW217565   2.404   1.752   0.035 -0.0867  1.0302 -1.1427
 1977SOL     OW17566   4.487   0.426   0.903  0.6119  0.0930 -0.2591
 1977SOL    HW117567   4.429   0.396   0.973  0.5561 -1.2732 -0.8966
 1977SOL    HW217568   4.490   0.521   0.915 -1.7433  0.2752 -1.1661
 1978SOL     OW17569   4.276   3.047   2.917 -0.1127 -0.7016 -0.0674
 1978SOL    HW117570   4.369   3.050   2.941  0.1480  0.9304 -1.3140
 1978SOL    HW217571   4.239   2.994   2.987 -3.0985  0.6003 -0.6711
 1979SOL     OW17572   0.603   3.179   5.201  0.2267 -0.2456 -0.0156
 1979SOL    HW117573   0.605   3.232   5.280  3.4859 -0.3709  0.0035
 1979SOL    HW217574   0.689   3.138   5.211  1.2834  1.8642 -0.4528
 1980SOL     OW17575   2.675   4.538  10.450 -0.2101  0.0296  0.0109
 1980SOL    HW117576   2.674   4.548  10.355  2.6178  3.5242  0.3540
 1980SOL    HW217577   2.672   4.444  10.465  3.0949  0.1738  1.5419
 1981SOL     OW17578   1.579   3.822   7.580 -0.0807  0.6461  0.5571
 1981SOL    HW117579   1.608   3.759   7.645 -0.8680 -0.8435 -0.5540
 1981SOL    HW217580   1.655   3.827   7.523 -0.6437  0.7650 -0.1840
 1982SOL     OW17581   0.263   2.784   3.065  0.2908  0.2141 -0.0911
 1982SOL    HW117582   0.274   2.737   3.148  0.9316 -0.4197 -0.5306
 1982SOL    HW217583   0.319   2.861   3.075 -1.3210  1.3997 -0.2000
 1983SOL     OW17584   3.618   3.165  11.985  0.0104  0.2021 -0.0502
 1983SOL    HW117585   3.556   3.093  11.979  0.2269 -0.0605  0.9126
 1983SOL    HW217586   3.624   3.182  12.079  0.6153  1.6362 -0.3391
 1984SOL     OW17587   0.522   3.779  15.830  0.0150  0.7543 -0.0254
 1984SOL    HW117588   0.435   3.818  15.837 -0.1599  0.3812 -0.1548
 1984SOL    HW217589   0.578   3.851  15.860 -1.2549  2.3777 -1.5604
 1985SOL     OW17590   4.626   4.472  16.003  0.3244 -0.1504  0.4634
 1985SOL    HW117591   4.537   4.496  16.027  0.7424  2.7095 -0.8487
 1985SOL    HW217592   4.674   4.553  15.983 -0.5004 -0.6723 -3.7298
 1986SOL     OW17593   2.293   0.465   2.854  0.4139  0.7265 -0.7542
 1986SOL    HW117594   2.216   0.521   2.858 -0.4397 -0.6865  2.7217
 1986SOL    HW217595   2.360   0.526   2.826 -0.8228  3.0873  1.4181
 1987SOL     OW17596   2.714   2.975   8.312  0.0455 -0.0531 -0.0055
 1987SOL    HW117597   2.658   2.942   8.382 -1.2486  0.9397 -0.5646
 1987SOL    HW217598   2.744   2.891   8.279 -0.0410  0.5608 -1.6136
 1988SOL     OW17599   4.453   3.514   4.601 -0.3585 -0.0019 -0.3718
 1988SOL    HW117600   4.415   3.453   4.539 -0.5989  0.7805 -0.9973
 1988SOL    HW217601   4.530   3.537   4.549 -0.8709 -0.4815 -1.3274
 1989SOL     OW17602   3.806   1.967   7.002 -0.6377 -1.0839  0.1376
 1989SOL    HW117603   3.801   1.985   6.909 -1.5247 -0.3737  0.3203
 1989SOL    HW217604   3.787   1.873   6.997 -1.1455 -1.1869  3.9467
 1990SOL     OW17605   4.103   2.861  16.405  0.2141  0.0450  0.7647
 1990SOL    HW117606   4.142   2.813  16.332 -0.7632 -1.6197  1.3476
 1990SOL    HW217607   4.097   2.947  16.364 -2.1778  0.2882  1.6225
 1991SOL     OW17608   1.627   2.292  16.114 -0.0041  0.1223 -0.2195
 1991SOL    HW117609   1.531   2.299  16.116  0.1183  1.5679  0.1180
 1991SOL    HW217610   1.636   2.227  16.044 -2.5116 -1.2428  0.7358
 1992SOL     OW17611   3.194   3.019   3.703 -0.3256 -0.4815  0.4458
 1992SOL    HW117612   3.219   2.974   3.623  2.0145  1.0315  0.3212
 1992SOL    HW217613   3.246   3.099   3.702  2.2578 -2.2214 -2.5983
 1993SOL     OW17614   1.233   1.232   1.543  0.5168 -0.2316  0.1826
 1993SOL    HW117615   1.217   1.173   1.470 -1.3851  1.7539 -1.0164
 1993SOL    HW217616   1.328   1.237   1.539  0.5597 -0.1923  1.2456
 1994SOL     OW17617   2.510   3.386   4.591  0.1309 -0.1487 -0.1419
 1994SOL    HW117618   2.459   3.312   4.558  0.2893 -0.4210  0.2272
 1994SOL    HW217619   2.440   3.437   4.631 -0.4002 -0.9388 -0.0609
 1995SOL     OW17620   2.040   0.591  14.992  0.6978 -0.2272  0.1324
 1995SOL    HW117621   2.095   0.549  15.058  1.0711 -0.9529 -0.6495
 1995SOL    HW217622   2.103   0.602  14.921 -0.2835 -2.1329 -1.0152
 1996SOL     OW17623   0.659   0.313  14.623 -0.2073 -0.0911 -0.4307
 1996SOL    HW117624   0.737   0.282  14.578  1.3371  2.1206  0.7563
 1996SOL    HW217625   0.615   0.228  14.627 -1.0867  0.3457 -0.6818
 1997SOL     OW17626   2.337   4.227  13.493  0.1147 -0.4312 -0.1384
 1997SOL    HW117627   2.404   4.167  13.459 -0.1990  0.8681 -2.9937
 1997SOL    HW217628   2.376   4.235  13.581  1.1879  0.8750 -0.7424
 1998SOL     OW17629   2.610   0.581   4.276 -0.5259 -0.1007 -0.4035
 1998SOL    HW117630   2.530   0.568   4.328 -1.5452  2.2067 -1.3939
 1998SOL    HW217631   2.582   0.541   4.194  2.0165 -1.4036 -0.6355
 1999SOL     OW17632   4.691   2.778   9.017  0.2327  0.6471 -0.3236
 1999SOL    HW117633   4.598   2.776   9.036  0.3701  2.2236  0.5258
 1999SOL    HW217634   4.709   2.872   9.020  1.3425  0.4354 -0.1371
 2000SOL     OW17635   0.609   4.115   2.554  0.0428  0.1452 -0.2612
 2000SOL    HW117636   0.690   4.134   2.601 -0.0598  0.5825 -0.2673
 2000SOL    HW217637   0.545   4.177   2.588  0.0021  0.0744 -0.2060
 2001SOL     OW17638   3.003   0.742   1.848  0.1383  0.5334 -0.1100
 2001SOL    HW117639   2.919   0.698   1.849  0.8439 -0.8319 -1.7886
 2001SOL    HW217640   3.061   0.698   1.786  0.5124 -2.2305  2.2026
 2002SOL     OW17641   2.878   3.419   2.990  0.8066 -0.1844 -0.5850
 2002SOL    HW117642   2.968   3.449   2.984  1.3274 -1.7360 -0.5612
 2002SOL    HW217643   2.886   3.354   3.060  1.3623 -0.6082 -1.0456
 2003SOL     OW17644   1.277   0.084   9.130 -0.4462  0.0971  0.2723
 2003SOL    HW117645   1.183   0.092   9.145 -0.2481 -0.2431  1.6488
 2003SOL    HW217646   1.311   0.102   9.218  1.7704 -0.1999 -0.5175
 2004SOL     OW17647   2.634   4.004  12.780  0.3212 -0.1038  0.2584
 2004SOL    HW117648   2.720   4.007  12.823 -0.6423  0.3044  2.1590
 2004SOL    HW217649   2.649   3.930  12.722 -1.9596 -0.8307  0.6120
 2005SOL     OW17650   0.088   3.322   3.006  0.3309 -0.0893  0.8487
 2005SOL    HW117651   0.073   3.297   2.915  2.9447  0.6284  0.2306
 2005SOL    HW217652   4.737   3.304   3.038 -1.2237  2.9900 -1.7649
 2006SOL     OW17653   1.437   2.233   8.979 -0.0512  0.7406  0.0034
 2006SOL    HW117654   1.525   2.231   8.941  0.9281  1.0836  2.2256
 2006SOL    HW217655   1.398   2.257   8.895 -0.5831  1.1521  0.3695
 2007SOL     OW17656   0.257   0.361   2.325 -0.1577 -0.1131  0.0642
 2007SOL    HW117657   0.311   0.353   2.246 -0.6480  0.8140 -0.3623
 2007SOL    HW217658   0.175   0.328   2.288 -0.6255  0.2470  0.7752
 2008SOL     OW17659   1.849   2.369  15.997 -0.1408 -0.0754 -0.0481
 2008SOL    HW117660   1.880   2.282  15.972 -0.6290 -0.1831 -0.2579
 2008SOL    HW217661   1.771   2.360  16.052 -0.4708  0.0156 -0.5061
 2009SOL     OW17662   0.714   0.709   1.050  0.5486 -0.4438  0.2489
 2009SOL    HW117663   0.792   0.699   1.104  0.3371  0.8724  0.7993
 2009SOL    HW217664   0.672   0.791   1.077  1.7155  0.4016 -0.4595
 2010SOL     OW17665   2.325   2.133   3.563 -0.4256  0.2686  0.0711
 2010SOL    HW117666   2.274   2.127   3.643  0.3849 -1.7974  0.4465
 2010SOL    HW217667   2.255   2.110   3.501 -0.6512 -0.0176  0.4345
 2011SOL     OW17668   3.768   3.739   3.921  0.5184 -0.3519  0.1317
 2011SOL    HW117669   3.696   3.681   3.897  0.7154 -0.4134 -0.3264
 2011SOL    HW217670   3.750   3.737   4.015  2.0585 -0.2534  0.4431
 2012SOL     OW17671   2.740   2.066   7.612 -0.1909  0.1218 -0.3460
 2012SOL    HW117672   2.820   2.055   7.561 -1.0244 -0.8699 -1.4397
 2012SOL    HW217673   2.684   2.086   7.536 -0.7855 -1.6284 -0.3571
 2013SOL     OW17674   1.328   3.559   9.114 -0.0935 -0.5787  0.3128
 2013SOL    HW117675   1.244   3.587   9.150 -1.2441 -0.4480 -2.4733
 2013SOL    HW217676   1.372   3.643   9.127 -0.3540 -0.2256 -1.0592
 2014SOL     OW17677   1.418   4.247   6.177  0.1690  0.2580 -0.5062
 2014SOL    HW117678   1.483   4.178   6.194  2.7707  2.8026 -0.1780
 2014SOL    HW217679   1.483   4.314   6.158 -1.0643  1.1782 -1.4704
 2015SOL     OW17680   0.575   0.510  10.513  0.5574  0.0702  0.7928
 2015SOL    HW117681   0.562   0.428  10.561 -0.7116 -0.2081 -0.0242
 2015SOL    HW217682   0.525   0.489  10.434  2.6189 -0.6914 -0.3351
 2016SOL     OW17683   3.989   0.927   4.376  0.3819  0.2403 -0.3453
 2016SOL    HW117684   3.934   0.996   4.413  0.0486 -0.4926  0.5187
 2016SOL    HW217685   4.078   0.961   4.381  0.9535 -1.1518 -1.0963
 2017SOL     OW17686   3.980   2.168   8.846  0.0735 -0.0037  0.0629
 2017SOL    HW117687   3.990   2.128   8.933 -1.6379 -0.0891  0.2204
 2017SOL    HW217688   3.942   2.086   8.815 -0.3384  0.2031  0.0249
 2018SOL     OW17689   0.565   4.702   1.267 -0.5490 -0.4289  0.1307
 2018SOL    HW117690   0.523   4.641   1.329 -3.1719  0.6926 -0.5576
 2018SOL    HW217691   0.647   4.726   1.311 -0.5552  2.8945 -1.7102
 2019SOL     OW17692   1.114   3.308   4.430 -0.5479 -0.5126  0.3836
 2019SOL    HW117693   1.108   3.337   4.521  1.3777 -0.1757  0.4097
 2019SOL    HW217694   1.058   3.230   4.429  1.1698 -1.7268 -0.2323
 2020SOL     OW17695   3.573   4.640   9.735  0.2343 -0.4869  0.1426
 2020SOL    HW117696   3.482   4.656   9.762  1.0717 -0.0994  2.7448
 2020SOL    HW217697   3.556   4.581   9.661  0.9664 -1.2054  0.5417
 2021SOL     OW17698   1.936   4.623   5.604  0.5282  0.2802  0.4961
 2021SOL    HW117699   1.944   4.555   5.537 -0.8906  0.8547 -0.2513
 2021SOL    HW217700   2.027   4.642   5.624  0.3596  0.1209  1.4382
 2022SOL     OW17701   3.299   1.270   4.686  0.2647 -0.4470  0.1412
 2022SOL    HW117702   3.377   1.214   4.690  1.4750  1.2646  0.0750
 2022SOL    HW217703   3.264   1.251   4.773  0.4403  0.7233  0.4542
 2023SOL     OW17704   4.175   2.974   2.119  0.1522 -0.7178 -0.3166
 2023SOL    HW117705   4.216   2.980   2.033 -0.1253 -0.5376 -0.4384
 2023SOL    HW217706   4.145   2.883   2.115 -0.2327 -0.5264 -1.6727
 2024SOL     OW17707   3.971   2.867   8.168 -0.1119  0.2968 -0.6069
 2024SOL    HW117708   3.898   2.928   8.179 -0.8942 -0.8226  0.4777
 2024SOL    HW217709   3.986   2.845   8.260  0.6283 -4.0163 -1.7611
 2025SOL     OW17710   0.874   1.191   5.995  0.0619  0.2211  0.4503
 2025SOL    HW117711   0.886   1.230   6.082 -0.7406  0.3423  0.5135
 2025SOL    HW217712   0.873   1.269   5.939  1.4735  1.1401  1.7073
 2026SOL     OW17713   3.066   0.511  16.572 -0.5787  0.3384 -0.0306
 2026SOL    HW117714   2.987   0.553  16.538 -0.2480  1.9665  1.1884
 2026SOL    HW217715   3.067   0.538  16.664 -1.4264 -0.8266  0.3147
 2027SOL     OW17716   3.392   4.050   8.189 -0.2813 -0.0597 -0.0807
 2027SOL    HW117717   3.336   3.973   8.176 -0.4434  0.2347 -1.0825
 2027SOL    HW217718   3.334   4.125   8.202 -0.6653 -0.5197  0.8680
 2028SOL     OW17719   3.626   2.608   6.858 -0.2029 -0.7178 -0.1047
 2028SOL    HW117720   3.635   2.702   6.846 -1.2064 -0.6251 -0.1596
 2028SOL    HW217721   3.666   2.576   6.777 -1.8609  0.8468 -1.5529
 2029SOL     OW17722   1.729   3.989   3.049  0.0312 -0.4026  0.1650
 2029SOL    HW117723   1.648   4.002   3.098 -0.1377  0.9160 -0.4634
 2029SOL    HW217724   1.718   3.895   3.034  1.2503 -0.2184 -1.8883
 2030SOL     OW17725   2.277   3.795   4.648  0.0622  0.3311 -0.6239
 2030SOL    HW117726   2.331   3.832   4.719  0.9333 -1.8607 -0.1315
 2030SOL    HW217727   2.199   3.850   4.642  0.2332  0.6588  0.1714
 2031SOL     OW17728   3.018   0.708  12.245  0.7079  0.3350 -0.4191
 2031SOL    HW117729   3.085   0.724  12.311  1.1869  1.9840 -1.3201
 2031SOL    HW217730   2.994   0.616  12.260  0.9924  0.3226 -0.0508
 2032SOL     OW17731   3.782   3.061   8.177  0.2707 -0.0093 -0.6933
 2032SOL    HW117732   3.782   3.141   8.124 -0.8809  0.6551  0.3265
 2032SOL    HW217733   3.740   3.097   8.255 -1.9384 -1.3325 -1.2861
 2033SOL     OW17734   3.054   2.226   5.870 -0.2988 -0.0650  0.4041
 2033SOL    HW117735   3.047   2.154   5.807 -2.6418 -0.6036  1.3048
 2033SOL    HW217736   3.050   2.298   5.807 -0.4424 -0.5116 -0.1039
 2034SOL     OW17737   2.819   0.113   7.161  0.2089  0.2501 -0.0576
 2034SOL    HW117738   2.836   0.058   7.085  0.0210  0.3345 -0.1600
 2034SOL    HW217739   2.817   0.200   7.123 -0.4439 -1.2476 -3.4266
 2035SOL     OW17740   0.823   2.369   9.166 -0.3798  0.4112 -0.2675
 2035SOL    HW117741   0.875   2.442   9.132 -0.6954  1.0770  0.6855
 2035SOL    HW217742   0.762   2.409   9.228  1.8844 -0.4499  2.5123
 2036SOL     OW17743   2.941   2.273   8.128  0.0507  0.2826 -0.0142
 2036SOL    HW117744   2.914   2.235   8.212 -0.6003  0.5685 -0.0951
 2036SOL    HW217745   2.861   2.305   8.084  0.3243  0.1084 -0.6428
 2037SOL     OW17746   2.205   1.033   3.177  0.7595  0.4076 -0.2547
 2037SOL    HW117747   2.257   0.986   3.113  0.0316 -2.0049  0.9233
 2037SOL    HW217748   2.263   1.103   3.209  1.1914 -0.1648  0.2058
 2038SOL     OW17749   0.210   3.454   3.661  0.4806  0.0024 -0.5478
 2038SOL    HW117750   0.140   3.398   3.625  0.9288 -0.9946  0.1445
 2038SOL    HW217751   0.264   3.460   3.582  2.4819  2.7273  1.0506
 2039SOL     OW17752   1.872   4.494   6.082  0.0680  0.2951  0.1038
 2039SOL    HW117753   1.855   4.556   6.011  2.3502  0.9482  0.1286
 2039SOL    HW217754   1.931   4.440   6.028 -0.2274  2.1317 -2.0694
 2040SOL     OW17755   0.331   2.046  16.380 -0.0415  0.6295  0.0199
 2040SOL    HW117756   0.308   1.957  16.403 -1.5867  0.7556 -1.0429
 2040SOL    HW217757   0.383   2.079  16.453  1.4198  0.0159 -0.7419
 2041SOL     OW17758   0.962   4.616   5.282 -0.0177  0.7995  0.0875
 2041SOL    HW117759   0.907   4.641   5.208 -0.8349 -0.4011  0.2789
 2041SOL    HW217760   1.005   4.701   5.288  0.5645  0.4866  0.4471
 2042SOL     OW17761   4.323   0.388   4.714  0.0902  0.5738  0.1026
 2042SOL    HW117762   4.344   0.482   4.713 -1.0622  0.8466  1.4204
 2042SOL    HW217763   4.228   0.396   4.726  0.1934  0.3692  1.0791
 2043SOL     OW17764   4.459   2.187  10.959 -0.4433 -0.3299 -0.3309
 2043SOL    HW117765   4.469   2.161  10.868  1.9854  1.7473 -0.6440
 2043SOL    HW217766   4.552   2.197  10.982 -0.4910 -0.7227  0.0334
 2044SOL     OW17767   4.187   0.573  14.895 -0.2885 -0.1300  0.1798
 2044SOL    HW117768   4.169   0.486  14.861 -0.2161 -0.0466 -0.0717
 2044SOL    HW217769   4.258   0.588  14.832 -1.3267 -0.5254 -1.0796
 2045SOL     OW17770   1.457   4.102   5.265 -0.8485  0.0332 -0.2447
 2045SOL    HW117771   1.451   4.008   5.282 -0.9643  0.0021 -0.4486
 2045SOL    HW217772   1.365   4.125   5.280 -0.2022  1.9633  0.7132
 2046SOL     OW17773   4.485   1.163  15.019  0.9168 -0.2537 -0.3215
 2046SOL    HW117774   4.403   1.186  15.063  0.7649  0.2556 -0.8699
 2046SOL    HW217775   4.454   1.110  14.946 -0.3249  0.6612 -0.4603
 2047SOL     OW17776   0.543   2.967  17.168 -0.5944 -0.6505 -0.0800
 2047SOL    HW117777   0.625   2.919  17.184 -0.8366 -1.2427 -0.6152
 2047SOL    HW217778   0.566   2.997  17.080 -0.1304 -1.2824 -0.1794
 2048SOL     OW17779   3.383   3.175   5.288  0.6533 -0.0602  0.6871
 2048SOL    HW117780   3.360   3.168   5.380 -0.7420  0.1954  0.3582
 2048SOL    HW217781   3.466   3.128   5.294  0.4285 -0.6558 -0.8271
 2049SOL     OW17782   0.946   0.788   4.708 -0.2504  0.1227 -0.5382
 2049SOL    HW117783   0.943   0.828   4.795 -0.2191  0.3467 -0.6408
 2049SOL    HW217784   1.009   0.845   4.666 -0.1096  0.2024 -0.2222
 2050SOL     OW17785   0.413   0.301   9.094 -0.3648  0.4093  0.5224
 2050SOL    HW117786   0.468   0.224   9.082  0.9111  1.2447  0.9738
 2050SOL    HW217787   0.437   0.336   9.180  2.8598 -1.0206  0.1649
 2051SOL     OW17788   1.282   1.742  12.918 -0.2692  0.5993 -0.2593
 2051SOL    HW117789   1.248   1.825  12.951  0.5078  0.6779  0.3393
 2051SOL    HW217790   1.355   1.761  12.859 -0.1750  2.3331  0.4264
 2052SOL     OW17791   1.740   0.742   5.437 -0.0339 -0.6010  0.4635
 2052SOL    HW117792   1.671   0.795   5.477 -0.4388 -0.7803 -0.0095
 2052SOL    HW217793   1.774   0.688   5.509  0.7404  0.4911  0.9261
 2053SOL     OW17794   1.129   3.078  16.522 -1.2340  0.2441 -0.2698
 2053SOL    HW117795   1.112   2.997  16.474  1.3848 -0.8433  0.6619
 2053SOL    HW217796   1.064   3.131  16.476  0.6401  1.0586 -1.9832
 2054SOL     OW17797   2.763   4.446  11.936 -0.9086  0.7477  0.1643
 2054SOL    HW117798   2.810   4.522  11.901  0.2503 -1.7286 -3.6307
 2054SOL    HW217799   2.799   4.372  11.888  0.9478  2.2038 -0.6983
 2055SOL     OW17800   2.568   2.001   3.542 -0.4419  0.6113  0.2504
 2055SOL    HW117801   2.509   1.925   3.545  0.6196 -0.1287  2.5534
 2055SOL    HW217802   2.503   2.069   3.560 -0.9319  0.8562 -2.4255
 2056SOL     OW17803   4.571   4.455   7.331 -0.1406  0.4916  0.2314
 2056SOL    HW117804   4.496   4.399   7.351 -0.8658  0.9315 -1.2649
 2056SOL    HW217805   4.549   4.486   7.243 -0.2663 -1.5276 -0.4568
 2057SOL     OW17806   2.435   3.979   6.497  0.0893  0.3794  0.6548
 2057SOL    HW117807   2.383   3.953   6.421 -1.0433  5.4615 -0.3720
 2057SOL    HW217808   2.372   3.947   6.561  0.4587  2.4893  2.1075
 2058SOL     OW17809   2.656   3.924   3.914  0.1844 -0.4312 -0.4552
 2058SOL    HW117810   2.718   3.876   3.859 -0.7946 -0.2879 -1.6850
 2058SOL    HW217811   2.661   3.870   3.993 -1.2494 -0.2916 -0.2696
 2059SOL     OW17812   4.451   1.665   7.475  0.1308  0.1815 -0.2660
 2059SOL    HW117813   4.512   1.591   7.480 -1.3911 -1.1432 -1.0573
 2059SOL    HW217814   4.510   1.724   7.521 -0.5300  1.8982 -1.5951
 2060SOL     OW17815   0.627   1.540   3.327 -0.6492  0.0403  0.0232
 2060SOL    HW117816   0.563   1.609   3.309  0.2694  0.8338 -0.2287
 2060SOL    HW217817   0.679   1.561   3.249 -0.9714 -2.7304 -0.9150
 2061SOL     OW17818   0.520   2.219   0.935  0.6669 -0.0777  0.4070
 2061SOL    HW117819   0.469   2.298   0.950  2.5224  1.4043 -1.0344
 2061SOL    HW217820   0.558   2.254   0.854 -1.5689  0.1887 -0.5246
 2062SOL     OW17821   2.836   0.292  10.633 -0.0708 -0.1016  0.2514
 2062SOL    HW117822   2.874   0.209  10.605 -0.6263  0.5898 -2.6104
 2062SOL    HW217823   2.820   0.269  10.724 -4.3412 -1.0512 -0.7043
 2063SOL     OW17824   0.155   1.987  17.645  0.2123  0.3155  0.0753
 2063SOL    HW117825   0.212   2.055  17.608  0.7294 -0.1041  0.1082
 2063SOL    HW217826   0.087   1.970  17.580  0.3166 -2.1861  0.6361
 2064SOL     OW17827   2.414   1.732   7.313  0.3182 -0.1725 -0.1718
 2064SOL    HW117828   2.489   1.692   7.358  0.2854 -1.4793 -1.2692
 2064SOL    HW217829   2.456   1.759   7.231 -1.0133 -0.5991 -1.0044
 2065SOL     OW17830   3.747   2.520   6.313 -0.5620 -0.2817 -0.3700
 2065SOL    HW117831   3.668   2.466   6.312 -0.3324 -0.6298  0.7410
 2065SOL    HW217832   3.758   2.541   6.220  1.8247  2.0564  0.4324
 2066SOL     OW17833   3.060   2.976   4.427  0.6589 -0.2677  0.8205
 2066SOL    HW117834   3.016   2.983   4.343 -1.2211  1.3191  1.9554
 2066SOL    HW217835   3.139   2.934   4.393 -0.3126 -1.1343 -0.3627
 2067SOL     OW17836   3.863   3.671   9.444  0.2643 -0.5284 -0.0192
 2067SOL    HW117837   3.870   3.714   9.358  0.2201 -1.0217 -0.2718
 2067SOL    HW217838   3.826   3.588   9.413  2.5477 -1.8667  0.8218
 2068SOL     OW17839   3.493   2.421  15.353 -0.0982  0.2514  0.6333
 2068SOL    HW117840   3.587   2.416  15.371 -0.3348 -2.0382  1.3048
 2068SOL    HW217841   3.456   2.380  15.431 -2.4217  0.1459 -0.5229
 2069SOL     OW17842   1.695   1.515   0.584  0.5245  0.2936  0.4738
 2069SOL    HW117843   1.659   1.537   0.498 -2.1680 -1.8171  1.0514
 2069SOL    HW217844   1.716   1.607   0.603  0.0925  0.3963  0.4745
 2070SOL     OW17845   2.087   2.360  14.540  0.0839 -0.1185 -0.7239
 2070SOL    HW117846   2.043   2.277  14.522 -1.0400  0.0194  1.3990
 2070SOL    HW217847   2.080   2.371  14.635 -3.2858  1.3656 -1.1389
 2071SOL     OW17848   0.664   0.748  15.293  0.5414  0.5507  0.2649
 2071SOL    HW117849   0.676   0.798  15.212 -0.3939  2.5554  1.3677
 2071SOL    HW217850   0.729   0.680  15.276 -0.3388 -0.6590  1.7427
 2072SOL     OW17851   1.157   0.072   7.104 -0.6977 -0.1374 -0.2434
 2072SOL    HW117852   1.207   0.147   7.136  2.0585 -1.3399 -1.7659
 2072SOL    HW217853   1.068   0.108   7.104 -0.1120  1.3832  3.6259
 2073SOL     OW17854   3.464   3.415   7.461  0.4936  0.2825 -0.1536
 2073SOL    HW117855   3.529   3.353   7.494  0.1245 -2.1637 -3.9720
 2073SOL    HW217856   3.437   3.371   7.380  0.2671  0.9896 -0.4665
 2074SOL     OW17857   2.915   1.720   2.417 -0.5168  0.5380  0.7822
 2074SOL    HW117858   2.843   1.756   2.469  0.8353  0.3541  2.8012
 2074SOL    HW217859   2.873   1.657   2.359  0.8266  0.7110 -0.3859
 2075SOL     OW17860   3.487   0.851   7.714 -0.1474  0.5568  0.0341
 2075SOL    HW117861   3.543   0.874   7.789 -0.4417 -0.8697  0.6971
 2075SOL    HW217862   3.419   0.809   7.766 -1.0309  0.7992 -0.9432
 2076SOL     OW17863   2.117   0.355  12.513 -0.1506 -0.7024 -0.5921
 2076SOL    HW117864   2.188   0.291  12.513  0.8666  0.4174  0.1550
 2076SOL    HW217865   2.139   0.416  12.583 -0.5740 -0.2287 -0.8730
 2077SOL     OW17866   0.204   2.192   4.526 -0.4037  0.0690 -0.3805
 2077SOL    HW117867   0.197   2.266   4.465 -0.6826  1.2183  1.0388
 2077SOL    HW217868   0.254   2.128   4.475  0.0344  0.7818 -0.8526
 2078SOL     OW17869   2.981   0.025   4.847 -0.2105 -0.0231 -0.3380
 2078SOL    HW117870   2.989   0.100   4.905  0.8401  0.5120 -1.1523
 2078SOL    HW217871   2.994   0.060   4.758  0.8179  1.9710  0.5957
 2079SOL     OW17872   0.481   0.021   6.031 -0.2622  0.3514  0.1858
 2079SOL    HW117873   0.477   4.669   6.063  0.8223 -0.1681 -1.1808
 2079SOL    HW217874   0.561   0.018   5.979 -1.1597 -0.0643 -1.1612
 2080SOL     OW17875   2.930   3.322   1.724  0.0036  0.0658  0.0856
 2080SOL    HW117876   2.897   3.275   1.801  2.1290  0.7254  1.4005
 2080SOL    HW217877   2.864   3.296   1.660 -0.0857 -0.6323  0.4516
 2081SOL     OW17878   0.885   2.113   8.111 -0.0014 -0.3463 -0.0923
 2081SOL    HW117879   0.790   2.119   8.124 -0.0325 -1.2183  0.1210
 2081SOL    HW217880   0.880   2.019   8.130  0.2768 -0.5718 -1.1079
 2082SOL     OW17881   3.090   0.439   1.512  0.1425  0.0479  0.6950
 2082SOL    HW117882   3.093   0.414   1.605  1.0433 -0.6543  0.4799
 2082SOL    HW217883   3.007   0.485   1.507  0.2110 -0.0681 -1.3485
 2083SOL     OW17884   0.635   2.365  17.496  0.3643 -0.1903 -0.6859
 2083SOL    HW117885   0.614   2.442  17.549 -1.3202 -0.1189 -1.4302
 2083SOL    HW217886   0.656   2.416  17.418 -0.1617  0.7942 -0.1797
 2084SOL     OW17887   1.028   2.561   4.494 -0.6184 -0.6827  0.0025
 2084SOL    HW117888   0.946   2.557   4.445 -0.8282  2.5679  0.0724
 2084SOL    HW217889   1.085   2.518   4.430 -2.1130 -1.8658 -0.5122
 2085SOL     OW17890   3.643   1.432   8.479  0.7489  0.3355  0.1221
 2085SOL    HW117891   3.715   1.371   8.493  0.7639 -0.0559 -1.6016
 2085SOL    HW217892   3.692   1.496   8.428  0.6857 -0.4093 -0.8919
 2086SOL     OW17893   0.400   0.050   8.715  0.4060 -0.4645  0.2399
 2086SOL    HW117894   0.472   4.737   8.677  1.0030  1.1012 -0.7231
 2086SOL    HW217895   0.365   4.719   8.772  2.4829 -0.0376  1.9703
 2087SOL     OW17896   4.716   4.452   5.610 -1.1205 -0.5149  0.1508
 2087SOL    HW117897   4.658   4.382   5.641  0.0430 -0.9984  1.2547
 2087SOL    HW217898   4.732   4.488   5.698  1.1860  2.2350 -1.4106
 2088SOL     OW17899   4.340   0.510   1.907  0.3063  0.3677  0.0210
 2088SOL    HW117900   4.428   0.546   1.893  0.5602 -0.3895 -0.3096
 2088SOL    HW217901   4.291   0.574   1.857  1.0267  0.7111 -0.2495
 2089SOL     OW17902   1.275   2.894   4.841  0.1366 -0.2914 -0.4990
 2089SOL    HW117903   1.213   2.946   4.790  0.7843 -0.0095 -0.9967
 2089SOL    HW217904   1.266   2.941   4.923 -2.1042  2.5958 -2.3734
 2090SOL     OW17905   4.150   3.833   9.935 -0.2160 -0.4198  0.0783
 2090SOL    HW117906   4.081   3.890   9.968  1.7170  0.6904  2.1789
 2090SOL    HW217907   4.196   3.888   9.872  1.9824 -1.6864  0.5898
 2091SOL     OW17908   1.418   2.590   7.404  0.6175  0.0493  0.3502
 2091SOL    HW117909   1.469   2.648   7.348  0.5456 -1.2539 -1.0634
 2091SOL    HW217910   1.338   2.640   7.414 -0.1885 -1.2054  0.2117
 2092SOL     OW17911   3.920   0.237   3.238  0.0909 -0.6224  0.3434
 2092SOL    HW117912   3.989   0.180   3.270  0.8853 -1.6724 -3.1725
 2092SOL    HW217913   3.950   0.315   3.283 -0.0839  0.0968 -0.7776
 2093SOL     OW17914   3.657   3.285   2.722 -0.2491  0.0566  0.5428
 2093SOL    HW117915   3.568   3.283   2.687 -0.9970  1.7252  2.3530
 2093SOL    HW217916   3.643   3.251   2.811  1.4802 -2.2958 -0.0956
 2094SOL     OW17917   4.276   4.016   9.776  0.3088 -0.4983  0.4660
 2094SOL    HW117918   4.262   4.110   9.770 -0.3016 -0.6025  0.1731
 2094SOL    HW217919   4.209   3.986   9.713 -1.2931  2.9812  0.5153
 2095SOL     OW17920   2.456   0.681   7.044 -0.3483 -0.0811 -0.3705
 2095SOL    HW117921   2.517   0.609   7.059 -2.1248 -1.6422 -0.6880
 2095SOL    HW217922   2.387   0.673   7.110  0.2935  0.1953  0.3256
 2096SOL     OW17923   3.636   0.459   4.283  0.0202 -0.0475 -0.2310
 2096SOL    HW117924   3.578   0.408   4.226 -1.7438  2.6403 -0.8465
 2096SOL    HW217925   3.639   0.537   4.226  1.0435 -0.0325 -0.1610
 2097SOL     OW17926   2.763   0.709   3.804  0.4043  0.1340  0.0541
 2097SOL    HW117927   2.668   0.714   3.796  0.5197  3.0689  0.5963
 2097SOL    HW217928   2.785   0.743   3.717 -0.2836  0.7345  0.1134
 2098SOL     OW17929   3.318   2.632  15.453  0.6139 -0.3335  0.4320
 2098SOL    HW117930   3.383   2.568  15.426  2.4067  0.2982  3.3030
 2098SOL    HW217931   3.349   2.712  15.411 -3.0480  0.4283 -0.9024
 2099SOL     OW17932   3.912   2.579   1.631  0.1150 -0.3655  0.4266
 2099SOL    HW117933   3.868   2.518   1.690  0.9486  0.1435  1.5812
 2099SOL    HW217934   3.939   2.636   1.703 -0.2803  2.1022 -1.4181
 2100SOL     OW17935   2.948   0.959   4.422  0.6512 -0.3478 -0.6019
 2100SOL    HW117936   3.023   1.012   4.450  0.4137 -1.0869  1.4017
 2100SOL    HW217937   2.932   0.889   4.485  0.1734 -1.3719 -1.8548
 2101SOL     OW17938   3.261   0.310   1.359  1.0697 -0.3608  0.0679
 2101SOL    HW117939   3.239   0.220   1.381  1.8390 -0.6218 -0.2098
 2101SOL    HW217940   3.200   0.355   1.418  3.3059  1.4367  1.0048
 2102SOL     OW17941   3.528   1.980   5.128  0.4867 -0.2475  0.1835
 2102SOL    HW117942   3.622   1.987   5.117  0.5110 -1.4621 -0.3802
 2102SOL    HW217943   3.508   1.887   5.127  0.2992 -0.1957 -1.0570
 2103SOL     OW17944   3.799   1.803   9.745 -0.4776  0.0556  0.3531
 2103SOL    HW117945   3.744   1.878   9.720 -0.9405 -1.2301 -2.4211
 2103SOL    HW217946   3.741   1.728   9.732 -0.8054  0.3750 -0.0352
 2104SOL     OW17947   1.381   2.388   2.236 -0.5547 -0.5529  0.1274
 2104SOL    HW117948   1.448   2.396   2.304  0.8341  2.2780 -1.5623
 2104SOL    HW217949   1.404   2.454   2.170 -0.0613 -0.9109 -0.0574
 2105SOL     OW17950   2.431   0.104  14.796  0.4415  0.2172  0.4711
 2105SOL    HW117951   2.383   0.091  14.715  0.8616 -0.9335  0.4036
 2105SOL    HW217952   2.401   0.020  14.831 -0.7626 -0.1659 -1.5085
 2106SOL     OW17953   0.425   1.887   2.753 -0.1194 -0.2707  0.0364
 2106SOL    HW117954   0.478   1.832   2.695 -0.7570 -0.3351 -0.4884
 2106SOL    HW217955   0.362   1.827   2.792 -1.6133  0.9586 -0.4691
 2107SOL     OW17956   0.826   3.974   4.867 -0.3837 -0.1680  0.3144
 2107SOL    HW117957   0.916   3.942   4.859 -0.1721  1.0296 -2.2083
 2107SOL    HW217958   0.796   3.926   4.944 -0.3744  0.2462  0.5772
 2108SOL     OW17959   1.469   1.209  16.910  0.2999  0.4435 -0.7645
 2108SOL    HW117960   1.513   1.271  16.968 -1.4292  0.1202  0.9002
 2108SOL    HW217961   1.450   1.260  16.831  0.2829 -0.6738 -1.4835
 2109SOL     OW17962   2.333   0.597  11.579  0.4821  0.4651  0.1392
 2109SOL    HW117963   2.297   0.632  11.660  0.8783  0.9286  0.1171
 2109SOL    HW217964   2.375   0.675  11.543  0.2489 -0.2037 -1.6106
 2110SOL     OW17965   3.300   4.618   9.677 -0.3667  0.1166  0.4852
 2110SOL    HW117966   3.255   4.702   9.682 -1.5549 -0.3101 -2.7640
 2110SOL    HW217967   3.284   4.595   9.585  1.4361 -0.2538  0.2683
 2111SOL     OW17968   3.394   0.698   8.107  0.2219  0.0523  0.0745
 2111SOL    HW117969   3.419   0.767   8.169 -0.9180 -0.8258  1.5142
 2111SOL    HW217970   3.481   0.671   8.079  0.0068 -1.0599  0.4709
 2112SOL     OW17971   1.279   4.243   3.840 -0.3859  0.3515  0.1201
 2112SOL    HW117972   1.285   4.227   3.934  0.4297  2.9901  0.5174
 2112SOL    HW217973   1.350   4.188   3.806 -0.0295  2.2659 -2.1756
 2113SOL     OW17974   4.601   0.158   3.503  0.0887 -0.1269 -0.3549
 2113SOL    HW117975   4.579   0.087   3.562  1.4225 -0.0098  0.2872
 2113SOL    HW217976   4.667   0.213   3.546 -3.0300  4.0863 -0.9804
 2114SOL     OW17977   0.115   1.163  16.660  0.0191  0.4397  0.1828
 2114SOL    HW117978   0.158   1.113  16.591 -1.2873  2.1037 -1.8252
 2114SOL    HW217979   0.028   1.190  16.629 -0.3787  0.1832  1.0629
 2115SOL     OW17980   1.064   1.223   8.791  0.1920  0.4762  0.0896
 2115SOL    HW117981   1.071   1.188   8.702 -2.4274  0.1080  0.0361
 2115SOL    HW217982   1.129   1.165   8.830  1.0138  0.9450 -0.5841
 2116SOL     OW17983   1.852   4.266  13.870 -0.1803 -0.0031 -0.6408
 2116SOL    HW117984   1.760   4.249  13.851 -0.1284 -0.6588 -0.3020
 2116SOL    HW217985   1.908   4.208  13.817 -0.9849 -1.0023 -0.3927
 2117SOL     OW17986   2.130   1.607   6.848  0.6080 -0.1688 -0.5923
 2117SOL    HW117987   2.061   1.542   6.837 -0.0952  0.7020 -1.3134
 2117SOL    HW217988   2.100   1.644   6.931  1.0421 -0.8692 -0.1231
 2118SOL     OW17989   4.661   2.571   0.129  0.0465  0.0711  0.3594
 2118SOL    HW117990   4.704   2.490   0.103  0.5308  0.7366 -0.9679
 2118SOL    HW217991   4.620   2.591   0.045 -0.5828 -0.7280  0.4809
 2119SOL     OW17992   3.409   1.832   7.152 -0.2252  0.1564  0.8293
 2119SOL    HW117993   3.396   1.767   7.083  2.2863  2.9591 -2.2870
 2119SOL    HW217994   3.414   1.781   7.233 -0.1861  0.3535  0.9526
 2120SOL     OW17995   1.988   1.143   2.592 -0.1488  0.2780  0.3706
 2120SOL    HW117996   2.083   1.142   2.589 -0.2074  0.1386 -2.1771
 2120SOL    HW217997   1.978   1.071   2.529  0.0120 -0.0397  0.7109
 2121SOL     OW17998   0.835   1.386  14.968 -0.2330 -0.5844 -0.0607
 2121SOL    HW117999   0.770   1.388  15.038 -0.1883  2.2916 -0.0920
 2121SOL    HW218000   0.828   1.292  14.949  1.7465 -0.9345  0.9653
 2122SOL     OW18001   3.077   0.292   8.994 -0.6209  0.4351  0.5563
 2122SOL    HW118002   3.034   0.207   9.006 -0.3524  0.2132 -0.0685
 2122SOL    HW218003   3.159   0.266   9.035 -0.8723 -0.5262  0.4441
 2123SOL     OW18004   3.497   3.168  11.219  0.0216  0.6486  0.3246
 2123SOL    HW118005   3.476   3.077  11.199 -0.4923  0.8952 -0.2701
 2123SOL    HW218006   3.479   3.202  11.131  0.6888 -1.4951 -0.6256
 2124SOL     OW18007   0.979   1.956  10.423  0.0267 -0.3686  0.0528
 2124SOL    HW118008   1.049   1.954  10.488 -1.9123  0.4099  2.1728
 2124SOL    HW218009   1.025   2.006  10.355 -0.7869  1.1134  0.5808
 2125SOL     OW18010   3.049   4.254  15.356 -0.1251  0.2471  0.2130
 2125SOL    HW118011   2.979   4.318  15.354 -0.9814 -0.6960  0.2042
 2125SOL    HW218012   3.081   4.270  15.445 -0.7399 -0.3537  0.5419
 2126SOL     OW18013   4.444   0.328   8.037  0.3033 -0.2450  0.4429
 2126SOL    HW118014   4.498   0.324   7.958 -1.5579 -0.0919 -0.8320
 2126SOL    HW218015   4.402   0.408   8.007  2.0264  0.1063 -1.0282
 2127SOL     OW18016   2.511   2.868   5.095  0.1653  0.6019 -0.1434
 2127SOL    HW118017   2.418   2.887   5.107  0.0491  0.5202 -0.9737
 2127SOL    HW218018   2.537   2.862   5.188  0.0341 -0.8273 -0.2038
 2128SOL     OW18019   0.550   0.307   5.997 -0.0008 -0.9483  0.5969
 2128SOL    HW118020   0.567   0.336   5.908 -0.7685  0.5191  0.9317
 2128SOL    HW218021   0.601   0.226   6.003 -0.0434 -1.2246 -3.1069
 2129SOL     OW18022   3.863   0.478  12.967 -0.3669 -0.1926 -0.7785
 2129SOL    HW118023   3.891   0.470  12.875  0.8773  0.6720 -0.4719
 2129SOL    HW218024   3.916   0.551  12.996  0.0362 -1.4976  1.7024
 2130SOL     OW18025   2.157   3.279   0.566  0.4490  0.1911 -0.1790
 2130SOL    HW118026   2.241   3.325   0.565  0.3224  0.4254  0.0765
 2130SOL    HW218027   2.144   3.275   0.471  0.3999  0.7408 -0.1980
 2131SOL     OW18028   0.867   0.815   3.853  0.4859  0.5838 -0.1334
 2131SOL    HW118029   0.782   0.775   3.871  2.4077 -3.2046  0.4500
 2131SOL    HW218030   0.903   0.783   3.936  0.9647  1.2385 -0.0911
 2132SOL     OW18031   3.834   1.518  15.695  0.9064  0.8611 -0.2370
 2132SOL    HW118032   3.849   1.613  15.704 -2.5470  1.2705  1.0448
 2132SOL    HW218033   3.882   1.511  15.612 -0.4967  1.4358 -1.0953
 2133SOL     OW18034   2.780   4.563   2.681  0.2901 -0.4939  0.6610
 2133SOL    HW118035   2.719   4.625   2.721 -1.9716 -1.0975 -1.8906
 2133SOL    HW218036   2.735   4.479   2.690 -1.2087  0.1213 -1.0650
 2134SOL     OW18037   2.852   4.378  14.634  0.1051  0.2358 -0.2454
 2134SOL    HW118038   2.887   4.290  14.620  1.1706  0.5784  0.2004
 2134SOL    HW218039   2.789   4.361  14.703  2.9768  0.8699  2.5673
 2135SOL     OW18040   1.180   1.762   3.332  0.1393  0.2396 -0.0417
 2135SOL    HW118041   1.225   1.833   3.287  0.1360 -1.3084 -2.4595
 2135SOL    HW218042   1.133   1.813   3.398 -0.3485 -0.0877 -0.1394
 2136SOL     OW18043   0.352   3.022   6.220 -0.0883 -0.6421  0.3911
 2136SOL    HW118044   0.369   3.114   6.201 -0.3417 -0.3770  1.4066
 2136SOL    HW218045   0.395   3.009   6.305  0.6245  1.3203  0.3451
 2137SOL     OW18046   2.573   2.986   6.182  0.4501 -0.0580 -0.1384
 2137SOL    HW118047   2.632   3.056   6.152  0.3768  0.5875  1.2426
 2137SOL    HW218048   2.624   2.908   6.162  0.1536 -0.8296  2.2246
 2138SOL     OW18049   0.820   1.450   8.249 -0.2941  0.5719  0.6259
 2138SOL    HW118050   0.881   1.423   8.317  1.0371 -2.2644 -1.7183
 2138SOL    HW218051   0.795   1.537   8.280 -1.6416  1.0023 -1.6709
 2139SOL     OW18052   1.469   4.225   6.789  0.2373  0.4647  0.1287
 2139SOL    HW118053   1.553   4.260   6.761 -0.5301  1.7091 -0.5839
 2139SOL    HW218054   1.420   4.307   6.790 -1.2197 -0.3781 -1.9529
 2140SOL     OW18055   0.297   2.374   3.610 -0.4151  0.0593 -0.1364
 2140SOL    HW118056   0.276   2.281   3.606  2.2427 -0.3866 -3.4302
 2140SOL    HW218057   0.379   2.366   3.561 -0.0205 -2.0514  0.8581
 2141SOL     OW18058   1.850   0.747  13.356 -0.5236 -0.0553  0.2383
 2141SOL    HW118059   1.934   0.790  13.337 -0.5615  0.3378  0.9348
 2141SOL    HW218060   1.789   0.805  13.311  0.7495  1.4318  0.3941
 2142SOL     OW18061   0.150   3.978   5.673 -0.2853 -0.0296 -0.4939
 2142SOL    HW118062   0.135   4.025   5.591 -1.2461  0.8689  0.2035
 2142SOL    HW218063   0.083   3.910   5.667 -0.5251  0.3024 -1.5918
 2143SOL     OW18064   2.354   0.721  13.831  0.1744 -0.1621 -0.1155
 2143SOL    HW118065   2.445   0.708  13.805 -0.9557 -3.6332 -2.3131
 2143SOL    HW218066   2.316   0.640  13.864  2.6541 -2.0242 -1.8261
 2144SOL     OW18067   0.033   0.281   2.207  0.3931 -0.0568 -0.3313
 2144SOL    HW118068   4.681   0.314   2.194  0.2636 -1.4233 -2.8614
 2144SOL    HW218069   0.051   0.218   2.137 -1.3548 -0.0297 -0.8169
 2145SOL     OW18070   3.324   3.633   6.332 -0.6989  0.5378  0.2033
 2145SOL    HW118071   3.234   3.636   6.363 -1.4049  0.5218 -1.8467
 2145SOL    HW218072   3.373   3.608   6.410  1.0564  1.3242 -0.6497
 2146SOL     OW18073   2.052   3.459  15.684 -0.7203  0.1855 -0.2183
 2146SOL    HW118074   1.964   3.440  15.718 -1.0077 -2.2710 -2.3559
 2146SOL    HW218075   2.027   3.490  15.597 -1.6844 -1.2120 -0.4351
 2147SOL     OW18076   3.726   0.195   9.776  0.3303 -0.1698  0.2104
 2147SOL    HW118077   3.701   0.107   9.802  4.3503 -1.6303 -0.7675
 2147SOL    HW218078   3.708   0.251   9.851 -0.7828  1.9698 -1.6387
 2148SOL     OW18079   1.071   2.180   6.289 -0.1713 -0.2885  1.0437
 2148SOL    HW118080   1.020   2.202   6.368 -0.4989  1.8414  0.2297
 2148SOL    HW218081   1.096   2.269   6.266 -0.6406 -0.1826  0.9425
 2149SOL     OW18082   2.840   2.688   7.661 -0.2994 -0.1522 -0.0714
 2149SOL    HW118083   2.828   2.595   7.646  0.5746 -0.0982 -1.0245
 2149SOL    HW218084   2.752   2.725   7.669 -0.8398 -1.2714 -0.8539
 2150SOL     OW18085   3.610   1.148  12.638  0.4274 -0.0194 -0.5987
 2150SOL    HW118086   3.544   1.120  12.574  0.7583 -0.9036 -0.5630
 2150SOL    HW218087   3.644   1.225  12.593 -2.3855  1.3110 -0.4885
 2151SOL     OW18088   1.164   2.430   2.703 -0.2079  0.0999 -0.1477
 2151SOL    HW118089   1.096   2.451   2.766  2.7326  1.9096  2.4362
 2151SOL    HW218090   1.124   2.371   2.639 -1.2455  2.1397 -1.4082
 2152SOL     OW18091   1.431   0.884   5.866  0.0252  0.1281 -0.2319
 2152SOL    HW118092   1.469   0.868   5.779 -1.2643 -2.9029 -0.2355
 2152SOL    HW218093   1.423   0.980   5.866 -1.6050 -0.0211  1.1485
 2153SOL     OW18094   2.219   4.185   3.081  0.3226 -0.0273 -0.3869
 2153SOL    HW118095   2.132   4.152   3.102  1.3199 -2.1882  0.2554
 2153SOL    HW218096   2.210   4.190   2.986 -0.7501  0.2412 -0.2712
 2154SOL     OW18097   0.544   1.527   4.443 -0.2218 -0.2729 -0.1077
 2154SOL    HW118098   0.585   1.448   4.408  0.2408  0.7510 -1.8486
 2154SOL    HW218099   0.461   1.521   4.396  0.5990 -0.3123 -1.5455
 2155SOL     OW18100   3.635   0.925   6.949 -0.2171  0.1082  0.4112
 2155SOL    HW118101   3.588   0.894   6.872  1.1206  0.2601 -0.4765
 2155SOL    HW218102   3.695   0.852   6.966 -0.1785 -0.1120 -0.7022
 2156SOL     OW18103   4.720   1.036   6.504  0.0433 -0.3869  0.7185
 2156SOL    HW118104   0.038   1.022   6.427  1.1494  2.9405  0.9320
 2156SOL    HW218105   4.654   1.095   6.467 -1.2947 -2.1131  0.3145
 2157SOL     OW18106   2.780   1.860   1.822  0.0719 -0.7124  0.7435
 2157SOL    HW118107   2.736   1.940   1.793  0.5270 -0.7378 -0.0448
 2157SOL    HW218108   2.771   1.807   1.742  0.4571 -1.2744  1.0735
 2158SOL     OW18109   2.489   3.617   7.370 -0.4876 -0.1624  0.0113
 2158SOL    HW118110   2.404   3.648   7.402 -0.7261  0.7085 -1.5164
 2158SOL    HW218111   2.531   3.587   7.451 -1.8357  0.2358  0.8593
 2159SOL     OW18112   3.832   2.154   4.713  0.2739 -0.2423  0.2843
 2159SOL    HW118113   3.870   2.157   4.624 -1.3620  0.4978 -0.3816
 2159SOL    HW218114   3.877   2.227   4.756  1.7372  0.7436 -2.8882
 2160SOL     OW18115   3.264   3.806   9.643 -0.7521 -0.3400 -0.6425
 2160SOL    HW118116   3.334   3.751   9.679 -0.1736  0.3522 -0.7065
 2160SOL    HW218117   3.213   3.835   9.718 -0.0644 -1.6340  0.3278
 2161SOL     OW18118   0.949   3.707   5.882 -0.0632 -0.1830  0.6714
 2161SOL    HW118119   0.860   3.738   5.867 -0.4854 -0.8897  1.6784
 2161SOL    HW218120   0.929   3.616   5.906 -2.1089  0.0299 -0.2333
 2162SOL     OW18121   1.207   3.632  17.520 -0.1912 -0.0459 -0.2983
 2162SOL    HW118122   1.215   3.719  17.480  1.4995  0.0946  0.3472
 2162SOL    HW218123   1.185   3.656  17.609 -1.6963  0.3405 -0.7831
 2163SOL     OW18124   0.495   0.562   5.014  0.2812  0.0780 -0.5453
 2163SOL    HW118125   0.550   0.640   5.019 -1.3200  1.3064 -2.2602
 2163SOL    HW218126   0.474   0.569   4.921 -0.3796  0.7564 -0.3433
 2164SOL     OW18127   3.553   3.391   3.759 -0.2305 -0.8367 -0.6477
 2164SOL    HW118128   3.514   3.443   3.829  0.1564 -2.0024  0.4461
 2164SOL    HW218129   3.586   3.464   3.707 -1.6972 -0.1776 -0.6652
 2165SOL     OW18130   2.950   4.024  10.586  0.1304 -0.3404  0.3549
 2165SOL    HW118131   2.880   3.991  10.643 -0.5866  2.6528  1.1925
 2165SOL    HW218132   3.024   4.027  10.647  0.8907  1.3667 -0.6682
 2166SOL     OW18133   2.102   4.733   5.874 -0.3613 -0.7524  0.0833
 2166SOL    HW118134   2.181   0.045   5.894 -0.8914 -0.8966  2.5730
 2166SOL    HW218135   2.072   4.732   5.965 -0.2969 -0.3966  0.1078
 2167SOL     OW18136   3.151   0.623   7.121 -0.3967  0.2170 -0.0733
 2167SOL    HW118137   3.112   0.685   7.060  1.1025  2.0912  0.8568
 2167SOL    HW218138   3.078   0.602   7.179 -0.0655  1.1623  0.6725
 2168SOL     OW18139   1.490   3.182  11.082 -0.2154 -0.2352 -0.1450
 2168SOL    HW118140   1.534   3.129  11.148 -1.0030  0.4199  0.8957
 2168SOL    HW218141   1.567   3.218  11.039  0.2645  0.3689  1.2088
 2169SOL     OW18142   3.424   1.582   3.147  0.0111  0.1375 -0.1724
 2169SOL    HW118143   3.331   1.572   3.165 -0.3323  3.2224 -0.2116
 2169SOL    HW218144   3.443   1.514   3.082  1.0528 -0.9489  1.2828
 2170SOL     OW18145   3.330   4.533   0.616 -0.2453  0.1869 -0.4482
 2170SOL    HW118146   3.299   4.517   0.705 -0.2779  1.1053 -0.2946
 2170SOL    HW218147   3.396   4.464   0.611 -1.4004 -1.1422  2.3703
 2171SOL     OW18148   3.540   0.574  16.406 -0.0043  0.0131  0.2286
 2171SOL    HW118149   3.529   0.567  16.501  0.0255  0.6992  0.2837
 2171SOL    HW218150   3.451   0.584  16.374  0.1918 -0.2065 -0.3899
 2172SOL     OW18151   0.544   4.331   8.362 -0.1817 -0.0700 -0.3402
 2172SOL    HW118152   0.617   4.304   8.306 -0.9227 -1.2203 -0.7396
 2172SOL    HW218153   0.499   4.247   8.372 -1.5955  0.6067 -1.0351
 2173SOL     OW18154   4.120   4.221   7.464  0.1490  0.3746 -0.3442
 2173SOL    HW118155   4.068   4.297   7.439 -0.1445 -0.2804 -1.7375
 2173SOL    HW218156   4.114   4.230   7.559 -2.9075 -0.0540 -0.5018
 2174SOL     OW18157   2.927   1.860   5.386 -1.2166 -0.4267 -0.0695
 2174SOL    HW118158   2.971   1.881   5.304  2.6461 -1.5149  1.7347
 2174SOL    HW218159   2.878   1.779   5.371 -0.3100 -1.3394  1.8062
 2175SOL     OW18160   2.798   0.600  16.262  0.1140  0.1896  0.2452
 2175SOL    HW118161   2.733   0.643  16.206 -0.5390  2.2830  2.6055
 2175SOL    HW218162   2.817   0.518  16.216 -0.3013  0.7568 -0.9374
 2176SOL     OW18163   1.245   3.583   8.453  0.2263  0.2323  0.2127
 2176SOL    HW118164   1.297   3.657   8.485  1.8437 -0.2363 -1.3058
 2176SOL    HW218165   1.213   3.617   8.369  1.4414 -1.2594 -0.8588
 2177SOL     OW18166   2.707   0.088   2.436 -0.1681  0.0070 -0.5847
 2177SOL    HW118167   2.613   0.095   2.451 -0.2255  0.9126 -1.3883
 2177SOL    HW218168   2.733   0.177   2.460  2.0220 -0.9990  0.8062
 2178SOL     OW18169   2.008   0.414  11.310 -0.6490 -0.0818 -0.1658
 2178SOL    HW118170   1.927   0.371  11.337 -0.4786 -0.0566  0.3951
 2178SOL    HW218171   1.996   0.499  11.353 -0.2794  0.1004 -0.4175
 2179SOL     OW18172   4.199   4.713   3.905 -0.1365 -0.5723  0.0548
 2179SOL    HW118173   4.147   0.012   3.977  1.7467  0.5618  0.8341
 2179SOL    HW218174   4.157   4.627   3.907 -1.9275  0.2715 -1.4195
 2180SOL     OW18175   2.006   2.204   7.519 -0.0329  0.5710 -0.0516
 2180SOL    HW118176   1.920   2.240   7.495 -0.6091  0.1088  1.3396
 2180SOL    HW218177   2.068   2.276   7.530 -0.3492  0.2390  3.8823
 2181SOL     OW18178   2.808   4.519   8.445 -0.1201 -0.1102 -0.2719
 2181SOL    HW118179   2.884   4.484   8.398 -0.5392 -0.8045 -0.4158
 2181SOL    HW218180   2.858   4.564   8.514 -1.7279  1.0473  0.1401
 2182SOL     OW18181   0.316   3.210   5.923  0.0618 -0.3712  0.0730
 2182SOL    HW118182   0.391   3.160   5.891 -0.0485  0.2447 -1.1768
 2182SOL    HW218183   0.338   3.220   6.015  0.4518 -0.3292 -0.0263
 2183SOL     OW18184   2.265   2.739   2.898  0.0990  0.2673 -0.1929
 2183SOL    HW118185   2.210   2.663   2.880 -0.4980  0.2956  1.4401
 2183SOL    HW218186   2.303   2.761   2.813 -1.9942  3.2693 -0.3355
 2184SOL     OW18187   3.314   3.957  11.601 -0.1983  0.2801 -0.8228
 2184SOL    HW118188   3.270   3.876  11.576 -1.3024  0.6418 -0.0056
 2184SOL    HW218189   3.243   4.020  11.605  0.2567  0.4623  3.8413
 2185SOL     OW18190   0.911   0.720  12.991 -0.5606  0.7651  0.3367
 2185SOL    HW118191   0.845   0.652  12.978  0.1367  0.6452 -2.6383
 2185SOL    HW218192   0.989   0.674  12.961 -0.0090  0.5233  2.1771
 2186SOL     OW18193   3.074   4.581   5.418 -0.1039 -0.2782  0.5463
 2186SOL    HW118194   3.021   4.621   5.348  2.8816 -0.2066 -1.6452
 2186SOL    HW218195   3.110   4.505   5.372  0.1327 -1.5608  2.8359
 2187SOL     OW18196   0.322   3.094   8.062  0.2351 -0.4537  0.1350
 2187SOL    HW118197   0.288   3.104   8.151 -0.0576  1.7203 -0.2234
 2187SOL    HW218198   0.395   3.044   8.099  0.0013 -0.5557  0.4612
 2188SOL     OW18199   3.998   4.087   2.606 -0.4578 -0.0007 -0.3715
 2188SOL    HW118200   4.012   4.181   2.599  3.0412 -0.6426 -1.8399
 2188SOL    HW218201   3.951   4.087   2.689 -1.1472  0.0506 -0.7594
 2189SOL     OW18202   4.512   1.342   3.666  0.4980 -0.0617  0.3071
 2189SOL    HW118203   4.431   1.356   3.617  0.2282 -0.8548  0.5237
 2189SOL    HW218204   4.583   1.363   3.605 -0.6810 -0.6340 -1.2783
 2190SOL     OW18205   2.191   2.662   9.649  0.4891 -0.0115 -0.2599
 2190SOL    HW118206   2.184   2.604   9.725 -0.0312  2.5787  1.6660
 2190SOL    HW218207   2.285   2.681   9.645  0.4384 -0.1022 -1.8679
 2191SOL     OW18208   4.107   0.540   9.656  0.1799 -0.8016 -0.6509
 2191SOL    HW118209   4.106   0.633   9.678 -1.6584 -1.2044  0.9173
 2191SOL    HW218210   4.114   0.513   9.748 -0.7401  2.8629  0.4632
 2192SOL     OW18211   3.209   4.354   5.527  0.0203  0.0459  0.3935
 2192SOL    HW118212   3.300   4.327   5.512  0.0114  0.3339 -0.1997
 2192SOL    HW218213   3.210   4.392   5.615  0.4028  0.3589  0.2516
 2193SOL     OW18214   3.173   0.300  13.894  0.2856 -0.4402 -0.1352
 2193SOL    HW118215   3.176   0.210  13.862 -0.3287 -1.5537  2.9599
 2193SOL    HW218216   3.222   0.299  13.976  0.7589  0.6309 -0.4063
 2194SOL     OW18217   2.061   1.209  17.452 -0.3022 -0.2518  0.3155
 2194SOL    HW118218   1.981   1.246  17.489  0.1872 -1.6481  2.7420
 2194SOL    HW218219   2.029   1.132  17.406 -2.5747  1.3225 -0.7302
 2195SOL     OW18220   3.359   2.136   4.874  0.6020 -0.2716 -0.1473
 2195SOL    HW118221   3.384   2.202   4.809  0.2199  1.5077  1.4948
 2195SOL    HW218222   3.443   2.097   4.899 -0.2131 -0.4117  2.3640
 2196SOL     OW18223   3.819   1.532   6.073 -0.1121  0.7852  0.6367
 2196SOL    HW118224   3.878   1.524   6.147  1.7229  0.6597 -0.8454
 2196SOL    HW218225   3.756   1.463   6.096 -1.9204  2.7278  1.5013
 2197SOL     OW18226   3.160   2.995   8.509 -0.0476 -0.2383 -0.0303
 2197SOL    HW118227   3.198   3.015   8.595  2.2268 -2.0899 -0.6041
 2197SOL    HW218228   3.225   3.039   8.454  0.7071  1.9845  2.6041
 2198SOL     OW18229   1.596   3.801  16.932  0.8133 -0.1489 -0.3492
 2198SOL    HW118230   1.543   3.801  17.012  2.1178 -1.6583  0.5081
 2198SOL    HW218231   1.542   3.745  16.876 -0.8591  2.0250 -0.8906
 2199SOL     OW18232   4.075   3.160  13.679 -0.3310  0.2001  0.2982
 2199SOL    HW118233   4.082   3.077  13.631 -0.4936 -0.1957  0.9446
 2199SOL    HW218234   4.096   3.131  13.768  0.7804  0.2185  0.0443
 2200SOL     OW18235   3.805   0.167   7.158  0.4304  0.0041 -0.0175
 2200SOL    HW118236   3.826   0.175   7.251 -0.2979 -0.6109  0.1997
 2200SOL    HW218237   3.756   0.085   7.163 -0.2994  0.4972  0.9513
 2201SOL     OW18238   0.149   2.180   7.183 -0.6363  0.1975  0.0430
 2201SOL    HW118239   0.181   2.097   7.219  0.4536  0.6961  0.2407
 2201SOL    HW218240   0.145   2.161   7.089 -0.5336  1.8431 -0.2898
 2202SOL     OW18241   4.119   0.042   8.017 -0.4200  0.4784  0.0836
 2202SOL    HW118242   4.141   0.131   8.045 -1.5145  1.8915 -3.5447
 2202SOL    HW218243   4.138   4.730   8.097 -2.0740  0.8587  0.7242
 2203SOL     OW18244   2.985   3.537   1.952 -1.0043  0.4204 -0.1292
 2203SOL    HW118245   2.967   3.630   1.966 -0.6784  0.4897 -0.1664
 2203SOL    HW218246   3.064   3.531   1.900 -0.2750  0.8443  0.9200
 2204SOL     OW18247   4.103   1.071   7.838  0.1154 -0.4873  0.2217
 2204SOL    HW118248   4.129   0.980   7.849 -0.3438 -0.5898  0.4828
 2204SOL    HW218249   4.056   1.067   7.755 -1.4321 -0.6655  1.1053
 2205SOL     OW18250   2.037   2.574   6.313 -0.5235  0.3564 -0.4609
 2205SOL    HW118251   1.965   2.544   6.258 -0.1448  0.3302 -0.9449
 2205SOL    HW218252   2.031   2.667   6.291  3.7891  1.0355  1.2195
 2206SOL     OW18253   0.758   4.022   6.296 -0.3941  0.6731 -0.2933
 2206SOL    HW118254   0.706   3.943   6.311  1.7265 -0.6226  0.2890
 2206SOL    HW218255   0.743   4.030   6.202 -1.9055 -0.7437 -0.1792
 2207SOL     OW18256   3.761   2.338   7.360  0.0718 -0.2611 -0.5343
 2207SOL    HW118257   3.774   2.362   7.269 -0.3323 -1.4746 -0.9183
 2207SOL    HW218258   3.835   2.381   7.402 -2.0871  3.1313 -0.1754
 2208SOL     OW18259   1.996   4.098   8.865 -0.6929 -0.1254  0.1366
 2208SOL    HW118260   2.091   4.087   8.867 -0.5900  0.4284 -1.6050
 2208SOL    HW218261   1.986   4.192   8.851 -0.7674 -0.3802 -1.4605
 2209SOL     OW18262   1.171   2.198   3.784  0.1079  0.0882  0.3255
 2209SOL    HW118263   1.130   2.121   3.824  2.7119 -1.0458  0.7796
 2209SOL    HW218264   1.260   2.196   3.820  0.9165  0.3992 -1.6630
 2210SOL     OW18265   1.269   2.602   2.487 -0.1425 -0.1890  0.2997
 2210SOL    HW118266   1.232   2.549   2.557  1.1050 -1.7970 -0.2500
 2210SOL    HW218267   1.354   2.559   2.477 -0.1539 -0.6219  2.1667
 2211SOL     OW18268   3.527   4.260   7.518 -0.2242 -1.0766  0.6164
 2211SOL    HW118269   3.584   4.265   7.440 -0.0301  0.6839  0.8829
 2211SOL    HW218270   3.566   4.301   7.595  0.5317  0.0851 -0.3721
 2212SOL     OW18271   0.116   2.881  12.451  0.3660 -0.4378  0.4048
 2212SOL    HW118272   0.054   2.883  12.524 -1.0933  0.5037 -0.8484
 2212SOL    HW218273   0.198   2.853  12.490  2.0602  1.2802 -1.9350
 2213SOL     OW18274   0.484   4.473   7.083 -0.3033  0.3149 -0.0700
 2213SOL    HW118275   0.540   4.451   7.158 -0.4084 -1.2371 -0.4564
 2213SOL    HW218276   0.508   4.566   7.076  0.2415  0.0515 -1.6992
 2214SOL     OW18277   0.304   0.361   5.127 -0.6040  0.0651 -0.4012
 2214SOL    HW118278   0.349   0.284   5.160 -1.0311  0.2210  0.5260
 2214SOL    HW218279   0.376   0.395   5.073  0.9384 -0.2547  1.4511
 2215SOL     OW18280   0.487   3.007   0.224  0.0049  0.9960  0.0209
 2215SOL    HW118281   0.418   3.057   0.179 -0.2436  0.5491 -0.0930
 2215SOL    HW218282   0.453   2.920   0.204  3.3604  0.5504 -3.6979
 2216SOL     OW18283   4.583   3.023   3.616 -0.5715  0.3357 -0.0758
 2216SOL    HW118284   4.657   3.030   3.675  0.1223  1.7437 -1.1254
 2216SOL    HW218285   4.631   3.047   3.537  0.4926 -0.1342  0.4266
 2217SOL     OW18286   1.182   0.491   9.749  0.1459  0.2819  0.1793
 2217SOL    HW118287   1.108   0.547   9.724  0.0030  0.3601  0.7788
 2217SOL    HW218288   1.204   0.521   9.837 -0.4535 -0.8188  0.7000
 2218SOL     OW18289   1.831   2.805   6.934 -0.5687  0.4629 -0.2321
 2218SOL    HW118290   1.842   2.713   6.909  1.3984  0.8728 -0.8721
 2218SOL    HW218291   1.860   2.804   7.025  1.1440 -1.4443 -0.8032
 2219SOL     OW18292   2.718   2.939  12.619 -0.1900 -0.7229  0.0460
 2219SOL    HW118293   2.717   2.980  12.706 -3.9302 -0.4114 -0.1278
 2219SOL    HW218294   2.624   2.919  12.612 -0.3201  0.0312 -0.4046
 2220SOL     OW18295   3.831   4.117   6.675  0.8625 -0.3964  0.1792
 2220SOL    HW118296   3.797   4.204   6.655  1.5513 -0.5124 -1.5287
 2220SOL    HW218297   3.808   4.068   6.596 -1.4296 -0.1789  0.7238
 2221SOL     OW18298   1.123   3.092   5.750  0.1816 -0.1222  0.5771
 2221SOL    HW118299   1.108   3.060   5.661 -1.3490 -1.0064  1.1591
 2221SOL    HW218300   1.171   3.172   5.730 -0.7345 -0.1952 -1.9719
 2222SOL     OW18301   0.610   2.575  17.663  0.5536  0.2560 -0.5991
 2222SOL    HW118302   0.617   2.670  17.668  1.0522  0.2759 -1.7382
 2222SOL    HW218303   0.522   2.561  17.698  1.0092 -0.0555  0.4185
 2223SOL     OW18304   2.768   3.239   8.532 -0.0723  0.4284  0.1981
 2223SOL    HW118305   2.838   3.246   8.467 -0.2841 -1.0342 -0.1752
 2223SOL    HW218306   2.689   3.251   8.479 -0.4191  1.3995  0.9206
 2224SOL     OW18307   3.273   1.975   9.891  0.2222  0.4779  0.0473
 2224SOL    HW118308   3.246   2.066   9.883  2.0338  0.9636 -0.5757
 2224SOL    HW218309   3.201   1.937   9.841  0.0103  0.4039  0.4091
 2225SOL     OW18310   1.862   3.845  10.598 -0.4216  0.4519 -0.4601
 2225SOL    HW118311   1.792   3.886  10.649  1.1937  1.2703  1.1272
 2225SOL    HW218312   1.941   3.881  10.641 -1.7420  0.0488  2.3298
 2226SOL     OW18313   3.667   3.139   3.685  0.2902  0.3544 -0.4427
 2226SOL    HW118314   3.631   3.068   3.739 -0.6084  1.1594  0.0157
 2226SOL    HW218315   3.623   3.217   3.717  1.7605  1.8579 -2.0901
 2227SOL     OW18316   0.120   2.410   2.930 -0.3370  0.1517 -0.0645
 2227SOL    HW118317   0.201   2.383   2.973 -0.1394  0.3941 -0.2819
 2227SOL    HW218318   0.144   2.431   2.840  1.0344  1.4081  0.5821
 2228SOL     OW18319   4.025   3.441   9.300 -0.2459 -0.6249 -0.2715
 2228SOL    HW118320   3.994   3.351   9.309 -1.5524  0.0946  2.6434
 2228SOL    HW218321   4.053   3.447   9.209  0.8249  2.2814  0.2505
 2229SOL     OW18322   1.255   2.475   5.235  0.5236 -0.3847  0.4038
 2229SOL    HW118323   1.241   2.420   5.158 -0.4117 -0.7872  0.8543
 2229SOL    HW218324   1.172   2.466   5.283  1.1706  0.0777  1.5995
 2230SOL     OW18325   3.371   3.741  12.027  0.3232 -0.4138 -0.5243
 2230SOL    HW118326   3.363   3.817  11.969 -0.0843  1.1149  1.4830
 2230SOL    HW218327   3.463   3.743  12.052  0.3507 -1.9178 -0.5035
 2231SOL     OW18328   2.195   3.962  10.819 -0.8029 -0.3470 -0.4079
 2231SOL    HW118329   2.173   3.899  10.751  1.6098  0.0892 -1.5754
 2231SOL    HW218330   2.234   4.027  10.761 -0.8237 -0.3797 -0.4581
 2232SOL     OW18331   4.163   0.548   7.309  0.2611  0.0809  0.2538
 2232SOL    HW118332   4.141   0.461   7.341  1.8701  1.1023  4.1243
 2232SOL    HW218333   4.247   0.529   7.267 -0.4090 -1.7818 -0.2085
 2233SOL     OW18334   3.951   0.192   0.734 -0.5224  0.6120  0.2034
 2233SOL    HW118335   3.938   0.278   0.694 -2.6377  0.7773  1.3120
 2233SOL    HW218336   4.040   0.208   0.765  0.7978  1.0957 -3.7633
 2234SOL     OW18337   0.223   3.020   7.105 -0.0791  0.7743 -0.0498
 2234SOL    HW118338   0.271   2.957   7.051  0.3418 -0.7844  2.1766
 2234SOL    HW218339   0.290   3.087   7.116 -0.7709  1.5254 -0.4212
 2235SOL     OW18340   1.649   2.383   4.085  0.3226 -0.1737 -0.3906
 2235SOL    HW118341   1.689   2.452   4.138  1.5469 -1.0560 -0.1741
 2235SOL    HW218342   1.706   2.309   4.103 -0.9781 -1.7821 -2.8313
 2236SOL     OW18343   4.010   2.014  12.763  0.0842 -0.1171 -0.2025
 2236SOL    HW118344   4.033   2.082  12.699 -0.4135  1.5865  1.4003
 2236SOL    HW218345   4.057   1.942  12.722  0.7641  0.7822 -1.0163
 2237SOL     OW18346   0.667   0.132   2.811  0.3740 -0.2204  0.0547
 2237SOL    HW118347   0.671   0.153   2.718  2.0530 -0.4406  0.0737
 2237SOL    HW218348   0.634   0.043   2.801  0.4809 -0.2325 -0.1718
 2238SOL     OW18349   0.626   2.995   7.506  0.0172  0.4483 -0.1795
 2238SOL    HW118350   0.667   3.049   7.439  0.8779 -1.1015 -0.8759
 2238SOL    HW218351   0.593   2.929   7.446  2.7497 -0.4798 -0.6467
 2239SOL     OW18352   3.432   3.352   8.948  0.4504  0.0498  0.2786
 2239SOL    HW118353   3.347   3.309   8.959 -0.1716  0.7798 -1.6800
 2239SOL    HW218354   3.454   3.352   8.855  0.1686 -0.2244  0.2097
 2240SOL     OW18355   4.093   3.999  11.382  0.4743 -0.4164 -0.3584
 2240SOL    HW118356   4.006   3.985  11.420  0.1920  0.1289 -0.7949
 2240SOL    HW218357   4.103   3.920  11.329 -0.6819 -0.7265 -0.1178
 2241SOL     OW18358   2.157   3.154   2.189 -0.0354 -0.3627 -0.3213
 2241SOL    HW118359   2.068   3.139   2.158 -0.7037  0.6715  1.0927
 2241SOL    HW218360   2.203   3.188   2.112 -2.0903  2.3308 -0.3365
 2242SOL     OW18361   2.207   2.286   4.002 -0.0461 -0.1162  0.3470
 2242SOL    HW118362   2.177   2.342   4.074  1.2560  1.6491 -0.5002
 2242SOL    HW218363   2.135   2.307   3.943 -0.7155 -0.3727  1.0655
 2243SOL     OW18364   2.595   1.496   1.829 -0.6796  0.1695 -0.7164
 2243SOL    HW118365   2.603   1.479   1.736  1.2950 -1.2113 -0.3065
 2243SOL    HW218366   2.509   1.461   1.854 -1.2389  1.4468 -0.8895
 2244SOL     OW18367   2.218   1.507  16.304 -0.6058  0.0416  0.2082
 2244SOL    HW118368   2.137   1.471  16.268 -0.5122  0.2533 -0.2174
 2244SOL    HW218369   2.286   1.453  16.264 -0.1550  1.1596 -0.5539
 2245SOL     OW18370   1.095   0.683  14.802  0.0103  0.5414  0.5986
 2245SOL    HW118371   1.059   0.767  14.773 -0.0545 -0.1778 -1.4431
 2245SOL    HW218372   1.070   0.617  14.737  0.7502 -0.4385  1.2964
 2246SOL     OW18373   2.990   4.641   4.483 -0.1620  0.2418  0.0872
 2246SOL    HW118374   2.938   4.718   4.459 -0.1373 -0.3056 -1.6869
 2246SOL    HW218375   2.930   4.593   4.541  0.9518 -2.8915 -1.3993
 2247SOL     OW18376   4.357   1.644  10.477 -0.1333 -0.1724  0.4342
 2247SOL    HW118377   4.310   1.575  10.431  0.6214 -0.1687 -0.3473
 2247SOL    HW218378   4.434   1.641  10.420  0.7751  0.8420  1.6074
 2248SOL     OW18379   3.985   2.980   7.560  0.0987 -0.9121  0.2201
 2248SOL    HW118380   4.009   2.905   7.506 -1.5099  0.4326 -2.3677
 2248SOL    HW218381   3.936   2.944   7.634 -1.1998  1.2611  0.4283
 2249SOL     OW18382   1.716   0.577   2.331  0.2619  0.0005 -0.4431
 2249SOL    HW118383   1.725   0.580   2.236  0.6019 -0.4454 -0.4211
 2249SOL    HW218384   1.775   0.647   2.359 -0.6947  0.2998  0.8672
 2250SOL     OW18385   2.058   0.070   4.140 -0.2724  0.1886 -0.0988
 2250SOL    HW118386   1.983   0.126   4.122  0.1126  0.2552 -1.4753
 2250SOL    HW218387   2.110   0.120   4.203 -0.4291 -0.1465  0.2960
 2251SOL     OW18388   2.513   4.369   6.210 -0.2392 -0.1991 -0.3023
 2251SOL    HW118389   2.500   4.448   6.262 -1.7340 -0.7279  0.1295
 2251SOL    HW218390   2.440   4.381   6.149  0.3401  1.3838 -0.6910
 2252SOL     OW18391   2.017   2.012   7.012  0.3625 -0.1745  0.2742
 2252SOL    HW118392   1.975   2.043   7.092  2.4954 -0.1341  1.3656
 2252SOL    HW218393   1.961   1.941   6.979 -0.4117  0.9353 -0.8354
 2253SOL     OW18394   0.848   0.009  15.096  0.0155  0.1050  0.4479
 2253SOL    HW118395   0.916   0.058  15.049  0.2976  1.3296  2.1430
 2253SOL    HW218396   0.789   4.719  15.026 -0.1743  0.6606  0.3864
 2254SOL     OW18397   0.622   1.160   8.619  0.8849 -0.2003  0.1857
 2254SOL    HW118398   0.560   1.188   8.551  1.2790  0.3569  0.0566
 2254SOL    HW218399   0.560   1.154   8.692  0.3010  2.0754 -0.1069
 2255SOL     OW18400   0.945   1.788   0.731  0.0129  0.4309 -0.2329
 2255SOL    HW118401   1.021   1.811   0.677 -0.3902 -1.4195 -1.5968
 2255SOL    HW218402   0.874   1.801   0.668 -1.9787 -2.7250  1.3686
 2256SOL     OW18403   0.881   0.235  14.485  0.9667  0.3693  0.2527
 2256SOL    HW118404   0.905   0.227  14.577 -2.6576  1.0491  1.2680
 2256SOL    HW218405   0.906   0.150  14.451  0.4601  0.1246  0.4902
 2257SOL     OW18406   4.459   0.397   2.902  0.1702 -0.1534  0.5811
 2257SOL    HW118407   4.521   0.401   2.974  1.0523  0.6227 -0.2223
 2257SOL    HW218408   4.400   0.327   2.931  0.3367 -0.3176  0.5242
 2258SOL     OW18409   3.883   3.274   4.423 -0.3071  0.0573  0.6290
 2258SOL    HW118410   3.898   3.361   4.385 -1.6943  1.1691  2.6138
 2258SOL    HW218411   3.880   3.282   4.518 -2.9584  1.2769  0.4402
 2259SOL     OW18412   1.967   2.926   3.068 -0.1023 -0.3288  0.1030
 2259SOL    HW118413   1.944   2.861   3.134  0.6379  1.2977  1.9774
 2259SOL    HW218414   2.060   2.938   3.086  0.0057  0.4727 -0.9886
 2260SOL     OW18415   1.750   4.247   5.653  0.0458  0.1423 -0.1180
 2260SOL    HW118416   1.733   4.161   5.613  0.3388  0.8133 -1.6861
 2260SOL    HW218417   1.748   4.222   5.745 -2.8122 -0.9128 -0.4821
 2261SOL     OW18418   0.429   1.168   7.350 -0.4352  0.2840 -0.5811
 2261SOL    HW118419   0.439   1.076   7.326  0.3621  0.3824 -0.6394
 2261SOL    HW218420   0.491   1.210   7.291 -1.5886  1.3792 -1.0047
 2262SOL     OW18421   1.207   2.187   0.210  0.4674 -0.2156 -0.2469
 2262SOL    HW118422   1.180   2.278   0.198  0.3549 -0.2453 -0.2175
 2262SOL    HW218423   1.186   2.149   0.124  1.2383  0.2332 -0.6368
 2263SOL     OW18424   3.761   2.780   6.482 -0.5390 -0.4615 -0.6642
 2263SOL    HW118425   3.824   2.774   6.410  0.2055 -0.1063 -0.0440
 2263SOL    HW218426   3.678   2.757   6.440 -0.7325 -0.1678 -0.4441
 2264SOL     OW18427   3.838   3.642   9.941  0.3826 -0.3103  0.3590
 2264SOL    HW118428   3.889   3.658   9.861 -0.1070 -4.0716 -0.6877
 2264SOL    HW218429   3.842   3.733   9.971 -1.9474  0.2196 -0.9691
 2265SOL     OW18430   4.648   3.672  15.364 -0.0660  0.0896  0.1173
 2265SOL    HW118431   4.710   3.733  15.324 -0.7374 -0.1722 -1.3026
 2265SOL    HW218432   4.567   3.722  15.365 -0.4063 -0.4327 -1.1357
 2266SOL     OW18433   0.340   4.557   3.032  0.2501  0.5015  0.0385
 2266SOL    HW118434   0.281   4.484   3.051  1.5956 -1.2083 -2.2948
 2266SOL    HW218435   0.421   4.520   3.066  0.3234  0.4721 -0.1676
 2267SOL     OW18436   3.434   0.139  16.707 -0.6046  0.0526 -0.0535
 2267SOL    HW118437   3.375   0.184  16.647 -0.4307  1.6091  0.9141
 2267SOL    HW218438   3.487   0.214  16.737  1.4940 -1.1271 -0.8030
 2268SOL     OW18439   2.357   1.493  12.980 -0.0442 -0.0379 -0.1111
 2268SOL    HW118440   2.335   1.574  12.936  3.0183  0.5116 -0.6286
 2268SOL    HW218441   2.414   1.520  13.052 -1.2977  0.6685  0.6144
 2269SOL     OW18442   2.423   3.400   5.163 -0.6617  0.5561  0.1752
 2269SOL    HW118443   2.350   3.351   5.200 -0.0313  1.4425  2.6316
 2269SOL    HW218444   2.435   3.462   5.235  0.3459  1.4045 -0.7118
 2270SOL     OW18445   4.057   0.013   4.948  0.3322  0.0786 -0.1115
 2270SOL    HW118446   4.037   4.664   4.915  0.6399  0.5353 -1.4804
 2270SOL    HW218447   4.003   0.072   4.896  0.0411  1.1988  1.4614
 2271SOL     OW18448   2.466   0.834   3.444  0.4783  0.1168 -0.3287
 2271SOL    HW118449   2.450   0.761   3.385  0.6301  0.6566 -1.0343
 2271SOL    HW218450   2.534   0.877   3.392  0.2999  1.2635  0.3823
 2272SOL     OW18451   4.641   4.050   2.608 -0.5040  0.2713  0.2486
 2272SOL    HW118452   4.712   4.104   2.643 -0.5397 -0.5150  1.5322
 2272SOL    HW218453   4.647   3.965   2.653  1.5308  0.9970  1.3141
 2273SOL     OW18454   1.240   2.787  15.153 -0.0046 -0.2686 -0.2792
 2273SOL    HW118455   1.283   2.731  15.088 -0.5853 -0.4534 -0.5065
 2273SOL    HW218456   1.254   2.737  15.233  2.8092  1.3340  0.2300
 2274SOL     OW18457   2.218   3.204   6.130  0.2584 -0.1970  0.6250
 2274SOL    HW118458   2.259   3.118   6.119 -0.6065 -0.6295  0.7935
 2274SOL    HW218459   2.277   3.251   6.189 -0.0914  0.6690  0.2866
 2275SOL     OW18460   2.928   3.209  11.483  0.2914 -0.3044 -0.8426
 2275SOL    HW118461   2.963   3.248  11.563  1.9517 -0.3722 -1.5443
 2275SOL    HW218462   2.916   3.128  11.532 -1.6541  0.6382  0.2576
 2276SOL     OW18463   4.259   1.494   2.050 -0.1381 -0.2907  0.3785
 2276SOL    HW118464   4.194   1.424   2.056  0.1930 -0.6390 -0.0887
 2276SOL    HW218465   4.318   1.455   2.115  0.8074  0.5058 -0.0005
 2277SOL     OW18466   1.177   0.912   4.147  0.3087 -0.3381 -0.0332
 2277SOL    HW118467   1.253   0.912   4.089  0.4881 -0.2045  0.2079
 2277SOL    HW218468   1.099   0.945   4.101  0.5008 -1.1189 -0.9372
 2278SOL     OW18469   1.540   0.723  10.017 -0.3165  0.3358 -0.4636
 2278SOL    HW118470   1.553   0.629  10.030 -2.9756  0.1050  0.3855
 2278SOL    HW218471   1.446   0.737  10.023 -0.6733 -2.2894 -0.0159
 2279SOL     OW18472   3.491   3.353   1.663  0.5629  0.6478 -0.1055
 2279SOL    HW118473   3.562   3.408   1.696  2.9898 -1.7002 -1.3450
 2279SOL    HW218474   3.526   3.268   1.691 -0.1209  0.7674  1.1186
 2280SOL     OW18475   0.701   4.127  16.436 -0.0961  0.4865  0.4281
 2280SOL    HW118476   0.668   4.122  16.346 -0.5338  2.1203  0.4884
 2280SOL    HW218477   0.664   4.051  16.479  1.4300 -0.6672 -0.2818
 2281SOL     OW18478   3.779   3.184   2.017 -0.1028  0.3593  0.1044
 2281SOL    HW118479   3.841   3.256   2.020  1.0797 -0.5925 -1.5069
 2281SOL    HW218480   3.791   3.165   1.924 -0.5357 -0.1329  0.1438
 2282SOL     OW18481   4.458   4.484   9.666  0.0102  0.4382 -0.3522
 2282SOL    HW118482   4.432   4.544   9.736 -0.8378 -0.3127 -0.0117
 2282SOL    HW218483   4.450   4.533   9.585 -0.4317  0.5173 -0.2631
 2283SOL     OW18484   2.641   0.434  10.977  0.9978  0.1647 -0.7286
 2283SOL    HW118485   2.681   0.482  11.049  2.4522 -0.7525 -0.9341
 2283SOL    HW218486   2.554   0.430  11.017  1.6805 -0.2289  0.7440
 2284SOL     OW18487   3.092   3.621   9.106  0.7695  0.3265 -0.1810
 2284SOL    HW118488   3.064   3.630   9.197  0.8607  0.0928 -0.1294
 2284SOL    HW218489   3.025   3.680   9.073 -0.4425 -0.9493  0.0170
 2285SOL     OW18490   0.555   4.427   3.097 -0.0647 -0.1906  0.0550
 2285SOL    HW118491   0.545   4.377   3.178 -2.9527 -0.5648 -0.5453
 2285SOL    HW218492   0.524   4.371   3.025 -0.0129  2.9008 -2.3830
 2286SOL     OW18493   1.450   4.710   3.428  0.7307  0.2119 -0.1536
 2286SOL    HW118494   1.495   0.027   3.493 -0.1779  0.1849  0.4965
 2286SOL    HW218495   1.359   4.732   3.447  0.6348 -1.5474  1.4111
 2287SOL     OW18496   2.392   1.775   3.550 -0.1245 -0.0347 -0.4134
 2287SOL    HW118497   2.304   1.813   3.541  0.0719  0.0428 -1.8897
 2287SOL    HW218498   2.382   1.687   3.513  0.7652 -0.9714  1.5581
 2288SOL     OW18499   2.804   4.144   3.620  0.3635  0.1224 -0.4325
 2288SOL    HW118500   2.878   4.201   3.599  0.8861 -0.6044 -0.5453
 2288SOL    HW218501   2.838   4.058   3.594 -1.1560  0.3547 -3.2435
 2289SOL     OW18502   2.401   2.655   6.909  0.4858  0.2021 -0.3142
 2289SOL    HW118503   2.360   2.575   6.876  3.3092 -1.2298 -0.2773
 2289SOL    HW218504   2.386   2.710   6.832 -0.7930  0.4767  0.1341
 2290SOL     OW18505   0.270   0.792   4.848 -0.2273 -0.2070  0.6483
 2290SOL    HW118506   0.288   0.886   4.847  0.2626 -0.3218 -0.9211
 2290SOL    HW218507   0.220   0.772   4.769  0.0542 -1.2872  0.7498
 2291SOL     OW18508   1.798   0.635   5.994  1.1630 -0.3146  0.0135
 2291SOL    HW118509   1.848   0.680   6.061 -0.0146  0.4737  0.3579
 2291SOL    HW218510   1.772   0.551   6.030 -0.9805 -0.2233 -1.2798
 2292SOL     OW18511   2.096   2.197   8.910 -0.5917  0.0332  0.4388
 2292SOL    HW118512   2.142   2.261   8.964  0.9767 -1.7834  1.2150
 2292SOL    HW218513   2.018   2.181   8.963  0.1814 -0.8493  1.2972
 2293SOL     OW18514   0.392   4.323   3.651  0.1922 -0.3192 -0.1711
 2293SOL    HW118515   0.480   4.286   3.649  0.6805  0.9378 -1.4549
 2293SOL    HW218516   0.380   4.322   3.746 -1.0104 -0.1877 -0.3178
 2294SOL     OW18517   3.522   3.743   1.367 -0.1235  0.2322  0.7280
 2294SOL    HW118518   3.488   3.706   1.286  0.2385 -0.1224  0.7381
 2294SOL    HW218519   3.548   3.658   1.403 -1.2105  0.0279  1.0260
 2295SOL     OW18520   2.901   1.066  13.092 -0.0499  0.0978  0.1713
 2295SOL    HW118521   2.887   1.108  13.176 -1.1182  0.0715  0.0069
 2295SOL    HW218522   2.866   0.979  13.109 -0.8615  0.7644  1.8979
 2296SOL     OW18523   2.457   2.929   1.709 -0.2164  0.1803  0.3599
 2296SOL    HW118524   2.373   2.942   1.754  0.7596  1.4617  1.8239
 2296SOL    HW218525   2.522   2.963   1.772 -0.9740 -1.2098  1.8983
 2297SOL     OW18526   3.508   0.302  12.244  0.0944  0.2978  0.0051
 2297SOL    HW118527   3.498   0.318  12.338 -2.7639  1.0271 -0.4329
 2297SOL    HW218528   3.550   0.216  12.250  3.0008  1.7557  0.3856
 2298SOL     OW18529   0.085   3.735   2.447 -0.0626 -0.1592  0.2059
 2298SOL    HW118530   0.087   3.821   2.404 -0.3514  1.3964  3.2804
 2298SOL    HW218531   0.069   3.764   2.537  1.6126  0.9401  0.1384
 2299SOL     OW18532   2.832   2.104   6.883 -0.3306  0.2389  0.5332
 2299SOL    HW118533   2.880   2.182   6.855 -1.3822  1.7020  2.8423
 2299SOL    HW218534   2.789   2.079   6.802  1.9164 -2.3835  0.1180
 2300SOL     OW18535   1.927   0.275   9.504 -0.0881 -0.6498  0.1502
 2300SOL    HW118536   1.923   0.281   9.409  0.1009  0.3050  0.2005
 2300SOL    HW218537   1.860   0.344   9.507  0.0684 -0.5404  1.3119
 2301SOL     OW18538   4.040   1.074   4.635  0.1083 -0.6755 -0.2971
 2301SOL    HW118539   4.031   1.150   4.693  0.7240 -0.4037 -0.5597
 2301SOL    HW218540   3.972   1.104   4.575  0.3888  2.0601  0.7324
 2302SOL     OW18541   3.695   0.411   5.751  0.0121  0.3609 -0.6610
 2302SOL    HW118542   3.641   0.483   5.717 -0.6211  0.9286  1.5869
 2302SOL    HW218543   3.683   0.343   5.684  1.2855 -0.4872 -0.0283
 2303SOL     OW18544   2.733   3.623   1.748  0.0228  0.6022 -0.1416
 2303SOL    HW118545   2.646   3.631   1.709 -0.2186 -2.8130 -0.3432
 2303SOL    HW218546   2.714   3.538   1.788  3.5647  0.1248  0.5419
 2304SOL     OW18547   2.873   3.091   1.906 -0.3703 -0.1016 -0.0922
 2304SOL    HW118548   2.949   3.040   1.878  1.1157  1.7606  0.5978
 2304SOL    HW218549   2.867   3.058   1.995  1.0601 -1.7653 -0.6107
 2305SOL     OW18550   2.807   4.723   7.425  0.5949  0.3126 -0.3857
 2305SOL    HW118551   2.827   0.021   7.339  0.9641 -0.6422 -0.7022
 2305SOL    HW218552   2.895   4.726   7.464 -0.1873  2.0215  1.2718
 2306SOL     OW18553   3.671   3.243   7.556  0.1760 -0.3310 -0.2006
 2306SOL    HW118554   3.757   3.283   7.550  0.0256  0.1215  0.6550
 2306SOL    HW218555   3.653   3.239   7.650  2.7121  1.5805  0.3412
 2307SOL     OW18556   1.989   3.889   2.826  0.1066  0.2765  0.1559
 2307SOL    HW118557   1.919   3.934   2.874  2.1270  0.8902  2.5292
 2307SOL    HW218558   2.012   3.936   2.747 -0.3261  1.4408  0.7252
 2308SOL     OW18559   1.165   2.731   2.283 -0.0204 -0.5555  0.5061
 2308SOL    HW118560   1.185   2.681   2.362 -1.4940 -3.2907 -0.8454
 2308SOL    HW218561   1.075   2.755   2.307 -0.0629  0.4758 -0.7227
 2309SOL     OW18562   3.842   1.038   7.365 -0.5238 -0.2249 -0.1817
 2309SOL    HW118563   3.760   1.015   7.408 -0.2386 -0.2001  0.3743
 2309SOL    HW218564   3.865   0.945   7.367  0.2439 -0.0558 -1.1478
 2310SOL     OW18565   2.681   1.648   0.079  0.2052 -0.0568  0.1522
 2310SOL    HW118566   2.611   1.645   0.014 -0.0206  0.2785  0.3822
 2310SOL    HW218567   2.633   1.602   0.148  2.3176 -2.5051  0.0085
 2311SOL     OW18568   1.820   3.543   7.528 -0.4827 -0.3041 -0.0131
 2311SOL    HW118569   1.837   3.621   7.476  1.9835  0.2870  1.6975
 2311SOL    HW218570   1.827   3.468   7.469 -1.2483 -0.4382  0.0661
 2312SOL     OW18571   0.606   1.500   2.968 -0.2295 -0.1328  0.2759
 2312SOL    HW118572   0.682   1.524   2.915  0.4836  2.5436  2.5212
 2312SOL    HW218573   0.642   1.514   3.056  2.7377 -1.9368 -0.6698
 2313SOL     OW18574   3.375   0.805   3.896  0.5197 -0.1488 -0.2428
 2313SOL    HW118575   3.312   0.804   3.824  0.1537  2.7085  0.0706
 2313SOL    HW218576   3.354   0.726   3.946  1.2662 -0.5506 -0.5720
 2314SOL     OW18577   2.088   2.163   5.551 -0.0233 -0.2634 -0.0969
 2314SOL    HW118578   2.108   2.086   5.497 -1.7510 -0.3348 -0.6336
 2314SOL    HW218579   2.178   2.192   5.561 -0.8191  1.9897  0.5865
 2315SOL     OW18580   1.933   2.072   4.930 -0.2073  0.4577  0.8044
 2315SOL    HW118581   1.885   1.991   4.914 -2.8922  2.3940 -0.8521
 2315SOL    HW218582   1.893   2.129   4.865 -2.3980 -2.4006 -0.4008
 2316SOL     OW18583   4.294   1.175   5.143  0.2199 -0.1482 -0.0765
 2316SOL    HW118584   4.290   1.090   5.187  1.7682  0.5688  1.4541
 2316SOL    HW218585   4.219   1.166   5.083  0.4447 -2.2068 -0.0399
 2317SOL     OW18586   0.864   1.844   8.165 -0.2409 -0.9607 -0.3305
 2317SOL    HW118587   0.777   1.806   8.172 -0.5230 -0.4711 -1.2769
 2317SOL    HW218588   0.912   1.808   8.240  1.2144  0.1781 -0.7211
 2318SOL     OW18589   4.035   0.202   2.993  0.1387 -0.4132  0.3104
 2318SOL    HW118590   3.973   0.205   3.066 -1.6392  1.2724 -1.2838
 2318SOL    HW218591   3.970   0.180   2.926 -1.6326 -1.5280  2.3896
 2319SOL     OW18592   3.920   0.834   4.771 -0.0481 -0.1395  0.0908
 2319SOL    HW118593   3.941   0.811   4.862  1.8140 -1.1604 -0.5905
 2319SOL    HW218594   3.992   0.895   4.752 -0.6529  0.5354 -0.0603
 2320SOL     OW18595   3.402   1.662   7.865  0.0691  0.1491 -0.0145
 2320SOL    HW118596   3.474   1.724   7.882 -0.8554  1.1402  0.2485
 2320SOL    HW218597   3.455   1.582   7.864  1.1647  0.9072 -1.8050
 2321SOL     OW18598   3.173   1.882  12.037 -0.7061 -0.7735  0.3925
 2321SOL    HW118599   3.099   1.907  12.093 -2.8189  0.2240 -2.8292
 2321SOL    HW218600   3.199   1.795  12.066  0.0219 -1.0459 -1.0877
 2322SOL     OW18601   4.638   2.305   7.772 -0.2704 -0.0203  0.2203
 2322SOL    HW118602   4.608   2.364   7.841  0.9770  0.8038  0.0451
 2322SOL    HW218603   4.621   2.365   7.699  1.1288  0.1061  0.0058
 2323SOL     OW18604   3.068   4.384   4.425  0.3500 -0.1349 -0.1554
 2323SOL    HW118605   3.007   4.357   4.493  1.1030 -1.2697  0.0766
 2323SOL    HW218606   3.051   4.478   4.416  2.1914  0.1143 -1.1347
 2324SOL     OW18607   2.892   0.861  10.574 -0.4272  0.2217 -0.0252
 2324SOL    HW118608   2.934   0.776  10.559 -2.5776 -0.8243 -0.0560
 2324SOL    HW218609   2.812   0.837  10.621  0.4692 -0.9433  0.8894
 2325SOL     OW18610   4.044   1.909   0.656 -0.2589  0.3670  0.1675
 2325SOL    HW118611   4.098   1.890   0.579 -0.8350  0.1791 -0.1933
 2325SOL    HW218612   4.035   2.004   0.656  1.5558  0.5353  1.5580
 2326SOL     OW18613   3.807   1.286  15.148  0.0564  0.2661  0.1944
 2326SOL    HW118614   3.792   1.293  15.054  2.2239 -1.9483 -0.3131
 2326SOL    HW218615   3.901   1.302  15.148 -0.1725  1.5564 -1.1860
 2327SOL     OW18616   3.383   4.305   2.603 -0.4383 -0.3497  0.0826
 2327SOL    HW118617   3.340   4.359   2.536 -0.4882  1.7605  1.8117
 2327SOL    HW218618   3.364   4.214   2.582 -2.0880 -0.2399  1.1004
 2328SOL     OW18619   4.652   1.981  10.573 -0.3313  0.0147 -0.1766
 2328SOL    HW118620   4.698   1.904  10.606 -2.4347 -1.1256  0.0660
 2328SOL    HW218621   4.694   1.997  10.488 -1.0728 -0.3200 -0.6041
 2329SOL     OW18622   1.862   4.450  17.034  0.3354 -0.2108  0.2810
 2329SOL    HW118623   1.823   4.406  16.959  1.2650 -0.2416 -0.1820
 2329SOL    HW218624   1.920   4.382  17.068  0.7088  0.1807  0.4421
 2330SOL     OW18625   2.530   2.781   5.895  0.4185 -0.1411 -0.2414
 2330SOL    HW118626   2.472   2.856   5.890  0.6378  0.0040 -0.6298
 2330SOL    HW218627   2.575   2.796   5.978  0.3194  0.5364 -0.3161
 2331SOL     OW18628   0.826   2.339  14.205 -0.2850 -0.5703  0.8549
 2331SOL    HW118629   0.859   2.381  14.284  0.6386  0.3752 -0.0506
 2331SOL    HW218630   0.742   2.382  14.186  0.3184 -0.1722 -0.8638
 2332SOL     OW18631   2.748   4.143   0.985  0.1350 -0.1425 -0.3631
 2332SOL    HW118632   2.656   4.168   0.986  0.1349 -0.2025  2.3675
 2332SOL    HW218633   2.751   4.072   1.050 -1.1998 -1.5157 -1.7909
 2333SOL     OW18634   0.365   3.470   5.543  0.1385 -0.7828 -0.1065
 2333SOL    HW118635   0.320   3.490   5.461 -0.5710  1.4253  0.8043
 2333SOL    HW218636   0.320   3.537   5.595  0.4026 -1.6484  1.2256
 2334SOL     OW18637   3.444   2.577   4.206 -0.0023 -0.7164 -0.7125
 2334SOL    HW118638   3.383   2.515   4.246  1.6908 -2.1132 -0.3063
 2334SOL    HW218639   3.500   2.600   4.280 -1.0695  0.4036 -0.2547
 2335SOL     OW18640   0.080   1.863   0.697  0.1909  0.0849  0.1296
 2335SOL    HW118641   0.145   1.829   0.757  0.8021  2.1019  0.6311
 2335SOL    HW218642   0.106   1.835   0.609 -2.0811  0.2887 -0.6293
 2336SOL     OW18643   4.204   0.732   1.813  0.2718 -0.1031  0.1452
 2336SOL    HW118644   4.137   0.683   1.766  0.4329  1.7023 -1.9654
 2336SOL    HW218645   4.153   0.807   1.843  1.0726 -0.6510  2.8635
 2337SOL     OW18646   2.657   0.043   7.840 -0.3982 -0.0495 -0.3722
 2337SOL    HW118647   2.671   4.721   7.913 -2.7176  0.4212  0.4222
 2337SOL    HW218648   2.748   0.068   7.825  0.4257 -2.8984 -0.2683
 2338SOL     OW18649   1.870   3.294   4.462 -0.3436  0.0972 -0.2546
 2338SOL    HW118650   1.954   3.338   4.454 -0.6706  0.6481 -0.7048
 2338SOL    HW218651   1.816   3.370   4.437  3.3531  2.2912 -1.5604
 2339SOL     OW18652   0.655   1.425   1.322 -0.1403  0.6457 -0.5975
 2339SOL    HW118653   0.731   1.408   1.378 -0.1131  1.2891 -0.4412
 2339SOL    HW218654   0.691   1.427   1.233  0.7296 -3.2973 -0.3535
 2340SOL     OW18655   2.936   0.796  10.102 -0.3425  0.2773  0.4195
 2340SOL    HW118656   3.000   0.804  10.031 -0.2874  0.4569  0.4904
 2340SOL    HW218657   2.872   0.866  10.088  0.2235  1.1711  2.4091
 2341SOL     OW18658   1.545   2.885   2.570  0.4066  0.1428  0.0854
 2341SOL    HW118659   1.560   2.919   2.482  0.3477 -0.8723 -0.3188
 2341SOL    HW218660   1.456   2.853   2.552  0.5673  0.6343 -1.5613
 2342SOL     OW18661   0.645   2.955   9.059 -0.0255 -0.5678 -0.0166
 2342SOL    HW118662   0.707   3.002   9.004 -1.1184  0.0746 -0.6858
 2342SOL    HW218663   0.692   2.873   9.079  2.3993  1.3978  2.3445
 2343SOL     OW18664   1.846   0.465   5.188  0.3827 -0.2589  0.6403
 2343SOL    HW118665   1.792   0.405   5.240 -0.5986  2.9440  3.2954
 2343SOL    HW218666   1.785   0.472   5.114 -0.7902 -0.9002  1.5446
 2344SOL     OW18667   0.846   0.721  16.445  0.0136  0.1010  0.5287
 2344SOL    HW118668   0.934   0.701  16.413 -1.0883 -1.6694 -1.3856
 2344SOL    HW218669   0.869   0.799  16.496 -0.1174  0.0468  0.6727
 2345SOL     OW18670   1.683   3.312   6.475 -0.0302  0.2488 -0.2917
 2345SOL    HW118671   1.708   3.250   6.544  1.7328  1.5586  0.2426
 2345SOL    HW218672   1.593   3.288   6.455 -0.1596  1.4115 -1.0538
 2346SOL     OW18673   2.877   3.841   3.562  0.1014 -0.4894  0.7200
 2346SOL    HW118674   2.874   3.808   3.652 -2.4257  0.9711  1.1533
 2346SOL    HW218675   2.971   3.833   3.542  0.6271  3.0082  1.7780
 2347SOL     OW18676   2.214   2.452   6.836 -0.1695  0.5900 -0.3856
 2347SOL    HW118677   2.138   2.502   6.864 -0.3378 -0.2716  0.6712
 2347SOL    HW218678   2.184   2.361   6.831  0.6467  0.2286  1.3174
 2348SOL     OW18679   1.944   1.449   6.035  0.2114  0.0477  0.1227
 2348SOL    HW118680   1.990   1.366   6.047 -1.5013 -0.8400  0.3927
 2348SOL    HW218681   1.992   1.508   6.095  1.7466  0.2057 -1.2565
 2349SOL     OW18682   2.557   1.923  17.559 -0.6026 -0.2744 -0.2398
 2349SOL    HW118683   2.542   1.880  17.643  2.1864 -4.4774 -1.9225
 2349SOL    HW218684   2.479   1.909  17.506 -1.0684  1.1895  0.0536
 2350SOL     OW18685   0.485   3.251   1.706  0.1620  0.4696 -0.1625
 2350SOL    HW118686   0.492   3.156   1.697 -1.8342  0.1239  2.1071
 2350SOL    HW218687   0.523   3.261   1.793 -0.1002 -0.7761  0.0900
 2351SOL     OW18688   4.160   3.249   4.335 -0.0969 -0.0966 -0.3169
 2351SOL    HW118689   4.183   3.308   4.263 -0.3254 -1.1212 -1.2198
 2351SOL    HW218690   4.065   3.258   4.335 -0.2497 -1.8414  1.0163
 2352SOL     OW18691   4.090   0.801  14.690  0.0725  0.2035  0.5834
 2352SOL    HW118692   4.178   0.797  14.727 -0.0933  0.4933  1.0068
 2352SOL    HW218693   4.115   0.839  14.606  2.6262  1.5995  1.9865
 2353SOL     OW18694   3.753   2.865  12.312 -0.2742  0.4263 -0.4405
 2353SOL    HW118695   3.782   2.948  12.351  0.6627  0.2625 -0.7750
 2353SOL    HW218696   3.818   2.855  12.243 -1.1967 -1.6851 -0.9958
 2354SOL     OW18697   2.937   1.195   5.833  0.2743 -0.0016 -0.3268
 2354SOL    HW118698   3.011   1.138   5.855  0.5398 -0.0079 -1.2232
 2354SOL    HW218699   2.945   1.200   5.737  3.7926  0.1780 -0.0058
 2355SOL     OW18700   0.154   1.095  16.958 -0.6807  0.6797 -0.6718
 2355SOL    HW118701   0.077   1.038  16.960 -1.3679  1.6350  0.4681
 2355SOL    HW218702   0.162   1.107  16.864 -1.4826 -2.2648 -1.1142
 2356SOL     OW18703   3.979   4.405   4.504 -0.5122 -0.1462  0.4522
 2356SOL    HW118704   3.920   4.473   4.535  1.5515  1.9286 -0.1150
 2356SOL    HW218705   4.048   4.454   4.458  0.0891 -0.9123  0.5367
 2357SOL     OW18706   3.582   4.402   6.795 -0.0835 -0.1193  0.2875
 2357SOL    HW118707   3.669   4.397   6.834 -0.3903  0.6155  1.0437
 2357SOL    HW218708   3.539   4.448   6.867  0.6276 -0.0895  0.6940
 2358SOL     OW18709   2.674   2.432   4.218  0.4215  0.3732 -0.2823
 2358SOL    HW118710   2.628   2.498   4.166 -1.9254 -1.9141 -1.1360
 2358SOL    HW218711   2.701   2.373   4.147 -1.0492 -1.1546  0.4260
 2359SOL     OW18712   2.107   3.210   3.844  0.4005  0.3519  0.2178
 2359SOL    HW118713   2.093   3.288   3.898  1.2049  0.6172  0.0550
 2359SOL    HW218714   2.187   3.177   3.885 -1.0607 -2.2186  0.9300
 2360SOL     OW18715   0.463   4.330   1.719 -0.3726 -0.3249  0.1019
 2360SOL    HW118716   0.490   4.268   1.651 -0.4289  0.1696 -0.3696
 2360SOL    HW218717   0.379   4.368   1.693 -0.6218 -1.9109 -1.3891
 2361SOL     OW18718   3.735   1.749   0.864  0.5807 -0.3558  0.5631
 2361SOL    HW118719   3.642   1.728   0.853 -0.0519  0.6908  3.6988
 2361SOL    HW218720   3.736   1.813   0.936  1.8757  1.3696 -0.9922
 2362SOL     OW18721   1.339   0.758   2.691 -0.5739 -0.3104 -0.1443
 2362SOL    HW118722   1.410   0.778   2.751  0.0413  1.5201 -1.4764
 2362SOL    HW218723   1.360   0.665   2.682 -0.5726 -0.5803  2.6796
 2363SOL     OW18724   1.893   4.611   2.843 -0.4435  0.2232 -0.5584
 2363SOL    HW118725   1.979   4.590   2.879 -0.4419  0.7806 -0.2407
 2363SOL    HW218726   1.911   4.667   2.767  1.1733 -0.3086 -0.5679
 2364SOL     OW18727   2.529   3.219   2.239  0.5582  0.2755  0.0924
 2364SOL    HW118728   2.515   3.206   2.146  1.3844  1.4837 -0.2135
 2364SOL    HW218729   2.439   3.239   2.263  0.8206 -0.4782  1.7380
 2365SOL     OW18730   0.848   3.946   3.792 -0.2336 -0.0497 -0.0717
 2365SOL    HW118731   0.871   3.878   3.856  1.5717 -0.8335 -1.5542
 2365SOL    HW218732   0.897   4.019   3.830 -0.1591 -0.5804  0.8517
 2366SOL     OW18733   0.772   1.849   2.673 -0.9312  0.4367 -0.3503
 2366SOL    HW118734   0.811   1.762   2.670  1.1980  1.3588  0.0238
 2366SOL    HW218735   0.692   1.823   2.628 -2.6400 -2.3720  4.2997
 2367SOL     OW18736   2.348   4.395  11.356  0.1935  0.7334 -0.8245
 2367SOL    HW118737   2.389   4.359  11.434  1.6785  2.7235 -0.6825
 2367SOL    HW218738   2.257   4.384  11.385  0.2112 -1.8165 -1.7877
 2368SOL     OW18739   3.311   1.166  14.153  0.3422  0.4698  0.2129
 2368SOL    HW118740   3.305   1.241  14.213  0.3624 -0.8637  1.8647
 2368SOL    HW218741   3.230   1.180  14.105  1.7903  2.5910 -1.6349
 2369SOL     OW18742   0.684   1.802   4.659 -0.6149  0.0608 -0.1418
 2369SOL    HW118743   0.710   1.776   4.748  0.8813  1.6001 -0.1389
 2369SOL    HW218744   0.745   1.747   4.611  0.9393 -1.4382  3.5709
 2370SOL     OW18745   2.787   1.670   4.414 -0.7943  0.0403 -0.0818
 2370SOL    HW118746   2.802   1.587   4.459  1.3836 -1.1068 -2.9514
 2370SOL    HW218747   2.767   1.626   4.331  2.3192 -0.3685 -0.6073
 2371SOL     OW18748   1.849   1.752  14.499 -0.1807  0.2302  0.1919
 2371SOL    HW118749   1.911   1.789  14.436  2.0214 -3.6164  0.0561
 2371SOL    HW218750   1.825   1.677  14.445  2.2586  0.5549 -1.3329
 2372SOL     OW18751   3.984   4.280   3.316  0.0495 -0.5261  0.0836
 2372SOL    HW118752   4.076   4.304   3.304  0.3193 -0.2440  2.7225
 2372SOL    HW218753   3.991   4.255   3.408  1.8236 -0.7491 -0.1147
 2373SOL     OW18754   2.152   3.288   4.641 -0.5474  0.1321  0.0501
 2373SOL    HW118755   2.203   3.230   4.697  0.7631  1.9088  0.7094
 2373SOL    HW218756   2.180   3.375   4.671 -1.4868  0.7229 -0.7600
 2374SOL     OW18757   3.213   4.565   3.798 -0.1151  0.4475 -0.4410
 2374SOL    HW118758   3.256   4.617   3.730 -0.0359  0.5653 -0.3010
 2374SOL    HW218759   3.154   4.623   3.846 -0.5329 -0.5049  0.1887
 2375SOL     OW18760   3.853   4.387   6.612  0.8550  0.1550  0.2841
 2375SOL    HW118761   3.873   4.429   6.528  0.8252 -0.6464 -0.1269
 2375SOL    HW218762   3.785   4.447   6.643 -1.0245 -2.4239  1.1219
 2376SOL     OW18763   3.380   2.588   0.878 -0.1183  0.2816 -0.1041
 2376SOL    HW118764   3.368   2.593   0.783 -0.4953  0.0024 -0.0742
 2376SOL    HW218765   3.310   2.524   0.894  0.1809 -0.0456 -0.1178
 2377SOL     OW18766   1.554   1.571  17.600  0.3275  0.2756  0.3674
 2377SOL    HW118767   1.555   1.667  17.599  0.8862  0.2811  1.0479
 2377SOL    HW218768   1.637   1.557  17.553 -1.2028  0.6604 -2.4712
 2378SOL     OW18769   4.510   4.551  16.329 -0.2724 -0.1572 -0.0554
 2378SOL    HW118770   4.541   4.639  16.349  0.4958 -1.0594  2.9094
 2378SOL    HW218771   4.455   4.563  16.252  1.1831  1.7705 -0.7753
 2379SOL     OW18772   3.357   2.229  14.334 -0.7739  0.1348 -0.0260
 2379SOL    HW118773   3.358   2.154  14.394  2.3965  1.3671  1.4009
 2379SOL    HW218774   3.410   2.290  14.385 -1.5078  0.3682  0.4717
 2380SOL     OW18775   2.171   1.887  17.573 -0.6278  0.2862 -0.2229
 2380SOL    HW118776   2.184   1.931  17.657 -0.3971 -0.7441  0.2870
 2380SOL    HW218777   2.170   1.959  17.510  1.7592  0.3121 -0.2393
 2381SOL     OW18778   0.111   2.707   0.841  0.1830 -0.1100 -0.2967
 2381SOL    HW118779   0.198   2.671   0.826  0.5741  0.8433 -0.3524
 2381SOL    HW218780   0.080   2.637   0.898  0.5625  0.2355  0.3302
 2382SOL     OW18781   0.941   3.499   3.458  0.3054 -0.0421  0.1254
 2382SOL    HW118782   0.955   3.591   3.433  1.4449 -0.3155 -0.2436
 2382SOL    HW218783   1.004   3.456   3.400  0.3489  0.2140 -0.0184
 2383SOL     OW18784   4.052   0.510   6.053  0.1256 -0.0075 -0.8612
 2383SOL    HW118785   3.960   0.534   6.058  0.3727  0.4532  1.2443
 2383SOL    HW218786   4.060   0.420   6.085 -0.7693  0.0591 -0.4500
 2384SOL     OW18787   2.555   1.277  11.350  0.2613  0.1475  0.0725
 2384SOL    HW118788   2.535   1.323  11.269  1.5222 -0.5552 -0.6379
 2384SOL    HW218789   2.601   1.348  11.395  2.0763 -0.4532 -0.8565
 2385SOL     OW18790   0.606   0.424   1.666  0.2659  0.0660 -0.0535
 2385SOL    HW118791   0.537   0.359   1.679 -3.2767  3.5873 -1.1656
 2385SOL    HW218792   0.683   0.368   1.667 -0.6270 -1.1675  0.2761
 2386SOL     OW18793   2.698   0.766  12.432 -0.3929  0.0804 -0.4317
 2386SOL    HW118794   2.698   0.671  12.423  0.5732 -0.1369  2.1184
 2386SOL    HW218795   2.648   0.779  12.512 -0.2094 -1.5197 -0.0658
 2387SOL     OW18796   3.181   2.985  11.493  0.3646 -0.2610  0.6274
 2387SOL    HW118797   3.213   3.074  11.505 -0.8462  0.2138  0.3627
 2387SOL    HW218798   3.146   2.965  11.580 -1.4504 -0.3181 -0.1080
 2388SOL     OW18799   0.517   0.516  10.992 -0.4458 -0.1456 -0.3267
 2388SOL    HW118800   0.546   0.566  10.915  0.8286  0.9288  0.8571
 2388SOL    HW218801   0.434   0.483  10.959 -0.2953 -1.6541  0.8210
 2389SOL     OW18802   1.666   3.202   8.740 -0.1010  0.4041  0.2397
 2389SOL    HW118803   1.612   3.145   8.684 -0.2172  1.7412 -0.9983
 2389SOL    HW218804   1.613   3.281   8.746 -1.3782 -0.3514 -1.0276
 2390SOL     OW18805   0.771   3.119   7.728 -0.0912  0.3463 -0.5209
 2390SOL    HW118806   0.736   3.086   7.810 -0.8535 -0.1708 -1.0487
 2390SOL    HW218807   0.725   3.059   7.669  0.1436  1.6587 -2.0439
 2391SOL     OW18808   0.902   0.100   7.309 -0.1940 -0.0229  0.2489
 2391SOL    HW118809   0.919   0.098   7.215  0.5142  2.4299  0.3059
 2391SOL    HW218810   0.918   0.007   7.327  2.8325 -0.3862 -4.1407
 2392SOL     OW18811   1.818   3.255  11.383 -0.1780  1.1117  0.2420
 2392SOL    HW118812   1.821   3.245  11.478  0.1914  0.1017  0.1259
 2392SOL    HW218813   1.877   3.330  11.370  0.6858  0.0958 -1.8184
 2393SOL     OW18814   3.643   3.986   8.656  0.2547 -0.1193 -0.0393
 2393SOL    HW118815   3.602   3.962   8.574 -0.2271  0.8495 -0.0792
 2393SOL    HW218816   3.722   3.932   8.646 -0.6706 -1.2575 -1.3008
 2394SOL     OW18817   4.438   4.386   5.261 -0.1288 -0.0832 -0.0643
 2394SOL    HW118818   4.428   4.481   5.272  2.4255  0.0327  1.4330
 2394SOL    HW218819   4.366   4.361   5.319  1.2534  1.2899  2.2610
 2395SOL     OW18820   3.280   0.742   1.991 -0.1596 -0.3733  0.3118
 2395SOL    HW118821   3.278   0.745   1.896 -2.0320 -1.1910  0.3145
 2395SOL    HW218822   3.361   0.788   2.013  0.9842 -2.1070 -0.3206
 2396SOL     OW18823   4.588   1.220   4.223 -0.2695  0.0208 -0.0270
 2396SOL    HW118824   4.650   1.218   4.295  1.5589  0.5299 -1.5883
 2396SOL    HW218825   4.507   1.265   4.248  0.8413  3.7324 -3.0635
 2397SOL     OW18826   3.594   2.606   7.953  0.4336 -0.6358  0.5867
 2397SOL    HW118827   3.587   2.670   7.883 -2.1004 -1.3683  0.1954
 2397SOL    HW218828   3.625   2.655   8.029 -1.2243  0.4952  0.5276
 2398SOL     OW18829   4.022   1.245  11.974  0.1906 -0.7883  0.0989
 2398SOL    HW118830   4.087   1.280  11.912  1.0692  1.9402  2.5197
 2398SOL    HW218831   3.954   1.226  11.909  1.2576 -0.6516 -1.0650
 2399SOL     OW18832   2.758   0.172   5.096  0.4783  0.6307 -0.4725
 2399SOL    HW118833   2.670   0.172   5.132  0.5609 -0.1657 -0.2742
 2399SOL    HW218834   2.788   0.259   5.124  0.9483  0.6707 -1.0855
 2400SOL     OW18835   2.953   1.760   6.446 -0.6084 -0.3927 -0.0002
 2400SOL    HW118836   2.884   1.792   6.387 -0.7465  3.8635  2.4885
 2400SOL    HW218837   2.999   1.687   6.404 -0.3396 -0.2190 -0.0028
 2401SOL     OW18838   1.110   2.337   5.027  0.5595 -0.4941 -0.5550
 2401SOL    HW118839   1.128   2.381   4.944  0.8474 -0.6858 -0.5943
 2401SOL    HW218840   1.018   2.343   5.051  0.4551 -1.1851 -0.7880
 2402SOL     OW18841   1.225   4.623   6.575 -0.0222  0.5224  0.3465
 2402SOL    HW118842   1.170   4.685   6.527 -1.4034  0.2943  1.6254
 2402SOL    HW218843   1.211   4.660   6.662  0.4575  0.2547  0.5386
 2403SOL     OW18844   2.275   0.896   5.245  0.0852 -0.0059  0.6302
 2403SOL    HW118845   2.258   0.904   5.151  0.6670 -0.9864  0.4356
 2403SOL    HW218846   2.202   0.952   5.269 -0.5788  0.5970 -2.7106
 2404SOL     OW18847   3.687   1.249   4.245  0.4567  0.4110  0.1450
 2404SOL    HW118848   3.704   1.192   4.170 -0.0742  1.8638 -1.0841
 2404SOL    HW218849   3.682   1.333   4.199  0.6386 -1.4720 -3.3373
 2405SOL     OW18850   0.116   1.762  13.984  0.3199  0.3330  0.0206
 2405SOL    HW118851   0.134   1.724  14.070  2.0732  0.3386 -0.3455
 2405SOL    HW218852   0.206   1.774  13.956  0.8387 -0.1906  1.4653
 2406SOL     OW18853   4.616   3.255   3.841  0.5680  0.5504 -0.2692
 2406SOL    HW118854   4.642   3.266   3.749  0.6672 -2.5249 -0.5994
 2406SOL    HW218855   4.528   3.293   3.834 -0.4022 -1.4630  0.9451
 2407SOL     OW18856   0.185   4.381  17.180 -0.0813 -0.8024 -0.6955
 2407SOL    HW118857   0.260   4.430  17.147  0.0954 -0.6413 -0.0448
 2407SOL    HW218858   0.186   4.407  17.272  0.5243  1.2995 -1.2987
 2408SOL     OW18859   0.907   4.278   2.386 -0.0626  0.1705  1.2344
 2408SOL    HW118860   0.939   4.230   2.310 -1.0350  1.8202 -0.2320
 2408SOL    HW218861   0.865   4.204   2.429 -0.3448  0.8267  2.1091
 2409SOL     OW18862   2.322   2.060   6.357  0.1650 -0.3782 -0.3660
 2409SOL    HW118863   2.247   2.111   6.389  0.1067  0.0603 -1.2047
 2409SOL    HW218864   2.311   1.991   6.422  0.3422 -0.5099 -0.4761
 2410SOL     OW18865   4.366   0.922   2.051  0.5040  0.1137  0.3887
 2410SOL    HW118866   4.346   1.000   1.998  1.8719 -0.3414 -0.8059
 2410SOL    HW218867   4.455   0.947   2.077  1.1224 -0.0550 -1.5818
 2411SOL     OW18868   1.401   2.840  12.213  0.1604 -0.3379  0.2387
 2411SOL    HW118869   1.412   2.782  12.138  1.2769 -1.3680  1.2009
 2411SOL    HW218870   1.310   2.828  12.241 -0.3392  1.6995 -0.4605
 2412SOL     OW18871   3.695   1.078  16.057 -0.5028  0.5808 -0.4235
 2412SOL    HW118872   3.729   1.165  16.033 -0.0466  0.2438 -0.9870
 2412SOL    HW218873   3.681   1.031  15.975  1.2725 -1.2683  0.3559
 2413SOL     OW18874   0.937   3.529   3.996  0.2519 -1.0391 -0.2865
 2413SOL    HW118875   1.031   3.543   3.986  0.2602  0.2679  1.4486
 2413SOL    HW218876   0.907   3.555   3.909  0.1142  0.8107  0.3039
 2414SOL     OW18877   0.002   2.309  11.089 -0.6156 -0.1675  0.0765
 2414SOL    HW118878   4.672   2.374  11.072 -2.1827 -1.0221  2.9986
 2414SOL    HW218879   0.011   2.323  11.183 -0.9235  0.3109  0.0387
 2415SOL     OW18880   3.211   1.607  11.124 -0.6678  0.6167 -0.0252
 2415SOL    HW118881   3.195   1.519  11.159 -1.9839  0.6131 -0.6419
 2415SOL    HW218882   3.306   1.594  11.115 -0.8637 -1.6672  1.0889
 2416SOL     OW18883   0.410   3.130  15.337  0.6376  0.3089 -0.3453
 2416SOL    HW118884   0.338   3.180  15.298 -1.0045  0.8538  3.3666
 2416SOL    HW218885   0.366   3.046  15.349  0.5840  0.4282  0.2887
 2417SOL     OW18886   3.279   2.873   7.701 -0.2743  0.5796 -0.3759
 2417SOL    HW118887   3.301   2.781   7.686  1.3267  0.7461  0.9528
 2417SOL    HW218888   3.285   2.902   7.610 -0.5792  0.7731 -0.3326
 2418SOL     OW18889   2.681   3.448   2.213 -0.0206 -0.2126 -0.0826
 2418SOL    HW118890   2.773   3.448   2.239 -0.1023  2.9164  0.2215
 2418SOL    HW218891   2.651   3.364   2.248  1.5676 -0.6983  0.0958
 2419SOL     OW18892   3.781   0.206   6.214  0.4865 -0.1930  0.2526
 2419SOL    HW118893   3.868   0.241   6.236  0.5637  2.3960 -4.3221
 2419SOL    HW218894   3.747   0.280   6.165 -1.8138 -0.4280  1.4709
 2420SOL     OW18895   3.776   2.953  16.562 -0.3005 -0.6374  0.7716
 2420SOL    HW118896   3.693   2.912  16.537  0.3007 -2.0426  1.0542
 2420SOL    HW218897   3.833   2.878  16.547 -1.1181 -0.4853 -2.9184
 2421SOL     OW18898   3.552   1.958   1.171 -0.5609  0.3748 -0.1619
 2421SOL    HW118899   3.522   1.953   1.262 -0.8430  0.0948 -0.2735
 2421SOL    HW218900   3.469   1.957   1.124  0.2144  0.1657 -1.5402
 2422SOL     OW18901   4.452   0.643  13.831  0.2966  0.1360 -0.0341
 2422SOL    HW118902   4.366   0.603  13.825  0.6195 -0.6729  0.7391
 2422SOL    HW218903   4.495   0.558  13.831  2.1316  1.0713 -2.7227
 2423SOL     OW18904   0.029   3.782  13.584 -0.1021  0.4714  0.0771
 2423SOL    HW118905   4.737   3.863  13.543  0.1351  0.1297 -0.7923
 2423SOL    HW218906   4.684   3.735  13.593 -0.9523  2.0702  0.6344
 2424SOL     OW18907   1.734   0.538  14.493  0.5327  0.7838  0.4431
 2424SOL    HW118908   1.745   0.590  14.573 -0.1393  0.7269  0.5729
 2424SOL    HW218909   1.648   0.501  14.511  0.6593  0.5637  0.6133
 2425SOL     OW18910   2.727   4.566   4.103  0.1704  0.1387  0.2557
 2425SOL    HW118911   2.680   4.634   4.150 -0.1769  0.1874 -0.1639
 2425SOL    HW218912   2.650   4.526   4.062 -0.1781 -0.1591  1.2116
 2426SOL     OW18913   1.954   4.485   4.765  0.0559  0.0952  0.6630
 2426SOL    HW118914   1.907   4.568   4.760  1.5515  0.9673  1.0353
 2426SOL    HW218915   1.925   4.461   4.853  1.4106 -1.1503  0.7873
 2427SOL     OW18916   1.523   2.693   3.112  0.2068 -0.4134 -0.0875
 2427SOL    HW118917   1.563   2.625   3.167 -0.1563 -0.5790 -0.0238
 2427SOL    HW218918   1.588   2.762   3.117  1.4995 -1.6337 -0.0484
 2428SOL     OW18919   0.097   2.863  13.951  0.2512 -0.0871  0.4788
 2428SOL    HW118920   0.071   2.791  13.893  0.1456  0.0516  0.3539
 2428SOL    HW218921   0.190   2.841  13.952  0.3489  0.1363 -2.4959
 2429SOL     OW18922   1.462   1.163   1.757 -0.3293 -0.3515 -0.0857
 2429SOL    HW118923   1.527   1.098   1.733 -1.4790 -1.2110 -0.8958
 2429SOL    HW218924   1.486   1.237   1.702  1.3330 -0.2654  0.7708
 2430SOL     OW18925   4.625   1.688   2.162  0.0711 -0.8931  0.2164
 2430SOL    HW118926   4.552   1.694   2.224  1.0851  2.5153  1.1067
 2430SOL    HW218927   4.696   1.715   2.220 -0.2525 -0.1521  0.2629
 2431SOL     OW18928   2.017   0.543   4.242 -0.4027  0.2188 -0.1711
 2431SOL    HW118929   2.059   0.626   4.268 -1.5726  0.9539 -0.6724
 2431SOL    HW218930   2.030   0.526   4.149 -1.1517  0.6051 -0.3434
 2432SOL     OW18931   4.654   2.585   1.741 -0.7317  0.0882 -0.0329
 2432SOL    HW118932   4.652   2.489   1.739  0.1879  0.0730 -0.2048
 2432SOL    HW218933   4.664   2.608   1.648 -0.0689 -2.4305 -0.5832
 2433SOL     OW18934   1.255   1.929   9.139 -0.8997  0.2669  0.4932
 2433SOL    HW118935   1.299   2.005   9.101  1.2958 -0.7384  1.0070
 2433SOL    HW218936   1.197   1.898   9.070  2.0339 -0.3596 -1.7096
 2434SOL     OW18937   1.625   1.579   1.746  0.4273  0.7014  0.5141
 2434SOL    HW118938   1.571   1.525   1.804  1.6753 -0.5356  0.5427
 2434SOL    HW218939   1.613   1.664   1.788 -2.5466 -0.3635  1.8288
 2435SOL     OW18940   0.807   3.071   6.350  0.0250 -0.1575  0.9502
 2435SOL    HW118941   0.865   3.099   6.278  1.4743  0.4361  2.3407
 2435SOL    HW218942   0.766   2.990   6.319  1.3655 -0.8771  1.0550
 2436SOL     OW18943   4.205   2.544   1.858 -0.8808  0.0836 -0.1368
 2436SOL    HW118944   4.175   2.453   1.865 -0.4141  0.2695  4.3355
 2436SOL    HW218945   4.276   2.545   1.923 -2.7146 -0.8035  1.8931
 2437SOL     OW18946   2.554   1.623   2.178 -0.1179 -0.4744 -0.1517
 2437SOL    HW118947   2.550   1.629   2.082  0.0770 -0.7399 -0.1751
 2437SOL    HW218948   2.490   1.691   2.201  0.4593 -0.3298  0.9970
 2438SOL     OW18949   3.895   2.234   6.826  0.0394 -0.2761  0.4287
 2438SOL    HW118950   3.810   2.203   6.794 -1.1032  1.2213  1.9813
 2438SOL    HW218951   3.892   2.329   6.821  1.8433 -0.2595 -0.3927
 2439SOL     OW18952   4.220   0.740  13.031 -0.3473 -0.1262 -0.2608
 2439SOL    HW118953   4.236   0.666  13.090 -2.2284 -0.9564 -0.7789
 2439SOL    HW218954   4.125   0.753  13.034 -0.5419 -0.9569 -2.4003
 2440SOL     OW18955   4.442   3.741   2.738 -0.1000  0.6311 -0.3850
 2440SOL    HW118956   4.412   3.776   2.654 -1.0968  0.8276  0.0620
 2440SOL    HW218957   4.534   3.768   2.729  0.5212 -1.6643 -0.7541
 2441SOL     OW18958   2.794   2.308   5.243  0.2406  0.5109  1.0336
 2441SOL    HW118959   2.804   2.253   5.321  2.3472  0.2833  0.6086
 2441SOL    HW218960   2.801   2.234   5.183 -3.5508  0.5315  0.5536
 2442SOL     OW18961   4.342   0.782  14.744 -0.1384  0.2156  0.4085
 2442SOL    HW118962   4.430   0.761  14.775 -0.0423 -1.0355 -0.7591
 2442SOL    HW218963   4.336   0.736  14.661  2.8428  1.7921 -0.6697
 2443SOL     OW18964   2.260   1.458   7.284 -0.3128 -0.0093 -0.1308
 2443SOL    HW118965   2.309   1.482   7.205 -0.1158  0.4117  0.1237
 2443SOL    HW218966   2.170   1.433   7.264 -0.3388 -2.2982  2.8968
 2444SOL     OW18967   0.823   3.719  16.269 -0.1463 -0.7858  0.7965
 2444SOL    HW118968   0.772   3.796  16.244 -0.0613 -1.2626 -0.8775
 2444SOL    HW218969   0.913   3.752  16.265 -0.4608  0.1817  1.7209
 2445SOL     OW18970   3.682   0.534   1.874  0.0138  0.2785  0.1601
 2445SOL    HW118971   3.731   0.614   1.855 -0.8085  1.3310  2.3488
 2445SOL    HW218972   3.742   0.477   1.922 -0.0303  1.5275  1.6962
 2446SOL     OW18973   2.900   0.351   7.057 -0.7832 -0.4986  0.3096
 2446SOL    HW118974   2.920   0.348   7.150  0.3816  3.9765  0.1777
 2446SOL    HW218975   2.988   0.331   7.025 -1.2220 -4.0077  1.2674
 2447SOL     OW18976   3.824   3.293  12.215 -0.4557  0.0878  0.0609
 2447SOL    HW118977   3.801   3.377  12.173  1.9199 -0.1349 -1.6845
 2447SOL    HW218978   3.743   3.248  12.239  0.8793 -3.1261 -1.4389
 2448SOL     OW18979   3.934   1.850   2.190 -0.9126  0.1230  0.0930
 2448SOL    HW118980   3.974   1.816   2.111  0.9981 -1.8936  1.9275
 2448SOL    HW218981   4.004   1.887   2.244 -0.4066  0.1623 -0.5956
 2449SOL     OW18982   1.367   0.227   7.241 -0.5098  0.2134  1.1369
 2449SOL    HW118983   1.424   0.304   7.248  2.8269 -1.9029 -2.3811
 2449SOL    HW218984   1.417   0.170   7.299  1.4640  0.2973 -0.4805
 2450SOL     OW18985   0.803   0.933   9.166 -0.3626  0.3038 -0.2883
 2450SOL    HW118986   0.864   0.886   9.110  0.5276  0.6779  0.3608
 2450SOL    HW218987   0.730   0.871   9.171 -0.3636  0.4704  1.9333
 2451SOL     OW18988   1.320   1.797   3.618 -0.5029  0.1032  0.0399
 2451SOL    HW118989   1.234   1.784   3.578 -1.0599  1.8887  0.6793
 2451SOL    HW218990   1.361   1.716   3.587  0.1573  1.2580 -2.1408
 2452SOL     OW18991   4.222   0.480  12.776  0.4806  0.0888  0.3965
 2452SOL    HW118992   4.191   0.498  12.865  1.1916  0.7112  0.5126
 2452SOL    HW218993   4.303   0.531  12.773  1.6360 -1.8002 -0.4940
 2453SOL     OW18994   3.311   0.044   0.525  0.1883 -0.1710 -0.2395
 2453SOL    HW118995   3.331   4.693   0.555 -0.7240  0.7043  2.9566
 2453SOL    HW218996   3.344   0.049   0.436 -2.0526 -1.5982 -1.1842
 2454SOL     OW18997   0.652   2.058   6.471  0.1651  0.7136 -0.0248
 2454SOL    HW118998   0.746   2.043   6.467  0.5183  2.8696  0.1588
 2454SOL    HW218999   0.645   2.152   6.454 -3.1546  0.7194  1.3226
 2455SOL     OW19000   3.922   2.789   8.458 -0.0908 -0.5535  0.0529
 2455SOL    HW119001   3.912   2.703   8.418 -1.4351 -0.7480  0.7796
 2455SOL    HW219002   3.872   2.783   8.540 -0.8780 -0.7428 -0.4334
 2456SOL     OW19003   4.615   1.472   7.557 -0.0193  0.3738  0.2276
 2456SOL    HW119004   4.587   1.394   7.604 -3.1703 -1.3147 -4.4768
 2456SOL    HW219005   4.699   1.505   7.590  0.7969 -1.4194 -0.0606
 2457SOL     OW19006   1.643   1.392   7.284  0.1049  0.6599 -0.2635
 2457SOL    HW119007   1.633   1.456   7.354 -0.1467 -0.0864  0.3876
 2457SOL    HW219008   1.648   1.450   7.208  2.0261 -0.2269 -0.8082
 2458SOL     OW19009   1.887   3.815   8.874 -0.3986 -0.1156 -0.6332
 2458SOL    HW119010   1.914   3.899   8.909  0.4330 -0.5311 -0.2897
 2458SOL    HW219011   1.851   3.782   8.956  1.3824  1.4883  0.7680
 2459SOL     OW19012   0.231   0.515  17.550 -0.2024 -0.8134  0.2948
 2459SOL    HW119013   0.171   0.441  17.556 -1.9497  0.5502 -0.6776
 2459SOL    HW219014   0.248   0.520  17.456  0.3356 -0.2147  0.4208
 2460SOL     OW19015   3.650   3.804  12.090 -0.0702 -0.0093 -0.2373
 2460SOL    HW119016   3.732   3.772  12.051 -0.8336 -0.6645 -1.2969
 2460SOL    HW219017   3.655   3.897  12.070  3.1774  0.4329  2.5856
 2461SOL     OW19018   4.417   4.086  13.434  0.2371  0.0949  0.4143
 2461SOL    HW119019   4.368   4.004  13.437 -0.6051  0.5253 -1.5680
 2461SOL    HW219020   4.410   4.116  13.343 -0.9601  1.0696  0.8286
 2462SOL     OW19021   4.158   2.452   4.461  0.0530 -0.4901 -0.4181
 2462SOL    HW119022   4.251   2.455   4.439 -0.1545 -0.9516 -1.3619
 2462SOL    HW219023   4.112   2.439   4.378  0.9372  1.9130 -1.3078
 2463SOL     OW19024   3.233   4.270   1.195  0.4287 -0.6506  0.0154
 2463SOL    HW119025   3.290   4.293   1.122 -0.5689 -1.3169 -0.9815
 2463SOL    HW219026   3.166   4.338   1.186 -0.1187 -1.1634  0.2168
 2464SOL     OW19027   4.556   2.542  17.400 -0.0755 -0.2485 -0.4214
 2464SOL    HW119028   4.473   2.510  17.364  0.1515 -2.4992  1.0612
 2464SOL    HW219029   4.610   2.532  17.322 -2.5202  1.2137 -2.2936
 2465SOL     OW19030   2.388   1.417   6.226  0.1672  0.3208 -0.1336
 2465SOL    HW119031   2.431   1.456   6.302 -0.7234  0.6031  0.2184
 2465SOL    HW219032   2.300   1.454   6.236 -0.0025  0.0431 -0.6018
 2466SOL     OW19033   1.889   1.760   1.588 -0.0994  1.0487 -0.3803
 2466SOL    HW119034   1.827   1.712   1.532  1.8289 -0.8921 -0.8601
 2466SOL    HW219035   1.838   1.836   1.614  0.0749  0.0128  3.0311
 2467SOL     OW19036   2.865   3.556  12.553  0.2591 -0.0036  0.3340
 2467SOL    HW119037   2.911   3.622  12.500 -1.8511  0.4083 -0.9760
 2467SOL    HW219038   2.907   3.485  12.505 -0.3841 -1.0537  1.3468
 2468SOL     OW19039   2.733   0.636   6.433  0.0644 -0.4503 -0.1857
 2468SOL    HW119040   2.750   0.629   6.527  1.2706  1.6366 -0.2267
 2468SOL    HW219041   2.638   0.630   6.433  0.1505 -1.7970  0.8366
 2469SOL     OW19042   3.339   0.359   4.528  0.0988 -0.0173  0.0424
 2469SOL    HW119043   3.354   0.265   4.532  1.2580  0.0586 -2.1756
 2469SOL    HW219044   3.261   0.366   4.582  0.2568 -1.9341  0.5235
 2470SOL     OW19045   0.203   2.426   2.664 -0.7446 -0.0992  0.3589
 2470SOL    HW119046   0.260   2.377   2.604 -0.2326 -0.0986  0.8500
 2470SOL    HW219047   0.117   2.422   2.621 -1.5319  0.3691  1.8868
 2471SOL     OW19048   4.226   2.307   6.099  0.0682 -0.0596  0.1110
 2471SOL    HW119049   4.147   2.360   6.088  0.4996  0.6458  0.4172
 2471SOL    HW219050   4.188   2.219   6.094 -0.5942  0.2502 -0.2391
 2472SOL     OW19051   2.160   1.270  12.986 -0.3160 -0.0426  0.4355
 2472SOL    HW119052   2.087   1.328  13.007 -0.1688  0.1099  0.5318
 2472SOL    HW219053   2.222   1.342  12.971 -1.4011  0.5221 -1.3442
 2473SOL     OW19054   0.631   2.330   3.107 -0.0736 -0.2371  0.0959
 2473SOL    HW119055   0.693   2.400   3.127 -1.6416  1.4716 -1.0175
 2473SOL    HW219056   0.665   2.262   3.165  2.2553 -0.2997 -1.3099
 2474SOL     OW19057   1.561   0.956   5.283 -0.3602  0.1776 -0.4108
 2474SOL    HW119058   1.630   0.904   5.243 -0.6452 -0.8080  0.3570
 2474SOL    HW219059   1.498   0.892   5.317  1.1609 -0.1120  1.8520
 2475SOL     OW19060   2.287   1.597   8.412  0.1750  0.2594  0.0127
 2475SOL    HW119061   2.226   1.573   8.483 -0.9856  2.5949 -0.2022
 2475SOL    HW219062   2.359   1.541   8.439  2.1446  2.4321 -0.7746
 2476SOL     OW19063   1.872   4.100   7.480 -0.7936 -0.3650 -0.4758
 2476SOL    HW119064   1.915   4.140   7.404 -0.9036 -0.7448 -0.7371
 2476SOL    HW219065   1.905   4.158   7.549  1.1930 -0.4364 -1.3638
 2477SOL     OW19066   0.322   0.301   5.810 -0.2338 -0.4682 -0.5942
 2477SOL    HW119067   0.409   0.267   5.792  0.3528  1.3486 -1.1772
 2477SOL    HW219068   0.318   0.275   5.902 -0.1424 -0.2579 -0.5304
 2478SOL     OW19069   0.039   1.466   5.448 -0.0180 -0.6484  0.1383
 2478SOL    HW119070   0.058   1.425   5.364  1.1447 -1.6681  0.8928
 2478SOL    HW219071   0.097   1.406   5.496 -0.1411 -0.5726  0.3825
 2479SOL     OW19072   2.962   1.562  16.666 -0.5713 -0.4169 -0.0562
 2479SOL    HW119073   2.941   1.550  16.758  0.5183 -1.0721  0.1087
 2479SOL    HW219074   2.900   1.497  16.632  1.3044 -2.4897  0.5171
 2480SOL     OW19075   1.670   3.077  14.948 -0.1943  0.1769  0.5904
 2480SOL    HW119076   1.620   3.041  15.021  0.6377 -1.1997  0.4853
 2480SOL    HW219077   1.733   3.008  14.927 -0.4824  0.1529 -0.2064
 2481SOL     OW19078   1.004   2.073  11.980 -0.4979 -0.0290 -0.4848
 2481SOL    HW119079   0.993   2.002  12.043 -0.1034 -0.0937 -0.4916
 2481SOL    HW219080   1.088   2.042  11.947  0.0100 -0.5286  1.3191
 2482SOL     OW19081   0.567   2.744   4.721 -0.0436  0.1474 -0.3861
 2482SOL    HW119082   0.587   2.818   4.779 -0.4699 -0.0012 -0.0551
 2482SOL    HW219083   0.510   2.784   4.656  0.7696 -0.1177 -1.2701
 2483SOL     OW19084   1.993   4.455   2.573  0.2478 -0.0795 -0.2105
 2483SOL    HW119085   2.045   4.437   2.495  2.0826  3.5967  0.1274
 2483SOL    HW219086   1.924   4.507   2.530  1.0564  2.3303  1.4142
 2484SOL     OW19087   0.377   0.498   3.287 -0.4328 -0.3896 -0.4180
 2484SOL    HW119088   0.466   0.527   3.310 -0.2135 -0.1266 -1.5925
 2484SOL    HW219089   0.388   0.405   3.271 -0.9447 -0.5419  0.1122
 2485SOL     OW19090   3.407   1.423  14.266 -0.2065  0.0468  0.0179
 2485SOL    HW119091   3.357   1.505  14.260 -2.5142 -1.3371  0.5312
 2485SOL    HW219092   3.366   1.375  14.338 -1.1922  0.5273 -0.2159
 2486SOL     OW19093   1.966   2.538   1.732 -0.3972 -0.0361 -0.3003
 2486SOL    HW119094   1.874   2.530   1.705 -0.3191 -2.3955  0.1411
 2486SOL    HW219095   1.956   2.589   1.812  0.7570  0.3903 -0.4323
 2487SOL     OW19096   0.074   3.612   2.798 -0.4105 -0.1193  0.9326
 2487SOL    HW119097   0.159   3.655   2.808  0.3400 -0.8540 -2.5146
 2487SOL    HW219098   0.058   3.580   2.887  2.5669  0.4477  1.6895
 2488SOL     OW19099   3.976   0.737   2.662  0.1361  0.1565  0.5106
 2488SOL    HW119100   3.992   0.784   2.744 -1.3593  2.6826 -0.6608
 2488SOL    HW219101   3.956   0.655   2.707 -2.0867  1.3087  1.6165
 2489SOL     OW19102   4.312   0.350   9.666 -0.3768  0.1144 -0.0165
 2489SOL    HW119103   4.285   0.276   9.612 -0.1004  0.3868 -0.5294
 2489SOL    HW219104   4.237   0.407   9.656  1.6598  2.9687  1.1467
 2490SOL     OW19105   3.543   2.900   4.515  0.2234 -0.7471  0.4423
 2490SOL    HW119106   3.599   2.917   4.591  0.1268 -3.4126  1.1042
 2490SOL    HW219107   3.458   2.926   4.551  0.2072  2.1306 -1.6238
 2491SOL     OW19108   2.290   0.519   1.432  0.2054 -0.1590  0.2438
 2491SOL    HW119109   2.229   0.446   1.432  0.8323 -0.6877  1.6994
 2491SOL    HW219110   2.306   0.538   1.340  0.6329 -1.8614 -0.0229
 2492SOL     OW19111   2.673   4.319  14.821 -0.7474 -0.4153  0.4153
 2492SOL    HW119112   2.674   4.243  14.879  1.1447 -0.9020 -0.2414
 2492SOL    HW219113   2.594   4.364  14.851 -0.4444 -0.2866  1.0298
 2493SOL     OW19114   1.854   4.129  16.687 -0.3047 -0.0258 -0.1658
 2493SOL    HW119115   1.861   4.042  16.725  0.1144  0.5316  1.0355
 2493SOL    HW219116   1.932   4.143  16.633  1.1413  2.4767  2.5727
 2494SOL     OW19117   0.664   4.099   7.135 -0.0198  0.2763 -0.0975
 2494SOL    HW119118   0.667   4.142   7.050 -1.0842  0.7580  0.1136
 2494SOL    HW219119   0.573   4.112   7.162 -1.2250 -0.0847 -4.0293
 2495SOL     OW19120   3.915   2.309   7.100  0.4016  0.4718 -0.6818
 2495SOL    HW119121   3.905   2.259   7.019  2.3326  1.2115 -1.3828
 2495SOL    HW219122   4.000   2.279   7.131  0.2957 -1.2129 -2.0127
 2496SOL     OW19123   3.445   0.042  10.794  0.0590 -0.0176  0.2800
 2496SOL    HW119124   3.408   0.101  10.859  2.2671 -0.3128  1.7865
 2496SOL    HW219125   3.517   0.095  10.759 -0.6166 -0.1622 -1.3367
 2497SOL     OW19126   0.676   3.513   4.916  0.3928 -0.0447 -0.5070
 2497SOL    HW119127   0.752   3.481   4.867  1.1634 -1.4001  1.5775
 2497SOL    HW219128   0.636   3.583   4.865 -1.8465 -0.5543  0.5155
 2498SOL     OW19129   3.941   3.877  15.615  0.2486 -0.4080  0.4003
 2498SOL    HW119130   3.971   3.823  15.542 -0.8937  1.9220 -1.8034
 2498SOL    HW219131   3.846   3.874  15.601 -0.0074  0.6468  1.9328
 2499SOL     OW19132   1.369   1.922   7.457  0.2022  0.0825  0.0762
 2499SOL    HW119133   1.403   2.010   7.474 -0.4282  0.2573  0.4474
 2499SOL    HW219134   1.384   1.882   7.542  2.4766 -0.6948 -0.6949
 2500SOL     OW19135   4.354   1.233   5.752 -0.2209 -0.3722  0.6710
 2500SOL    HW119136   4.398   1.166   5.804  3.1659  0.3524 -1.2448
 2500SOL    HW219137   4.323   1.294   5.818 -0.0063 -1.1702  1.5046
 2501SOL     OW19138   4.456   0.454   9.063  0.6561  0.0406  0.2186
 2501SOL    HW119139   4.543   0.420   9.083  0.0584 -1.0412  0.9284
 2501SOL    HW219140   4.423   0.375   9.021 -2.1875  1.2180  0.2684
 2502SOL     OW19141   2.501   1.589  10.641  0.0843  0.4476 -0.9181
 2502SOL    HW119142   2.578   1.553  10.684  1.0237  1.2284 -1.9506
 2502SOL    HW219143   2.463   1.509  10.604  3.0890 -1.1231 -0.5859
 2503SOL     OW19144   2.515   1.199   7.209 -0.0627  0.2056  0.2625
 2503SOL    HW119145   2.581   1.256   7.168  1.0687 -2.7192 -1.9795
 2503SOL    HW219146   2.497   1.240   7.294 -1.0926 -0.4309  0.3486
 2504SOL     OW19147   0.557   1.593   6.313 -0.0633  0.2886 -0.6732
 2504SOL    HW119148   0.501   1.669   6.328 -0.3056 -0.4658  2.2841
 2504SOL    HW219149   0.567   1.609   6.219  2.1058  2.1426 -0.1337
 2505SOL     OW19150   3.214   2.844   3.952  0.1103  0.1370 -0.2615
 2505SOL    HW119151   3.282   2.781   3.927 -0.5109 -0.5917 -0.1100
 2505SOL    HW219152   3.238   2.900   3.878 -2.1150 -0.4302 -1.4104
 2506SOL     OW19153   0.166   1.589   0.944  0.0719  0.1352 -0.1907
 2506SOL    HW119154   0.206   1.535   0.877  3.8635  0.3750  1.8401
 2506SOL    HW219155   0.074   1.565   0.937  0.6501 -1.5073 -1.9674
 2507SOL     OW19156   3.974   2.321   3.959 -0.1725  0.0047 -0.3617
 2507SOL    HW119157   3.904   2.267   3.921  1.2255 -0.5754 -2.1221
 2507SOL    HW219158   3.964   2.407   3.919  2.3758  1.0635  1.3125
 2508SOL     OW19159   0.939   3.526  14.192  0.7453 -0.2833  0.1877
 2508SOL    HW119160   1.006   3.591  14.210  1.2937  0.5590 -4.8119
 2508SOL    HW219161   0.991   3.459  14.149 -0.9475 -1.3689 -0.1787
 2509SOL     OW19162   0.794   2.592   1.743  0.3147 -0.0904 -0.3008
 2509SOL    HW119163   0.795   2.533   1.819 -0.4831 -0.2025 -0.3726
 2509SOL    HW219164   0.716   2.554   1.702  0.4490  0.3524 -0.9615
 2510SOL     OW19165   0.587   3.486  14.521 -0.3326 -0.2615  0.3919
 2510SOL    HW119166   0.627   3.407  14.557  1.1420  0.8230  1.1463
 2510SOL    HW219167   0.612   3.491  14.429  0.9081  1.2272  0.8010
 2511SOL     OW19168   4.318   1.435  11.011 -0.1231  0.0784  0.1211
 2511SOL    HW119169   4.302   1.480  10.928  0.3512  0.7597  0.3935
 2511SOL    HW219170   4.286   1.346  10.998 -1.1360  0.3472  0.7423
 2512SOL     OW19171   1.355   3.671   6.015  0.5277  0.5134  0.0402
 2512SOL    HW119172   1.269   3.697   6.047 -0.4032 -0.6111 -1.4976
 2512SOL    HW219173   1.397   3.748   6.052  1.5292 -0.6837  1.3793
 2513SOL     OW19174   2.400   0.534   3.880 -0.2230 -0.1025  0.2333
 2513SOL    HW119175   2.414   0.623   3.846  1.6851 -0.5314 -0.0900
 2513SOL    HW219176   2.490   0.510   3.902 -0.0885  0.4663  0.3092
 2514SOL     OW19177   0.855   2.181   4.318  0.1370 -0.3884 -0.1477
 2514SOL    HW119178   0.819   2.093   4.314 -3.2995  1.0104 -0.9383
 2514SOL    HW219179   0.913   2.168   4.243  1.4006  1.4193  0.5016
 2515SOL     OW19180   1.147   1.462   7.638 -0.2514  0.0095  0.5188
 2515SOL    HW119181   1.138   1.423   7.724  0.6187  0.1506  0.6778
 2515SOL    HW219182   1.113   1.548   7.663 -1.6615 -0.5163  0.3797
 2516SOL     OW19183   0.897   3.153   8.480 -0.2939 -0.1763 -0.2816
 2516SOL    HW119184   0.986   3.174   8.507 -0.5905  0.6041  0.0883
 2516SOL    HW219185   0.858   3.236   8.453  3.0158  1.6796  0.6786
 2517SOL     OW19186   4.069   2.697   9.637 -0.2988  0.2238  0.0837
 2517SOL    HW119187   3.979   2.683   9.668  0.3525  0.6780  2.2199
 2517SOL    HW219188   4.117   2.670   9.715 -0.4057 -0.0992  0.0381
 2518SOL     OW19189   4.067   1.070  16.758 -0.5939 -0.1674  0.5100
 2518SOL    HW119190   4.114   1.152  16.777 -0.0974 -0.4798  0.6137
 2518SOL    HW219191   3.986   1.097  16.714 -0.2291  2.2264  1.2714
 2519SOL     OW19192   0.031   1.712   5.113  0.6012 -0.1101  0.0981
 2519SOL    HW119193   0.052   1.782   5.050 -0.3544  0.2118  0.1398
 2519SOL    HW219194   4.676   1.692   5.100  0.3127  0.4855  1.1685
 2520SOL     OW19195   2.386   1.238   8.532  0.3199  0.4106  0.0535
 2520SOL    HW119196   2.453   1.292   8.491  0.8321  0.7870  1.4057
 2520SOL    HW219197   2.440   1.198   8.600 -0.1195 -1.1256 -0.4808
 2521SOL     OW19198   4.491   4.418  15.522  0.2926  0.2088  0.2549
 2521SOL    HW119199   4.496   4.481  15.594 -0.2302 -0.8582  1.2418
 2521SOL    HW219200   4.436   4.343  15.547 -0.1648  0.7818  0.9495
 2522SOL     OW19201   2.964   4.340   6.558 -0.2138  0.0825  0.7525
 2522SOL    HW119202   2.963   4.430   6.526 -0.4591 -0.2819 -0.3042
 2522SOL    HW219203   2.924   4.311   6.475  0.0837 -0.6395  0.8592
 2523SOL     OW19204   4.075   0.749   8.137  1.1494  0.0886  0.2644
 2523SOL    HW119205   4.070   0.825   8.079  0.3896  0.5889  0.9778
 2523SOL    HW219206   4.149   0.767   8.195  0.3086  0.8256  1.1013
 2524SOL     OW19207   3.408   3.190  12.533 -0.2421  0.3532 -0.3543
 2524SOL    HW119208   3.409   3.101  12.568  1.0851  0.9941  1.2455
 2524SOL    HW219209   3.313   3.199  12.525 -0.0798  0.9258 -1.5715
 2525SOL     OW19210   4.196   3.312   7.147 -0.4865  0.0378 -0.1072
 2525SOL    HW119211   4.116   3.330   7.196 -0.7881 -0.7871 -0.3046
 2525SOL    HW219212   4.249   3.385   7.179  0.1069 -0.8190  0.8655
 2526SOL     OW19213   0.517   3.952  16.984 -0.0929 -0.1808 -0.7260
 2526SOL    HW119214   0.575   4.024  16.959 -1.4527  0.9606 -0.6081
 2526SOL    HW219215   0.573   3.879  16.957  0.1087  0.5434 -2.2341
 2527SOL     OW19216   0.555   3.919   1.180  0.3388 -0.1900 -0.5133
 2527SOL    HW119217   0.470   3.943   1.146  0.4564 -1.7461 -1.9166
 2527SOL    HW219218   0.611   3.985   1.140  1.2043 -1.5308 -1.5199
 2528SOL     OW19219   1.582   0.615   7.908 -0.3028  0.3484  0.1614
 2528SOL    HW119220   1.647   0.681   7.934 -0.7576  0.1852  1.7106
 2528SOL    HW219221   1.525   0.675   7.860  0.2203 -0.7482 -1.8212
 2529SOL     OW19222   3.968   3.153   6.944 -0.1526 -0.2187 -0.4774
 2529SOL    HW119223   4.051   3.138   6.898 -0.9004  0.1473 -1.9566
 2529SOL    HW219224   3.986   3.222   7.008  0.0478  0.6091 -1.4176
 2530SOL     OW19225   2.837   3.721   3.798 -0.2872  0.0742  0.2404
 2530SOL    HW119226   2.795   3.635   3.794 -0.8042  0.3098  0.5737
 2530SOL    HW219227   2.910   3.710   3.860  1.6428  2.4015 -1.6532
 2531SOL     OW19228   0.654   4.035   4.396  0.0898 -0.5416  0.5599
 2531SOL    HW119229   0.706   4.065   4.321 -0.7823 -0.1822  0.0978
 2531SOL    HW219230   0.569   4.011   4.358  0.2190 -1.0099  0.5575
 2532SOL     OW19231   4.023   2.784  12.527 -0.1312 -1.0271 -0.6862
 2532SOL    HW119232   4.012   2.773  12.621  0.0751 -1.7985 -0.7556
 2532SOL    HW219233   3.946   2.836  12.503 -0.7710 -0.7971  1.9303
 2533SOL     OW19234   1.528   1.081  15.778 -0.2247  0.0640  0.4364
 2533SOL    HW119235   1.477   1.000  15.771  1.2047 -0.8281  0.4166
 2533SOL    HW219236   1.544   1.104  15.687  0.2040 -0.1744  0.4477
 2534SOL     OW19237   2.968   3.672   3.259  0.2384 -0.1214  0.1668
 2534SOL    HW119238   3.023   3.679   3.338  0.5129 -1.2110  0.0663
 2534SOL    HW219239   2.901   3.737   3.279 -0.4787 -0.8243  0.0422
 2535SOL     OW19240   1.654   4.658   5.235  0.4236 -0.2058 -0.2019
 2535SOL    HW119241   1.662   4.685   5.327 -0.1281 -1.0824  0.1037
 2535SOL    HW219242   1.581   4.597   5.239 -0.5185  1.0447  1.8494
 2536SOL     OW19243   0.121   3.992  13.971  0.7508 -0.3507 -0.0972
 2536SOL    HW119244   0.201   3.945  13.948  0.2280 -0.8055 -0.9873
 2536SOL    HW219245   0.073   3.910  13.984 -2.0898  1.4101  0.4634
 2537SOL     OW19246   4.013   4.497   4.828  0.0241 -0.7710  0.0032
 2537SOL    HW119247   4.027   4.488   4.734  1.4788  0.1201  0.1329
 2537SOL    HW219248   4.058   4.420   4.864 -0.1951 -2.4070 -3.1777
 2538SOL     OW19249   0.708   4.554   4.880  0.1986 -0.1747 -0.4633
 2538SOL    HW119250   0.754   4.470   4.890  0.1697 -0.1543 -0.1481
 2538SOL    HW219251   0.616   4.529   4.881  0.7224 -2.0708  0.1975
 2539SOL     OW19252   0.030   1.282  13.169  0.5312 -0.6848 -0.5046
 2539SOL    HW119253   4.717   1.332  13.233  0.9319  0.5880 -1.1807
 2539SOL    HW219254   0.062   1.201  13.209  3.6441  0.5067 -0.5379
 2540SOL     OW19255   4.310   3.370   1.152 -0.0186  0.5952 -0.1843
 2540SOL    HW119256   4.379   3.419   1.108  0.3969  0.4838  0.3493
 2540SOL    HW219257   4.233   3.396   1.102 -0.0898  0.6229 -0.0590
 2541SOL     OW19258   2.951   4.064   2.124  0.3545 -0.3248 -0.2545
 2541SOL    HW119259   2.919   4.074   2.214  1.7105 -2.5082  0.4604
 2541SOL    HW219260   2.868   4.082   2.079  0.4051  0.6037  0.0128
 2542SOL     OW19261   0.844   1.477   9.470  0.5080 -0.0196 -0.0646
 2542SOL    HW119262   0.838   1.570   9.493  3.5255 -0.0050  0.6484
 2542SOL    HW219263   0.765   1.438   9.507  1.3101 -0.7853  0.8498
 2543SOL     OW19264   0.923   1.721   6.976 -0.1846 -0.0835 -0.5372
 2543SOL    HW119265   1.004   1.761   7.008 -0.2922  0.1352 -0.5422
 2543SOL    HW219266   0.937   1.702   6.883 -0.5910 -1.3562 -0.3507
 2544SOL     OW19267   4.393   2.608   2.065 -0.0716  0.3373 -0.5541
 2544SOL    HW119268   4.484   2.578   2.064 -0.6040 -1.2809  0.1849
 2544SOL    HW219269   4.401   2.688   2.014  0.3149  0.9695  0.5005
 2545SOL     OW19270   3.210   1.928   0.780  0.3541  0.3418 -0.5565
 2545SOL    HW119271   3.238   1.997   0.720 -0.1159 -0.7460 -2.0287
 2545SOL    HW219272   3.224   1.845   0.733  0.6348 -0.0728  0.2685
 2546SOL     OW19273   0.247   1.860   7.191 -0.2500  0.2212  0.5563
 2546SOL    HW119274   0.270   1.789   7.131  2.4125  0.4876  1.2735
 2546SOL    HW219275   0.330   1.900   7.217 -1.0494  2.6775 -0.6968
 2547SOL     OW19276   4.246   2.276   5.229  0.5584  0.2967  0.8306
 2547SOL    HW119277   4.272   2.367   5.213  0.7154 -0.3243 -2.4884
 2547SOL    HW219278   4.257   2.279   5.324 -1.8446  1.4245  1.0762
 2548SOL     OW19279   3.082   3.467   1.594  0.1531  0.6060  0.9468
 2548SOL    HW119280   3.007   3.430   1.640 -1.3197  0.3752 -1.6906
 2548SOL    HW219281   3.148   3.461   1.664  1.3043  1.7337 -0.0343
 2549SOL     OW19282   2.774   3.688   8.823 -0.1614 -0.4617 -0.1189
 2549SOL    HW119283   2.831   3.675   8.898 -0.4390 -0.9548  0.0079
 2549SOL    HW219284   2.826   3.665   8.746  2.0529  1.0897  0.9163
 2550SOL     OW19285   4.366   3.234   6.100 -0.0355  0.0513  0.5152
 2550SOL    HW119286   4.385   3.176   6.174  0.3236  0.7830  1.0004
 2550SOL    HW219287   4.312   3.293   6.153 -2.7583 -2.5387  0.6822
 2551SOL     OW19288   4.727   0.127   2.758  0.2024  0.2612 -0.1428
 2551SOL    HW119289   4.695   0.137   2.848 -1.0607  0.0814 -0.5800
 2551SOL    HW219290   4.644   0.141   2.714  0.0604 -0.6301 -0.1677
 2552SOL     OW19291   4.157   1.741  15.780 -0.4014  0.4583  0.2290
 2552SOL    HW119292   4.114   1.728  15.696  1.2362 -0.1117 -0.5207
 2552SOL    HW219293   4.208   1.822  15.782  1.2097 -0.5146 -1.1762
 2553SOL     OW19294   3.073   2.860  15.863 -0.1780  0.6525  0.1191
 2553SOL    HW119295   3.021   2.887  15.939 -0.7320  1.1604 -0.4465
 2553SOL    HW219296   3.059   2.928  15.798  0.4028 -1.9535 -2.7353
 2554SOL     OW19297   3.067   1.525   6.349 -0.0131  0.0630 -0.1199
 2554SOL    HW119298   3.160   1.528   6.375 -0.5289  1.3452  1.5884
 2554SOL    HW219299   3.052   1.434   6.376 -0.6829  0.6322  1.4173
 2555SOL     OW19300   0.681   0.724   7.400 -0.1964 -0.0413  0.0126
 2555SOL    HW119301   0.595   0.692   7.370 -0.3476  0.4378 -0.0667
 2555SOL    HW219302   0.659   0.732   7.493  0.6866  2.0376  0.0447
 2556SOL     OW19303   1.083   2.472   6.737  0.0707  0.1936 -0.3143
 2556SOL    HW119304   1.089   2.453   6.830  0.7197 -0.7548 -0.5489
 2556SOL    HW219305   1.133   2.397   6.705 -0.4861 -0.1945 -0.2599
 2557SOL     OW19306   0.155   3.339   7.392  0.3306  0.2609 -0.5524
 2557SOL    HW119307   0.209   3.389   7.331  0.6794  0.0036 -0.4558
 2557SOL    HW219308   0.207   3.353   7.471  0.3008 -0.7818 -0.3385
 2558SOL     OW19309   3.624   0.562  11.548 -0.8449  0.6073 -0.2892
 2558SOL    HW119310   3.557   0.586  11.613  0.0890 -2.2195  1.7067
 2558SOL    HW219311   3.605   0.637  11.491  1.1648 -0.0661 -1.7969
 2559SOL     OW19312   0.034   1.714  17.479 -0.7312 -0.3259 -0.2099
 2559SOL    HW119313   4.695   1.762  17.511 -0.0985  1.5745 -1.5662
 2559SOL    HW219314   0.025   1.728  17.385 -1.5231  0.3462 -0.0358
 2560SOL     OW19315   3.739   2.617   6.061 -0.5279  0.0457  0.4610
 2560SOL    HW119316   3.659   2.594   6.014 -0.8607  1.3634  0.3895
 2560SOL    HW219317   3.754   2.709   6.040  0.2427 -0.3756 -0.8375
 2561SOL     OW19318   1.173   1.796  15.495  0.0571 -0.1270 -0.3740
 2561SOL    HW119319   1.260   1.807  15.456  0.2401 -0.3047 -0.0274
 2561SOL    HW219320   1.124   1.846  15.431 -0.4388 -1.1944 -0.8270
 2562SOL     OW19321   4.529   1.074   3.294 -0.1198  0.2811  0.2528
 2562SOL    HW119322   4.595   1.135   3.327  0.5861  0.1453 -0.8948
 2562SOL    HW219323   4.577   0.991   3.292 -2.3290 -1.0119  1.0772
 2563SOL     OW19324   3.010   1.569  15.997  0.2690  0.7586 -0.1536
 2563SOL    HW119325   2.946   1.606  16.058  1.1316 -0.3090  1.3824
 2563SOL    HW219326   3.068   1.644  15.980  0.9559  0.3517  0.3915
 2564SOL     OW19327   0.844   1.162   1.802  0.4372 -0.2889  0.0398
 2564SOL    HW119328   0.833   1.131   1.712 -1.8513 -0.2007  0.2724
 2564SOL    HW219329   0.930   1.129   1.826  0.7530  1.9642  2.0481
 2565SOL     OW19330   3.171   3.642   6.718 -0.4978  0.7269 -0.0601
 2565SOL    HW119331   3.224   3.563   6.722 -2.6652 -0.8131 -1.2559
 2565SOL    HW219332   3.121   3.630   6.637 -1.1591 -0.1419  0.4689
 2566SOL     OW19333   2.676   4.549   3.438 -0.1775  0.0631  0.1294
 2566SOL    HW119334   2.743   4.509   3.493  1.2952  0.1875 -1.5579
 2566SOL    HW219335   2.607   4.517   3.496  0.6123  1.2093  1.6958
 2567SOL     OW19336   3.840   0.700   5.877 -0.3027 -0.0349  0.3330
 2567SOL    HW119337   3.843   0.778   5.822 -0.9589 -0.4357 -0.2729
 2567SOL    HW219338   3.891   0.638   5.825 -0.5569  0.2555 -0.2669
 2568SOL     OW19339   2.697   2.095  10.768 -0.1953 -0.1964 -0.1263
 2568SOL    HW119340   2.787   2.072  10.746 -0.3655 -0.5188 -0.4862
 2568SOL    HW219341   2.650   2.018  10.737 -0.4167 -0.3607  0.6240
 2569SOL     OW19342   2.426   2.529   2.616  0.0604  0.0849 -0.1286
 2569SOL    HW119343   2.513   2.492   2.600 -0.0913 -1.1897  2.0648
 2569SOL    HW219344   2.375   2.463   2.664  0.0458  0.8008  0.8290
 2570SOL     OW19345   2.845   1.811   5.033 -0.3809 -0.1061 -0.0548
 2570SOL    HW119346   2.884   1.799   4.946  1.6116  2.5260  0.4992
 2570SOL    HW219347   2.756   1.781   5.014  0.1263 -0.4222 -1.9568
 2571SOL     OW19348   2.691   4.347   4.432 -0.1079  0.4434  0.1120
 2571SOL    HW119349   2.598   4.343   4.409  0.1301  1.9511 -1.1202
 2571SOL    HW219350   2.722   4.396   4.356  0.8145  0.4089  0.4724
 2572SOL     OW19351   4.615   2.775   6.081 -0.0838  0.3932  0.0711
 2572SOL    HW119352   4.524   2.806   6.085 -0.1948  0.3441 -2.1528
 2572SOL    HW219353   4.666   2.848   6.045  0.5635  0.3818  0.9651
 2573SOL     OW19354   4.306   1.916   6.634 -0.3916 -0.2723 -0.6205
 2573SOL    HW119355   4.360   1.912   6.555  1.7872  2.2542  0.7685
 2573SOL    HW219356   4.343   1.989   6.684  0.5447 -2.8257  2.3887
 2574SOL     OW19357   2.343   1.917   6.120 -0.0024 -0.7194 -0.6594
 2574SOL    HW119358   2.326   1.954   6.207  1.5913  1.1144 -1.1206
 2574SOL    HW219359   2.297   1.974   6.059 -1.8539  0.9474  2.3335
 2575SOL     OW19360   3.335   2.075  15.532  0.5339 -0.6282 -0.3529
 2575SOL    HW119361   3.280   2.054  15.607 -2.1236  3.0119 -1.2840
 2575SOL    HW219362   3.292   2.014  15.472 -0.4686 -0.5332  0.2730
 2576SOL     OW19363   1.723   4.023   5.026 -0.5422 -0.4043 -0.2292
 2576SOL    HW119364   1.704   3.931   5.008 -0.5336 -0.0686 -1.9583
 2576SOL    HW219365   1.722   4.068   4.942 -0.7992 -1.5748 -0.8479
 2577SOL     OW19366   2.626   1.422   3.627  0.0730 -0.5377 -0.0075
 2577SOL    HW119367   2.703   1.448   3.576  0.2932 -2.4236 -0.6591
 2577SOL    HW219368   2.615   1.492   3.691 -2.1430 -0.3303 -0.6069
 2578SOL     OW19369   0.203   0.987   6.346 -0.7624  0.2879  0.0603
 2578SOL    HW119370   0.179   0.925   6.277 -1.3528  1.8785 -1.1300
 2578SOL    HW219371   0.263   0.935   6.401 -0.0746  0.3295 -0.6551
 2579SOL     OW19372   2.588   2.010  12.796 -0.2128 -0.5283 -0.0092
 2579SOL    HW119373   2.568   1.916  12.801 -3.2051  0.1416  0.6370
 2579SOL    HW219374   2.681   2.000  12.815  0.2217 -2.0696 -2.8937
 2580SOL     OW19375   1.865   0.844   9.396  0.5648  0.0027  0.2882
 2580SOL    HW119376   1.959   0.827   9.391  0.3998 -1.0086  0.6110
 2580SOL    HW219377   1.843   0.921   9.344 -0.0583 -0.1670  0.3020
 2581SOL     OW19378   1.274   4.304   4.263 -0.3336  1.0695 -0.2176
 2581SOL    HW119379   1.206   4.350   4.213 -1.0109  0.5479  0.2111
 2581SOL    HW219380   1.329   4.375   4.294  1.5040 -0.3620 -0.2132
 2582SOL     OW19381   3.114   1.175   4.484 -0.1666 -0.1273 -0.4668
 2582SOL    HW119382   3.159   1.205   4.563  0.3230 -1.5342 -0.2220
 2582SOL    HW219383   3.096   1.260   4.443 -0.5008 -0.6317 -1.3753
 2583SOL     OW19384   1.294   4.304   7.147 -0.5085  0.4681  0.2719
 2583SOL    HW119385   1.295   4.396   7.171  1.0082  0.0320  1.9165
 2583SOL    HW219386   1.279   4.272   7.237  1.5469 -1.6202 -0.1403
 2584SOL     OW19387   3.847   1.802   6.126 -1.1688  0.2635  0.0957
 2584SOL    HW119388   3.828   1.716   6.088 -0.9116 -0.1482  0.8956
 2584SOL    HW219389   3.845   1.863   6.053  1.7909 -0.2742 -0.4381
 2585SOL     OW19390   2.663   2.535   3.784 -0.2949  0.0270  0.3619
 2585SOL    HW119391   2.702   2.565   3.701  0.3891  0.8168  0.9752
 2585SOL    HW219392   2.600   2.470   3.753  0.2846  0.3600 -1.5278
 2586SOL     OW19393   2.489   3.811  10.167 -0.0507 -0.3722  0.6268
 2586SOL    HW119394   2.514   3.729  10.209 -0.0790 -0.6871  0.0277
 2586SOL    HW219395   2.529   3.802  10.080 -1.4950  1.9428 -0.2896
 2587SOL     OW19396   2.199   1.671  14.514 -0.4205  0.4724 -0.2188
 2587SOL    HW119397   2.131   1.695  14.452  0.8437  1.3978 -1.2280
 2587SOL    HW219398   2.265   1.740  14.511 -0.8218  0.9179  1.2520
 2588SOL     OW19399   2.234   2.572   1.816  0.2331  0.3791  0.3546
 2588SOL    HW119400   2.139   2.566   1.822  0.4039 -2.0866  0.5982
 2588SOL    HW219401   2.260   2.602   1.903 -2.0411 -0.1517  1.2169
 2589SOL     OW19402   2.580   1.451  15.972  0.1271  0.4235 -0.0261
 2589SOL    HW119403   2.542   1.503  15.901 -0.5367  0.8296  0.6291
 2589SOL    HW219404   2.521   1.376  15.975  1.6252 -0.6735  1.8178
 2590SOL     OW19405   0.734   4.383   5.135  0.7984 -0.9559  0.1173
 2590SOL    HW119406   0.728   4.336   5.052 -2.2145 -1.3571  0.5784
 2590SOL    HW219407   0.794   4.322   5.177  1.5164 -0.1219  0.3217
 2591SOL     OW19408   0.754   1.332  17.170 -0.0042  0.3561  0.1394
 2591SOL    HW119409   0.731   1.271  17.100  1.8131  0.2489 -0.3798
 2591SOL    HW219410   0.688   1.309  17.235  0.5975  0.8789  0.9373
 2592SOL     OW19411   4.433   3.722   1.536  0.0761 -0.5136 -0.3039
 2592SOL    HW119412   4.523   3.740   1.512 -0.0369  1.2762  0.6464
 2592SOL    HW219413   4.392   3.676   1.463 -0.9398 -1.6669  0.9796
 2593SOL     OW19414   0.672   3.249   4.194  0.9174  0.0454  0.0015
 2593SOL    HW119415   0.609   3.309   4.155  2.0957  0.8661 -0.6496
 2593SOL    HW219416   0.621   3.195   4.254  1.6599 -0.8273 -0.1441
 2594SOL     OW19417   4.040   4.179   5.817  0.1424  0.2923 -0.0314
 2594SOL    HW119418   4.039   4.084   5.813 -0.4982  0.3024 -0.1632
 2594SOL    HW219419   4.084   4.184   5.902 -0.0611  0.9735  0.0423
 2595SOL     OW19420   1.750   3.153   5.561  0.1532  0.2165  0.1258
 2595SOL    HW119421   1.772   3.136   5.653  0.8004 -1.7704 -0.4042
 2595SOL    HW219422   1.829   3.195   5.526  0.6038  0.3700  1.3208
 2596SOL     OW19423   1.942   1.909   0.895 -0.1233 -0.3085  0.5940
 2596SOL    HW119424   1.957   1.822   0.934 -0.8565 -1.5573 -1.9104
 2596SOL    HW219425   1.870   1.944   0.947 -0.8370  0.3803 -0.8676
 2597SOL     OW19426   1.220   3.432   2.754 -0.3513 -0.3016  0.5504
 2597SOL    HW119427   1.251   3.499   2.693 -0.4488 -2.5323 -1.9852
 2597SOL    HW219428   1.241   3.357   2.698  0.3805 -0.1813  0.6652
 2598SOL     OW19429   1.078   3.272  11.032 -0.1422  0.0372  0.2011
 2598SOL    HW119430   1.116   3.243  11.115  0.7933  1.0716  0.1276
 2598SOL    HW219431   1.158   3.310  10.995 -1.1809  0.1054 -1.9346
 2599SOL     OW19432   2.971   4.560  15.414 -0.8462 -0.4285  0.3375
 2599SOL    HW119433   2.988   4.587  15.504 -2.6957 -0.3699  0.6625
 2599SOL    HW219434   2.993   4.639  15.365  2.3871 -0.0996  2.3312
 2600SOL     OW19435   2.183   1.360   4.107 -0.0240 -0.2192 -0.1699
 2600SOL    HW119436   2.183   1.418   4.031 -3.3538  0.5774  0.4273
 2600SOL    HW219437   2.149   1.282   4.062  1.4814 -0.7167 -0.4574
 2601SOL     OW19438   2.081   2.123  16.702  0.8259  0.1364  0.5904
 2601SOL    HW119439   2.055   2.182  16.631 -0.3730  2.5675  3.0687
 2601SOL    HW219440   2.136   2.179  16.757  0.1962  0.6878  0.6585
 2602SOL     OW19441   2.366   1.652   6.721 -0.4186  0.2177 -0.3046
 2602SOL    HW119442   2.283   1.644   6.768  0.9871 -1.3248  1.9183
 2602SOL    HW219443   2.387   1.559   6.720  0.7123  0.4719  0.2570
 2603SOL     OW19444   0.583   4.115   3.977  0.6030 -0.0170 -0.3750
 2603SOL    HW119445   0.648   4.146   4.040  0.8156 -2.9106  0.8701
 2603SOL    HW219446   0.567   4.023   3.999 -1.0426  0.6451  1.1914
 2604SOL     OW19447   0.008   1.858   3.860  0.4634  0.0056  0.4360
 2604SOL    HW119448   4.735   1.906   3.777  1.2315 -0.4589  0.0730
 2604SOL    HW219449   4.654   1.860   3.886  1.0630 -0.0524  2.4984
 2605SOL     OW19450   2.248   2.012   0.062 -0.0266 -0.0807  0.6850
 2605SOL    HW119451   2.282   1.932   0.102  1.1736  0.7105  1.2267
 2605SOL    HW219452   2.317   2.064   0.021 -1.9133  0.7002 -1.5376
 2606SOL     OW19453   3.307   2.011   3.581 -0.1124  0.1906  0.8160
 2606SOL    HW119454   3.266   2.080   3.529 -0.9921 -1.3825 -0.5939
 2606SOL    HW219455   3.261   1.934   3.546  3.9524 -1.0038 -1.9298
 2607SOL     OW19456   1.806   3.991   9.142 -0.1696 -0.3175 -0.0392
 2607SOL    HW119457   1.897   3.967   9.127 -0.4622 -3.0605  2.6072
 2607SOL    HW219458   1.816   4.063   9.205  0.4339 -2.6984  2.6071
 2608SOL     OW19459   1.921   0.269   5.874 -0.2242  0.6934 -0.4060
 2608SOL    HW119460   1.854   0.293   5.810 -1.1864 -0.4750  0.1612
 2608SOL    HW219461   1.922   0.175   5.886 -1.8052  0.4097 -2.4540
 2609SOL     OW19462   3.363   4.503   2.162  0.4730 -0.1271 -0.2732
 2609SOL    HW119463   3.368   4.582   2.107 -2.4858 -0.0392 -0.3931
 2609SOL    HW219464   3.342   4.433   2.100  0.9744  1.2675 -2.0494
 2610SOL     OW19465   1.541   0.367   6.720  0.4511 -0.8742  0.1784
 2610SOL    HW119466   1.621   0.324   6.751  0.7476 -0.0634  0.5299
 2610SOL    HW219467   1.575   0.455   6.703 -2.6634  0.4616  0.8272
 2611SOL     OW19468   3.275   2.413   5.096 -0.3645  0.2210  0.2341
 2611SOL    HW119469   3.332   2.353   5.144 -1.0595  0.6896  1.6591
 2611SOL    HW219470   3.339   2.472   5.056  0.6804 -1.3335 -0.3719
 2612SOL     OW19471   3.152   1.255   9.251  0.1619  0.6250 -0.0658
 2612SOL    HW119472   3.071   1.239   9.204 -0.0978  0.5479  0.4124
 2612SOL    HW219473   3.150   1.350   9.263  3.0017  0.7230 -0.2916
 2613SOL     OW19474   1.023   1.254   5.563  0.5279  0.9038 -0.3186
 2613SOL    HW119475   0.996   1.203   5.640 -0.8992  1.5327 -0.4003
 2613SOL    HW219476   0.954   1.225   5.504 -0.2558  0.7996  0.6366
 2614SOL     OW19477   4.135   1.717   3.623 -0.0015 -0.4587  0.4074
 2614SOL    HW119478   4.217   1.737   3.578 -1.2277 -0.9388 -2.0018
 2614SOL    HW219479   4.161   1.639   3.673 -1.5144 -1.4789 -0.3874
 2615SOL     OW19480   2.899   1.167   5.553  0.3977  0.3637  0.0999
 2615SOL    HW119481   2.808   1.157   5.582  0.9689  1.0493  2.0930
 2615SOL    HW219482   2.912   1.084   5.508 -1.2958  1.6241 -2.6816
 2616SOL     OW19483   3.243   3.277   4.292  0.0506  0.0949 -0.3190
 2616SOL    HW119484   3.218   3.189   4.261 -1.3152 -0.3564  2.0170
 2616SOL    HW219485   3.324   3.281   4.242  1.5009  0.2252  2.0440
 2617SOL     OW19486   3.648   1.485  16.858  0.5388  0.2412 -0.7443
 2617SOL    HW119487   3.626   1.394  16.837 -1.7333  0.4216  0.8520
 2617SOL    HW219488   3.558   1.516  16.872  0.8407 -0.0678  1.7968
 2618SOL     OW19489   1.008   2.756   1.216  0.2273  0.4293 -0.2492
 2618SOL    HW119490   1.018   2.849   1.194  1.9302  0.2966 -0.0133
 2618SOL    HW219491   1.073   2.722   1.155 -0.2935 -0.2939 -0.4070
 2619SOL     OW19492   2.881   3.355   5.296 -0.5658 -0.1785 -0.2536
 2619SOL    HW119493   2.808   3.414   5.316 -1.2497  0.1904 -3.8063
 2619SOL    HW219494   2.909   3.392   5.212  1.2431  0.9257  0.8479
 2620SOL     OW19495   4.203   0.398   3.448  0.2751 -0.0699  0.4073
 2620SOL    HW119496   4.280   0.361   3.405 -2.2204 -3.1390 -1.3569
 2620SOL    HW219497   4.248   0.473   3.488  0.5829  0.1854 -0.4114
 2621SOL     OW19498   4.577   1.938   4.951 -0.7857 -0.6407 -0.4220
 2621SOL    HW119499   4.525   1.977   5.021  0.6164 -0.2266  0.3748
 2621SOL    HW219500   4.551   1.846   4.943 -3.0264 -0.1325  1.0523
 2622SOL     OW19501   0.737   0.202  11.134 -0.2694  0.2675  0.2688
 2622SOL    HW119502   0.786   0.177  11.055  0.9505 -0.0560  1.1191
 2622SOL    HW219503   0.777   0.284  11.163  1.9205 -0.0591 -1.7938
 2623SOL     OW19504   2.051   3.658   9.699  0.5168  0.2225 -0.2001
 2623SOL    HW119505   2.024   3.747   9.723 -1.9437 -0.8768  1.1521
 2623SOL    HW219506   2.146   3.669   9.707  0.7276 -0.5748 -1.6439
 2624SOL     OW19507   0.396   3.561   8.556 -0.3618  0.3380  0.1042
 2624SOL    HW119508   0.387   3.483   8.501 -0.7754 -0.4507  1.2892
 2624SOL    HW219509   0.383   3.635   8.496  1.6303  0.4200 -0.2361
 2625SOL     OW19510   1.057   2.547   3.817  0.6503  0.1733 -0.0372
 2625SOL    HW119511   1.117   2.521   3.747 -0.2038  0.3007 -0.8101
 2625SOL    HW219512   1.065   2.469   3.872 -1.7299 -0.3564 -0.4777
 2626SOL     OW19513   3.413   0.389   2.503 -0.0641 -0.3488  0.7462
 2626SOL    HW119514   3.318   0.398   2.495 -0.4369 -4.3435  0.9135
 2626SOL    HW219515   3.423   0.349   2.589 -1.1666 -1.2559  0.4546
 2627SOL     OW19516   3.729   3.216   4.029 -0.0577 -0.6000 -0.2851
 2627SOL    HW119517   3.812   3.242   3.988 -0.2967  0.4540 -0.0946
 2627SOL    HW219518   3.739   3.123   4.049 -4.6135 -0.9211  0.4825
 2628SOL     OW19519   0.136   3.623   9.710 -0.5375  0.2154 -0.1386
 2628SOL    HW119520   0.103   3.686   9.775 -1.8857 -2.0207  1.3361
 2628SOL    HW219521   0.225   3.659   9.703 -0.1454 -0.3401  1.8556
 2629SOL     OW19522   1.610   0.284   0.916  0.5248 -0.0482 -0.1911
 2629SOL    HW119523   1.516   0.266   0.913  0.8661 -1.7575 -0.9413
 2629SOL    HW219524   1.632   0.250   1.003  2.8325  1.6563 -0.1252
 2630SOL     OW19525   4.609   2.363   0.818 -0.5214 -0.1192 -0.0312
 2630SOL    HW119526   4.611   2.295   0.750  0.8056 -0.8525  0.7503
 2630SOL    HW219527   4.560   2.431   0.772  1.6581  1.6739  0.3049
 2631SOL     OW19528   1.316   4.611  10.752  0.5109 -0.6604  0.3596
 2631SOL    HW119529   1.383   4.660  10.704  0.6544 -0.6006  0.6245
 2631SOL    HW219530   1.351   4.614  10.841  0.3785 -1.4322  0.4437
 2632SOL     OW19531   3.890   1.580   7.869 -0.2303  0.2871  0.3277
 2632SOL    HW119532   3.815   1.612   7.819 -0.2213  2.1088  1.4718
 2632SOL    HW219533   3.849   1.539   7.945 -2.0092 -1.3578 -1.5156
 2633SOL     OW19534   4.573   0.653   1.298 -0.4781 -0.5933  0.6155
 2633SOL    HW119535   4.534   0.568   1.277 -1.5686  0.4865 -1.7619
 2633SOL    HW219536   4.572   0.698   1.213 -1.5013 -0.6998  0.5758
 2634SOL     OW19537   1.954   4.543  16.528  0.4068  0.5906 -0.0401
 2634SOL    HW119538   2.048   4.554  16.544  0.6780  1.5647 -2.2554
 2634SOL    HW219539   1.941   4.470  16.467  0.4265  2.4178 -2.2326
 2635SOL     OW19540   3.313   3.621   7.669 -0.1565  0.1430  0.1430
 2635SOL    HW119541   3.268   3.580   7.596  0.3034 -0.2961  0.1025
 2635SOL    HW219542   3.355   3.699   7.634  1.4222 -1.5931 -1.8654
 2636SOL     OW19543   3.601   1.330  15.483  0.1117 -0.1880  0.5400
 2636SOL    HW119544   3.663   1.261  15.506  1.4470  1.0996  0.7760
 2636SOL    HW219545   3.564   1.332  15.571  1.9253 -0.9292  1.3170
 2637SOL     OW19546   1.535   1.469  14.951  0.7127  0.1626  0.1754
 2637SOL    HW119547   1.456   1.475  14.897 -0.0781  0.1061  1.3451
 2637SOL    HW219548   1.493   1.439  15.031  0.9508  0.6610  0.4856
 2638SOL     OW19549   0.049   1.913   4.293  0.4810 -0.0174 -0.5317
 2638SOL    HW119550   0.009   1.997   4.271 -1.2301 -0.9059 -0.7668
 2638SOL    HW219551   4.710   1.868   4.327 -0.1459  0.4041 -1.3935
 2639SOL     OW19552   4.157   0.180  14.940 -0.3403  0.1063 -0.3701
 2639SOL    HW119553   4.181   0.230  15.017  0.2279  0.1339 -0.5616
 2639SOL    HW219554   4.141   0.255  14.883 -0.2710  1.7677  1.8080
 2640SOL     OW19555   4.522   2.357  12.361 -0.1054  0.6637 -0.4616
 2640SOL    HW119556   4.519   2.270  12.401  0.6171  0.0251 -1.7984
 2640SOL    HW219557   4.569   2.398  12.433  1.9290 -0.3287 -1.2114
 2641SOL     OW19558   0.359   0.609   8.534  0.2941  0.3867  0.2656
 2641SOL    HW119559   0.344   0.610   8.628  2.1475 -0.3635  0.5628
 2641SOL    HW219560   0.425   0.676   8.517  0.5501  0.1195  0.2150
 2642SOL     OW19561   1.243   0.020  12.338  0.1650 -0.1493  0.2533
 2642SOL    HW119562   1.314   4.702  12.369  0.6812  0.2050 -0.2746
 2642SOL    HW219563   1.250   4.737  12.244  0.9666  1.5410 -0.0624
 2643SOL     OW19564   2.707   3.173  16.459 -0.4617 -0.0162  0.0857
 2643SOL    HW119565   2.794   3.137  16.444 -0.4987  0.1286 -0.4781
 2643SOL    HW219566   2.731   3.249  16.513  2.4541  0.0188 -1.2500
 2644SOL     OW19567   1.429   0.236  17.276  0.2027 -0.1614  0.3450
 2644SOL    HW119568   1.426   0.155  17.226 -1.1814  0.5795 -0.7701
 2644SOL    HW219569   1.509   0.280  17.251 -0.3173 -0.5252 -1.9314
 2645SOL     OW19570   0.487   3.256  17.717  0.0784 -0.4244 -0.3327
 2645SOL    HW119571   0.420   3.214   0.022 -2.0177  0.7113 -2.0416
 2645SOL    HW219572   0.565   3.214   0.003  0.3513  1.1103  0.8726
 2646SOL     OW19573   3.610   1.277  16.687 -0.3948 -0.3198 -0.5969
 2646SOL    HW119574   3.538   1.315  16.636  0.7320 -0.4880 -2.3243
 2646SOL    HW219575   3.576   1.189  16.707  0.6817 -0.8121 -0.9101
 2647SOL     OW19576   2.891   3.083  13.937  0.4102 -0.9123  0.3852
 2647SOL    HW119577   2.874   3.018  14.005 -1.3998 -2.3701 -1.4592
 2647SOL    HW219578   2.987   3.084  13.941  0.4347  0.7723 -0.7282
 2648SOL     OW19579   1.024   4.464   8.214 -0.2288 -0.4473  0.5931
 2648SOL    HW119580   1.006   4.475   8.307 -0.5971 -0.6716  0.5500
 2648SOL    HW219581   1.047   4.371   8.213 -1.1190 -0.6587 -0.5689
 2649SOL     OW19582   1.068   0.170   9.265  0.2451 -0.1458 -0.3437
 2649SOL    HW119583   0.978   0.154   9.238  1.1361 -3.0634 -1.5506
 2649SOL    HW219584   1.062   0.254   9.311  0.2155 -0.1351 -0.3668
 2650SOL     OW19585   1.920   1.185   3.424  0.1395  0.1508  0.0689
 2650SOL    HW119586   1.835   1.155   3.458  0.4513 -0.5838  0.2113
 2650SOL    HW219587   1.951   1.103   3.387  0.0913  0.6519 -1.0625
 2651SOL     OW19588   1.308   2.514   8.521  0.3328  0.1456  0.3167
 2651SOL    HW119589   1.300   2.563   8.603 -3.4468 -0.1768  0.1426
 2651SOL    HW219590   1.221   2.478   8.506  0.7204 -0.9456  0.7252
 2652SOL     OW19591   2.605   3.447   6.850 -0.7742  0.3653  0.0809
 2652SOL    HW119592   2.635   3.537   6.835 -1.8279  0.7830  0.4837
 2652SOL    HW219593   2.674   3.409   6.904 -1.3982 -0.5342  0.2436
 2653SOL     OW19594   0.328   4.029   6.221  0.3604  0.0382  0.2502
 2653SOL    HW119595   0.387   3.954   6.215  0.2547  0.1057 -1.5821
 2653SOL    HW219596   0.264   4.003   6.154 -0.4967  2.1446  0.2462
 2654SOL     OW19597   2.145   3.227   9.913 -0.0681  0.2826 -0.4696
 2654SOL    HW119598   2.141   3.134   9.892 -0.7966 -0.2933  2.1891
 2654SOL    HW219599   2.182   3.259   9.831  0.3417  1.2382  0.0840
 2655SOL     OW19600   4.667   3.515   7.381  0.1014 -0.2861 -0.2329
 2655SOL    HW119601   4.687   3.564   7.460 -2.0529  1.2899 -0.6910
 2655SOL    HW219602   0.004   3.454   7.381  1.6456  1.6057 -0.1839
 2656SOL     OW19603   1.413   4.499   7.833 -0.5302  0.3194 -0.5554
 2656SOL    HW119604   1.369   4.498   7.918  1.3582  1.4584  0.4539
 2656SOL    HW219605   1.420   4.591   7.807 -1.4776  0.9345  1.4070
 2657SOL     OW19606   2.091   0.885   9.953  0.0760  0.1213 -0.4518
 2657SOL    HW119607   2.036   0.844   9.887 -1.7736  0.0117  1.1541
 2657SOL    HW219608   2.031   0.895  10.027  2.0629  1.4798  0.9975
 2658SOL     OW19609   0.796   1.796   0.138  0.1196  0.0336 -0.2385
 2658SOL    HW119610   0.858   1.868   0.150  0.2431 -0.3250  1.2623
 2658SOL    HW219611   0.843   1.751   0.069 -1.8601  0.7180 -2.0422
 2659SOL     OW19612   4.635   3.258  16.703  0.3925  0.3406  0.5462
 2659SOL    HW119613   4.694   3.323  16.664  0.6119  0.2756  0.7708
 2659SOL    HW219614   4.687   3.180  16.683 -0.9730 -0.3345 -0.3812
 2660SOL     OW19615   0.979   2.451  14.945  0.1581 -0.8550  0.0483
 2660SOL    HW119616   0.925   2.373  14.959 -2.5511  1.1103  0.5331
 2660SOL    HW219617   0.961   2.483  15.034  0.8932 -1.7495  0.5154
 2661SOL     OW19618   4.409   0.069   7.840 -0.0705 -0.1313 -0.4520
 2661SOL    HW119619   4.409   4.712   7.854  0.3449 -0.2755 -1.3943
 2661SOL    HW219620   4.462   0.063   7.761  0.8782  1.8706  0.0406
 2662SOL     OW19621   0.505   1.443   0.723  0.7267 -0.1840 -0.0534
 2662SOL    HW119622   0.441   1.514   0.728 -0.8678 -1.6667  0.7299
 2662SOL    HW219623   0.500   1.425   0.629 -1.6671 -2.1577  0.4380
 2663SOL     OW19624   1.319   0.813  14.939  0.4425 -0.1983  0.2989
 2663SOL    HW119625   1.300   0.727  14.978 -0.5073 -0.5511 -0.9356
 2663SOL    HW219626   1.255   0.815  14.868  1.3950  2.2629 -0.4932
 2664SOL     OW19627   4.692   2.992   0.097 -0.0799 -0.3745  0.1087
 2664SOL    HW119628   4.603   3.006   0.129 -0.7555  1.1837 -2.4111
 2664SOL    HW219629   4.693   3.011   0.003  0.4727  0.6867  0.3237
 2665SOL     OW19630   3.712   0.988   5.927  0.1368 -0.2824 -0.4540
 2665SOL    HW119631   3.755   0.951   5.850 -0.3255 -0.1466 -0.7764
 2665SOL    HW219632   3.753   1.074   5.938 -0.7222  0.0464  0.1949
 2666SOL     OW19633   3.736   2.836   2.676 -0.1760 -0.7192 -0.6260
 2666SOL    HW119634   3.787   2.901   2.723 -2.4179 -0.1570  1.0380
 2666SOL    HW219635   3.688   2.889   2.613  1.3785 -1.0196 -2.0310
 2667SOL     OW19636   4.571   3.974   4.692  0.0394  0.0715  0.3538
 2667SOL    HW119637   4.612   3.947   4.774  0.1405 -0.1871  0.2178
 2667SOL    HW219638   4.588   4.069   4.691 -1.9417  0.4221 -1.0817
 2668SOL     OW19639   0.919   1.525   2.349  0.2800  0.1294 -0.3816
 2668SOL    HW119640   0.881   1.592   2.293  0.1558 -0.6528 -1.2306
 2668SOL    HW219641   0.933   1.448   2.294  2.0774  0.2595 -0.1162
 2669SOL     OW19642   2.391   1.792  10.305 -0.0422  0.2071  0.4368
 2669SOL    HW119643   2.411   1.881  10.276 -0.0024 -0.5165 -1.7524
 2669SOL    HW219644   2.476   1.750  10.289 -1.3274 -2.1705 -0.2362
 2670SOL     OW19645   0.395   3.328   8.387 -0.2628  1.1665  0.1895
 2670SOL    HW119646   0.475   3.277   8.397  1.4555  3.1875 -3.0329
 2670SOL    HW219647   0.328   3.262   8.405  2.6771 -1.0476  2.8884
 2671SOL     OW19648   0.298   3.056   1.928 -0.4164  0.2298  0.0628
 2671SOL    HW119649   0.345   3.104   1.995 -1.0009  1.4524 -0.3995
 2671SOL    HW219650   0.218   3.108   1.936 -1.3590 -0.9777 -1.3121
 2672SOL     OW19651   2.516   1.064   3.729  0.0007  0.3640 -0.3403
 2672SOL    HW119652   2.611   1.064   3.744  0.2215  1.7775 -1.6553
 2672SOL    HW219653   2.476   1.086   3.813  1.3691  0.1474  0.3621
 2673SOL     OW19654   0.235   1.415   5.826  0.0917 -0.0139 -0.1739
 2673SOL    HW119655   0.248   1.486   5.890  2.0264 -0.9972  0.5171
 2673SOL    HW219656   0.147   1.441   5.800  0.3138  1.4534  0.5245
 2674SOL     OW19657   3.889   2.249   2.060  0.2533  0.6495 -0.2649
 2674SOL    HW119658   3.932   2.227   2.143 -1.3685  0.7963  0.6160
 2674SOL    HW219659   3.801   2.214   2.066  0.5929  0.0075  1.0129
 2675SOL     OW19660   1.876   1.818  13.979 -0.1445  0.4132  0.3740
 2675SOL    HW119661   1.839   1.772  13.904 -0.8431  0.7111  0.5419
 2675SOL    HW219662   1.861   1.756  14.051  2.3184  0.4643  0.9278
 2676SOL     OW19663   3.395   0.921  14.161  0.2634 -0.3085  0.5254
 2676SOL    HW119664   3.413   0.881  14.246  0.3751  0.8311  1.0425
 2676SOL    HW219665   3.357   1.005  14.187  1.2453 -0.0474  1.1440
 2677SOL     OW19666   4.501   0.297   2.245 -0.2408  0.3193  0.6272
 2677SOL    HW119667   4.440   0.244   2.195 -1.0228  1.6203  0.2097
 2677SOL    HW219668   4.453   0.352   2.306 -1.6992 -1.0593  0.7047
 2678SOL     OW19669   2.100   0.262   1.444  0.6338 -0.1643 -0.3862
 2678SOL    HW119670   2.054   0.272   1.527 -0.1370 -0.4913 -0.7639
 2678SOL    HW219671   2.024   0.298   1.398  1.2263  2.3474  0.6204
 2679SOL     OW19672   2.465   1.003   2.715 -0.5765 -0.4116  0.0354
 2679SOL    HW119673   2.554   0.986   2.684  0.0227 -1.6374  2.4463
 2679SOL    HW219674   2.440   1.072   2.654  0.3637 -1.1476 -1.1924
 2680SOL     OW19675   3.982   0.530   5.222 -0.0290 -0.1642 -0.3186
 2680SOL    HW119676   4.066   0.484   5.226 -1.0563 -1.8792  1.6358
 2680SOL    HW219677   3.931   0.465   5.175 -0.6577  0.9585 -1.1735
 2681SOL     OW19678   2.544   1.109   8.699 -0.0264  0.7506  0.1005
 2681SOL    HW119679   2.634   1.111   8.733 -0.0319 -2.8310  0.3477
 2681SOL    HW219680   2.561   1.053   8.623 -0.5080  0.6096  0.0958
 2682SOL     OW19681   1.905   0.708   1.364 -0.3213 -0.6851  0.4096
 2682SOL    HW119682   1.916   0.657   1.283  0.5709 -2.0928  1.4148
 2682SOL    HW219683   1.921   0.644   1.433 -1.7272  1.1512  2.4174
 2683SOL     OW19684   1.511   2.872  17.151  0.2149 -0.3613  0.0511
 2683SOL    HW119685   1.591   2.848  17.104  0.1037  1.0807 -0.8661
 2683SOL    HW219686   1.549   2.906  17.233  0.1172 -1.1359  0.4147
 2684SOL     OW19687   3.848   3.261   6.604  0.1178  0.0014  0.4226
 2684SOL    HW119688   3.880   3.172   6.622  0.7877  0.1239 -0.1876
 2684SOL    HW219689   3.801   3.262   6.688  0.7054  0.1420  0.7458
 2685SOL     OW19690   2.512   3.228   8.812  0.2411 -0.9094 -0.2603
 2685SOL    HW119691   2.480   3.316   8.833  1.4541 -0.6344  0.4808
 2685SOL    HW219692   2.453   3.196   8.745 -0.2242  3.1914 -1.8348
 2686SOL     OW19693   0.787   0.361   9.650 -0.1319 -0.6373 -0.4559
 2686SOL    HW119694   0.849   0.314   9.706  1.3007 -0.0829 -1.5881
 2686SOL    HW219695   0.811   0.453   9.663 -0.3053 -0.3487 -2.2516
 2687SOL     OW19696   2.652   2.675   4.903 -0.0981  0.2121 -0.2314
 2687SOL    HW119697   2.608   2.716   4.978  1.9806  2.1722 -0.0793
 2687SOL    HW219698   2.740   2.712   4.898 -0.4788  1.1787  0.2636
 2688SOL     OW19699   4.123   2.857   1.030  0.3938  0.0580 -0.4249
 2688SOL    HW119700   4.152   2.775   1.070  0.9067  0.7689  0.6667
 2688SOL    HW219701   4.169   2.912   1.093  0.0890  0.9788 -1.0037
 2689SOL     OW19702   1.443   3.774   4.463 -0.1569  0.5222  0.2017
 2689SOL    HW119703   1.480   3.790   4.550 -0.7329 -0.5164  0.6460
 2689SOL    HW219704   1.470   3.683   4.448 -1.4488  0.0045  0.9839
 2690SOL     OW19705   1.059   3.603  17.247 -0.3686 -0.2880 -0.0162
 2690SOL    HW119706   1.116   3.526  17.252  0.3827  0.4378  2.2849
 2690SOL    HW219707   1.066   3.626  17.339 -1.8037  2.0981 -0.5096
 2691SOL     OW19708   2.342   3.806  11.032  0.0507  0.0512 -0.2008
 2691SOL    HW119709   2.283   3.855  10.974  1.4019 -0.3013 -1.8845
 2691SOL    HW219710   2.410   3.873  11.042 -1.2688  1.2377  0.7310
 2692SOL     OW19711   2.127   1.549   8.637 -0.2178 -0.2782 -0.6386
 2692SOL    HW119712   2.091   1.460   8.628 -0.4231 -0.4482  1.7964
 2692SOL    HW219713   2.195   1.542   8.703  0.3275  1.0849 -1.0780
 2693SOL     OW19714   2.434   2.829   8.232  0.2472 -0.1636  0.5032
 2693SOL    HW119715   2.436   2.733   8.239  0.2961  0.0355  3.3586
 2693SOL    HW219716   2.438   2.844   8.326  1.2092  0.3294  0.3812
 2694SOL     OW19717   3.488   2.257   5.174 -0.2232  0.0242 -0.2226
 2694SOL    HW119718   3.504   2.267   5.268 -1.2998 -1.7124  0.1333
 2694SOL    HW219719   3.463   2.165   5.172  1.7311 -0.4518 -2.8672
 2695SOL     OW19720   2.743   1.847  15.782 -0.2215 -0.0293 -0.4251
 2695SOL    HW119721   2.670   1.787  15.796  1.4222 -1.4155  2.1807
 2695SOL    HW219722   2.822   1.796  15.761  0.5288  2.0430 -2.6636
 2696SOL     OW19723   0.362   1.931  11.043  0.2007  0.4819  0.0157
 2696SOL    HW119724   0.289   1.993  11.035  2.7503  3.4950 -0.1157
 2696SOL    HW219725   0.305   1.854  11.053 -0.1489  0.6189 -0.9412
 2697SOL     OW19726   3.200   3.649   7.923 -0.1794  0.2220 -0.1638
 2697SOL    HW119727   3.110   3.681   7.924  0.2972  1.5692 -0.9495
 2697SOL    HW219728   3.220   3.669   7.832 -1.7900 -0.3451 -0.6347
 2698SOL     OW19729   2.252   2.895   3.695 -0.4574  0.0888  0.3269
 2698SOL    HW119730   2.204   2.918   3.775  0.7267 -0.7261  1.2650
 2698SOL    HW219731   2.330   2.950   3.698  0.6533 -1.4323 -0.8207
 2699SOL     OW19732   2.015   2.762   7.571 -0.1008 -0.0214 -0.3753
 2699SOL    HW119733   1.952   2.720   7.628 -0.9905  0.7329 -0.8053
 2699SOL    HW219734   2.031   2.695   7.505  0.6076 -0.4515  0.2320
 2700SOL     OW19735   3.855   0.596   8.213 -0.1406  0.0081  0.3186
 2700SOL    HW119736   3.829   0.560   8.128 -0.1996  2.4387 -0.6946
 2700SOL    HW219737   3.928   0.648   8.177 -0.7230 -0.0395 -0.9252
 2701SOL     OW19738   1.086   4.232   8.531  0.1483 -0.4775  0.5456
 2701SOL    HW119739   0.994   4.217   8.556 -0.1972 -1.1076 -1.1170
 2701SOL    HW219740   1.070   4.211   8.439 -1.1140  0.7371  0.4749
 2702SOL     OW19741   0.444   3.452   2.484 -0.1112  0.0181 -0.0049
 2702SOL    HW119742   0.527   3.496   2.500 -0.5044  0.3105  1.2681
 2702SOL    HW219743   0.472   3.374   2.437  0.9672 -0.5777  1.6128
 2703SOL     OW19744   2.448   0.939   6.409  0.0474  0.1442 -0.4162
 2703SOL    HW119745   2.429   0.846   6.397 -4.0226  1.1695 -1.9136
 2703SOL    HW219746   2.439   0.939   6.504  0.4870 -0.1764 -0.3720
 2704SOL     OW19747   0.428   0.113   5.176  0.4910 -0.4103 -0.2012
 2704SOL    HW119748   0.423   0.122   5.081 -1.8780  0.4540  0.0018
 2704SOL    HW219749   0.482   0.034   5.187 -0.2420 -0.4256  3.2605
 2705SOL     OW19750   2.801   0.113   3.517 -0.1446  0.0239 -0.1923
 2705SOL    HW119751   2.818   0.020   3.506 -0.7078 -0.1986  0.8774
 2705SOL    HW219752   2.825   0.116   3.610 -0.2554 -1.9864 -0.1090
 2706SOL     OW19753   0.974   3.263   5.364 -0.3592  0.0172  0.3105
 2706SOL    HW119754   0.935   3.177   5.347 -1.5353  1.0924 -2.3900
 2706SOL    HW219755   0.938   3.286   5.450 -0.4951 -1.8184  0.7461
 2707SOL     OW19756   0.761   4.345   6.059  0.0192  0.4158 -0.2247
 2707SOL    HW119757   0.797   4.311   6.140  0.7287  0.8368 -0.3630
 2707SOL    HW219758   0.791   4.277   5.998  0.4853  0.8305 -0.4585
 2708SOL     OW19759   3.913   0.473   4.417  0.2624 -0.1992  0.5431
 2708SOL    HW119760   3.820   0.468   4.397  0.1511 -1.5178  1.3276
 2708SOL    HW219761   3.914   0.560   4.457  0.3591  0.4271 -0.8245
 2709SOL     OW19762   3.074   3.821   1.156 -0.3514  0.3373 -0.0026
 2709SOL    HW119763   3.152   3.849   1.203 -1.6047  0.9097  1.7626
 2709SOL    HW219764   3.014   3.805   1.229 -0.2456 -1.5371 -0.3162
 2710SOL     OW19765   3.700   3.008   7.768  0.0731  0.7993  0.2273
 2710SOL    HW119766   3.716   2.914   7.757 -1.5885  0.4483  0.8436
 2710SOL    HW219767   3.788   3.045   7.772  0.6274 -0.3574 -1.2041
 2711SOL     OW19768   0.258   2.746   3.336 -0.5563 -0.1979  0.5383
 2711SOL    HW119769   0.283   2.838   3.346  2.1874 -0.7282 -1.2052
 2711SOL    HW219770   0.225   2.717   3.421  3.8443 -2.7651  1.3736
 2712SOL     OW19771   2.688   3.197   3.141  0.5311  0.5517  0.2526
 2712SOL    HW119772   2.733   3.113   3.149 -1.2631 -0.5817 -1.6899
 2712SOL    HW219773   2.725   3.257   3.206  1.6571  1.0949 -0.8910
 2713SOL     OW19774   4.412   2.794   9.908  0.2644  0.6839  0.2714
 2713SOL    HW119775   4.418   2.881   9.869 -0.3886  0.9269  0.7110
 2713SOL    HW219776   4.480   2.753   9.855 -1.8237 -0.8461 -1.2746
 2714SOL     OW19777   2.299   2.732  13.393 -0.3298 -0.2850 -0.2550
 2714SOL    HW119778   2.215   2.712  13.351 -1.2288  0.1010  1.3536
 2714SOL    HW219779   2.360   2.702  13.326  0.0596 -0.0100 -0.0242
 2715SOL     OW19780   2.178   2.460   4.987  0.4336 -0.1497  0.3817
 2715SOL    HW119781   2.154   2.470   4.895  1.1169  1.5637  0.3885
 2715SOL    HW219782   2.118   2.391   5.016 -2.9105  3.2298  1.4601
 2716SOL     OW19783   2.093   0.020  13.537 -0.5608  0.2827 -0.4320
 2716SOL    HW119784   2.137   0.089  13.587 -1.4999  0.8459 -0.3787
 2716SOL    HW219785   2.084   0.055  13.449  1.7835 -2.1284 -1.6190
 2717SOL     OW19786   2.214   4.424   7.653  0.0622 -0.0901 -0.3484
 2717SOL    HW119787   2.308   4.424   7.634  0.7546 -0.8834  3.0590
 2717SOL    HW219788   2.213   4.380   7.738 -0.3956  1.3003  0.3666
 2718SOL     OW19789   2.180   4.703   7.560 -0.1528  0.2806 -0.6195
 2718SOL    HW119790   2.207   4.615   7.587  1.5732  0.5535 -1.4592
 2718SOL    HW219791   2.086   4.687   7.562 -0.0094 -0.8665 -2.8007
 2719SOL     OW19792   0.465   2.486  14.424  0.0432 -0.1273  0.0686
 2719SOL    HW119793   0.434   2.437  14.500 -1.0633  1.3743  0.5864
 2719SOL    HW219794   0.382   2.510  14.383  0.9256  0.5813 -1.3215
 2720SOL     OW19795   4.095   3.057   5.906  0.3834 -0.4012  0.0450
 2720SOL    HW119796   4.148   2.992   5.859  2.2489  2.3328 -1.5850
 2720SOL    HW219797   4.159   3.090   5.969 -1.2973  1.1680  0.9189
 2721SOL     OW19798   2.973   1.216  15.057 -0.3357 -0.2914 -0.0653
 2721SOL    HW119799   2.933   1.294  15.017  2.7343  2.1291  1.6220
 2721SOL    HW219800   2.991   1.158  14.984  3.6034  2.2556 -1.1037
 2722SOL     OW19801   1.615   0.721  14.310 -0.3419 -0.3798 -0.0023
 2722SOL    HW119802   1.672   0.654  14.347  0.1085  0.2981  0.5206
 2722SOL    HW219803   1.676   0.774  14.259  1.5591 -0.8176  1.8420
 2723SOL     OW19804   0.328   4.347  15.800 -0.0938  0.1151  0.3945
 2723SOL    HW119805   0.290   4.429  15.833  0.5799 -0.3486  2.3010
 2723SOL    HW219806   0.257   4.319  15.742  1.4364  0.4591 -1.6459
 2724SOL     OW19807   2.549   1.800   4.310  0.1672 -0.7113  0.2242
 2724SOL    HW119808   2.633   1.772   4.347  0.1629  0.2013  0.9050
 2724SOL    HW219809   2.489   1.733   4.342  0.9439 -1.8648 -0.7262
 2725SOL     OW19810   1.302   3.732   2.074  0.2187  0.2157 -0.0161
 2725SOL    HW119811   1.243   3.731   1.999 -0.1355  1.5131  0.2455
 2725SOL    HW219812   1.245   3.693   2.140  0.3950 -1.5796 -0.9457
 2726SOL     OW19813   3.187   4.135   9.180  0.7615 -0.0285  0.0589
 2726SOL    HW119814   3.177   4.051   9.226  1.2036 -0.5533 -0.8010
 2726SOL    HW219815   3.282   4.145   9.169  0.3473  1.3151 -2.2097
 2727SOL     OW19816   1.280   1.642   9.218 -0.2767  0.2505  0.3135
 2727SOL    HW119817   1.281   1.721   9.165 -1.5936  0.3849  0.4934
 2727SOL    HW219818   1.320   1.673   9.300  1.7270 -0.3960 -0.4253
 2728SOL     OW19819   0.040   2.683  17.501  0.3337  0.0206 -0.0284
 2728SOL    HW119820   4.691   2.642  17.502 -0.2574  1.2595  0.6997
 2728SOL    HW219821   0.092   2.606  17.523 -0.0859 -0.3669 -0.3942
 2729SOL     OW19822   4.006   0.545   2.264 -0.1803  0.2490  0.0541
 2729SOL    HW119823   4.044   0.633   2.262 -2.2732  1.2023  2.1922
 2729SOL    HW219824   4.076   0.490   2.300 -0.5441 -0.5303 -0.4237
 2730SOL     OW19825   0.644   3.317   6.572  0.2686  0.1501  0.5351
 2730SOL    HW119826   0.627   3.394   6.626 -1.5383 -0.3331  0.6473
 2730SOL    HW219827   0.582   3.256   6.612 -0.2192  0.3860  0.1365
 2731SOL     OW19828   2.793   4.214   8.812  0.5827  0.1072 -0.4025
 2731SOL    HW119829   2.865   4.228   8.874 -0.0356 -1.0757  0.5775
 2731SOL    HW219830   2.758   4.129   8.839  1.6718 -0.4927 -0.8743
 2732SOL     OW19831   0.466   0.765   1.941  0.4511 -0.1738  0.2709
 2732SOL    HW119832   0.526   0.748   1.868  0.8656 -0.2889  0.6434
 2732SOL    HW219833   0.426   0.845   1.907  0.3067 -0.3064  0.1263
 2733SOL     OW19834   1.401   3.060   5.677  0.1674 -0.0827 -0.4316
 2733SOL    HW119835   1.378   3.150   5.656  1.3236 -0.0957 -1.7468
 2733SOL    HW219836   1.446   3.043   5.595  0.4558 -0.3431 -0.2196
 2734SOL     OW19837   1.053   2.507   0.493  0.4399  0.2805  0.2620
 2734SOL    HW119838   1.010   2.589   0.516 -1.6947 -0.0688 -2.4307
 2734SOL    HW219839   1.016   2.485   0.407  1.3999  0.1222 -0.1198
 2735SOL     OW19840   3.247   2.602   6.544 -0.0556 -0.1330 -1.0291
 2735SOL    HW119841   3.243   2.590   6.639 -0.1831  0.3718 -0.9707
 2735SOL    HW219842   3.176   2.659   6.517 -1.7077 -2.3150 -1.2981
 2736SOL     OW19843   2.243   0.464   9.795  0.4268 -0.1996  0.4921
 2736SOL    HW119844   2.209   0.500   9.877  1.8219 -1.5148  1.6406
 2736SOL    HW219845   2.333   0.445   9.821  1.1805 -0.1472 -2.0601
 2737SOL     OW19846   2.714   3.200   6.126 -1.1851  0.1154  0.3762
 2737SOL    HW119847   2.700   3.237   6.213  1.0897  1.0203  0.3630
 2737SOL    HW219848   2.806   3.174   6.122 -0.5191  2.6361 -0.4811
 2738SOL     OW19849   2.958   0.311   7.327 -0.0530  0.2290  0.1455
 2738SOL    HW119850   2.903   0.374   7.373 -0.7443 -0.5423  0.3739
 2738SOL    HW219851   3.037   0.323   7.380  0.4335 -0.3841 -0.4327
 2739SOL     OW19852   3.797   2.552   4.948  0.2005 -0.5999 -0.0320
 2739SOL    HW119853   3.730   2.542   5.015  0.2843 -0.1108  0.1296
 2739SOL    HW219854   3.804   2.645   4.924 -1.4672  0.4244  3.3807
 2740SOL     OW19855   3.821   3.720  11.900 -0.1334 -0.1522  0.2749
 2740SOL    HW119856   3.909   3.692  11.876 -0.7328 -0.4287 -1.5835
 2740SOL    HW219857   3.782   3.747  11.817  0.0354  1.4936  0.7222
 2741SOL     OW19858   0.000   1.567   3.838  0.4779 -0.2925 -0.2348
 2741SOL    HW119859   4.689   1.552   3.919  1.5696 -1.1210  0.2735
 2741SOL    HW219860   4.716   1.654   3.807 -0.6303 -0.1069  1.0331
 2742SOL     OW19861   4.391   0.307   4.275 -0.4296  0.1928 -0.4000
 2742SOL    HW119862   4.335   0.380   4.301 -0.0782 -0.4542  2.1308
 2742SOL    HW219863   4.402   0.252   4.353 -2.4828  1.5481  0.8533
 2743SOL     OW19864   0.209   3.101  13.834  0.0537  0.5479  0.1040
 2743SOL    HW119865   0.139   3.037  13.822  1.0427 -0.4716 -0.2256
 2743SOL    HW219866   0.178   3.131  13.920  0.8570  0.6883  0.3435
 2744SOL     OW19867   2.375   2.123   4.173 -0.7040  0.0908  0.0130
 2744SOL    HW119868   2.301   2.151   4.227 -1.2775 -0.7344 -0.3398
 2744SOL    HW219869   2.347   2.164   4.091 -0.2762  1.5527  0.5966
 2745SOL     OW19870   0.381   1.622  13.824  0.0297 -0.0448 -0.2761
 2745SOL    HW119871   0.375   1.717  13.818  0.5752  0.1432  2.0249
 2745SOL    HW219872   0.467   1.604  13.863 -0.5906  0.8087  1.4853
 2746SOL     OW19873   2.213   1.201  11.858  0.1379  0.2661 -0.2693
 2746SOL    HW119874   2.157   1.157  11.794 -1.1098  0.5191  0.6421
 2746SOL    HW219875   2.235   1.276  11.804 -0.7971  1.6897  1.3138
 2747SOL     OW19876   2.919   0.267   8.314 -0.0082  0.3542  0.8344
 2747SOL    HW119877   2.824   0.255   8.317 -0.0941  1.1266  1.0867
 2747SOL    HW219878   2.953   0.193   8.263  0.8482  1.5390 -0.3302
 2748SOL     OW19879   1.874   3.320  13.252 -0.2360  0.4460  0.6338
 2748SOL    HW119880   1.851   3.412  13.265 -1.4041  0.2253  0.1312
 2748SOL    HW219881   1.908   3.317  13.163 -2.5033  1.9779 -0.2887
 2749SOL     OW19882   0.374   3.818   1.622  0.3489 -0.0925 -0.9549
 2749SOL    HW119883   0.425   3.881   1.571  1.7551 -0.7112 -0.2957
 2749SOL    HW219884   0.402   3.728   1.605 -1.5434 -1.2218  1.8701
 2750SOL     OW19885   1.404   1.546   3.528 -0.2553  0.0680  0.2776
 2750SOL    HW119886   1.413   1.538   3.433  0.2528  1.2850  0.2230
 2750SOL    HW219887   1.493   1.540   3.562  0.2970 -0.9783 -1.3087
 2751SOL     OW19888   1.796   3.033   9.242 -0.6293  0.2591 -0.1284
 2751SOL    HW119889   1.742   3.109   9.265 -1.3508 -0.0316 -0.8498
 2751SOL    HW219890   1.840   3.061   9.162 -1.4400  2.4412  0.1863
 2752SOL     OW19891   1.593   0.103  13.117  0.3659  0.6231 -0.1310
 2752SOL    HW119892   1.532   0.080  13.187  0.0025  0.9427 -0.3431
 2752SOL    HW219893   1.597   0.199  13.120 -2.1680  0.7072  0.3373
 2753SOL     OW19894   0.566   0.077   7.669 -0.3624 -0.0605 -0.5800
 2753SOL    HW119895   0.649   0.089   7.715 -1.0950 -0.4050  0.8563
 2753SOL    HW219896   0.524   0.162   7.678  1.8905  0.8198  1.6922
 2754SOL     OW19897   0.517   2.405   2.661  0.2903  0.3503  0.1482
 2754SOL    HW119898   0.545   2.493   2.636  2.2311 -0.7244 -1.4081
 2754SOL    HW219899   0.445   2.434   2.718  0.0177 -1.1975  0.5985
 2755SOL     OW19900   0.872   0.138   8.134  0.0236 -0.3222  0.5803
 2755SOL    HW119901   0.894   0.099   8.219  0.0081 -0.6442  0.4371
 2755SOL    HW219902   0.892   0.055   8.090  1.5903  0.7353 -0.7014
 2756SOL     OW19903   0.311   0.884   7.444  0.4622  0.3286  0.2934
 2756SOL    HW119904   0.242   0.898   7.509 -1.8902 -0.3547 -2.0841
 2756SOL    HW219905   0.387   0.924   7.488  0.3816  0.5846  0.2011
 2757SOL     OW19906   0.149   2.806  17.162 -0.1690 -0.0463 -0.0955
 2757SOL    HW119907   0.054   2.807  17.171 -0.1734 -3.6493 -0.0923
 2757SOL    HW219908   0.162   2.851  17.078  0.3802  0.7000  0.3778
 2758SOL     OW19909   0.188   3.775   4.703 -0.0357 -0.1251  0.6812
 2758SOL    HW119910   0.226   3.833   4.769 -0.2001 -0.3456  0.9678
 2758SOL    HW219911   0.122   3.731   4.756  0.9214 -1.1151  1.0514
 2759SOL     OW19912   3.146   4.105  11.897 -0.2771  0.5956 -0.3965
 2759SOL    HW119913   3.185   4.029  11.854 -2.2731 -2.0308  2.4197
 2759SOL    HW219914   3.109   4.155  11.825 -0.4062  1.5641  0.3427
 2760SOL     OW19915   0.084   2.453   8.980 -0.1869 -0.6926 -0.3037
 2760SOL    HW119916   0.055   2.536   8.942  0.5802  0.6662  2.0596
 2760SOL    HW219917   0.084   2.400   8.901 -0.3811 -0.3785 -0.5139
 2761SOL     OW19918   1.471   4.689   4.120 -0.4740 -0.1678 -0.0463
 2761SOL    HW119919   1.561   4.707   4.095 -0.9310  0.7174 -1.0578
 2761SOL    HW219920   1.423   0.019   4.072 -0.8245 -0.3811 -0.0003
 2762SOL     OW19921   3.423   1.255  13.082  0.2649  0.2413 -0.6167
 2762SOL    HW119922   3.440   1.310  13.159  0.0144 -1.9691  1.0327
 2762SOL    HW219923   3.367   1.187  13.121 -1.0303  0.3700 -2.2673
 2763SOL     OW19924   3.351   2.028   7.462  0.5624  0.0063 -0.2129
 2763SOL    HW119925   3.257   2.043   7.462  0.9152  2.3752 -2.5289
 2763SOL    HW219926   3.370   2.074   7.379  1.0944 -0.9980 -0.6416
 2764SOL     OW19927   0.990   3.532   8.007 -0.1429  0.3140  0.0393
 2764SOL    HW119928   1.007   3.475   7.932  0.0870  0.1402  0.2237
 2764SOL    HW219929   0.918   3.478   8.039 -0.7669  1.4757  0.6147
 2765SOL     OW19930   1.487   1.016   9.311  0.5249 -0.0187 -0.0970
 2765SOL    HW119931   1.506   1.108   9.294  2.3236 -0.5766 -1.0939
 2765SOL    HW219932   1.414   1.029   9.371  0.9952 -3.9667  1.3318
 2766SOL     OW19933   4.621   0.938   4.193  0.6146  0.3976 -0.1314
 2766SOL    HW119934   4.526   0.932   4.203  0.8315 -2.3454  0.5036
 2766SOL    HW219935   4.636   1.031   4.206  0.9566  0.1844  1.0606
 2767SOL     OW19936   1.587   3.413   7.974 -0.3400 -0.3488  0.4480
 2767SOL    HW119937   1.627   3.440   7.891 -0.1156  0.7004  0.9048
 2767SOL    HW219938   1.621   3.491   8.019  1.3043 -0.0845 -1.2292
 2768SOL     OW19939   1.185   0.301  11.379  0.2160  0.1810 -0.1995
 2768SOL    HW119940   1.245   0.259  11.441 -1.1289  1.9653  2.3075
 2768SOL    HW219941   1.249   0.322  11.311  0.9072  0.3610  0.4991
 2769SOL     OW19942   1.117   4.216   9.281  0.0979 -0.4282 -0.1578
 2769SOL    HW119943   1.190   4.236   9.222 -0.6258  0.0180 -0.9007
 2769SOL    HW219944   1.056   4.280   9.244  1.4836  1.4379  0.8069
 2770SOL     OW19945   2.703   2.142   3.817  0.0268  0.6396  0.2422
 2770SOL    HW119946   2.669   2.128   3.729 -1.7203 -1.7938  1.3349
 2770SOL    HW219947   2.628   2.182   3.862 -1.9149  1.4614 -3.8042
 2771SOL     OW19948   1.854   3.378   3.802  0.6976 -0.0349  0.2041
 2771SOL    HW119949   1.770   3.361   3.759 -0.8301  0.9832  2.7575
 2771SOL    HW219950   1.878   3.296   3.844  2.6288 -0.2988 -1.4119
 2772SOL     OW19951   3.792   4.648   7.696  0.1800  0.1127  0.2536
 2772SOL    HW119952   3.870   4.694   7.727  0.5203 -0.0494 -0.3751
 2772SOL    HW219953   3.796   4.656   7.601  0.9669 -1.0027  0.1875
 2773SOL     OW19954   2.883   2.097   4.299  0.6353 -0.3601  0.4660
 2773SOL    HW119955   2.792   2.119   4.314  0.4484 -1.5372  1.1081
 2773SOL    HW219956   2.874   2.020   4.243 -0.9541 -1.0240  1.6298
 2774SOL     OW19957   2.122   3.220   6.661 -0.2081  0.7006 -0.1499
 2774SOL    HW119958   2.179   3.277   6.713 -0.1787 -0.9923  1.6851
 2774SOL    HW219959   2.147   3.240   6.571 -2.7854  1.4876 -0.6664
 2775SOL     OW19960   0.537   2.915  17.450  0.0616  0.7096 -0.2551
 2775SOL    HW119961   0.454   2.868  17.440  1.3211 -1.1058 -2.2541
 2775SOL    HW219962   0.557   2.943  17.361 -0.6656  2.4420  0.1235
 2776SOL     OW19963   0.475   1.187  17.381  0.1248  0.0483 -0.2483
 2776SOL    HW119964   0.446   1.182  17.290 -2.6985  1.5169  0.5953
 2776SOL    HW219965   0.432   1.112  17.423  2.1729 -0.1764  1.4469
 2777SOL     OW19966   0.552   2.709   3.055  1.3915 -0.8183 -0.8266
 2777SOL    HW119967   0.618   2.765   3.096  2.4488 -2.2816 -0.5445
 2777SOL    HW219968   0.527   2.652   3.127  1.8695  1.1995  0.9319
 2778SOL     OW19969   2.297   3.511   4.693 -0.5203  0.8529  0.8090
 2778SOL    HW119970   2.372   3.553   4.737 -0.2532  3.0582 -1.7938
 2778SOL    HW219971   2.259   3.596   4.669  0.6426  0.7667 -1.2809
 2779SOL     OW19972   1.056   3.257  13.705 -0.4493  0.1549  0.0364
 2779SOL    HW119973   1.142   3.216  13.696 -1.1620 -1.6279  1.1868
 2779SOL    HW219974   1.043   3.302  13.622  0.2919  0.9049  0.3252
 2780SOL     OW19975   1.061   0.899   8.540 -0.1890  0.2006  0.8786
 2780SOL    HW119976   1.004   0.968   8.506  0.5708  0.2839 -0.2448
 2780SOL    HW219977   0.993   0.844   8.579 -1.1804  0.4158 -0.5205
 2781SOL     OW19978   2.470   4.579   6.722  0.0651 -0.4136  0.1140
 2781SOL    HW119979   2.377   4.602   6.731 -0.2010 -1.4888  0.1647
 2781SOL    HW219980   2.468   4.545   6.632 -2.1062  1.7776 -0.6825
 2782SOL     OW19981   0.701   1.596   7.039 -0.0729 -1.3001 -1.4221
 2782SOL    HW119982   0.781   1.640   7.012 -0.5866  0.1627 -0.5866
 2782SOL    HW219983   0.663   1.604   6.951  0.3622 -1.5673 -1.6336
 2783SOL     OW19984   3.818   4.157  17.302  0.2278  0.0016 -0.1990
 2783SOL    HW119985   3.748   4.131  17.361  1.1631  0.2882  1.0398
 2783SOL    HW219986   3.767   4.204  17.236  1.2431  0.2075 -0.8458
 2784SOL     OW19987   3.123   3.563   2.840  0.4141 -0.1599  0.2741
 2784SOL    HW119988   3.162   3.634   2.891  0.8325  1.2135 -1.9518
 2784SOL    HW219989   3.147   3.587   2.751  1.7105  1.2242  0.9978
 2785SOL     OW19990   3.518   2.348  16.268 -0.3471  0.0762 -0.4523
 2785SOL    HW119991   3.581   2.412  16.235 -2.1808  1.1810 -1.7958
 2785SOL    HW219992   3.545   2.266  16.226  1.3439  0.3193  0.1821
 2786SOL     OW19993   3.846   4.732  14.556  0.4085  0.1229 -0.0099
 2786SOL    HW119994   3.842   4.637  14.567 -2.1480  0.2418  0.2625
 2786SOL    HW219995   3.938   0.020  14.557  0.1184  1.1739  0.5624
 2787SOL     OW19996   0.606   0.971   0.621 -0.2288  0.6021  0.1152
 2787SOL    HW119997   0.608   0.899   0.684 -2.1572 -0.3740 -0.9338
 2787SOL    HW219998   0.661   0.937   0.551 -0.1211  0.9689  0.0261
 2788SOL     OW19999   3.455   2.650   5.921  0.2838 -0.3459  0.1323
 2788SOL    HW120000   3.462   2.649   5.826  4.8195 -0.6059  0.4595
 2788SOL    HW220001   3.423   2.561   5.938 -0.1907 -0.3231 -0.6349
 2789SOL     OW20002   3.766   1.118   2.223  0.0584 -0.3379 -0.2641
 2789SOL    HW120003   3.786   1.060   2.149 -1.3912 -0.2278 -0.7432
 2789SOL    HW220004   3.671   1.120   2.220  0.0603 -0.0782 -0.1449
 2790SOL     OW20005   2.915   3.711   6.914  0.4837  0.5780 -0.4364
 2790SOL    HW120006   2.963   3.714   6.997 -0.1605  0.7446 -0.0643
 2790SOL    HW220007   2.962   3.637   6.877  0.8268  2.0717 -2.9743
 2791SOL     OW20008   3.230   3.351   9.311  0.4666 -0.0370  0.0001
 2791SOL    HW120009   3.216   3.365   9.217  0.1735  2.3035  0.4081
 2791SOL    HW220010   3.140   3.336   9.341  0.1173 -0.1518 -1.0891
 2792SOL     OW20011   3.696   0.452   7.073  0.2109  0.0651 -0.2605
 2792SOL    HW120012   3.623   0.392   7.060 -1.4037  2.3634 -1.8982
 2792SOL    HW220013   3.741   0.401   7.140  2.1397  0.6867 -1.0911
 2793SOL     OW20014   3.545   0.845   2.360 -0.1541  0.1627  0.4314
 2793SOL    HW120015   3.633   0.871   2.387  0.5107 -0.7956 -0.7725
 2793SOL    HW220016   3.508   0.795   2.433  1.6862  1.0338  1.9700
 2794SOL     OW20017   0.199   0.048   6.944 -0.3777 -0.1580 -0.0810
 2794SOL    HW120018   0.290   0.048   6.973 -1.5624  0.3143  3.7365
 2794SOL    HW220019   0.195   4.710   6.886  0.6943  1.3289 -2.0969
 2795SOL     OW20020   2.367   1.848  12.120  0.0161 -0.3442  0.3582
 2795SOL    HW120021   2.407   1.838  12.207  2.3184  1.1721 -0.5255
 2795SOL    HW220022   2.380   1.943  12.116  2.4014 -0.6543  0.8550
 2796SOL     OW20023   4.263   2.998  15.232  0.8675  0.3066  0.0195
 2796SOL    HW120024   4.187   3.053  15.210 -0.2923 -1.8410 -1.3434
 2796SOL    HW220025   4.296   2.968  15.147  1.9459 -1.3972  1.0306
 2797SOL     OW20026   1.662   4.707   1.701 -0.2293 -0.2402 -0.3490
 2797SOL    HW120027   1.581   4.700   1.751 -1.0134 -1.6125 -1.8555
 2797SOL    HW220028   1.687   4.615   1.705  0.4269  0.0498  2.4245
 2798SOL     OW20029   3.779   0.745   9.636 -0.0891  0.2905 -0.5957
 2798SOL    HW120030   3.715   0.713   9.700  0.8131  0.5370  0.4268
 2798SOL    HW220031   3.841   0.781   9.699  0.0951 -0.1304 -0.5390
 2799SOL     OW20032   1.576   1.812   3.024 -0.6665 -0.1025  0.1020
 2799SOL    HW120033   1.551   1.836   3.113 -1.4813 -0.2203 -0.0909
 2799SOL    HW220034   1.629   1.888   3.000 -1.3241 -0.1306 -1.4775
 2800SOL     OW20035   4.691   0.164   5.296 -0.1360 -0.1821  0.1024
 2800SOL    HW120036   0.029   0.106   5.305  0.5519  0.2677 -2.7151
 2800SOL    HW220037   4.733   0.230   5.240 -1.9585  1.3282  0.5016
 2801SOL     OW20038   3.731   3.553   2.786 -0.3766 -0.0989 -0.0720
 2801SOL    HW120039   3.692   3.466   2.775 -0.2096  0.1047 -2.1842
 2801SOL    HW220040   3.652   3.607   2.783  0.2065  0.7458 -0.0047
 2802SOL     OW20041   2.786   0.885  17.137  0.1586 -0.0798 -0.7945
 2802SOL    HW120042   2.706   0.919  17.176  1.4368  1.3045  0.6115
 2802SOL    HW220043   2.839   0.882  17.217  2.1523  0.3783 -2.0958
 2803SOL     OW20044   1.669   1.314   8.212  0.2719  0.5717 -0.1693
 2803SOL    HW120045   1.736   1.299   8.145 -0.0514  0.0476 -0.3730
 2803SOL    HW220046   1.725   1.336   8.287 -0.5945  1.2567  0.2815
 2804SOL     OW20047   3.416   1.006   5.256 -0.0272  0.1763 -0.7379
 2804SOL    HW120048   3.342   0.984   5.314  0.3304  0.6834 -0.0814
 2804SOL    HW220049   3.412   1.101   5.269  3.1784  0.3183 -0.8245
 2805SOL     OW20050   2.251   0.336   5.371  0.1863 -0.4086  0.4046
 2805SOL    HW120051   2.178   0.275   5.366 -0.8495  0.6791  2.1603
 2805SOL    HW220052   2.218   0.397   5.304  0.7555  1.5407  1.9134
 2806SOL     OW20053   1.766   2.247   1.765  0.0439  0.1449 -0.0329
 2806SOL    HW120054   1.753   2.324   1.709 -0.7440 -0.6628 -0.9508
 2806SOL    HW220055   1.691   2.247   1.824  0.0245  1.1469 -0.0545
 2807SOL     OW20056   1.990   2.930  15.687  0.5265 -0.0708 -0.3477
 2807SOL    HW120057   1.989   2.995  15.757  1.5045 -0.8978  0.4255
 2807SOL    HW220058   1.903   2.891  15.697  0.2314  0.8558  0.6482
 2808SOL     OW20059   2.448   2.689   3.402  0.3014 -0.1690  0.0501
 2808SOL    HW120060   2.421   2.707   3.312 -1.4285  1.7227  0.9599
 2808SOL    HW220061   2.386   2.738   3.456  0.1200 -0.5791  0.2112
 2809SOL     OW20062   2.590   4.378   2.705 -0.1013  0.1041 -0.0662
 2809SOL    HW120063   2.530   4.312   2.671  0.7391 -0.9035  0.4011
 2809SOL    HW220064   2.612   4.338   2.789 -0.3677 -0.5765 -0.3245
 2810SOL     OW20065   4.651   3.661   2.121 -0.1475  0.2369  0.0407
 2810SOL    HW120066   4.698   3.581   2.144 -0.7122 -0.7727 -2.3982
 2810SOL    HW220067   4.729   3.715   2.127 -1.7814  2.6096  0.0302
 2811SOL     OW20068   1.452   2.666   2.854  0.3844 -0.5126  0.2105
 2811SOL    HW120069   1.386   2.732   2.832  0.6411 -0.4716 -0.4680
 2811SOL    HW220070   1.466   2.690   2.945 -0.0571  2.2504 -0.4657
 2812SOL     OW20071   3.299   1.293  12.727  0.1188 -0.6321  0.3750
 2812SOL    HW120072   3.223   1.237  12.738 -0.8616  0.5529 -0.3382
 2812SOL    HW220073   3.369   1.260  12.784  1.4972  1.3803 -0.1130
 2813SOL     OW20074   2.440   4.550   9.044  0.3392 -0.0258 -0.1364
 2813SOL    HW120075   2.418   4.456   9.041 -1.6411  0.4746 -1.2852
 2813SOL    HW220076   2.525   4.560   9.086 -0.2329  0.7056  0.8387
 2814SOL     OW20077   2.895   4.662  11.849 -0.1321 -0.1560 -0.2857
 2814SOL    HW120078   2.828   4.728  11.869 -1.3604 -1.4890  0.0038
 2814SOL    HW220079   2.929   4.708  11.772  1.3374  2.1836  1.7353
 2815SOL     OW20080   0.328   2.249   3.243  0.2015 -0.6349 -1.2430
 2815SOL    HW120081   0.377   2.175   3.279  0.4637  0.4976  0.6792
 2815SOL    HW220082   0.389   2.311   3.204 -0.4390  1.7707  1.6469
 2816SOL     OW20083   4.503   1.892  17.550 -0.4615 -0.0239  0.0676
 2816SOL    HW120084   4.546   1.975  17.573 -1.2636  0.6483 -0.8601
 2816SOL    HW220085   4.470   1.923  17.465 -2.7444 -1.4121  0.4603
 2817SOL     OW20086   4.280   4.604  13.806  0.3195 -0.2922  0.0359
 2817SOL    HW120087   4.230   4.563  13.736  0.7793 -1.7872  0.5729
 2817SOL    HW220088   4.366   4.567  13.789 -0.8230 -3.1571  0.3649
 2818SOL     OW20089   1.125   4.253   0.693  0.8163 -0.1301 -0.1511
 2818SOL    HW120090   1.032   4.233   0.686  1.0874 -2.2029  2.3688
 2818SOL    HW220091   1.130   4.343   0.725 -0.7361 -0.8062  1.9502
 2819SOL     OW20092   1.472   1.775   0.053 -0.0505  0.0525 -0.2387
 2819SOL    HW120093   1.562   1.787   0.022  0.8897  0.9343  2.8191
 2819SOL    HW220094   1.488   1.803   0.144  1.3743  1.7699 -1.0126
 2820SOL     OW20095   0.210   0.339   2.728 -0.2394 -0.9994  0.3295
 2820SOL    HW120096   0.272   0.401   2.691 -0.1507 -2.8695 -2.6833
 2820SOL    HW220097   0.247   0.325   2.815  0.5050  2.3800  0.5271
 2821SOL     OW20098   1.781   3.333  10.529 -0.2747 -0.1824  0.5787
 2821SOL    HW120099   1.823   3.364  10.448 -0.8184 -0.2868  0.2545
 2821SOL    HW220100   1.741   3.411  10.568  0.4299 -1.4345  3.7719
 2822SOL     OW20101   2.875   1.822   7.075  0.3127  0.4111 -0.1634
 2822SOL    HW120102   2.877   1.891   7.010 -1.6942 -0.8311 -1.5677
 2822SOL    HW220103   2.925   1.758   7.025  0.6006  2.2761 -2.2385
 2823SOL     OW20104   2.697   2.233   2.149  0.2092  0.2050  0.0196
 2823SOL    HW120105   2.792   2.235   2.152  0.1334  0.9115  1.9625
 2823SOL    HW220106   2.675   2.251   2.058 -0.3478 -0.3008  0.0517
 2824SOL     OW20107   1.084   2.624   2.054 -0.2626  0.2296 -0.0582
 2824SOL    HW120108   1.126   2.665   2.130 -1.4088  0.2775  0.5462
 2824SOL    HW220109   0.992   2.606   2.070 -0.3064  1.0471  0.6478
 2825SOL     OW20110   1.498   3.831   7.041 -0.1909  0.4723 -0.1373
 2825SOL    HW120111   1.587   3.858   7.018 -1.2358  4.2477  0.3763
 2825SOL    HW220112   1.447   3.908   7.016  0.3416  1.7042  2.6066
 2826SOL     OW20113   2.309   0.133   5.985  0.2265 -0.1063  0.3907
 2826SOL    HW120114   2.302   0.153   6.079 -2.2197 -1.6181  0.5491
 2826SOL    HW220115   2.392   0.087   5.992  1.1055  1.4805  0.3243
 2827SOL     OW20116   1.503   1.989   8.108  0.2438  0.1563  0.2989
 2827SOL    HW120117   1.524   1.926   8.176  1.1059 -1.8980 -1.8761
 2827SOL    HW220118   1.477   2.063   8.162 -0.3912 -0.3948  0.7447
 2828SOL     OW20119   0.805   3.280   5.585 -0.5516 -0.0015  0.3566
 2828SOL    HW120120   0.795   3.186   5.597  2.0899 -0.3731 -0.3871
 2828SOL    HW220121   0.724   3.308   5.542 -0.7086 -1.4843 -0.3301
 2829SOL     OW20122   1.775   4.635   3.639 -0.0592 -0.5704 -0.0004
 2829SOL    HW120123   1.807   4.687   3.565 -0.2629  1.7013  1.4737
 2829SOL    HW220124   1.778   4.544   3.610 -0.7256 -0.9038  1.0121
 2830SOL     OW20125   1.677   2.170   4.847 -0.0147 -0.5804  0.2283
 2830SOL    HW120126   1.645   2.253   4.812 -3.7997 -2.3434 -0.5863
 2830SOL    HW220127   1.735   2.206   4.913 -1.9349  0.9981  1.0513
 2831SOL     OW20128   2.941   3.406   6.721  0.2382  0.0458 -0.3948
 2831SOL    HW120129   2.976   3.324   6.685 -0.5072 -1.2147  1.7905
 2831SOL    HW220130   2.964   3.403   6.814  1.1730 -1.9684 -0.6936
 2832SOL     OW20131   3.279   0.586  16.336 -0.3530  0.1158  0.0976
 2832SOL    HW120132   3.210   0.600  16.401  0.0719  0.2789  0.5160
 2832SOL    HW220133   3.223   0.585  16.259  1.9023 -3.5786 -1.4681
 2833SOL     OW20134   1.614   2.995   8.026  0.7077 -0.1942 -0.7956
 2833SOL    HW120135   1.681   3.027   7.965  1.1828  0.2159 -0.0581
 2833SOL    HW220136   1.669   2.944   8.086  0.8972 -0.8283 -1.5118
 2834SOL     OW20137   4.643   0.670  14.565 -0.5340  0.7311 -0.2178
 2834SOL    HW120138   4.563   0.672  14.512 -1.2604  0.3937  0.8717
 2834SOL    HW220139   4.705   0.626  14.506 -1.1363  0.4153 -0.6169
 2835SOL     OW20140   4.439   3.655  12.825  0.6169  0.1468 -0.7210
 2835SOL    HW120141   4.450   3.619  12.738 -1.3581 -1.0783 -0.4538
 2835SOL    HW220142   4.438   3.575  12.878  1.6224 -0.2493 -1.3093
 2836SOL     OW20143   3.150   0.106   2.389 -0.8748  0.1715 -0.1431
 2836SOL    HW120144   3.106   0.103   2.303 -0.0594  1.9015 -0.6155
 2836SOL    HW220145   3.156   0.201   2.402  0.3659  0.0554  0.1201
 2837SOL     OW20146   0.293   0.958   4.497  0.4571 -0.3307  0.2066
 2837SOL    HW120147   0.258   0.875   4.530  1.4028 -0.8148 -0.0019
 2837SOL    HW220148   0.385   0.933   4.492  1.2043  2.2196  1.1384
 2838SOL     OW20149   1.651   3.693  10.154 -0.2006  0.0811  0.3016
 2838SOL    HW120150   1.635   3.601  10.177 -1.8482 -0.6613 -3.7164
 2838SOL    HW220151   1.669   3.734  10.239 -1.8154  0.1601  0.6029
 2839SOL     OW20152   1.722   4.350   4.010  0.2079 -0.0349 -0.0586
 2839SOL    HW120153   1.682   4.431   3.978 -1.2324 -1.1503 -1.0977
 2839SOL    HW220154   1.682   4.289   3.947  0.4820 -0.2679 -0.0052
 2840SOL     OW20155   2.892   2.708  13.144 -0.6459 -0.0202 -0.2383
 2840SOL    HW120156   2.966   2.727  13.202  0.2670 -1.6568 -0.8984
 2840SOL    HW220157   2.900   2.614  13.135  0.6236  0.0817 -0.1268
 2841SOL     OW20158   4.109   0.238   5.124  0.1809 -0.8067  0.2511
 2841SOL    HW120159   4.168   0.292   5.073 -0.9814  1.4408  1.3050
 2841SOL    HW220160   4.119   0.155   5.078 -1.0961  0.7842 -2.8386
 2842SOL     OW20161   3.934   3.300  13.485  0.7479 -0.5814 -0.0975
 2842SOL    HW120162   3.995   3.264  13.550 -0.6303 -0.7305  1.1402
 2842SOL    HW220163   3.992   3.317  13.411 -1.2354 -0.4408 -1.6267
 2843SOL     OW20164   3.529   3.992   4.215  0.9794 -0.6339 -0.3683
 2843SOL    HW120165   3.570   3.922   4.265 -0.0047 -0.4611  0.6993
 2843SOL    HW220166   3.499   4.049   4.287 -0.2985  1.0781 -2.2473
 2844SOL     OW20167   4.406   2.458  11.956  0.1577  0.3646  0.1185
 2844SOL    HW120168   4.312   2.471  11.968  0.2688  0.1938  1.1836
 2844SOL    HW220169   4.416   2.445  11.862 -1.4615 -0.4659  0.0677
 2845SOL     OW20170   1.920   4.545  13.547  0.0303 -0.2572 -0.1303
 2845SOL    HW120171   1.998   4.601  13.544  2.1383 -3.3729 -2.6993
 2845SOL    HW220172   1.926   4.502  13.462  0.2888 -0.0424 -0.2192
 2846SOL     OW20173   0.258   0.786   9.877  0.1435 -0.0293  0.2825
 2846SOL    HW120174   0.319   0.712   9.883 -0.9599 -0.8266  1.4886
 2846SOL    HW220175   0.246   0.809   9.969 -0.4312  2.9061 -0.5360
 2847SOL     OW20176   0.754   2.722   6.482 -0.1853 -0.1531  0.4537
 2847SOL    HW120177   0.711   2.640   6.505 -0.3758 -0.3379 -0.5805
 2847SOL    HW220178   0.822   2.727   6.550 -1.5552  1.4779  1.6833
 2848SOL     OW20179   1.120   3.846  16.851 -0.6165 -0.1484  0.0320
 2848SOL    HW120180   1.069   3.794  16.788  1.5422 -3.5196  1.0648
 2848SOL    HW220181   1.042   3.896  16.877 -0.3814  0.4686 -0.4509
 2849SOL     OW20182   0.523   4.682   6.370 -0.0688  0.0447 -0.3382
 2849SOL    HW120183   0.596   4.669   6.430 -0.0531  1.9113  0.0541
 2849SOL    HW220184   0.536   4.619   6.299  1.8838 -1.8889  1.7483
 2850SOL     OW20185   0.633   0.686   3.911 -0.2209 -0.4219 -0.2323
 2850SOL    HW120186   0.641   0.596   3.942  0.1289 -0.2273  0.2378
 2850SOL    HW220187   0.571   0.675   3.839 -0.6810 -1.2522  0.2880
 2851SOL     OW20188   3.639   0.080  12.304 -0.0342 -0.0430  0.3605
 2851SOL    HW120189   3.692   0.006  12.275  0.2251  0.6699 -1.0058
 2851SOL    HW220190   3.611   0.038  12.385 -1.4201  2.0252  0.9572
 2852SOL     OW20191   4.203   3.574   2.470  0.3070 -0.0767 -0.2021
 2852SOL    HW120192   4.179   3.651   2.522  1.9044 -0.3091  0.8653
 2852SOL    HW220193   4.294   3.596   2.450  0.2319  0.4539  0.0295
 2853SOL     OW20194   0.798   4.653   2.355 -0.0220  0.3941  0.2582
 2853SOL    HW120195   0.788   4.614   2.268  1.5973  1.6258 -0.4864
 2853SOL    HW220196   0.851   4.732   2.344 -1.3648  1.1731 -0.7013
 2854SOL     OW20197   0.247   1.704   2.851 -0.3002  0.0342  0.4844
 2854SOL    HW120198   0.287   1.619   2.871  0.6010  0.3871  0.1788
 2854SOL    HW220199   0.154   1.684   2.849  0.0018 -1.3436  0.2483
 2855SOL     OW20200   2.524   3.354  17.484  0.0841  0.5589 -0.4431
 2855SOL    HW120201   2.601   3.405  17.510 -0.5859  1.7350 -0.7568
 2855SOL    HW220202   2.562   3.268  17.501 -0.9970  0.3625  0.9795
 2856SOL     OW20203   1.759   0.569  13.552  0.0605 -0.1218 -0.2265
 2856SOL    HW120204   1.783   0.608  13.468 -0.8084  1.8992  0.4770
 2856SOL    HW220205   1.808   0.627  13.611  0.7953  1.5718 -2.5034
 2857SOL     OW20206   3.503   2.953   3.838  0.1339 -1.0793  0.6384
 2857SOL    HW120207   3.523   2.924   3.927 -1.1056  1.1417  1.6681
 2857SOL    HW220208   3.502   2.873   3.787  1.0789  0.5371 -1.9407
 2858SOL     OW20209   1.233   4.629   3.899 -0.1300 -0.7616 -0.1088
 2858SOL    HW120210   1.226   4.558   3.964 -2.2940  1.1219  1.7255
 2858SOL    HW220211   1.295   4.697   3.925 -1.1869  0.5054 -0.8927
 2859SOL     OW20212   2.111   4.229   5.357  0.3879  0.2467 -0.1177
 2859SOL    HW120213   2.041   4.167   5.377 -0.7847  1.7809  0.5009
 2859SOL    HW220214   2.155   4.167   5.298 -0.9897 -0.3708 -0.4847
 2860SOL     OW20215   3.783   1.639   2.740 -0.2861  0.1232 -0.3047
 2860SOL    HW120216   3.848   1.609   2.677 -1.2531 -2.5109 -0.0324
 2860SOL    HW220217   3.799   1.585   2.817  1.0091 -1.4991 -1.7308
 2861SOL     OW20218   2.099   3.970  13.344 -0.1992  0.0550  0.1474
 2861SOL    HW120219   2.101   4.049  13.397  1.6624  0.8720 -1.1407
 2861SOL    HW220220   2.164   3.999  13.281 -2.1370 -0.4224 -2.0732
 2862SOL     OW20221   4.665   0.800   4.810  0.1716  0.0389  0.5343
 2862SOL    HW120222   4.644   0.712   4.841  0.5149 -0.2704 -0.1098
 2862SOL    HW220223   4.708   0.781   4.727  1.1325  0.9854  0.8139
 2863SOL     OW20224   0.641   1.771  16.595  0.1099  0.5723  0.5189
 2863SOL    HW120225   0.578   1.709  16.557 -0.4477  1.4285  0.0666
 2863SOL    HW220226   0.598   1.854  16.580 -1.3721 -0.4474 -0.7893
 2864SOL     OW20227   4.379   0.005   5.438 -0.3807 -0.7813  0.3372
 2864SOL    HW120228   4.292   4.715   5.465 -0.2713 -1.5413 -0.0977
 2864SOL    HW220229   4.410   0.059   5.511  0.4629  1.1394 -1.4278
 2865SOL     OW20230   1.056   1.729   8.337  0.0362 -0.6584 -0.0862
 2865SOL    HW120231   1.055   1.677   8.417  2.9203  0.2452  0.5623
 2865SOL    HW220232   1.127   1.687   8.289  2.5701  2.3536  1.0162
 2866SOL     OW20233   4.053   2.212   7.986 -0.5811 -0.0336  0.6862
 2866SOL    HW120234   3.985   2.280   7.995  0.7575  1.4804 -0.4837
 2866SOL    HW220235   4.104   2.263   7.923  1.1924 -1.0778  1.2763
 2867SOL     OW20236   2.561   1.939   4.658 -0.1538 -0.6192 -0.2178
 2867SOL    HW120237   2.646   1.946   4.615  0.1945  1.9575  0.8952
 2867SOL    HW220238   2.585   2.012   4.714  0.1509 -1.3044  0.5462
 2868SOL     OW20239   4.249   2.154  14.402  0.3596  0.2564 -0.7720
 2868SOL    HW120240   4.249   2.109  14.486 -0.7394 -1.2394 -1.5775
 2868SOL    HW220241   4.335   2.138  14.364  1.2803 -1.7732  2.1703
 2869SOL     OW20242   4.722   1.486   7.209  0.3515 -0.0612  0.4977
 2869SOL    HW120243   0.052   1.541   7.248 -0.2266  0.7414  0.3639
 2869SOL    HW220244   0.043   1.411   7.201 -0.0855 -0.5203  1.6757
 2870SOL     OW20245   1.502   2.938  13.730 -0.4744  0.1807  0.0136
 2870SOL    HW120246   1.484   2.858  13.779  1.5622 -1.2024 -1.4675
 2870SOL    HW220247   1.597   2.934  13.739 -0.3530  3.7195  0.2513
 2871SOL     OW20248   4.211   2.643   5.944 -0.4668  0.3130  0.0352
 2871SOL    HW120249   4.228   2.669   6.034 -0.6460  0.7186 -0.0513
 2871SOL    HW220250   4.146   2.702   5.908 -1.8361 -1.0238  0.3288
 2872SOL     OW20251   2.658   0.165   3.949  0.6513  0.1122 -0.7098
 2872SOL    HW120252   2.646   0.084   3.899 -0.4046 -1.8275  2.6586
 2872SOL    HW220253   2.737   0.202   3.909  2.4905 -1.2161  1.6816
 2873SOL     OW20254   4.557   4.247   5.732  0.0463  0.4801 -0.0888
 2873SOL    HW120255   4.593   4.159   5.745 -0.8763 -0.0960 -1.4990
 2873SOL    HW220256   4.566   4.276   5.823  0.1820 -1.1382  0.4098
 2874SOL     OW20257   3.024   3.319   6.385  0.0861 -0.4169  0.4648
 2874SOL    HW120258   3.056   3.237   6.347  0.4902  0.1802 -0.4988
 2874SOL    HW220259   2.982   3.270   6.455 -1.9897 -0.2258 -0.6402
 2875SOL     OW20260   0.060   0.709   3.569  0.1588  0.4180  0.6055
 2875SOL    HW120261   0.101   0.735   3.652  0.9127 -0.8327  0.6327
 2875SOL    HW220262   0.094   0.775   3.509 -1.7177  2.6387  1.9880
 2876SOL     OW20263   1.516   4.708   9.041 -0.1740 -0.2189  0.1333
 2876SOL    HW120264   1.424   4.722   9.063  0.2208 -0.9805  2.2778
 2876SOL    HW220265   1.555   4.675   9.122  2.0996 -1.0159 -1.3091
 2877SOL     OW20266   0.880   2.392  14.589 -0.2283 -0.5343  0.0870
 2877SOL    HW120267   0.922   2.428  14.668 -0.2836 -0.2284 -0.0211
 2877SOL    HW220268   0.813   2.337  14.628  2.1615 -1.8874  2.2835
 2878SOL     OW20269   3.380   0.800  14.458  0.0936  0.3487  0.2922
 2878SOL    HW120270   3.336   0.819  14.541 -4.0493  0.6015 -1.9750
 2878SOL    HW220271   3.335   0.722  14.426  2.0167 -0.4349 -0.4716
 2879SOL     OW20272   3.620   4.155  16.278  0.4586 -0.0584 -0.5311
 2879SOL    HW120273   3.692   4.159  16.214  0.0486 -1.2704 -1.0634
 2879SOL    HW220274   3.653   4.101  16.350 -3.0273 -2.6451 -0.8869
 2880SOL     OW20275   2.960   2.438  16.474 -0.4498  0.0168 -0.5402
 2880SOL    HW120276   3.008   2.361  16.503 -2.0373 -1.1001 -0.8963
 2880SOL    HW220277   2.871   2.412  16.497  1.2132 -2.9703  2.4491
 2881SOL     OW20278   4.118   1.485   3.778 -0.4686  0.0348 -0.0178
 2881SOL    HW120279   4.046   1.523   3.827  0.8102  0.1905  1.7345
 2881SOL    HW220280   4.132   1.409   3.834 -2.6977 -0.2026  0.2265
 2882SOL     OW20281   1.148   2.580  15.859  0.1606 -0.2317  0.3304
 2882SOL    HW120282   1.220   2.606  15.916  1.1399 -0.0866 -0.9928
 2882SOL    HW220283   1.074   2.600  15.917 -0.7782  0.8546 -1.2554
 2883SOL     OW20284   3.337   3.191   3.934  0.0384 -0.4686 -0.2958
 2883SOL    HW120285   3.406   3.145   3.886  3.1462  1.1486  2.6207
 2883SOL    HW220286   3.359   3.180   4.027 -0.9365  0.4271  0.0437
 2884SOL     OW20287   0.469   0.320   7.884  0.4690  0.1198 -0.5462
 2884SOL    HW120288   0.561   0.303   7.867  0.3778  1.7494 -2.6279
 2884SOL    HW220289   0.455   0.295   7.976  0.6661  0.1466 -0.5106
 2885SOL     OW20290   3.893   1.561   6.536 -0.2461  0.7282 -0.2510
 2885SOL    HW120291   3.945   1.626   6.584  1.8541 -0.3411 -1.0799
 2885SOL    HW220292   3.920   1.479   6.576  1.0465  1.8708  1.2054
 2886SOL     OW20293   1.305   1.137   2.373 -0.4870  0.5724 -0.3361
 2886SOL    HW120294   1.355   1.210   2.337 -0.3022  0.8513  0.4867
 2886SOL    HW220295   1.252   1.183   2.438  0.6210 -1.1464  1.7798
 2887SOL     OW20296   2.708   3.765   2.256 -0.2185 -0.5314 -0.1974
 2887SOL    HW120297   2.625   3.757   2.303 -0.2585 -0.4644 -0.2569
 2887SOL    HW220298   2.694   3.804   2.170 -3.3099 -0.1676  0.4838
 2888SOL     OW20299   3.481   2.840  17.443  0.5160  0.3237 -0.0984
 2888SOL    HW120300   3.452   2.778  17.510  0.1006  1.0714  0.4102
 2888SOL    HW220301   3.407   2.900  17.444 -0.0972 -0.4242 -3.1425
 2889SOL     OW20302   1.482   3.807  17.181  0.3146  0.1226 -0.0501
 2889SOL    HW120303   1.499   3.824  17.274  0.8141 -0.4885 -0.0262
 2889SOL    HW220304   1.394   3.836  17.160  0.1362  0.6755  1.4526
 2890SOL     OW20305   2.464   3.925   5.695  1.5358  0.0567  0.1252
 2890SOL    HW120306   2.377   3.896   5.670  0.9824  0.9210  1.0914
 2890SOL    HW220307   2.473   4.001   5.636 -2.1546 -0.5499 -1.2303
 2891SOL     OW20308   3.108   2.620   0.477  0.3458  0.2085  0.2673
 2891SOL    HW120309   3.130   2.713   0.472  1.7436 -0.0685  1.0745
 2891SOL    HW220310   3.183   2.607   0.535  0.5338 -0.5783 -0.1440
 2892SOL     OW20311   3.906   0.967   1.580 -0.2340  0.1909 -0.1881
 2892SOL    HW120312   3.840   0.984   1.513 -0.5630 -0.0056  0.0847
 2892SOL    HW220313   3.962   1.043   1.563  0.4420  0.0329  1.3554
 2893SOL     OW20314   0.097   4.675   2.179 -0.1274  0.2177 -0.4764
 2893SOL    HW120315   0.191   4.692   2.186 -0.2649  0.7892 -0.0308
 2893SOL    HW220316   0.098   4.587   2.217 -0.9797  0.1341 -0.6563
 2894SOL     OW20317   0.286   4.085   3.440 -0.5879  0.1654 -0.0338
 2894SOL    HW120318   0.223   4.055   3.505 -0.3894  1.4029  0.7167
 2894SOL    HW220319   0.269   4.178   3.453 -0.8110 -0.1625  1.9174
 2895SOL     OW20320   3.169   4.204   9.583 -0.4633 -0.2180  0.0537
 2895SOL    HW120321   3.230   4.215   9.510 -0.0454  0.2966  0.4780
 2895SOL    HW220322   3.220   4.204   9.664 -1.7872  1.9977  0.8760
 2896SOL     OW20323   1.488   1.841  12.293  0.5392 -0.0220 -0.2280
 2896SOL    HW120324   1.533   1.860  12.211  1.0183 -1.6486 -0.3455
 2896SOL    HW220325   1.452   1.754  12.274  0.3005  0.2982 -1.2403
 2897SOL     OW20326   2.022   2.050   4.400 -0.3666 -0.9645 -0.1363
 2897SOL    HW120327   1.944   2.033   4.453  0.1398 -3.0130 -0.0197
 2897SOL    HW220328   2.029   1.972   4.344  1.7002 -0.8745  0.0013
 2898SOL     OW20329   1.529   3.944   6.746  0.2099 -0.1789  0.2652
 2898SOL    HW120330   1.528   4.036   6.771  1.2471  0.0667 -0.6115
 2898SOL    HW220331   1.576   3.910   6.822 -1.4448 -1.6454  0.6329
 2899SOL     OW20332   4.421   2.131   3.287 -0.2522  0.2266  0.1536
 2899SOL    HW120333   4.506   2.131   3.244  1.2317  1.7036  3.0998
 2899SOL    HW220334   4.400   2.039   3.271  1.1960  0.2792 -1.9994
 2900SOL     OW20335   4.332   1.226  10.664  0.1493 -0.1359  0.1070
 2900SOL    HW120336   4.423   1.258  10.662 -0.3140  1.2565  0.9877
 2900SOL    HW220337   4.283   1.308  10.674  2.8598  1.4416  0.6252
 2901SOL     OW20338   3.375   1.662   2.315 -0.5019  0.2517  0.1497
 2901SOL    HW120339   3.330   1.678   2.233 -1.4967  0.2545  0.6972
 2901SOL    HW220340   3.307   1.669   2.381 -0.9893  0.1206 -0.3453
 2902SOL     OW20341   1.260   3.602   5.212 -0.0784  0.3941 -0.0697
 2902SOL    HW120342   1.306   3.519   5.198 -1.4226 -0.0776 -1.7508
 2902SOL    HW220343   1.177   3.574   5.250  0.8189 -1.0016  0.8735
 2903SOL     OW20344   2.722   4.211   0.722 -0.2244  0.3121  0.4566
 2903SOL    HW120345   2.810   4.227   0.687 -0.9403  0.2676 -1.3280
 2903SOL    HW220346   2.742   4.198   0.815  0.8470  0.1864  0.2166
 2904SOL     OW20347   0.785   3.914   5.198 -0.4080 -0.1621 -0.5112
 2904SOL    HW120348   0.691   3.901   5.206 -0.3120 -1.2835 -1.2440
 2904SOL    HW220349   0.809   3.822   5.199  0.3239  0.0208 -1.1925
 2905SOL     OW20350   1.246   2.641   9.109 -0.8893  1.0768 -0.1552
 2905SOL    HW120351   1.341   2.650   9.120 -0.7749  0.4552 -0.6862
 2905SOL    HW220352   1.222   2.732   9.095 -0.9513  1.2904  1.2891
 2906SOL     OW20353   2.714   1.868   8.468 -0.0006  0.8708 -0.2547
 2906SOL    HW120354   2.772   1.806   8.514 -1.9372 -1.5731 -1.1150
 2906SOL    HW220355   2.647   1.817   8.424 -0.8490  0.6460  1.2943
 2907SOL     OW20356   0.582   1.621  14.578  0.5257 -0.3431  0.1203
 2907SOL    HW120357   0.672   1.646  14.602  0.2859  1.6458 -1.0133
 2907SOL    HW220358   0.576   1.665  14.493 -0.3203  0.2925  0.5126
 2908SOL     OW20359   2.174   0.778   7.586 -0.8812 -0.1458  0.2480
 2908SOL    HW120360   2.259   0.761   7.625 -1.1218  2.0407  1.7036
 2908SOL    HW220361   2.144   0.688   7.572 -1.2302  0.1591 -1.0637
 2909SOL     OW20362   0.337   3.157  17.231  0.1408 -0.2966 -0.1393
 2909SOL    HW120363   0.325   3.207  17.150 -0.9004 -1.3953 -0.6606
 2909SOL    HW220364   0.405   3.099  17.195  1.2506  0.3306  0.9358
 2910SOL     OW20365   0.478   3.250   8.984 -0.0152 -0.0188 -0.3218
 2910SOL    HW120366   0.515   3.171   8.945  0.1910  0.2568 -0.6868
 2910SOL    HW220367   0.547   3.291   9.037 -0.8055  0.8585  0.0157
 2911SOL     OW20368   4.616   3.358   8.869  0.0932  0.2715  0.8971
 2911SOL    HW120369   4.706   3.385   8.849  0.0997  1.7953  2.9040
 2911SOL    HW220370   4.596   3.409   8.947 -1.4453  1.5692 -0.3474
 2912SOL     OW20371   4.329   3.754   3.197 -0.0030  0.2988  0.4914
 2912SOL    HW120372   4.370   3.673   3.167 -0.4146 -0.0530  0.8876
 2912SOL    HW220373   4.295   3.789   3.115  1.0575 -1.6208 -0.7648
 2913SOL     OW20374   4.601   1.219   2.199  0.6188  0.1655  0.3092
 2913SOL    HW120375   4.576   1.131   2.227 -2.9596  0.9704 -0.3549
 2913SOL    HW220376   4.680   1.240   2.247  1.4127 -0.7654 -0.5904
 2914SOL     OW20377   1.694   0.782   7.077 -0.1529 -0.5876 -0.6475
 2914SOL    HW120378   1.600   0.764   7.078  0.0700 -1.7574 -0.4019
 2914SOL    HW220379   1.713   0.835   7.154 -1.0630 -0.9750 -0.1529
 2915SOL     OW20380   1.801   3.834   9.365  0.2268 -0.3869 -0.0284
 2915SOL    HW120381   1.781   3.883   9.286  2.0431  0.5714  0.1140
 2915SOL    HW220382   1.765   3.748   9.345  2.0498 -1.8458  2.8864
 2916SOL     OW20383   0.524   0.647   3.642  0.7136 -0.2876 -0.6320
 2916SOL    HW120384   0.472   0.707   3.588 -1.0969  1.5277  3.1486
 2916SOL    HW220385   0.576   0.618   3.567  3.5787  2.3975  0.3177
 2917SOL     OW20386   1.707   3.666   3.776 -0.1380  0.3197  0.2965
 2917SOL    HW120387   1.698   3.577   3.743  1.3026 -0.5325  2.2076
 2917SOL    HW220388   1.670   3.662   3.864  2.1499 -2.1136  1.1239
 2918SOL     OW20389   0.761   1.116   6.785 -0.0225 -0.7664 -0.3041
 2918SOL    HW120390   0.699   1.118   6.857 -0.6178  0.8138 -0.8577
 2918SOL    HW220391   0.811   1.197   6.797 -0.8832 -0.3620  0.5550
 2919SOL     OW20392   2.935   1.817   4.782 -0.0079 -0.5840  0.0869
 2919SOL    HW120393   2.905   1.824   4.692  4.5455  2.5447 -1.1385
 2919SOL    HW220394   3.027   1.841   4.774 -0.2136 -0.6084 -2.1789
 2920SOL     OW20395   2.266   4.576   1.338  0.3730  0.1973 -0.6835
 2920SOL    HW120396   2.259   4.659   1.291  0.5305  0.3006 -0.5236
 2920SOL    HW220397   2.227   4.601   1.421 -0.7341 -3.5179 -0.0888
 2921SOL     OW20398   1.676   1.421   4.911  0.1769 -0.2048  0.1804
 2921SOL    HW120399   1.628   1.402   4.991 -0.3693 -0.5977 -0.2392
 2921SOL    HW220400   1.644   1.503   4.874  0.1616 -0.5266 -0.5239
 2922SOL     OW20401   2.724   4.545   1.108 -0.3235  0.0686  0.1184
 2922SOL    HW120402   2.797   4.484   1.119 -0.1339  0.6452  2.0141
 2922SOL    HW220403   2.721   4.578   1.198  1.0256  0.1881  0.1224
 2923SOL     OW20404   2.219   4.366   2.018  0.8883  0.7669 -0.3632
 2923SOL    HW120405   2.255   4.350   1.931 -0.2149 -0.8522 -0.5311
 2923SOL    HW220406   2.289   4.403   2.072 -1.6514  2.0223  2.0683
 2924SOL     OW20407   1.239   3.128   7.309  0.2598 -0.0741 -0.6808
 2924SOL    HW120408   1.301   3.086   7.250 -1.2845 -3.0176 -0.2404
 2924SOL    HW220409   1.205   3.204   7.261  1.3072  0.5989 -0.3296
 2925SOL     OW20410   1.889   1.044  10.790  0.4999 -0.1098 -0.2117
 2925SOL    HW120411   1.909   1.137  10.779  0.1218  0.1333  1.1470
 2925SOL    HW220412   1.882   1.022  10.697  1.1753 -1.3327  0.0304
 2926SOL     OW20413   2.409   3.830   5.383 -0.1162 -0.2103 -0.3050
 2926SOL    HW120414   2.377   3.791   5.302 -0.6291 -0.1250 -0.1397
 2926SOL    HW220415   2.353   3.786   5.447 -0.0492  1.4532  0.9011
 2927SOL     OW20416   1.022   0.915   9.343 -0.4454 -0.1231  0.1242
 2927SOL    HW120417   1.069   0.853   9.286  0.4651  1.1559 -0.5066
 2927SOL    HW220418   0.945   0.914   9.286 -1.2517  4.0093  1.1894
 2928SOL     OW20419   2.504   1.306  12.873  0.8455  0.3131 -0.2461
 2928SOL    HW120420   2.479   1.340  12.787 -2.4015 -0.4844  0.3887
 2928SOL    HW220421   2.444   1.359  12.926 -0.5047 -1.4638  0.0111
 2929SOL     OW20422   4.570   1.292   1.396 -0.3023 -0.4095 -0.0461
 2929SOL    HW120423   4.654   1.327   1.365  0.8016 -2.7923  0.2790
 2929SOL    HW220424   4.536   1.276   1.308 -2.6570  0.3376  0.7243
 2930SOL     OW20425   1.202   1.576   2.102 -0.1432 -0.9164  0.1184
 2930SOL    HW120426   1.263   1.510   2.069 -1.1460 -1.3935 -0.7900
 2930SOL    HW220427   1.120   1.529   2.121  0.0081  0.0889  3.3649
 2931SOL     OW20428   1.495   2.944  15.094  0.0834  0.0925 -0.5576
 2931SOL    HW120429   1.408   2.908  15.080  0.6854 -1.0655 -1.3600
 2931SOL    HW220430   1.482   2.957  15.188 -1.5863  0.9014 -0.9006
 2932SOL     OW20431   0.323   4.466   8.240 -0.4050 -0.6243  0.0409
 2932SOL    HW120432   0.332   4.559   8.261  0.8243 -1.1630  1.8691
 2932SOL    HW220433   0.401   4.436   8.287  1.0870  1.1553 -1.2919
 2933SOL     OW20434   2.862   2.061   8.312 -0.4320 -0.6045  0.2749
 2933SOL    HW120435   2.828   1.999   8.377 -0.3269  0.0210  0.9309
 2933SOL    HW220436   2.951   2.070   8.347 -0.5263 -3.1319  1.1926
 2934SOL     OW20437   2.134   0.593   9.158 -0.1597  0.1391 -0.1578
 2934SOL    HW120438   2.073   0.519   9.153  1.7766 -1.6594  2.5992
 2934SOL    HW220439   2.104   0.652   9.226  1.0873  0.6053 -0.0008
 2935SOL     OW20440   2.609   1.699   5.035 -0.0630  0.2554  0.4563
 2935SOL    HW120441   2.601   1.609   5.065 -0.9307  0.5751  1.1794
 2935SOL    HW220442   2.535   1.740   5.079 -0.0559 -1.3033  1.9031
 2936SOL     OW20443   2.124   3.893   3.361  0.2334  0.0074 -0.1915
 2936SOL    HW120444   2.054   3.937   3.313  0.6070  0.8733  0.0611
 2936SOL    HW220445   2.194   3.950   3.328 -1.5919  1.9795 -0.6484
 2937SOL     OW20446   2.620   4.015   2.845 -0.3013 -0.8594  0.2102
 2937SOL    HW120447   2.699   3.967   2.869 -1.1226 -2.5769 -0.5181
 2937SOL    HW220448   2.545   3.956   2.854 -0.1716 -0.7336  2.1786
 2938SOL     OW20449   0.338   3.070   7.529 -0.1732 -0.0949 -0.5541
 2938SOL    HW120450   0.366   3.033   7.612 -0.1897 -0.1341 -0.5661
 2938SOL    HW220451   0.262   3.014   7.514 -0.8251  0.1069  2.0285
 2939SOL     OW20452   2.944   2.376   3.066 -0.0440  0.5265 -0.2743
 2939SOL    HW120453   2.885   2.301   3.076  1.4745 -0.8037 -1.1733
 2939SOL    HW220454   2.879   2.446   3.066  2.6346  3.0336 -1.1838
 2940SOL     OW20455   1.155   3.079   6.019 -0.6174 -0.1949  0.2503
 2940SOL    HW120456   1.231   3.023   6.004 -0.7074  0.4173 -2.5461
 2940SOL    HW220457   1.126   3.089   5.928 -0.7667 -1.0863  0.1987
 2941SOL     OW20458   0.166   2.476   4.115 -0.0478 -0.5165  0.0756
 2941SOL    HW120459   0.165   2.568   4.140 -0.7278 -1.2400  2.7169
 2941SOL    HW220460   0.152   2.483   4.020  3.8410  0.3607 -0.4112
 2942SOL     OW20461   2.721   3.259  16.806 -0.1240  0.4661  0.3423
 2942SOL    HW120462   2.656   3.327  16.820 -1.1418 -0.6730  1.0736
 2942SOL    HW220463   2.670   3.179  16.801 -1.3747  1.2803  0.2534
 2943SOL     OW20464   0.537   4.502   6.158 -0.1004  0.1710 -0.3217
 2943SOL    HW120465   0.456   4.460   6.130 -0.4599  0.5437  0.1613
 2943SOL    HW220466   0.599   4.432   6.139 -1.2641 -0.4283 -1.8663
 2944SOL     OW20467   4.584   0.564   5.784  0.0934  0.3261  0.0075
 2944SOL    HW120468   4.652   0.621   5.821  1.5684 -0.7239 -1.1347
 2944SOL    HW220469   4.621   0.478   5.766 -0.1051 -0.4005  2.9777
 2945SOL     OW20470   4.593   1.808   5.541 -0.4119 -0.5891  0.1630
 2945SOL    HW120471   4.681   1.795   5.506  0.0436  0.9201  0.7438
 2945SOL    HW220472   4.562   1.718   5.538 -0.2207 -0.7027  1.8356
 2946SOL     OW20473   4.080   4.345  15.406 -0.5591 -0.8891  0.4335
 2946SOL    HW120474   4.015   4.326  15.474  0.0858  3.1321  2.2266
 2946SOL    HW220475   4.149   4.279  15.411  0.9973  0.8271  2.0213
 2947SOL     OW20476   3.034   2.498   8.731  0.0099  0.2797  0.0889
 2947SOL    HW120477   2.986   2.576   8.701  0.9011  0.5462 -0.6478
 2947SOL    HW220478   2.978   2.471   8.803 -2.4403  4.2216 -0.3129
 2948SOL     OW20479   4.137   3.442   9.556  0.1441 -0.7145  0.2598
 2948SOL    HW120480   4.137   3.346   9.553 -2.3598 -0.6427 -1.4849
 2948SOL    HW220481   4.099   3.454   9.470 -0.9853 -0.0962  0.8391
 2949SOL     OW20482   1.439   0.789  10.941  0.3603  0.4184  0.0453
 2949SOL    HW120483   1.509   0.848  10.970  1.1651 -0.8642  0.7450
 2949SOL    HW220484   1.442   0.728  11.016 -0.3322  0.9771  0.5216
 2950SOL     OW20485   3.957   1.572   3.268  0.3507  1.0469  0.0225
 2950SOL    HW120486   3.865   1.552   3.283  1.1287 -1.2048  1.7539
 2950SOL    HW220487   4.002   1.531   3.342  3.4350 -0.8897 -2.9368
 2951SOL     OW20488   1.455   0.319  13.204  0.2205  0.6322  0.4043
 2951SOL    HW120489   1.494   0.364  13.279 -1.8132  1.4325  0.9845
 2951SOL    HW220490   1.457   0.387  13.137 -0.0085 -1.0646 -1.3174
 2952SOL     OW20491   1.474   3.606   3.549  0.2525  0.0288 -0.5946
 2952SOL    HW120492   1.392   3.637   3.588 -0.3889  0.5151 -2.3328
 2952SOL    HW220493   1.442   3.546   3.481 -0.3012  1.5084 -1.6301
 2953SOL     OW20494   4.709   1.256  15.193  0.1615 -0.3582 -0.2269
 2953SOL    HW120495   4.651   1.244  15.117  1.5503  2.8648 -1.8298
 2953SOL    HW220496   0.058   1.231  15.162  0.3406  1.0800 -0.9384
 2954SOL     OW20497   3.644   3.773   8.969  0.0054  0.0703  0.5129
 2954SOL    HW120498   3.671   3.682   8.957 -2.0035 -0.6160  1.2936
 2954SOL    HW220499   3.575   3.752   9.031 -0.3003  0.3379  0.2626
 2955SOL     OW20500   1.810   0.890  11.298  0.1761  0.4171 -0.2698
 2955SOL    HW120501   1.836   0.969  11.251 -0.5338 -0.0162 -1.3813
 2955SOL    HW220502   1.818   0.920  11.388 -0.9940  0.8953 -0.3260
 2956SOL     OW20503   3.400   3.939  11.858  0.6654 -0.3642 -0.2706
 2956SOL    HW120504   3.390   3.928  11.763 -1.5231 -1.6342  0.0983
 2956SOL    HW220505   3.436   4.027  11.866 -0.4512 -0.1757  2.5533
 2957SOL     OW20506   2.658   0.917   5.518 -0.6166 -0.3798 -0.1515
 2957SOL    HW120507   2.569   0.899   5.490 -1.1286 -2.4502  2.8123
 2957SOL    HW220508   2.648   0.975   5.594  2.2047  1.7568 -1.3731
 2958SOL     OW20509   4.578   4.009   7.465 -0.7226  0.3587 -0.4069
 2958SOL    HW120510   4.503   4.002   7.406  0.0360  2.9675 -1.6553
 2958SOL    HW220511   4.631   4.075   7.421 -0.4754  0.4971  0.0904
 2959SOL     OW20512   2.813   1.432   4.540  0.1970  0.0641  0.3582
 2959SOL    HW120513   2.899   1.428   4.583  0.1286  0.4893  0.5373
 2959SOL    HW220514   2.762   1.375   4.597  0.7129 -0.0626  0.6947
 2960SOL     OW20515   2.000   0.298  14.481 -0.0064  0.4108 -0.4349
 2960SOL    HW120516   1.904   0.297  14.477 -0.0332 -0.1379  0.3116
 2960SOL    HW220517   2.021   0.206  14.496 -1.5757  0.1700  0.2367
 2961SOL     OW20518   4.610   1.380  13.372  0.2021  0.4840 -0.1158
 2961SOL    HW120519   4.661   1.404  13.449  1.9860 -0.3465 -1.0336
 2961SOL    HW220520   4.519   1.370  13.400 -0.3037  1.6363 -1.3658
 2962SOL     OW20521   3.120   4.195   7.181  0.0960  0.5712  0.2014
 2962SOL    HW120522   3.077   4.110   7.171 -0.9398  0.8880  1.8445
 2962SOL    HW220523   3.208   4.162   7.197 -0.3575  0.3904  2.3280
 2963SOL     OW20524   2.899   0.825   5.716 -0.6716  0.0519 -0.7361
 2963SOL    HW120525   2.805   0.828   5.737 -0.1834 -1.8252  1.6630
 2963SOL    HW220526   2.940   0.843   5.800 -1.2643  0.1600 -0.4666
 2964SOL     OW20527   0.567   2.006   0.709 -0.2183  0.4600  0.3255
 2964SOL    HW120528   0.628   1.984   0.779  0.8147 -1.2988 -1.1033
 2964SOL    HW220529   0.625   2.062   0.657  1.3854  0.4215  2.0814
 2965SOL     OW20530   3.468   2.524   3.605 -0.3027 -0.2179  0.1573
 2965SOL    HW120531   3.409   2.452   3.581 -1.5803  0.5029  1.1465
 2965SOL    HW220532   3.482   2.565   3.519 -1.3186  0.3479  0.2673
 2966SOL     OW20533   1.649   2.611   8.501  0.5957 -0.4600 -0.0422
 2966SOL    HW120534   1.582   2.565   8.451 -0.8513 -0.1515  1.6204
 2966SOL    HW220535   1.723   2.622   8.442  0.2338 -0.2566 -0.4579
 2967SOL     OW20536   1.274   1.617  15.110 -0.1612 -0.1459  0.6202
 2967SOL    HW120537   1.330   1.540  15.124  0.0322 -0.6297 -2.6455
 2967SOL    HW220538   1.229   1.590  15.030  1.6645 -0.7332 -0.2100
 2968SOL     OW20539   1.974   2.869   6.235  0.0347 -0.1291 -0.0614
 2968SOL    HW120540   1.979   2.963   6.255  0.0614  0.0310 -0.8276
 2968SOL    HW220541   1.922   2.882   6.156 -1.4441 -1.8674  0.6262
 2969SOL     OW20542   4.413   2.386   7.252  0.6704 -0.4429  0.7617
 2969SOL    HW120543   4.471   2.321   7.291  0.6371 -0.6511  0.4651
 2969SOL    HW220544   4.470   2.399   7.176  1.8448 -1.3012  1.4889
 2970SOL     OW20545   0.976   1.664   3.722 -0.2411  0.2344  0.4599
 2970SOL    HW120546   0.933   1.697   3.801  0.3080  4.3551 -0.9669
 2970SOL    HW220547   0.907   1.603   3.694  0.0511  0.7516 -1.3741
 2971SOL     OW20548   3.400   0.094   3.549 -0.0649 -0.7466 -0.2606
 2971SOL    HW120549   3.311   0.128   3.549 -0.4228 -1.6619  0.3616
 2971SOL    HW220550   3.387   0.023   3.486 -2.1616  0.0575 -0.7388
 2972SOL     OW20551   1.912   1.200   4.145 -0.1473  0.3999 -0.0171
 2972SOL    HW120552   1.888   1.267   4.209  0.6423 -0.6851  1.4239
 2972SOL    HW220553   1.876   1.119   4.181 -0.3899  1.4948  2.2039
 2973SOL     OW20554   1.934   3.423   7.732 -0.2135  0.3473  0.2129
 2973SOL    HW120555   1.888   3.436   7.649 -2.8902 -0.3954  1.5642
 2973SOL    HW220556   1.996   3.495   7.730  0.9135 -0.6386 -0.1134
 2974SOL     OW20557   4.264   1.389   5.962 -0.0216 -0.7504 -0.1799
 2974SOL    HW120558   4.342   1.443   5.974  0.0476 -1.0103  0.5561
 2974SOL    HW220559   4.201   1.455   5.935  1.9834  1.3202  0.1788
 2975SOL     OW20560   1.523   2.946  15.630  0.5991 -0.7084 -0.5616
 2975SOL    HW120561   1.481   3.010  15.687 -3.2163 -1.8920 -2.0361
 2975SOL    HW220562   1.535   2.995  15.549 -1.4630 -1.4890 -1.3387
 2976SOL     OW20563   2.552   3.541   8.912 -0.4308  0.4181  0.3626
 2976SOL    HW120564   2.475   3.567   8.861  1.6878  0.8245 -2.6082
 2976SOL    HW220565   2.622   3.601   8.889  0.7366 -1.2748 -0.4948
 2977SOL     OW20566   4.521   3.556   3.108 -0.4014  0.0359 -0.5469
 2977SOL    HW120567   4.614   3.563   3.131 -0.7181 -4.2398  1.9106
 2977SOL    HW220568   4.525   3.483   3.047 -0.7975 -0.6050  0.1970
 2978SOL     OW20569   2.219   3.441   4.313 -0.1421 -0.0542 -0.2175
 2978SOL    HW120570   2.277   3.510   4.343 -1.6353  0.3784  1.6736
 2978SOL    HW220571   2.155   3.450   4.384 -1.1498 -1.2568 -0.9664
 2979SOL     OW20572   4.211   1.698   1.895 -0.6862 -0.1743  0.5555
 2979SOL    HW120573   4.120   1.705   1.866  0.3780 -0.5728 -2.9267
 2979SOL    HW220574   4.216   1.611   1.934 -1.4300  0.3060  1.7360
 2980SOL     OW20575   0.348   3.755   3.270 -0.1142  0.3250 -0.3317
 2980SOL    HW120576   0.407   3.817   3.313  0.4131  1.4055 -2.6331
 2980SOL    HW220577   0.414   3.711   3.217 -0.6428 -0.7423 -0.0950
 2981SOL     OW20578   2.282   3.113   2.425 -0.3738 -0.3270 -0.0818
 2981SOL    HW120579   2.239   3.128   2.341 -1.0560 -0.0912  0.3137
 2981SOL    HW220580   2.321   3.027   2.410  1.0802  0.1186  1.1730
 2982SOL     OW20581   2.231   4.507   8.073 -0.3327  0.4068 -0.1662
 2982SOL    HW120582   2.206   4.429   8.023  0.3047 -0.2192  0.4915
 2982SOL    HW220583   2.229   4.576   8.007 -1.0892  1.3855  0.8752
 2983SOL     OW20584   2.068   0.359   8.253 -0.1180 -0.4448  0.2240
 2983SOL    HW120585   2.048   0.268   8.230  1.1207 -0.3651 -1.2097
 2983SOL    HW220586   2.113   0.355   8.338  1.0903  1.2399 -0.3509
 2984SOL     OW20587   2.143   0.841  13.332 -0.1303 -0.3127 -0.0894
 2984SOL    HW120588   2.137   0.778  13.403  0.4919 -2.0169 -1.5392
 2984SOL    HW220589   2.112   0.922  13.371  0.8584  0.5445 -1.0661
 2985SOL     OW20590   2.733   3.765   4.136  0.4580  0.4368  0.3373
 2985SOL    HW120591   2.793   3.700   4.101 -1.1739  0.6907 -2.9252
 2985SOL    HW220592   2.801   3.823   4.171  0.0732 -0.4777  2.6382
 2986SOL     OW20593   2.460   2.366   3.574  0.2983 -0.7054  0.0259
 2986SOL    HW120594   2.410   2.386   3.653  0.0105  0.1608 -0.3759
 2986SOL    HW220595   2.405   2.296   3.540  0.6818 -0.7949 -0.4061
 2987SOL     OW20596   2.062   0.823  10.810 -0.0828 -0.2604 -0.3148
 2987SOL    HW120597   1.997   0.888  10.836 -1.1810 -0.9918 -1.2558
 2987SOL    HW220598   2.124   0.871  10.754  1.4904  0.6354  2.1814
 2988SOL     OW20599   2.475   1.632  13.806  0.3845 -0.2741 -0.3732
 2988SOL    HW120600   2.558   1.678  13.795  0.3665 -0.2360 -0.3487
 2988SOL    HW220601   2.406   1.697  13.817 -1.1572 -2.0862  0.6642
 2989SOL     OW20602   1.797   3.030   7.811 -0.4124 -0.0306  0.0656
 2989SOL    HW120603   1.884   3.015   7.775 -1.0565 -1.6261 -0.8888
 2989SOL    HW220604   1.745   3.026   7.730 -0.4741 -0.2244  0.1140
 2990SOL     OW20605   1.905   0.676   3.144  0.1814  0.1190 -0.3594
 2990SOL    HW120606   1.961   0.667   3.222 -0.1222  1.4357  0.0190
 2990SOL    HW220607   1.896   0.771   3.137  1.3309  0.2768  0.1970
 2991SOL     OW20608   3.641   2.620  15.866  0.1529  0.0043  0.4060
 2991SOL    HW120609   3.637   2.540  15.918 -0.1294  0.1468  0.6005
 2991SOL    HW220610   3.639   2.581  15.779 -1.5887  0.2500  0.3342
 2992SOL     OW20611   3.867   0.009  17.521 -0.2478 -0.4514  0.4231
 2992SOL    HW120612   3.887   4.677  17.459 -1.4829 -1.9080  1.6494
 2992SOL    HW220613   3.887   4.710  17.607 -2.5786 -1.5369  0.4878
 2993SOL     OW20614   3.026   1.352   1.151  0.3074  0.7198 -0.4522
 2993SOL    HW120615   3.057   1.373   1.063  2.3113 -1.3504 -0.2438
 2993SOL    HW220616   3.024   1.257   1.153  1.3974  0.6924 -0.4391
 2994SOL     OW20617   1.875   3.506   0.435 -0.4341 -0.1460 -0.0208
 2994SOL    HW120618   1.796   3.489   0.487  0.5372  1.2348  1.9042
 2994SOL    HW220619   1.875   3.425   0.383 -2.7657  0.3521 -0.8087
 2995SOL     OW20620   1.877   3.468  10.319 -0.0759 -0.1117 -0.2883
 2995SOL    HW120621   1.802   3.465  10.260  2.5943  1.4847 -3.7641
 2995SOL    HW220622   1.948   3.445  10.259  1.4931 -0.7031  1.7742
 2996SOL     OW20623   0.296   2.358   7.317  0.5902 -0.0561 -0.5184
 2996SOL    HW120624   0.291   2.290   7.385  1.3293  3.3010  2.8585
 2996SOL    HW220625   0.240   2.315   7.253 -0.2108 -0.4981  0.4739
 2997SOL     OW20626   2.011   1.862   2.210  0.4190  0.2723  0.0810
 2997SOL    HW120627   2.057   1.909   2.141  0.8423 -1.2277 -0.6714
 2997SOL    HW220628   1.948   1.809   2.162  2.3285 -0.3996 -1.7012
 2998SOL     OW20629   3.527   1.138  11.190  0.8074 -0.2007  0.8754
 2998SOL    HW120630   3.548   1.051  11.156  0.7273  1.1827 -2.7330
 2998SOL    HW220631   3.456   1.165  11.131  0.6361 -0.8846  0.7651
 2999SOL     OW20632   1.999   2.470  14.823  0.4559 -0.7726  0.1512
 2999SOL    HW120633   1.952   2.550  14.848  1.3099 -0.9433  2.2808
 2999SOL    HW220634   2.076   2.471  14.880 -0.0798  0.6032  0.8585
 3000SOL     OW20635   4.367   3.834   7.331  0.1087 -0.2706  0.0164
 3000SOL    HW120636   4.368   3.800   7.421  2.2255 -2.3458 -0.8036
 3000SOL    HW220637   4.297   3.781   7.293  1.1851 -1.4846 -0.2600
 3001SOL     OW20638   3.246   2.424   4.352 -0.0196 -0.2230  0.0173
 3001SOL    HW120639   3.171   2.376   4.386  0.3711 -0.3139  0.7515
 3001SOL    HW220640   3.203   2.475   4.283 -0.0976  1.0442  1.0243
 3002SOL     OW20641   2.974   0.966  16.506 -0.2255 -0.5729 -0.0216
 3002SOL    HW120642   3.032   0.969  16.430 -0.4683  0.0748 -0.1815
 3002SOL    HW220643   2.959   1.061  16.507 -1.2102 -0.7436  1.2641
 3003SOL     OW20644   0.109   0.945  10.069 -0.1753 -0.1603 -0.0416
 3003SOL    HW120645   0.083   1.032  10.098 -1.3730 -0.0500 -1.4734
 3003SOL    HW220646   0.184   0.918  10.122  0.1235  0.1019 -0.3310
 3004SOL     OW20647   3.501   4.129   0.117 -0.3383  0.0121  0.0387
 3004SOL    HW120648   3.477   4.200   0.176  0.4289  1.8259 -1.8327
 3004SOL    HW220649   3.417   4.088   0.097 -0.4557 -0.6245  1.8453
 3005SOL     OW20650   1.027   3.334   9.665  0.2198 -0.1169 -0.3929
 3005SOL    HW120651   1.055   3.248   9.632 -0.1382 -0.5136  0.3361
 3005SOL    HW220652   0.963   3.359   9.599 -0.0276  1.5524  0.5007
 3006SOL     OW20653   3.285   0.981   6.751 -0.7716  0.0651 -0.1623
 3006SOL    HW120654   3.298   0.927   6.673 -3.5673  2.2914 -2.1802
 3006SOL    HW220655   3.354   1.045   6.733  0.1827 -0.7412  0.6678
 3007SOL     OW20656   2.593   3.122  15.388 -0.3159  0.3544  0.2391
 3007SOL    HW120657   2.672   3.098  15.436  0.9619  1.2033 -1.4756
 3007SOL    HW220658   2.539   3.046  15.412 -0.4472  0.2933 -0.2515
 3008SOL     OW20659   1.072   1.239   3.131 -0.4939  0.4961  0.9914
 3008SOL    HW120660   1.146   1.184   3.157 -0.5703 -0.1803 -0.2435
 3008SOL    HW220661   1.112   1.294   3.064 -0.9524 -0.7003 -0.2547
 3009SOL     OW20662   4.574   2.929   6.377  0.2365  0.0235 -0.1978
 3009SOL    HW120663   4.669   2.931   6.372  0.3507 -0.2904  2.0805
 3009SOL    HW220664   4.550   2.963   6.463  1.8626 -0.2109  0.3477
 3010SOL     OW20665   0.370   0.302   8.169 -0.7235 -0.1251  0.9525
 3010SOL    HW120666   0.330   0.309   8.256  2.4807  1.7622  2.2568
 3010SOL    HW220667   0.345   0.391   8.144  0.1795  0.0888  0.8174
 3011SOL     OW20668   3.419   0.883   4.733  0.2281  0.0898  0.4417
 3011SOL    HW120669   3.456   0.952   4.789  0.0118  0.6542 -0.1212
 3011SOL    HW220670   3.339   0.863   4.782 -0.6401  3.1851  0.2957
 3012SOL     OW20671   2.719   1.152  16.939 -0.3691 -0.4389 -0.6721
 3012SOL    HW120672   2.745   1.075  16.888 -0.3616 -0.3566 -0.7925
 3012SOL    HW220673   2.745   1.136  17.030 -0.5427  2.4949 -0.1276
 3013SOL     OW20674   3.371   1.427   7.229  0.0173 -0.3156  0.3157
 3013SOL    HW120675   3.390   1.488   7.300  1.1680 -0.1488 -0.1275
 3013SOL    HW220676   3.459   1.389   7.222 -0.3244 -1.0308 -0.1202
 3014SOL     OW20677   1.548   1.761   0.903  0.2772 -0.2255 -0.2328
 3014SOL    HW120678   1.458   1.786   0.884  0.7373  3.2521  2.0709
 3014SOL    HW220679   1.533   1.674   0.937  1.7736  0.0968  1.2116
 3015SOL     OW20680   0.919   2.951   2.911  0.6175  0.1908  0.1471
 3015SOL    HW120681   1.001   2.971   2.955  0.2072 -1.5410  1.6832
 3015SOL    HW220682   0.931   3.003   2.831  1.7162 -0.4765 -0.1213
 3016SOL     OW20683   4.518   0.575   5.049  0.4642  0.1783  0.6669
 3016SOL    HW120684   4.610   0.575   5.025  0.1880  0.1150 -0.4125
 3016SOL    HW220685   4.522   0.503   5.111 -0.4094 -0.8024 -0.4084
 3017SOL     OW20686   4.270   4.629  14.862  0.3461  0.3847 -0.5235
 3017SOL    HW120687   4.269   4.717  14.825 -0.0589  1.2429  1.5658
 3017SOL    HW220688   4.185   4.593  14.834  0.3405  0.9751 -1.2567
 3018SOL     OW20689   2.538   3.215   5.837 -0.3915  0.2131 -0.1935
 3018SOL    HW120690   2.571   3.299   5.805  2.2996 -1.2354 -1.2346
 3018SOL    HW220691   2.562   3.222   5.929 -1.7306  0.6519  0.1138
 3019SOL     OW20692   3.666   0.060  16.007 -0.3851  0.0143  0.1872
 3019SOL    HW120693   3.676   4.703  16.016 -2.6513 -0.1816  0.6254
 3019SOL    HW220694   3.617   0.066  15.925 -1.4773 -3.1599  0.5998
 3020SOL     OW20695   4.641   2.950  16.898 -0.0074 -0.5227 -0.3174
 3020SOL    HW120696   4.586   2.929  16.822 -1.0040  0.0569  0.2424
 3020SOL    HW220697   4.603   3.028  16.939  1.6697  0.1893 -0.1312
 3021SOL     OW20698   4.505   1.041   5.890  0.4447 -0.0815 -0.7934
 3021SOL    HW120699   4.531   1.088   5.969  1.0580  2.0540 -2.2533
 3021SOL    HW220700   4.588   1.021   5.847  1.2774 -0.3443  0.9387
 3022SOL     OW20701   2.374   2.071  14.889  0.2232 -0.1820  0.5726
 3022SOL    HW120702   2.352   2.123  14.966  0.9606  1.1393 -0.1075
 3022SOL    HW220703   2.355   2.134  14.820  1.3080  1.6691  1.9710
 3023SOL     OW20704   0.085   3.591  16.332  0.7007 -0.0748 -0.2832
 3023SOL    HW120705   0.064   3.601  16.239  1.6701  1.9567 -0.2714
 3023SOL    HW220706   0.169   3.637  16.332  0.4981  0.2990  0.0085
 3024SOL     OW20707   0.664   1.657  13.835 -0.4320 -0.1480 -0.0667
 3024SOL    HW120708   0.630   1.727  13.779  0.1600  0.4273  0.2936
 3024SOL    HW220709   0.757   1.672  13.818 -0.4681  1.2290  0.9042
 3025SOL     OW20710   2.268   2.099   2.940  0.4410  0.4471  0.0327
 3025SOL    HW120711   2.231   2.055   2.864  1.2146  0.5656 -0.4070
 3025SOL    HW220712   2.213   2.177   2.956  0.3993  0.5590 -0.6734
 3026SOL     OW20713   0.972   4.168  12.173  0.3662 -0.0340 -0.1684
 3026SOL    HW120714   1.024   4.167  12.254  0.5416 -1.6196 -0.2968
 3026SOL    HW220715   0.891   4.216  12.187 -0.2135 -1.0998  0.1496
 3027SOL     OW20716   4.635   4.283   1.825  0.5188  0.2960  0.5790
 3027SOL    HW120717   4.560   4.293   1.767  0.8683  1.0636  0.2617
 3027SOL    HW220718   4.647   4.190   1.845 -1.9490  0.0033  0.7341
 3028SOL     OW20719   1.097   0.419   9.405  0.2544  0.4491  0.0631
 3028SOL    HW120720   1.022   0.478   9.414  0.0646  0.2583 -0.2480
 3028SOL    HW220721   1.176   0.465   9.377  0.9764 -0.1034  1.1869
 3029SOL     OW20722   0.885   1.348   6.880  0.1994 -0.5524  0.7473
 3029SOL    HW120723   0.926   1.353   6.966  0.7469 -2.2795  0.5943
 3029SOL    HW220724   0.832   1.426   6.865  0.1448 -0.4971  1.2469
 3030SOL     OW20725   3.619   0.210  14.590 -0.3762  0.4663  0.6002
 3030SOL    HW120726   3.638   0.242  14.502 -0.2445 -1.0931  0.0576
 3030SOL    HW220727   3.683   0.139  14.581 -1.4645 -0.6838  1.9478
 3031SOL     OW20728   1.953   2.304  16.977  0.7198 -0.1494 -0.5327
 3031SOL    HW120729   1.912   2.237  17.031  0.2298 -0.8949 -1.8170
 3031SOL    HW220730   2.024   2.255  16.934 -0.3467 -1.2000 -1.0907
 3032SOL     OW20731   3.718   1.268   2.441 -0.2970  0.1211  0.1397
 3032SOL    HW120732   3.657   1.339   2.418 -1.6641 -1.0837  0.0242
 3032SOL    HW220733   3.710   1.210   2.366 -0.5010 -0.2984  0.4832
 3033SOL     OW20734   1.806   4.470   8.962  0.3870 -0.1633 -0.5187
 3033SOL    HW120735   1.878   4.500   9.017 -0.4600 -0.6659  0.8680
 3033SOL    HW220736   1.848   4.416   8.895  3.3832 -1.8848  2.7734
 3034SOL     OW20737   3.561   3.968  13.404  0.2448  0.3445 -0.6084
 3034SOL    HW120738   3.518   4.036  13.351  1.2299 -0.5310 -2.5405
 3034SOL    HW220739   3.548   4.003  13.492 -3.0831  2.9434 -2.1104
 3035SOL     OW20740   0.083   1.412   6.727 -0.3541 -0.3479  0.1847
 3035SOL    HW120741   0.049   1.427   6.639  0.2106  2.4322  0.4416
 3035SOL    HW220742   0.057   1.492   6.773  0.9987  1.5592 -2.3405
 3036SOL     OW20743   1.152   1.414   9.072 -0.0773 -0.3050 -0.0599
 3036SOL    HW120744   1.207   1.427   8.995  2.3848 -0.2492  1.7346
 3036SOL    HW220745   1.175   1.491   9.123 -0.8758  0.9422 -1.5565
 3037SOL     OW20746   3.041   1.580   1.293 -0.4243  0.3032 -0.3021
 3037SOL    HW120747   3.028   1.493   1.255  2.0139  0.0114 -0.4493
 3037SOL    HW220748   3.088   1.554   1.372  1.7746 -1.0019 -2.0258
 3038SOL     OW20749   4.263   0.451  13.802 -0.8139  0.3861  0.0334
 3038SOL    HW120750   4.216   0.473  13.882  0.9818  0.1690  1.1709
 3038SOL    HW220751   4.262   0.355  13.799  3.0278  0.2439  2.5062
 3039SOL     OW20752   1.284   3.009  14.248 -0.5886 -0.1986 -0.2362
 3039SOL    HW120753   1.243   3.029  14.332 -1.8704  0.7931 -1.1051
 3039SOL    HW220754   1.210   3.019  14.189  0.4031  1.9980 -1.0885
 3040SOL     OW20755   0.414   3.272   4.939  0.2231  0.7356  0.7109
 3040SOL    HW120756   0.430   3.206   5.007  0.8430  0.7235  0.5592
 3040SOL    HW220757   0.451   3.230   4.861  0.5699  0.9704  0.7454
 3041SOL     OW20758   2.625   1.768   2.831  0.0425 -0.4353 -0.2048
 3041SOL    HW120759   2.582   1.691   2.869 -0.2899  0.5089  1.3369
 3041SOL    HW220760   2.585   1.830   2.892 -0.2312  1.3769 -2.2424
 3042SOL     OW20761   4.565   2.887  16.600  0.0864  0.2074  0.5062
 3042SOL    HW120762   4.505   2.858  16.531 -1.3832  1.5565  1.2127
 3042SOL    HW220763   4.512   2.965  16.620  0.8504  0.0832  2.9359
 3043SOL     OW20764   4.504   2.021   9.272 -0.4702 -0.4014 -0.5983
 3043SOL    HW120765   4.543   2.092   9.322 -1.5260 -0.0115 -0.3450
 3043SOL    HW220766   4.499   1.951   9.338 -2.0323  1.0207  0.7835
 3044SOL     OW20767   4.126   3.949   5.228  0.1118  0.4450  0.2759
 3044SOL    HW120768   4.089   3.890   5.294  0.9229 -0.1804  0.1759
 3044SOL    HW220769   4.216   3.919   5.243  0.4169  0.8862 -0.7195
 3045SOL     OW20770   4.573   0.768  15.979 -0.0083 -0.1023 -0.1548
 3045SOL    HW120771   4.556   0.855  16.014  2.6450  1.6637 -3.2278
 3045SOL    HW220772   4.584   0.786  15.886 -0.5544  1.7795  0.1439
 3046SOL     OW20773   3.357   0.640  14.784  0.3776 -0.3951 -0.2293
 3046SOL    HW120774   3.417   0.605  14.719  2.7360 -0.3918  1.9575
 3046SOL    HW220775   3.275   0.647  14.735  0.7040  0.1615 -0.6990
 3047SOL     OW20776   4.550   3.520   6.344 -0.1153 -0.2648 -0.3386
 3047SOL    HW120777   4.551   3.578   6.420 -1.0664 -0.4117 -0.2153
 3047SOL    HW220778   4.585   3.442   6.386 -1.4762 -1.5152 -1.5339
 3048SOL     OW20779   3.842   4.571  11.390  0.6199  0.2368  0.3305
 3048SOL    HW120780   3.832   4.651  11.441  0.0549 -0.0657  0.7068
 3048SOL    HW220781   3.770   4.582  11.327  1.4898  2.1983 -0.3211
 3049SOL     OW20782   0.107   4.097   4.964  0.1000  0.2526  0.1270
 3049SOL    HW120783   0.048   4.163   5.001  1.6857  1.3517  0.7231
 3049SOL    HW220784   0.041   4.061   4.905  0.1782 -2.4581  1.6946
 3050SOL     OW20785   3.804   4.570   2.972 -0.9414  0.3750 -0.1295
 3050SOL    HW120786   3.801   4.565   3.067 -0.6890 -0.2766 -0.1559
 3050SOL    HW220787   3.711   4.564   2.951 -1.1646 -0.7047  1.1980
 3051SOL     OW20788   0.514   4.508   4.451 -0.2527  0.3929 -1.3088
 3051SOL    HW120789   0.500   4.453   4.529  0.2619  2.5498  0.2824
 3051SOL    HW220790   0.424   4.525   4.423  0.1097  3.4506 -0.5172
 3052SOL     OW20791   1.193   3.662  10.320 -0.3413  0.4979 -0.2549
 3052SOL    HW120792   1.272   3.628  10.363 -0.4239  2.3674  1.3556
 3052SOL    HW220793   1.186   3.754  10.343 -3.0650  0.4960 -1.0875
 3053SOL     OW20794   0.012   3.298   0.026  0.7225 -0.3895 -0.2058
 3053SOL    HW120795   4.669   3.335  17.737  0.7579 -0.1162 -0.0177
 3053SOL    HW220796   4.710   3.251   0.099  1.5723  1.5101  1.4833
 3054SOL     OW20797   4.161   0.786   5.123  0.0903 -0.4486 -0.3098
 3054SOL    HW120798   4.148   0.785   5.028 -0.4149  1.8699 -0.2813
 3054SOL    HW220799   4.113   0.710   5.155  1.5870 -1.6067 -0.8047
 3055SOL     OW20800   1.382   2.597  15.986 -0.5323  0.1790  0.0795
 3055SOL    HW120801   1.459   2.641  16.022 -0.5726  1.4435 -1.3888
 3055SOL    HW220802   1.370   2.540  16.062 -1.1141  1.1667  0.7285
 3056SOL     OW20803   0.373   0.123  12.764 -0.1725  0.6557 -0.3543
 3056SOL    HW120804   0.343   0.156  12.680 -1.4413  1.0906  0.2738
 3056SOL    HW220805   0.302   0.079  12.811  0.3075  1.4594  1.1275
 3057SOL     OW20806   1.342   4.065   8.555  0.1780 -0.3420 -0.2212
 3057SOL    HW120807   1.376   4.154   8.543 -1.1579 -0.0231 -1.5947
 3057SOL    HW220808   1.249   4.086   8.567  0.4575  1.6350 -1.6047
 3058SOL     OW20809   3.296   0.589   7.360 -0.1710 -0.3558  1.1083
 3058SOL    HW120810   3.298   0.617   7.269  0.0614 -1.1590  0.8686
 3058SOL    HW220811   3.302   0.675   7.402  1.4115  0.1009 -0.0507
 3059SOL     OW20812   1.635   3.509  10.727  0.0608  0.2207  0.1867
 3059SOL    HW120813   1.602   3.599  10.721  1.1563  0.5482 -0.9779
 3059SOL    HW220814   1.569   3.453  10.688  0.3360  0.2081 -0.2567
 3060SOL     OW20815   4.688   1.280   2.924  0.3936  0.2430 -0.3893
 3060SOL    HW120816   4.601   1.241   2.929  0.0370  1.3438  2.0568
 3060SOL    HW220817   0.001   1.240   2.995 -0.4406  0.1687  0.1758
 3061SOL     OW20818   1.096   2.412   0.095  0.6967  0.1257  0.0990
 3061SOL    HW120819   1.122   2.478   0.030  0.6768 -0.0502 -0.0859
 3061SOL    HW220820   1.001   2.423   0.091  0.6237 -0.4229  0.4685
 3062SOL     OW20821   4.143   4.477  13.618  0.4385 -0.3856  0.2026
 3062SOL    HW120822   4.173   4.402  13.566 -0.0604 -0.6468  0.2867
 3062SOL    HW220823   4.057   4.446  13.645 -0.4860  1.7353 -0.2687
 3063SOL     OW20824   1.178   0.014   8.215 -0.1063 -1.0047  0.4173
 3063SOL    HW120825   1.200   0.090   8.161  0.4959 -1.0684  0.5718
 3063SOL    HW220826   1.153   0.053   8.299 -3.3884 -0.4143 -0.8417
 3064SOL     OW20827   3.693   1.174  13.054 -0.1290 -0.2845  0.3074
 3064SOL    HW120828   3.719   1.231  12.982 -3.0311 -1.0547 -1.3593
 3064SOL    HW220829   3.598   1.176  13.038 -0.1362  0.5816  0.4805
 3065SOL     OW20830   3.240   1.327   6.907  0.0392 -0.4268 -0.2086
 3065SOL    HW120831   3.201   1.239   6.906 -0.4120 -0.2601  1.7233
 3065SOL    HW220832   3.332   1.304   6.922 -0.9616 -2.7708  2.3177
 3066SOL     OW20833   3.081   2.574   4.172  0.5182 -0.1230 -0.3973
 3066SOL    HW120834   3.012   2.628   4.210 -0.6031 -1.7519 -0.0953
 3066SOL    HW220835   3.056   2.578   4.080 -0.1176 -0.5041 -0.2446
 3067SOL     OW20836   3.410   0.396  12.498 -0.4384 -0.6813 -0.1978
 3067SOL    HW120837   3.421   0.483  12.537 -4.0383 -0.1170 -0.4277
 3067SOL    HW220838   3.429   0.336  12.570  1.0453  1.5447  1.2633
 3068SOL     OW20839   1.992   1.457   3.473  0.0200 -0.3565  0.3523
 3068SOL    HW120840   2.033   1.492   3.394 -2.3768  1.6139 -0.0043
 3068SOL    HW220841   1.963   1.374   3.436 -1.5314 -0.4515  1.7632
 3069SOL     OW20842   3.267   1.578   7.472  0.2546  0.0741 -1.1555
 3069SOL    HW120843   3.330   1.523   7.520 -1.5215 -1.5860 -0.7298
 3069SOL    HW220844   3.329   1.648   7.451  0.1162  0.3100 -0.7788
 3070SOL     OW20845   0.994   0.451   6.363 -0.4757 -0.4113  0.0006
 3070SOL    HW120846   1.057   0.523   6.370 -1.8090  0.7132  0.2699
 3070SOL    HW220847   0.942   0.476   6.287 -1.8059 -2.4360  0.2367
 3071SOL     OW20848   4.251   3.995  17.613  0.1099 -0.8496  0.3598
 3071SOL    HW120849   4.163   3.969  17.586  0.7600 -0.2916 -2.3473
 3071SOL    HW220850   4.291   3.909  17.624  2.1872  0.1483  0.6694
 3072SOL     OW20851   2.468   4.341   8.788  0.0488  0.5781 -0.2369
 3072SOL    HW120852   2.514   4.266   8.826 -1.7113 -0.1469  0.4828
 3072SOL    HW220853   2.539   4.391   8.748  0.0944  0.4051 -0.3744
 3073SOL     OW20854   2.733   2.917   3.271  0.2125 -0.3990  0.3196
 3073SOL    HW120855   2.688   2.906   3.354 -1.8411  0.5824 -0.6760
 3073SOL    HW220856   2.816   2.961   3.290 -0.0424 -0.2784  1.1443
 3074SOL     OW20857   1.621   4.011  10.796 -0.5669 -0.3162 -0.0213
 3074SOL    HW120858   1.708   4.049  10.805 -0.8943  0.6981 -1.2189
 3074SOL    HW220859   1.567   4.085  10.769 -0.7061 -1.3394 -2.5895
 3075SOL     OW20860   0.361   2.286  15.635 -0.1938 -1.0209 -0.6054
 3075SOL    HW120861   0.445   2.278  15.681 -0.0026  0.6493 -0.6541
 3075SOL    HW220862   0.346   2.192  15.630 -2.0377 -0.7147 -0.6733
 3076SOL     OW20863   1.331   4.482   3.686  0.4226  0.1245  0.3131
 3076SOL    HW120864   1.283   4.546   3.739  0.4776 -0.5292  1.1510
 3076SOL    HW220865   1.352   4.416   3.753  1.2309  0.9596  0.8886
 3077SOL     OW20866   0.308   1.332   6.127 -0.3848  0.2907 -0.1728
 3077SOL    HW120867   0.397   1.303   6.106 -0.8435 -1.6072  0.5929
 3077SOL    HW220868   0.312   1.419   6.087 -1.0287 -0.5141 -2.0025
 3078SOL     OW20869   3.501   2.117   7.668 -0.4652  0.2081  0.1578
 3078SOL    HW120870   3.431   2.082   7.614  1.0537 -1.9475 -0.3999
 3078SOL    HW220871   3.570   2.097   7.605  1.0963  2.0091  1.2604
 3079SOL     OW20872   1.860   1.407   4.307  0.2574  0.0162  0.1940
 3079SOL    HW120873   1.896   1.489   4.272 -0.3115  0.2085  0.0548
 3079SOL    HW220874   1.799   1.445   4.371  1.6485  1.0110  0.9339
 3080SOL     OW20875   1.328   3.610   4.854  0.5705  0.8219  0.2468
 3080SOL    HW120876   1.292   3.648   4.774 -0.0655 -2.0270 -0.7971
 3080SOL    HW220877   1.261   3.553   4.890  0.4856 -0.3710 -1.8144
 3081SOL     OW20878   1.455   1.756   2.600 -0.2191 -0.1846  0.0853
 3081SOL    HW120879   1.396   1.784   2.531  0.3523 -0.9858 -0.7237
 3081SOL    HW220880   1.416   1.814   2.665  1.3298 -0.3904  1.2002
 3082SOL     OW20881   2.126   0.689   4.832  0.3703 -0.0433  0.4409
 3082SOL    HW120882   2.116   0.595   4.817  2.5931  0.1427 -2.3711
 3082SOL    HW220883   2.220   0.707   4.820  1.0450 -1.2020  4.1839
 3083SOL     OW20884   0.625   1.699   0.541 -0.4424 -0.2777 -0.5398
 3083SOL    HW120885   0.666   1.613   0.553  2.6006  1.0599 -1.3729
 3083SOL    HW220886   0.703   1.751   0.519 -0.2330 -0.6773 -0.7408
 3084SOL     OW20887   0.185   2.614   3.550  0.0711  0.0354  0.3598
 3084SOL    HW120888   0.100   2.575   3.531 -0.4650  1.2395  0.2656
 3084SOL    HW220889   0.234   2.532   3.558 -1.3110 -0.8388 -0.2587
 3085SOL     OW20890   0.871   0.133  13.293 -0.0283 -0.2116  0.1082
 3085SOL    HW120891   0.844   0.159  13.381 -2.9556 -0.0480 -0.8370
 3085SOL    HW220892   0.797   0.104  13.240  0.6961  0.8645 -1.4846
 3086SOL     OW20893   4.117   1.090   5.668 -0.3204  0.2079 -0.3351
 3086SOL    HW120894   4.189   1.132   5.715  0.5097 -0.2212 -1.2222
 3086SOL    HW220895   4.168   1.046   5.599  0.2684  1.2494 -0.5720
 3087SOL     OW20896   2.663   1.268   2.334 -0.1094  0.3486  0.2840
 3087SOL    HW120897   2.727   1.220   2.281 -1.9855  0.2666 -1.9265
 3087SOL    HW220898   2.594   1.269   2.268  0.5271 -0.6381 -0.3940
 3088SOL     OW20899   1.214   0.730   6.031  0.1410 -0.2869 -0.3398
 3088SOL    HW120900   1.157   0.788   6.080  1.4300  1.0436 -0.4400
 3088SOL    HW220901   1.231   0.776   5.948  0.0271  0.8275  0.2641
 3089SOL     OW20902   2.080   1.087   2.196 -0.6856  0.2396  0.8342
 3089SOL    HW120903   2.038   1.101   2.112  1.1876 -1.3890 -0.3570
 3089SOL    HW220904   2.126   1.007   2.173 -1.8103  0.5408 -2.4121
 3090SOL     OW20905   2.445   0.158   2.495  0.8411  0.0562 -0.5289
 3090SOL    HW120906   2.411   0.126   2.578  0.4333  0.8113 -0.4047
 3090SOL    HW220907   2.377   0.115   2.444  0.7299 -1.0208  0.5385
 3091SOL     OW20908   3.972   2.377   5.355  0.5942 -0.2193  0.2957
 3091SOL    HW120909   3.884   2.349   5.331  0.0515  0.7248  1.2019
 3091SOL    HW220910   4.001   2.396   5.266  0.2951  0.0464  0.2558
 3092SOL     OW20911   1.763   2.633   3.352 -0.0558  0.9825  0.2696
 3092SOL    HW120912   1.748   2.726   3.370 -1.4713  0.8362 -0.2004
 3092SOL    HW220913   1.696   2.592   3.406  0.3557 -0.8209 -0.5908
 3093SOL     OW20914   3.094   1.026   5.004 -0.4684  0.1409  0.0108
 3093SOL    HW120915   3.132   1.114   5.003 -0.4931  0.1539  0.3139
 3093SOL    HW220916   3.005   1.040   4.974  1.2679  1.0531 -4.8554
 3094SOL     OW20917   4.710   0.613  16.149 -0.8511 -0.4951 -0.0450
 3094SOL    HW120918   4.670   0.675  16.088  0.5658  0.2197 -0.2320
 3094SOL    HW220919   4.626   0.580  16.183 -2.7283  4.5510  0.2864
 3095SOL     OW20920   2.655   3.720   4.994 -0.3663 -0.0389 -0.3529
 3095SOL    HW120921   2.651   3.747   5.086 -1.7779  0.9682 -0.7112
 3095SOL    HW220922   2.750   3.734   4.986 -0.7309  2.5311 -0.4043
 3096SOL     OW20923   1.875   3.190   3.049  0.3765  0.1885 -0.1865
 3096SOL    HW120924   1.960   3.209   3.089  0.3488  1.7864 -0.8723
 3096SOL    HW220925   1.896   3.097   3.042 -0.6483  0.0683 -1.7564
 3097SOL     OW20926   1.687   4.004  14.194 -0.7558 -0.0935  0.1426
 3097SOL    HW120927   1.661   4.034  14.281  0.3390  2.2736 -0.3444
 3097SOL    HW220928   1.749   4.071  14.165  0.3186 -2.0440 -2.0384
 3098SOL     OW20929   3.617   0.234   9.479  0.0963  0.1347 -0.0867
 3098SOL    HW120930   3.639   0.196   9.564 -0.2888  3.2576  1.4159
 3098SOL    HW220931   3.670   0.313   9.489  0.7959 -0.4358  0.6411
 3099SOL     OW20932   1.943   3.068   1.983  0.1766 -0.1625 -0.4973
 3099SOL    HW120933   1.888   3.146   1.981 -0.4507 -0.5827  0.3651
 3099SOL    HW220934   1.953   3.046   1.891  0.1472 -0.4721 -0.4260
 3100SOL     OW20935   0.902   4.201   7.946 -0.6004 -0.6087  0.6172
 3100SOL    HW120936   0.836   4.162   7.888  0.6341 -1.1526 -0.4314
 3100SOL    HW220937   0.904   4.292   7.917  0.5462 -0.8723 -0.1475
 3101SOL     OW20938   0.894   0.025  16.601  0.3897 -0.1348 -0.0406
 3101SOL    HW120939   0.979   0.068  16.593  0.1820  0.3816  0.5211
 3101SOL    HW220940   0.916   4.674  16.573  1.1603 -0.2429  0.8938
 3102SOL     OW20941   3.631   3.780   6.242 -0.0254 -0.7820 -0.1905
 3102SOL    HW120942   3.569   3.843   6.279 -1.5220  0.2533 -4.3772
 3102SOL    HW220943   3.566   3.716   6.211  0.9152 -2.0642  0.5101
 3103SOL     OW20944   4.246   0.239   0.760 -0.1570  0.0482 -0.4276
 3103SOL    HW120945   4.296   0.193   0.827  2.6954  2.6423 -0.7739
 3103SOL    HW220946   4.306   0.230   0.686 -0.8002 -0.5423 -0.8807
 3104SOL     OW20947   0.138   0.727   4.624 -0.1928  0.2908 -0.1260
 3104SOL    HW120948   0.150   0.642   4.668 -3.2439 -1.0873 -1.9726
 3104SOL    HW220949   0.102   0.707   4.537 -0.0424 -1.2934  0.1708
 3105SOL     OW20950   2.486   4.194   2.202  0.0493  0.2984 -0.1330
 3105SOL    HW120951   2.569   4.167   2.162  0.6729 -0.8171  1.9500
 3105SOL    HW220952   2.434   4.117   2.179 -1.5673  1.2882  0.1673
 3106SOL     OW20953   2.236   0.515   1.842 -0.7403  0.4750 -0.0719
 3106SOL    HW120954   2.286   0.435   1.826  0.3239  1.4055 -1.3122
 3106SOL    HW220955   2.297   0.565   1.789 -0.0792 -0.9492 -0.6474
 3107SOL     OW20956   3.077   3.938   4.262 -0.1570 -0.1465  0.3538
 3107SOL    HW120957   3.052   3.981   4.180 -0.6534  0.4448  0.8186
 3107SOL    HW220958   2.994   3.904   4.296 -1.8649  3.3242 -0.3628
 3108SOL     OW20959   3.719   2.899   6.867  0.1315  0.2606 -0.7683
 3108SOL    HW120960   3.762   2.964   6.812 -3.0761  0.4579 -3.0563
 3108SOL    HW220961   3.777   2.884   6.942  2.4616 -1.5670 -2.9806
 3109SOL     OW20962   2.269   0.474   7.686 -0.3691 -0.3037  0.5365
 3109SOL    HW120963   2.342   0.453   7.628 -2.4859 -1.8242 -1.5402
 3109SOL    HW220964   2.195   0.487   7.627  1.6286  0.7273 -1.7177
 3110SOL     OW20965   0.120   4.686   1.794 -0.2678  0.4574  0.0483
 3110SOL    HW120966   0.046   4.700   1.853  0.7309  1.7981  0.9848
 3110SOL    HW220967   0.189   4.736   1.838 -0.3396 -0.4210  1.1542
 3111SOL     OW20968   3.498   3.906   8.440  0.0611  0.3090  0.3910
 3111SOL    HW120969   3.450   3.944   8.367  2.0289 -0.9330 -1.5800
 3111SOL    HW220970   3.452   3.823   8.453  1.8801 -1.0451 -1.6908
 3112SOL     OW20971   1.330   0.271   0.901  0.2724 -0.4026 -0.2149
 3112SOL    HW120972   1.300   0.355   0.865 -2.8063 -1.6161 -0.5569
 3112SOL    HW220973   1.348   0.224   0.820  1.5319 -1.2131  0.5462
 3113SOL     OW20974   0.223   4.395   9.390  0.1361  0.1552  0.0017
 3113SOL    HW120975   0.255   4.407   9.300  0.4374  1.5808  0.3073
 3113SOL    HW220976   0.131   4.378   9.367 -0.2381 -0.2315  1.7899
 3114SOL     OW20977   0.293   1.631   2.495 -0.0237 -0.3062 -0.1233
 3114SOL    HW120978   0.313   1.561   2.433 -0.0252  0.9523 -1.5246
 3114SOL    HW220979   0.223   1.585   2.541  1.1858 -0.5804  1.4559
 3115SOL     OW20980   0.694   3.639   5.441  0.0710  0.1142  0.5939
 3115SOL    HW120981   0.716   3.666   5.531  1.3231  2.3233 -0.3793
 3115SOL    HW220982   0.632   3.708   5.418  0.2211 -0.3076 -1.0190
 3116SOL     OW20983   4.228   4.538  17.045 -0.3494  0.4131 -0.1242
 3116SOL    HW120984   4.256   4.581  16.964  1.1939  0.6735  0.5539
 3116SOL    HW220985   4.261   4.597  17.113 -0.4490  0.0990  0.1973
 3117SOL     OW20986   3.695   3.489   9.284  0.7454 -0.2609  0.0885
 3117SOL    HW120987   3.720   3.401   9.312 -0.7077 -0.3170  1.2357
 3117SOL    HW220988   3.599   3.494   9.276  0.7537  1.6174  1.0010
 3118SOL     OW20989   4.703   4.456   8.712  0.0088 -0.4540  0.0289
 3118SOL    HW120990   4.656   4.514   8.652 -0.7536 -0.5338  0.5422
 3118SOL    HW220991   4.726   4.379   8.660 -1.7330 -0.4652 -0.7264
 3119SOL     OW20992   2.926   0.730   8.533 -0.2970 -0.0680 -0.2002
 3119SOL    HW120993   2.930   0.825   8.520  2.9297 -0.0133  1.1706
 3119SOL    HW220994   2.927   0.696   8.444  1.8492  2.1413 -1.0250
 3120SOL     OW20995   3.132   3.263   2.865  0.1979  0.4958  0.7959
 3120SOL    HW120996   3.147   3.356   2.846  0.3103  0.6883  1.8362
 3120SOL    HW220997   3.044   3.266   2.827 -0.1779 -1.0786  1.5342
 3121SOL     OW20998   1.048   1.924   8.783 -0.2095  0.1383  0.4307
 3121SOL    HW120999   1.111   1.995   8.770 -1.1467  1.0355  0.7644
 3121SOL    HW221000   0.968   1.971   8.760  0.2492 -0.2577 -1.9310
 3122SOL     OW21001   0.936   3.503   6.741  0.5365  0.1584  0.1036
 3122SOL    HW121002   0.842   3.498   6.758  0.1197  1.3923 -1.7822
 3122SOL    HW221003   0.963   3.425   6.790  1.2487  0.9224  0.9176
 3123SOL     OW21004   2.065   2.446   4.177 -0.3771 -0.1763  0.4391
 3123SOL    HW121005   1.993   2.435   4.239  0.5823  0.1372  1.5931
 3123SOL    HW221006   2.014   2.485   4.106 -0.7585  1.3521  1.5535
 3124SOL     OW21007   0.636   0.956   2.961  0.0372 -0.5374  0.3487
 3124SOL    HW121008   0.573   0.981   2.894  1.2503 -1.5836 -1.1740
 3124SOL    HW221009   0.598   0.990   3.042 -0.4570 -0.7616  0.2100
 3125SOL     OW21010   2.273   2.377   5.693 -0.1111 -0.2894  0.3611
 3125SOL    HW121011   2.180   2.369   5.669 -0.2152  0.8095  0.3948
 3125SOL    HW221012   2.316   2.315   5.634  1.2642  1.4748 -0.4785
 3126SOL     OW21013   1.291   2.989   3.662 -0.1654  0.0460  0.4946
 3126SOL    HW121014   1.318   2.898   3.671 -0.9079  0.0201  2.5169
 3126SOL    HW221015   1.231   3.000   3.736  2.4974  2.8611  2.1956
 3127SOL     OW21016   2.350   2.668   3.159  0.4171  0.1723  0.1055
 3127SOL    HW121017   2.297   2.746   3.170 -1.3822 -1.1901  1.0035
 3127SOL    HW221018   2.336   2.662   3.064  0.6429  0.6374  0.0416
 3128SOL     OW21019   0.128   1.890   7.663  0.5676  0.4566 -0.0355
 3128SOL    HW121020   0.104   1.939   7.741 -0.6586 -1.7580  0.9621
 3128SOL    HW221021   0.143   1.954   7.594  1.6028 -1.8343 -1.9708
 3129SOL     OW21022   2.822   4.420  14.369  0.0748  0.1944  0.1400
 3129SOL    HW121023   2.812   4.417  14.464 -4.1882 -1.7740 -0.3716
 3129SOL    HW221024   2.911   4.448  14.347  0.4585 -1.1943 -0.1013
 3130SOL     OW21025   0.994   2.572   9.060  0.0665 -0.0944  0.0173
 3130SOL    HW121026   1.019   2.529   8.978  1.3381 -1.3435  1.0587
 3130SOL    HW221027   1.075   2.579   9.111 -0.3581  1.1585  0.5168
 3131SOL     OW21028   4.055   0.186   3.539  0.4261 -0.6619  0.0272
 3131SOL    HW121029   4.100   0.268   3.519  1.2656 -1.5078 -1.5274
 3131SOL    HW221030   4.129   0.127   3.555 -0.4716 -1.7421  0.1929
 3132SOL     OW21031   0.963   3.027   4.994  0.8502 -0.5177 -0.2743
 3132SOL    HW121032   1.045   3.059   5.032  0.8174  0.5435 -1.0714
 3132SOL    HW221033   0.965   2.945   5.042  1.0131 -0.7093 -0.6105
 3133SOL     OW21034   4.397   2.519   2.473 -0.0162 -0.4055 -0.1755
 3133SOL    HW121035   4.379   2.462   2.399 -0.6094  0.3734 -0.6369
 3133SOL    HW221036   4.362   2.604   2.445 -1.2817 -0.8076  0.2304
 3134SOL     OW21037   2.891   0.426   6.319  0.5423  0.2767 -0.4003
 3134SOL    HW121038   2.944   0.488   6.268  0.4641  1.9654  1.5805
 3134SOL    HW221039   2.843   0.485   6.377 -0.2250  2.8664 -3.6520
 3135SOL     OW21040   4.262   3.132  16.464 -0.1064 -0.3229 -0.2685
 3135SOL    HW121041   4.260   3.070  16.537  1.7417 -1.5302 -1.2416
 3135SOL    HW221042   4.351   3.120  16.431  0.0656 -0.2151  0.1587
 3136SOL     OW21043   0.966   3.576   9.015 -0.7117 -0.2211 -0.0651
 3136SOL    HW121044   0.994   3.665   8.992 -0.8325  0.2982  1.8163
 3136SOL    HW221045   0.871   3.586   9.017 -0.4736  1.3929  2.4101
 3137SOL     OW21046   3.484   0.142   4.525  0.3934 -0.2028  0.3550
 3137SOL    HW121047   3.475   0.121   4.432 -1.2518  1.3627  0.1561
 3137SOL    HW221048   3.578   0.121   4.534  0.7230  0.6164 -1.2639
 3138SOL     OW21049   1.984   3.312   8.655  0.5548  0.1187 -1.2454
 3138SOL    HW121050   1.927   3.281   8.584  0.1437 -2.5989  0.2617
 3138SOL    HW221051   1.933   3.388   8.683  0.8211 -0.1037 -0.1534
 3139SOL     OW21052   3.417   2.236   2.584 -0.0752  0.3771  0.1510
 3139SOL    HW121053   3.452   2.147   2.582 -1.2007 -0.0807  1.0748
 3139SOL    HW221054   3.503   2.272   2.563 -0.6017  0.4022 -1.8918
 3140SOL     OW21055   2.520   3.343   3.606  0.2231 -0.3167  0.0520
 3140SOL    HW121056   2.465   3.343   3.528 -0.8627 -0.7705  0.8273
 3140SOL    HW221057   2.473   3.407   3.659  1.6978  0.2804  0.6537
 3141SOL     OW21058   3.746   4.694   4.410  0.7627  0.0547 -0.8870
 3141SOL    HW121059   3.699   4.613   4.428 -0.0414  1.2167  2.1787
 3141SOL    HW221060   3.838   4.680   4.434  1.0864  1.1758 -1.5050
 3142SOL     OW21061   4.237   0.195   6.140 -0.2450 -0.0686  0.8171
 3142SOL    HW121062   4.319   0.238   6.116 -0.4857  2.3756  4.5646
 3142SOL    HW221063   4.252   0.172   6.231 -3.8027  0.0263  1.4130
 3143SOL     OW21064   2.955   0.338   2.953 -0.0339  0.5683 -0.0821
 3143SOL    HW121065   2.929   0.295   2.871  0.3078  0.6413 -0.2305
 3143SOL    HW221066   2.943   0.262   3.009 -0.3185  0.4846 -0.2567
 3144SOL     OW21067   4.036   4.433  14.274 -0.4875  0.1498 -0.3110
 3144SOL    HW121068   4.092   4.471  14.206  1.8617 -1.1691  0.8588
 3144SOL    HW221069   4.087   4.359  14.308 -0.2053  0.8853  0.8701
 3145SOL     OW21070   1.339   2.942   1.726 -0.0203  0.4961 -0.1411
 3145SOL    HW121071   1.269   2.953   1.662  0.9949 -0.0747 -1.3437
 3145SOL    HW221072   1.296   2.976   1.805 -0.3643 -0.8066  0.2359
 3146SOL     OW21073   0.066   1.824  12.963  0.2443  0.2840  0.4303
 3146SOL    HW121074   4.722   1.798  13.004 -0.7239  0.5348 -1.3610
 3146SOL    HW221075   0.106   1.886  13.024  0.8711 -0.4824  0.8037
 3147SOL     OW21076   3.153   0.430   4.702 -0.8019  0.0030 -0.4456
 3147SOL    HW121077   3.065   0.440   4.666  0.4828  3.4506 -2.6285
 3147SOL    HW221078   3.182   0.520   4.687 -1.5668  0.4887  0.9212
 3148SOL     OW21079   2.752   3.201   3.652  0.2256  0.0412 -0.9110
 3148SOL    HW121080   2.685   3.266   3.634 -1.2695 -1.1366  0.3649
 3148SOL    HW221081   2.830   3.245   3.618 -0.3272 -0.1474 -2.3928
 3149SOL     OW21082   4.093   3.179   9.513 -0.3932  0.9189  0.5757
 3149SOL    HW121083   4.090   3.133   9.597  1.3704  0.9239  0.6517
 3149SOL    HW221084   4.082   3.098   9.463 -3.2724  1.7915 -0.2094
 3150SOL     OW21085   2.160   4.466   5.771 -0.3145 -0.0847  0.1625
 3150SOL    HW121086   2.196   4.468   5.682 -1.3531 -2.8344 -0.3148
 3150SOL    HW221087   2.142   4.556   5.797 -2.2409 -0.5171  0.3622
 3151SOL     OW21088   2.237   2.943   5.086 -0.0022  0.4035  1.1088
 3151SOL    HW121089   2.234   3.015   5.023  0.7873 -2.6629 -2.4041
 3151SOL    HW221090   2.147   2.911   5.086  0.5934 -1.2550  1.0557
 3152SOL     OW21091   1.776   2.132   8.316  0.2149 -0.4518 -0.0584
 3152SOL    HW121092   1.854   2.113   8.368  0.0684 -0.1201  0.2741
 3152SOL    HW221093   1.703   2.109   8.372 -1.9383  3.6055 -1.2423
 3153SOL     OW21094   2.455   0.391   8.316  0.1915  0.7851 -0.3449
 3153SOL    HW121095   2.514   0.464   8.334  0.4455 -0.2815  3.0389
 3153SOL    HW221096   2.419   0.419   8.232  0.2104 -0.8427 -0.8879
 3154SOL     OW21097   0.247   0.591  16.815 -0.3085  0.3514  0.3599
 3154SOL    HW121098   0.248   0.647  16.893  0.2861  1.9568 -0.8107
 3154SOL    HW221099   0.211   0.647  16.747 -3.5047 -1.7208  0.3726
 3155SOL     OW21100   4.557   3.913   3.208  0.1984  0.0544 -0.4981
 3155SOL    HW121101   4.617   3.889   3.278  0.6953  1.4674 -0.4588
 3155SOL    HW221102   4.503   3.834   3.196  1.9528 -1.3808  1.0174
 3156SOL     OW21103   1.285   3.987  15.699 -0.3572 -0.3986  0.3506
 3156SOL    HW121104   1.350   4.024  15.758  1.0289 -1.3692 -0.5521
 3156SOL    HW221105   1.336   3.973  15.619 -0.4541 -0.4747  0.3017
 3157SOL     OW21106   3.498   1.182   9.021  0.4546 -0.4856  0.2061
 3157SOL    HW121107   3.432   1.223   8.965  1.1300  0.6841  0.2610
 3157SOL    HW221108   3.439   1.147   9.088 -0.5945  2.2180  0.6814
 3158SOL     OW21109   1.236   4.549   0.092 -0.4861 -0.5873 -0.0387
 3158SOL    HW121110   1.242   4.542  17.746 -0.0986  2.5164 -0.2333
 3158SOL    HW221111   1.183   4.628   0.087  1.4805  0.8283  1.8121
 3159SOL     OW21112   0.263   2.811  17.425 -0.4062 -0.7405 -0.1030
 3159SOL    HW121113   0.244   2.819  17.331 -1.4776  0.3330  0.2046
 3159SOL    HW221114   0.190   2.759  17.458 -1.6656  0.1933 -1.3972
 3160SOL     OW21115   1.965   1.804   6.335 -0.2422  0.1913  0.5000
 3160SOL    HW121116   1.912   1.822   6.413 -0.4668  2.8448 -0.2922
 3160SOL    HW221117   1.942   1.884   6.288 -0.4845 -0.8002 -1.0502
 3161SOL     OW21118   4.638   1.327   4.531 -0.4354  0.1569 -0.0480
 3161SOL    HW121119   4.568   1.291   4.586  2.0532 -2.1144  1.5804
 3161SOL    HW221120   4.717   1.324   4.585 -2.2752  0.4203  2.6519
 3162SOL     OW21121   2.418   3.152   3.177  0.4540 -0.1571 -0.2898
 3162SOL    HW121122   2.389   3.194   3.258 -0.8652 -0.2165 -0.7325
 3162SOL    HW221123   2.509   3.182   3.174  1.1606 -2.4470 -1.8385
 3163SOL     OW21124   0.800   3.118   5.958 -0.3433  0.1544  0.3963
 3163SOL    HW121125   0.845   3.156   5.882  1.1994  1.6055  2.0315
 3163SOL    HW221126   0.851   3.145   6.034 -3.4579 -0.3814  2.6721
 3164SOL     OW21127   0.609   1.309   7.150 -0.2578 -0.1710  0.6761
 3164SOL    HW121128   0.594   1.269   7.065  1.8398 -0.5525  0.4695
 3164SOL    HW221129   0.619   1.402   7.128  1.5946 -0.0482  1.9948
 3165SOL     OW21130   1.275   1.833   3.999  0.5700 -0.2222  0.0846
 3165SOL    HW121131   1.286   1.777   3.923 -0.5878  0.0383 -0.2746
 3165SOL    HW221132   1.365   1.862   4.011  1.2805 -1.3876 -2.3609
 3166SOL     OW21133   1.074   3.786  14.216 -0.0652  0.1813 -0.0998
 3166SOL    HW121134   1.046   3.867  14.175  2.0933  1.8031  1.6513
 3166SOL    HW221135   1.161   3.778  14.178  0.3055 -1.6303  1.0945
 3167SOL     OW21136   0.689   4.215  10.228  0.2969  0.1191 -0.3360
 3167SOL    HW121137   0.681   4.244  10.137  1.7845  2.9335  0.4166
 3167SOL    HW221138   0.770   4.265  10.236  0.5826 -0.1143 -1.6843
 3168SOL     OW21139   3.485   1.932  17.271  0.2685 -0.6950 -0.1968
 3168SOL    HW121140   3.549   1.864  17.247  0.8945 -0.9445  2.1454
 3168SOL    HW221141   3.546   1.992  17.314 -1.5484  1.6461 -0.9320
 3169SOL     OW21142   1.948   1.641   8.428  0.1796  0.5721  0.0675
 3169SOL    HW121143   2.029   1.625   8.380 -0.4716 -1.1457 -0.4542
 3169SOL    HW221144   1.983   1.647   8.517  0.8815 -0.4697 -0.1411
 3170SOL     OW21145   4.263   0.007   3.628 -0.3277 -0.2603 -0.4961
 3170SOL    HW121146   4.340   0.061   3.645 -0.7046 -0.1280  0.7715
 3170SOL    HW221147   4.246   4.718   3.718 -0.0216 -0.2934 -0.4471
 3171SOL     OW21148   1.214   4.164   9.971 -0.7412  0.0616 -0.0819
 3171SOL    HW121149   1.133   4.119   9.949 -0.7556 -0.1664  0.4411
 3171SOL    HW221150   1.216   4.213   9.889 -1.2319 -2.5148 -1.6367
 3172SOL     OW21151   2.733   3.777   7.869 -0.1584 -0.2665  0.1295
 3172SOL    HW121152   2.809   3.764   7.927 -1.1778  1.4663  1.8340
 3172SOL    HW221153   2.674   3.715   7.912  1.2319 -0.5308  1.6925
 3173SOL     OW21154   2.803   4.326  12.886 -0.6050  0.3178 -0.2982
 3173SOL    HW121155   2.797   4.419  12.908  1.7945  0.7845 -1.6129
 3173SOL    HW221156   2.764   4.287  12.964 -0.0629 -0.1544 -0.2698
 3174SOL     OW21157   1.275   3.543  15.687  0.7854 -0.1947  0.3866
 3174SOL    HW121158   1.203   3.605  15.672  0.1361 -0.5811  1.9163
 3174SOL    HW221159   1.283   3.567  15.779 -0.4507 -1.8809  0.9218
 3175SOL     OW21160   4.061   3.375   9.042  0.1086 -0.3747  0.1362
 3175SOL    HW121161   4.044   3.282   9.028  1.7637 -0.7221  0.3844
 3175SOL    HW221162   4.140   3.395   8.992  0.2663 -1.7586 -0.1884
 3176SOL     OW21163   1.198   3.008  11.467 -0.5607 -0.7053  0.5865
 3176SOL    HW121164   1.276   3.061  11.477 -1.0291  0.3894 -1.5630
 3176SOL    HW221165   1.168   3.030  11.379 -1.3246 -0.4248  0.9150
 3177SOL     OW21166   1.939   3.622  10.002  0.3792  0.2826 -0.0192
 3177SOL    HW121167   1.846   3.616   9.980  0.2715 -0.5607  0.6783
 3177SOL    HW221168   1.962   3.706   9.962 -0.7926  0.6486  0.0596
 3178SOL     OW21169   1.217   3.194   0.634  0.0722  0.0672 -0.2878
 3178SOL    HW121170   1.169   3.112   0.631  0.5103 -0.0366 -3.5953
 3178SOL    HW221171   1.296   3.159   0.674 -0.1700 -0.0542  0.0891
 3179SOL     OW21172   2.076   3.679   4.040  0.4269  0.6020  0.3221
 3179SOL    HW121173   2.115   3.716   4.119  1.0754 -0.4368  0.4862
 3179SOL    HW221174   1.999   3.734   4.053  0.3687  0.3731  0.9290
 3180SOL     OW21175   0.409   0.088   1.916 -0.2040  0.1497  0.4383
 3180SOL    HW121176   0.409   0.044   1.831 -2.5027 -1.2682  1.1850
 3180SOL    HW221177   0.500   0.118   1.913 -0.3707  0.5075 -1.1014
 3181SOL     OW21178   2.004   0.198  11.577  0.1508  0.1350  0.4165
 3181SOL    HW121179   2.049   0.173  11.658 -2.0771  2.4879  2.3973
 3181SOL    HW221180   2.009   0.112  11.534  0.7865 -0.3174  1.3982
 3182SOL     OW21181   4.421   0.201   3.768  0.3200 -0.2960  0.1605
 3182SOL    HW121182   4.431   0.196   3.863  1.2674 -2.6686 -0.0525
 3182SOL    HW221183   4.428   0.292   3.741 -0.1977  0.1407  1.4892
 3183SOL     OW21184   3.135   4.406  12.990  0.8554  0.0452 -0.5755
 3183SOL    HW121185   3.074   4.457  13.043  0.6475 -0.9256  0.1279
 3183SOL    HW221186   3.099   4.321  13.017  2.6545 -0.2813  0.7727
 3184SOL     OW21187   3.145   3.887   3.018  0.2761  0.4949  0.1048
 3184SOL    HW121188   3.051   3.902   3.006 -0.1583 -1.4377  1.1670
 3184SOL    HW221189   3.151   3.901   3.113 -2.3162  0.9645  0.2230
 3185SOL     OW21190   1.746   2.924  12.067  0.4578  0.4457  0.4836
 3185SOL    HW121191   1.786   2.838  12.057  0.3788  0.2714  1.6445
 3185SOL    HW221192   1.777   2.958  12.151 -3.2213  1.1397  1.5326
 3186SOL     OW21193   0.770   2.306   0.803  0.0590 -0.1089 -0.2917
 3186SOL    HW121194   0.851   2.351   0.828 -0.2054 -0.3263  0.9427
 3186SOL    HW221195   0.762   2.236   0.868 -1.0515  0.7804  0.5283
 3187SOL     OW21196   3.875   1.615   0.420 -0.1187  0.3522 -0.3067
 3187SOL    HW121197   3.957   1.567   0.419  0.3576  1.1702 -1.4259
 3187SOL    HW221198   3.874   1.649   0.509  2.1020 -0.1894 -0.0870
 3188SOL     OW21199   0.348   0.649  14.625  0.2830  0.1523  0.6070
 3188SOL    HW121200   0.363   0.558  14.651 -0.9817 -0.2013  0.1303
 3188SOL    HW221201   0.285   0.638  14.554  0.0765 -0.3883  0.8756
 3189SOL     OW21202   2.193   2.000  12.556  0.6498 -0.3705 -0.3929
 3189SOL    HW121203   2.253   2.056  12.605 -2.0958  0.9661  1.4531
 3189SOL    HW221204   2.182   1.934  12.624  2.1372  0.3262  0.5135
 3190SOL     OW21205   0.300   4.320  14.439 -0.1499  0.3129  0.5390
 3190SOL    HW121206   0.393   4.324  14.415 -0.5667  0.8503 -0.9787
 3190SOL    HW221207   0.295   4.386  14.508  0.5401  0.5669  0.3490
 3191SOL     OW21208   0.212   3.495   5.843 -0.0742 -0.2538  0.4505
 3191SOL    HW121209   0.278   3.449   5.790 -0.8110  2.1487 -2.5891
 3191SOL    HW221210   0.131   3.459   5.809 -0.2197  0.7418 -0.2481
 3192SOL     OW21211   4.568   3.012   3.068 -0.4237  0.4593 -0.2890
 3192SOL    HW121212   4.590   3.018   3.161  1.3460 -0.1830 -0.6694
 3192SOL    HW221213   4.563   2.918   3.056  0.4681  0.4396 -0.5595
 3193SOL     OW21214   0.358   3.443   3.876 -1.3958 -0.3807  0.2905
 3193SOL    HW121215   0.301   3.460   3.801  1.4427 -0.2315 -1.8852
 3193SOL    HW221216   0.382   3.352   3.859 -0.2457 -0.1217  0.5172
 3194SOL     OW21217   1.768   1.724   8.256  0.3448 -0.0439  0.4787
 3194SOL    HW121218   1.819   1.698   8.332  0.1501  0.4065  0.7667
 3194SOL    HW221219   1.811   1.676   8.185  1.6084  0.7196  0.7276
 3195SOL     OW21220   0.623   1.915   1.373  0.6706 -0.2920  0.1797
 3195SOL    HW121221   0.662   1.941   1.290  0.1793  1.5859  0.5359
 3195SOL    HW221222   0.595   1.824   1.357 -1.8108  0.0332  2.6145
 3196SOL     OW21223   2.861   1.239   1.454 -0.7343 -0.1196  0.4546
 3196SOL    HW121224   2.834   1.330   1.443  2.8085  1.0120  1.4551
 3196SOL    HW221225   2.948   1.253   1.491  0.8288 -2.2093 -2.3720
 3197SOL     OW21226   2.119   3.068   4.465 -0.5019  0.3776  0.2068
 3197SOL    HW121227   2.116   3.155   4.504 -1.9234 -0.1067  1.1888
 3197SOL    HW221228   2.163   3.022   4.536 -0.6493 -1.1265 -0.6669
 3198SOL     OW21229   0.572   3.165   6.925  0.0381 -0.0227  0.0817
 3198SOL    HW121230   0.661   3.129   6.932 -0.3569 -1.2334 -1.1836
 3198SOL    HW221231   0.542   3.163   7.015 -1.0457  0.5628 -0.2729
 3199SOL     OW21232   3.309   4.547   6.636 -0.4646 -0.0471  0.3567
 3199SOL    HW121233   3.351   4.632   6.628 -0.8857  0.0871 -0.4014
 3199SOL    HW221234   3.389   4.495   6.632 -1.3128 -1.4233  1.2211
 3200SOL     OW21235   3.182   4.177   2.206  1.1660 -0.3388 -0.0600
 3200SOL    HW121236   3.200   4.221   2.123 -1.1057  1.2410  0.2889
 3200SOL    HW221237   3.107   4.125   2.177  1.0711 -2.5837  4.3406
 3201SOL     OW21238   3.362   0.049  16.128  0.5426 -0.0417 -0.7053
 3201SOL    HW121239   3.316   0.131  16.143  0.9926 -0.1903  1.5844
 3201SOL    HW221240   3.294   4.722  16.107 -0.3306  0.5888  0.1865
 3202SOL     OW21241   0.428   1.080  11.879  0.0670  0.2460  0.0784
 3202SOL    HW121242   0.468   1.067  11.792 -0.5148 -1.9668  0.1475
 3202SOL    HW221243   0.369   1.148  11.848  0.2851 -0.3563 -1.6708
 3203SOL     OW21244   3.395   1.048   2.758  0.2609  0.0760  0.0598
 3203SOL    HW121245   3.418   1.136   2.726 -0.5483  0.1751 -0.2472
 3203SOL    HW221246   3.300   1.044   2.752  0.1001 -1.2627  3.6679
 3204SOL     OW21247   2.054   1.151   6.062 -0.1756 -0.3502  0.1453
 3204SOL    HW121248   2.007   1.072   6.035  1.5846 -1.5599  0.6470
 3204SOL    HW221249   2.128   1.158   6.003 -2.1725  1.4616 -2.1371
 3205SOL     OW21250   0.749   1.093   8.068 -0.7056  0.4234  0.3010
 3205SOL    HW121251   0.685   1.163   8.082 -1.1225  0.3727 -1.4529
 3205SOL    HW221252   0.742   1.093   7.973 -0.0032 -1.6564  0.2519
 3206SOL     OW21253   2.785   2.244  15.439  0.1095 -0.0534 -0.4079
 3206SOL    HW121254   2.794   2.325  15.489  3.9817  0.4685 -1.8901
 3206SOL    HW221255   2.710   2.256  15.380 -0.0275 -3.1234 -0.8432
 3207SOL     OW21256   2.937   4.561  11.488  0.2276 -0.2599  0.5749
 3207SOL    HW121257   2.905   4.576  11.399 -0.1695  1.5340  1.0186
 3207SOL    HW221258   2.971   4.649  11.508  0.2454  0.2196 -1.5825
 3208SOL     OW21259   2.048   3.705  11.521 -0.4108 -0.3044 -0.2868
 3208SOL    HW121260   2.019   3.653  11.596 -0.9796  0.7260  0.2087
 3208SOL    HW221261   2.107   3.642  11.481  0.5703  0.3586  0.0948
 3209SOL     OW21262   3.742   1.478   3.644 -0.3334 -0.0304  0.1683
 3209SOL    HW121263   3.709   1.520   3.564  1.3843 -1.2196 -1.1813
 3209SOL    HW221264   3.802   1.409   3.614  1.4562  0.8492  1.7644
 3210SOL     OW21265   3.834   2.019   1.284 -0.2784  0.1184  0.3788
 3210SOL    HW121266   3.864   1.982   1.201  0.7552 -0.0318  0.8121
 3210SOL    HW221267   3.921   2.043   1.317  0.9245 -1.5199 -1.6379
 3211SOL     OW21268   4.268   4.689   6.869 -0.3387 -0.0922  0.4691
 3211SOL    HW121269   4.174   4.684   6.886 -0.2633 -1.8398  0.3323
 3211SOL    HW221270   4.272   4.641   6.787  2.9117  4.0108 -1.7812
 3212SOL     OW21271   0.094   0.541   7.898 -0.8180 -0.9503  0.0437
 3212SOL    HW121272   0.053   0.572   7.817  1.8072  1.5063 -0.3588
 3212SOL    HW221273   0.031   0.581   7.959 -1.4456  0.2182 -1.3800
 3213SOL     OW21274   3.406   0.123   5.821 -0.8026  0.5069  0.0577
 3213SOL    HW121275   3.366   0.155   5.901  0.3914  1.4151  0.2991
 3213SOL    HW221276   3.328   0.130   5.766 -1.4852 -0.2817  0.9179
 3214SOL     OW21277   0.813   3.116   8.880  0.0059  0.4953  0.2796
 3214SOL    HW121278   0.798   3.197   8.831 -0.7375 -1.3505 -2.5151
 3214SOL    HW221279   0.891   3.141   8.931 -0.4854 -0.9783  1.7522
 3215SOL     OW21280   2.127   4.163  15.700 -0.6268  0.3395 -0.4970
 3215SOL    HW121281   2.053   4.158  15.760  0.2679  1.7702  0.7275
 3215SOL    HW221282   2.141   4.071  15.679 -0.6819  0.3047 -0.3789
 3216SOL     OW21283   4.032   1.093   8.338 -0.3437  0.3327 -0.1596
 3216SOL    HW121284   4.057   1.183   8.318 -0.6690  0.3828 -0.3333
 3216SOL    HW221285   4.080   1.086   8.421  0.7577 -1.1965 -0.9246
 3217SOL     OW21286   2.678   2.259   8.336 -0.2071  0.0466  0.2789
 3217SOL    HW121287   2.756   2.215   8.300  0.8469  1.7458  0.4882
 3217SOL    HW221288   2.617   2.186   8.322  1.2689 -1.4157  1.3940
 3218SOL     OW21289   1.468   1.461   5.483 -0.7253 -0.8709  0.2370
 3218SOL    HW121290   1.556   1.424   5.485 -0.5454 -0.4132  0.6138
 3218SOL    HW221291   1.413   1.389   5.515  0.4713 -1.4919  0.9209
 3219SOL     OW21292   4.010   1.852   6.348 -0.8878 -0.4080  0.6680
 3219SOL    HW121293   3.971   1.822   6.266 -0.8514 -1.3667  0.9966
 3219SOL    HW221294   3.962   1.934   6.349 -0.2548 -0.0599  2.4466
 3220SOL     OW21295   0.273   0.220   3.620 -0.1272 -0.5158 -0.0942
 3220SOL    HW121296   0.300   0.312   3.626 -0.1285 -0.4852 -0.6162
 3220SOL    HW221297   0.242   0.224   3.530 -0.3914 -1.9558 -0.0625
 3221SOL     OW21298   0.981   0.474  13.646  0.5319 -0.1659 -0.2996
 3221SOL    HW121299   1.017   0.462  13.734 -0.3117  3.2604  0.5444
 3221SOL    HW221300   1.049   0.530  13.608 -0.4144  1.2735  0.1087
 3222SOL     OW21301   0.580   2.689   0.214  0.3147  0.3766 -0.3552
 3222SOL    HW121302   0.589   2.739   0.134 -0.9428  2.8782  1.0662
 3222SOL    HW221303   0.509   2.635   0.180 -0.9193  0.5251  1.9175
 3223SOL     OW21304   4.509   4.571   1.925  0.2953  0.0775 -0.4246
 3223SOL    HW121305   4.454   4.634   1.878  0.2886 -0.1005 -0.6574
 3223SOL    HW221306   4.506   4.498   1.864  1.1086 -1.0637  0.9281
 3224SOL     OW21307   4.691   4.269   6.808  0.5174 -0.2999 -0.0374
 3224SOL    HW121308   4.682   4.247   6.901 -0.6696 -1.9593 -0.5465
 3224SOL    HW221309   4.616   4.225   6.768 -0.8390  0.5036  1.6059
 3225SOL     OW21310   2.801   2.052   6.211  0.0551  0.2988 -0.4801
 3225SOL    HW121311   2.769   2.092   6.131  2.5392 -1.5247 -2.3883
 3225SOL    HW221312   2.737   2.083   6.275 -0.5425 -2.1136  0.0750
 3226SOL     OW21313   0.322   3.207  16.466 -0.1326 -0.0581  0.0205
 3226SOL    HW121314   0.248   3.170  16.418 -0.0770 -1.6115  1.1640
 3226SOL    HW221315   0.362   3.266  16.401  0.3541  1.5938  1.8242
 3227SOL     OW21316   3.846   4.360  12.649 -0.7916 -0.4055 -0.2703
 3227SOL    HW121317   3.889   4.365  12.735 -0.8577  0.0207 -0.2659
 3227SOL    HW221318   3.884   4.284  12.605  1.3135  0.6875 -0.3316
 3228SOL     OW21319   2.893   1.158  14.544 -0.6272 -0.1414 -0.4041
 3228SOL    HW121320   2.934   1.152  14.458  0.2361 -0.7597  0.0474
 3228SOL    HW221321   2.936   1.233  14.585 -1.1259 -0.0258 -0.0857
 3229SOL     OW21322   3.249   4.427   0.329 -0.6562  0.1297  0.1299
 3229SOL    HW121323   3.297   4.350   0.358 -0.3203 -0.0447 -0.8812
 3229SOL    HW221324   3.244   4.475   0.412  0.5112 -0.1742  0.3861
 3230SOL     OW21325   4.068   4.059   0.137  0.3690 -0.3588 -0.2649
 3230SOL    HW121326   4.152   4.012   0.137  0.8939  0.6000 -3.2558
 3230SOL    HW221327   4.049   4.082   0.046  1.4528  2.0115  0.0989
 3231SOL     OW21328   0.816   2.225   1.500  0.2656 -1.0200  0.1331
 3231SOL    HW121329   0.885   2.248   1.562  0.0316  1.6764 -0.5888
 3231SOL    HW221330   0.858   2.239   1.415  1.2885 -0.6729  0.7030
 3232SOL     OW21331   1.325   2.150   5.268 -0.1544 -0.2010 -0.3887
 3232SOL    HW121332   1.388   2.116   5.332 -0.3974 -0.9338 -0.5395
 3232SOL    HW221333   1.302   2.232   5.312  0.8899 -0.7103  1.0899
 3233SOL     OW21334   4.573   2.087   5.992 -0.0229  0.0207 -0.0302
 3233SOL    HW121335   4.544   2.016   5.934  2.9262  0.6753 -2.3202
 3233SOL    HW221336   4.524   2.161   5.956 -3.2022 -1.0037  2.1928
 3234SOL     OW21337   3.939   0.765   7.354  0.0661  0.2516  0.2884
 3234SOL    HW121338   3.965   0.786   7.264 -0.5450  3.3949  0.8527
 3234SOL    HW221339   4.003   0.695   7.372 -1.9936 -1.5557  0.6267
 3235SOL     OW21340   2.522   2.082   2.775  0.3947  0.5006 -0.0452
 3235SOL    HW121341   2.615   2.085   2.797  0.8430  0.9780 -1.9933
 3235SOL    HW221342   2.482   2.102   2.859  0.2001  2.8152 -0.6945
 3236SOL     OW21343   4.440   0.399   7.520 -0.5903  0.1925 -0.0667
 3236SOL    HW121344   4.406   0.488   7.523 -0.6978  0.0958  1.7840
 3236SOL    HW221345   4.517   0.409   7.464 -1.9470  2.9668 -1.4200
 3237SOL     OW21346   4.664   1.562   4.438 -0.3479 -0.2084 -0.0631
 3237SOL    HW121347   4.735   1.594   4.494  0.4493 -1.2057 -0.5011
 3237SOL    HW221348   4.651   1.473   4.473  0.5833  0.0982  1.0713
 3238SOL     OW21349   3.244   3.277  11.053  0.1600  0.2349 -0.1384
 3238SOL    HW121350   3.278   3.245  10.970 -0.0116  0.9387 -0.4787
 3238SOL    HW221351   3.170   3.333  11.030  0.4095  1.5198  2.1650
 3239SOL     OW21352   0.174   4.303   4.725 -0.2659  0.0050  0.5554
 3239SOL    HW121353   0.259   4.346   4.719 -0.0384 -0.8501 -2.2509
 3239SOL    HW221354   0.149   4.337   4.811  0.9583 -0.7844  1.2216
 3240SOL     OW21355   1.848   2.106   2.448  0.3563  0.2670  0.1832
 3240SOL    HW121356   1.844   2.086   2.355 -1.5301  1.2777  0.0292
 3240SOL    HW221357   1.894   2.030   2.484  1.1867 -0.3222 -2.1482
 3241SOL     OW21358   1.162   4.457   6.243 -0.0822 -0.1884  0.0944
 3241SOL    HW121359   1.122   4.446   6.329 -1.3364 -2.0524 -0.7176
 3241SOL    HW221360   1.103   4.521   6.202  0.1189 -1.2941 -1.9372
 3242SOL     OW21361   2.200   0.307   6.528 -0.6503  0.3468 -0.6727
 3242SOL    HW121362   2.133   0.359   6.573  1.2962  2.8933 -0.7426
 3242SOL    HW221363   2.271   0.353   6.572  0.5756 -0.2165 -2.0494
 3243SOL     OW21364   4.054   1.252   5.020 -0.2733 -0.7973  0.2539
 3243SOL    HW121365   3.996   1.328   5.022  1.2139  0.2818  2.0517
 3243SOL    HW221366   3.989   1.185   4.998 -0.4066 -0.9705  1.1532
 3244SOL     OW21367   2.346   1.539   7.043  0.2554  0.0704  0.1278
 3244SOL    HW121368   2.441   1.534   7.034  0.3328 -0.9415  1.4736
 3244SOL    HW221369   2.328   1.628   7.014 -0.9822 -0.1319  0.2869
 3245SOL     OW21370   3.685   2.361   4.287 -0.1394  0.2413 -0.4241
 3245SOL    HW121371   3.741   2.426   4.329 -1.8527  2.1641 -1.0874
 3245SOL    HW221372   3.610   2.416   4.267 -0.0480  0.5957  0.2035
 3246SOL     OW21373   2.730   1.454   3.192  0.1609 -0.1512 -0.2017
 3246SOL    HW121374   2.789   1.513   3.145 -0.9198  2.0739  1.2073
 3246SOL    HW221375   2.662   1.513   3.227  0.1712 -1.2435  1.6317
 3247SOL     OW21376   2.033   0.652  11.467 -0.6851  0.1953  0.1799
 3247SOL    HW121377   2.039   0.707  11.545  0.4578 -1.8318  1.5140
 3247SOL    HW221378   2.062   0.573  11.513 -0.8638 -0.0432 -0.1154
 3248SOL     OW21379   0.956   3.195  14.754 -0.1319  0.4205 -0.5146
 3248SOL    HW121380   0.892   3.173  14.687 -1.8200 -0.0981  1.2658
 3248SOL    HW221381   0.989   3.283  14.735  0.1076  0.2286 -0.9826
 3249SOL     OW21382   4.441   2.672   4.116  0.4186  0.2302  0.4164
 3249SOL    HW121383   4.396   2.596   4.077 -0.3350 -0.0318  1.8124
 3249SOL    HW221384   4.446   2.649   4.209  1.0689 -1.6159 -0.0805
 3250SOL     OW21385   2.194   1.465   3.263  0.1191 -0.4832 -0.5384
 3250SOL    HW121386   2.250   1.410   3.208  0.5631 -0.5164 -0.0580
 3250SOL    HW221387   2.175   1.534   3.200  0.1007  0.5400  0.5879
 3251SOL     OW21388   1.167   0.120  10.931  0.1617  0.2944 -0.8555
 3251SOL    HW121389   1.142   0.083  11.016 -0.2569  0.3576 -0.9548
 3251SOL    HW221390   1.243   0.063  10.915 -0.1913 -0.7699  1.3356
 3252SOL     OW21391   1.697   0.809  11.741 -0.3732 -0.2804  0.1081
 3252SOL    HW121392   1.645   0.743  11.695  1.4682 -1.7398  0.1084
 3252SOL    HW221393   1.739   0.756  11.809  0.0339 -1.4019 -1.0189
 3253SOL     OW21394   4.663   4.182  11.627  0.3070  0.5169 -0.5329
 3253SOL    HW121395   4.668   4.213  11.537  1.6440 -1.0384 -0.9789
 3253SOL    HW221396   4.607   4.252  11.661 -0.7773 -1.5674  2.0095
 3254SOL     OW21397   3.768   4.709  13.879 -0.0245 -0.7383 -0.5528
 3254SOL    HW121398   3.739   0.009  13.796  2.6159  0.3136 -0.9819
 3254SOL    HW221399   3.732   4.622  13.863  0.1828 -0.6231 -1.6556
 3255SOL     OW21400   3.469   3.045   1.312 -0.3504 -0.7406  0.1856
 3255SOL    HW121401   3.450   3.077   1.400 -0.1375 -0.4061  0.1125
 3255SOL    HW221402   3.458   2.951   1.323  1.3347 -0.7295  1.8523
 3256SOL     OW21403   2.493   1.822   8.327 -0.0800 -0.2367 -0.0860
 3256SOL    HW121404   2.562   1.780   8.276 -1.7207 -0.3377 -2.2066
 3256SOL    HW221405   2.419   1.774   8.291 -0.3912 -0.3011  0.6385
 3257SOL     OW21406   3.064   2.468  15.128 -0.0257  0.5254 -0.1053
 3257SOL    HW121407   3.062   2.562  15.107  1.1347 -0.2102 -3.6252
 3257SOL    HW221408   2.983   2.456  15.176 -0.2972  1.7775 -0.2483
 3258SOL     OW21409   1.945   2.918   3.572 -0.4450  0.3648 -0.1135
 3258SOL    HW121410   2.016   2.955   3.519 -0.4542 -0.6586 -0.8492
 3258SOL    HW221411   1.865   2.931   3.521  0.8818  0.8425 -2.0710
 3259SOL     OW21412   3.955   2.430   8.720  0.1013  0.5366 -0.4341
 3259SOL    HW121413   3.935   2.342   8.752  0.7321  0.6192  0.1573
 3259SOL    HW221414   3.984   2.407   8.631  1.0509 -0.5454  0.1640
 3260SOL     OW21415   0.724   1.781   8.755  0.3209 -0.1609 -0.1150
 3260SOL    HW121416   0.697   1.689   8.761 -0.1180 -0.0150  0.1366
 3260SOL    HW221417   0.810   1.767   8.715  0.3091  1.4306 -0.7136
 3261SOL     OW21418   4.428   3.196   8.752 -0.1941 -0.1229 -0.2536
 3261SOL    HW121419   4.441   3.248   8.672  1.1737 -0.4494 -0.2519
 3261SOL    HW221420   4.475   3.254   8.813 -0.8141  0.9520 -0.8001
 3262SOL     OW21421   3.109   0.364   7.892  0.4515  0.1325  0.3894
 3262SOL    HW121422   3.098   0.431   7.960  1.4864  1.1432 -0.4337
 3262SOL    HW221423   3.078   0.285   7.937 -2.0605  0.5023 -0.7105
 3263SOL     OW21424   3.683   3.603   3.065 -0.2845 -0.6602 -0.4691
 3263SOL    HW121425   3.745   3.584   2.994 -2.7797  0.7916 -3.0154
 3263SOL    HW221426   3.698   3.698   3.065  0.2301 -0.7335  1.4280
 3264SOL     OW21427   0.783   0.986  11.798 -0.4145 -0.2749 -0.4342
 3264SOL    HW121428   0.738   1.045  11.738 -0.0185  1.5917  1.1060
 3264SOL    HW221429   0.856   1.037  11.832 -0.4124 -1.1912  0.9689
 3265SOL     OW21430   2.675   2.496   5.510  0.8087  0.3879 -0.1828
 3265SOL    HW121431   2.589   2.498   5.469  0.8812  0.5643 -0.3232
 3265SOL    HW221432   2.733   2.479   5.436  1.8041 -0.2903  0.7319
 3266SOL     OW21433   4.390   2.055   5.148  0.2968  0.0957 -0.1831
 3266SOL    HW121434   4.386   2.038   5.242  0.4617 -3.1750 -0.7697
 3266SOL    HW221435   4.326   2.125   5.135  0.0074 -0.1475 -0.0546
 3267SOL     OW21436   2.573   0.349   7.264 -0.1549  0.0549  0.7278
 3267SOL    HW121437   2.492   0.312   7.230  0.0599 -0.7178  1.0396
 3267SOL    HW221438   2.609   0.402   7.193  0.8151 -1.3053  0.1896
 3268SOL     OW21439   0.675   1.925   3.144  0.6998 -0.2208  0.0802
 3268SOL    HW121440   0.734   1.884   3.081  0.5854  0.8105 -0.7072
 3268SOL    HW221441   0.645   1.996   3.086  0.8583  0.0168  0.2887
 3269SOL     OW21442   4.197   4.300  10.599  0.0549 -0.2663  0.1345
 3269SOL    HW121443   4.137   4.366  10.564 -1.6688 -2.6648 -1.4149
 3269SOL    HW221444   4.144   4.265  10.671  1.0957 -3.6882 -0.7588
 3270SOL     OW21445   4.459   4.339   4.801  0.1160 -0.5426 -0.0110
 3270SOL    HW121446   4.506   4.293   4.870  0.2938  0.1990  0.3634
 3270SOL    HW221447   4.374   4.355   4.842  0.0700 -1.0591  0.0921
 3271SOL     OW21448   4.089   3.401  13.276 -0.0955  0.2283  0.6466
 3271SOL    HW121449   4.152   3.468  13.249 -1.6478  2.9348  3.7522
 3271SOL    HW221450   4.118   3.328  13.221  2.1333  2.6242 -1.3153
 3272SOL     OW21451   3.256   2.200   7.982  0.0837  0.1930  0.1856
 3272SOL    HW121452   3.219   2.136   8.043  0.9375 -0.5150 -0.0458
 3272SOL    HW221453   3.227   2.165   7.898 -1.2496  0.5819  0.4790
 3273SOL     OW21454   2.831   1.546   7.741 -0.4304  0.2419  0.5265
 3273SOL    HW121455   2.901   1.487   7.712  0.6214  1.6414  0.2286
 3273SOL    HW221456   2.802   1.558   7.651  1.1238 -1.7375 -0.2529
 3274SOL     OW21457   1.811   4.410   5.097 -0.0780  0.4897  0.1075
 3274SOL    HW121458   1.773   4.344   5.154 -0.8807  1.9149  1.2026
 3274SOL    HW221459   1.904   4.414   5.118  0.0910 -2.2663 -0.0920
 3275SOL     OW21460   3.671   2.171   2.492 -0.4258  0.5011 -0.7652
 3275SOL    HW121461   3.641   2.093   2.539 -1.7453  2.0068  0.9117
 3275SOL    HW221462   3.727   2.204   2.563 -0.8994 -0.2504 -0.0395
 3276SOL     OW21463   2.651   3.755  13.958 -0.2427  0.2478 -0.3808
 3276SOL    HW121464   2.638   3.688  13.892 -0.1220  1.0991 -1.2713
 3276SOL    HW221465   2.737   3.731  13.991 -0.8905 -0.3561  0.8718
 3277SOL     OW21466   0.225   3.769   1.850 -0.0384  0.0218 -0.3516
 3277SOL    HW121467   0.210   3.678   1.824 -0.7511 -0.7211  2.6021
 3277SOL    HW221468   0.277   3.799   1.776 -0.8458  0.5972 -0.6765
 3278SOL     OW21469   3.321   1.661  11.865 -0.1248  0.1460 -0.5605
 3278SOL    HW121470   3.342   1.665  11.958 -2.4572 -3.1684  0.1199
 3278SOL    HW221471   3.357   1.744  11.832  0.9628 -0.0184  0.2035
 3279SOL     OW21472   1.642   1.155   8.484 -0.8473  0.3701  0.1223
 3279SOL    HW121473   1.715   1.107   8.523  0.8887  2.3974 -0.6520
 3279SOL    HW221474   1.583   1.163   8.558  0.5558 -1.3752  1.4218
 3280SOL     OW21475   0.213   3.065  17.467  0.0602 -0.6832  0.2276
 3280SOL    HW121476   0.249   3.126  17.402  2.2405 -0.9914  1.1306
 3280SOL    HW221477   0.243   2.976  17.447 -1.2563 -1.4126  1.5410
 3281SOL     OW21478   0.434   1.007   0.848  0.3183  0.2996 -0.5108
 3281SOL    HW121479   0.473   1.047   0.769  1.1015 -0.7130 -0.6443
 3281SOL    HW221480   0.344   0.981   0.832  0.1522 -0.8269  2.3186
 3282SOL     OW21481   1.879   2.584   6.080 -0.1056 -0.6602  0.1931
 3282SOL    HW121482   1.887   2.672   6.045  3.4816 -0.7362  0.7694
 3282SOL    HW221483   1.818   2.537   6.023  1.3454  0.7005 -2.4964
 3283SOL     OW21484   1.181   4.250  15.864  0.4244  0.2394 -0.6469
 3283SOL    HW121485   1.263   4.222  15.905  0.9557  2.9698  0.1199
 3283SOL    HW221486   1.220   4.276  15.780 -1.1454  2.7216 -0.5914
 3284SOL     OW21487   3.308   3.584  11.280 -0.4263 -0.6490 -0.2619
 3284SOL    HW121488   3.332   3.495  11.305  0.8901 -0.2350 -0.0497
 3284SOL    HW221489   3.395   3.617  11.256 -0.1169 -0.3867  1.1761
 3285SOL     OW21490   1.529   2.730  13.897 -0.0885  0.2684  0.7375
 3285SOL    HW121491   1.504   2.796  13.962 -3.2408 -1.0164  0.8177
 3285SOL    HW221492   1.524   2.653  13.954 -0.0700 -0.0015  0.3737
 3286SOL     OW21493   4.050   1.505   2.879 -0.6915 -0.2894  0.9055
 3286SOL    HW121494   4.119   1.455   2.924  0.7772  0.8766 -0.0477
 3286SOL    HW221495   4.055   1.474   2.789 -2.2511  2.5236 -0.1537
 3287SOL     OW21496   3.755   1.845   8.237  0.1569 -0.1625  0.1921
 3287SOL    HW121497   3.709   1.854   8.154  0.6024 -0.2521 -0.0657
 3287SOL    HW221498   3.730   1.922   8.287 -1.2405 -1.3940  1.4020
 3288SOL     OW21499   1.779   0.541   7.455  0.9709  0.2333  0.0599
 3288SOL    HW121500   1.715   0.613   7.456  1.3820  0.5962  0.4503
 3288SOL    HW221501   1.728   0.484   7.511  0.1573  0.3361 -0.5738
 3289SOL     OW21502   0.226   0.127   5.360  0.1522 -0.1428 -0.2046
 3289SOL    HW121503   0.236   0.059   5.426 -0.2519  0.5012  0.5151
 3289SOL    HW221504   0.313   0.125   5.320 -0.2570 -1.8239 -0.9892
 3290SOL     OW21505   0.867   2.244   2.157 -0.0353 -0.8793 -0.4048
 3290SOL    HW121506   0.778   2.213   2.137 -0.6962  1.7992 -1.6852
 3290SOL    HW221507   0.867   2.219   2.249  2.1017  1.6164  0.2728
 3291SOL     OW21508   3.559   0.801   5.121  0.6281  0.4219 -0.0701
 3291SOL    HW121509   3.507   0.864   5.171 -0.1791 -1.2616  1.1932
 3291SOL    HW221510   3.550   0.834   5.031 -0.9499  0.2707  0.0218
 3292SOL     OW21511   4.212   3.379   2.258 -0.0212 -0.2671  0.2685
 3292SOL    HW121512   4.142   3.415   2.203 -0.3736 -0.2012  0.7592
 3292SOL    HW221513   4.219   3.459   2.310  1.4927  0.9312 -1.7494
 3293SOL     OW21514   1.076   0.092  14.967  0.3820 -0.1095  0.2023
 3293SOL    HW121515   1.102   0.008  14.929 -0.3444 -0.4313  0.4238
 3293SOL    HW221516   1.157   0.139  14.983 -0.4670  1.6178 -0.6094
 3294SOL     OW21517   4.505   0.706  12.731  0.1057 -0.4638  0.1065
 3294SOL    HW121518   4.585   0.744  12.696 -1.3719 -0.6097 -3.4321
 3294SOL    HW221519   4.509   0.757  12.812 -0.9468  0.2209 -0.2739
 3295SOL     OW21520   3.964   4.576   3.507  0.2469  0.4638 -0.2109
 3295SOL    HW121521   3.895   4.622   3.555 -1.2898  1.6990 -3.5635
 3295SOL    HW221522   3.969   4.496   3.559 -0.5112  1.2732  1.1075
 3296SOL     OW21523   3.387   2.977   9.546  0.1453 -0.0167  0.6115
 3296SOL    HW121524   3.445   2.920   9.496 -1.6051 -0.9763 -0.3489
 3296SOL    HW221525   3.361   3.039   9.477 -0.7931  0.0051  0.9750
 3297SOL     OW21526   4.649   0.321  13.634  0.3262  0.1199 -0.1905
 3297SOL    HW121527   4.655   0.363  13.720 -1.4155 -0.2833  0.1309
 3297SOL    HW221528   4.723   0.365  13.592 -0.5073  0.1170 -1.6737
 3298SOL     OW21529   2.315   3.626   6.478  0.2057 -0.2316  0.0035
 3298SOL    HW121530   2.232   3.582   6.465  0.7907 -1.2360 -0.3315
 3298SOL    HW221531   2.299   3.671   6.561 -0.0777 -0.3283 -0.0011
 3299SOL     OW21532   3.234   1.767   5.397  0.1168 -0.8420 -0.2935
 3299SOL    HW121533   3.195   1.815   5.324  1.8670 -0.5209 -1.0067
 3299SOL    HW221534   3.177   1.695   5.424 -1.2302  0.2236 -0.3114
 3300SOL     OW21535   3.853   2.506   8.354  0.1323  0.3534 -0.1099
 3300SOL    HW121536   3.918   2.462   8.300 -1.1935 -1.4178 -0.2584
 3300SOL    HW221537   3.770   2.519   8.308 -0.8651 -1.1500  1.2550
 3301SOL     OW21538   2.497   4.688   1.644 -0.0420  0.6373  0.5871
 3301SOL    HW121539   2.431   4.723   1.584 -1.6615 -1.5196  1.1446
 3301SOL    HW221540   2.549   0.031   1.653 -0.9611  1.2071  0.7289
 3302SOL     OW21541   3.835   1.869   5.109 -0.4640  0.1126  0.0177
 3302SOL    HW121542   3.876   1.921   5.040  0.6977 -0.2536  0.4275
 3302SOL    HW221543   3.903   1.857   5.175 -0.8045 -0.5223  0.2600
 3303SOL     OW21544   1.472   0.629   2.033  0.0203 -0.1710 -0.1732
 3303SOL    HW121545   1.379   0.647   2.019 -0.0067 -0.2525 -0.0983
 3303SOL    HW221546   1.465   0.554   2.092  0.7106 -1.7991 -2.1802
 3304SOL     OW21547   3.626   0.622   7.984  0.3189 -0.8753  0.5513
 3304SOL    HW121548   3.609   0.595   7.894  1.6120 -0.5394  0.1991
 3304SOL    HW221549   3.657   0.712   7.979  0.7072 -1.1399 -1.8973
 3305SOL     OW21550   1.466   3.771   1.798  0.3963 -0.0860 -0.3623
 3305SOL    HW121551   1.425   3.812   1.874 -0.0959  1.2644 -1.3481
 3305SOL    HW221552   1.492   3.684   1.827 -2.4251 -0.3609  1.3751
 3306SOL     OW21553   2.936   2.679   6.936  0.2422  0.4887 -0.1816
 3306SOL    HW121554   2.930   2.702   7.028 -1.9910  1.2834 -0.5366
 3306SOL    HW221555   2.887   2.749   6.894 -2.9118 -3.4353 -3.0124
 3307SOL     OW21556   0.458   0.582   9.890 -0.0428  0.0007  0.7924
 3307SOL    HW121557   0.375   0.535   9.881 -0.4548  0.6138  1.4214
 3307SOL    HW221558   0.512   0.516   9.933  0.3219  1.0139  1.8868
 3308SOL     OW21559   0.371   2.596   0.040 -0.0769 -0.0467 -0.5675
 3308SOL    HW121560   0.313   2.580   0.115 -0.8872  1.0801 -0.9632
 3308SOL    HW221561   0.313   2.653  17.740  1.2333  1.1331 -0.7286
 3309SOL     OW21562   1.318   0.845   8.632 -0.3472 -0.0462  0.1764
 3309SOL    HW121563   1.280   0.759   8.649 -0.8445  0.2351  0.5071
 3309SOL    HW221564   1.252   0.882   8.573 -0.3121  1.2883  0.9763
 3310SOL     OW21565   3.711   2.140   3.896  0.2515 -0.6576 -0.3506
 3310SOL    HW121566   3.692   2.098   3.980 -0.2293  1.2451  0.4983
 3310SOL    HW221567   3.626   2.161   3.856  0.7340 -1.2119 -1.6664
 3311SOL     OW21568   3.652   3.442   6.972 -1.4317  0.7444 -0.0116
 3311SOL    HW121569   3.656   3.515   6.909  1.4155  0.8524  0.2649
 3311SOL    HW221570   3.620   3.477   7.055  0.7978  0.8193  0.8162
 3312SOL     OW21571   1.118   0.317  13.251 -0.6143  0.1276  0.0426
 3312SOL    HW121572   1.147   0.406  13.230  1.1627 -0.1688  1.2058
 3312SOL    HW221573   1.022   0.320  13.257 -0.4560  1.3702  2.1662
 3313SOL     OW21574   3.997   2.609   4.084  0.1160 -0.5939  0.0109
 3313SOL    HW121575   4.058   2.629   4.013 -2.2100  2.2050 -1.1811
 3313SOL    HW221576   4.003   2.680   4.148 -2.3851 -1.2220  0.9240
 3314SOL     OW21577   2.310   0.971   6.927 -0.8229  0.3769 -0.5936
 3314SOL    HW121578   2.323   1.052   6.976  0.5130  0.0028 -0.3383
 3314SOL    HW221579   2.402   0.943   6.921 -1.1279 -0.4617 -1.3907
 3315SOL     OW21580   3.491   0.412   1.500  0.1866 -0.2731 -0.5476
 3315SOL    HW121581   3.571   0.373   1.465  0.5504 -3.2425  3.5696
 3315SOL    HW221582   3.418   0.376   1.450  1.1460 -1.0814 -1.3624
 3316SOL     OW21583   0.699   2.037  10.687 -0.4873 -0.5583  0.2495
 3316SOL    HW121584   0.698   1.975  10.614  0.9011 -0.6617  0.3164
 3316SOL    HW221585   0.689   1.981  10.764  1.9020 -0.5357  0.5615
 3317SOL     OW21586   1.651   3.585   2.005 -0.4243  0.1074 -0.2175
 3317SOL    HW121587   1.700   3.633   2.072 -1.2763  0.5831  0.0623
 3317SOL    HW221588   1.589   3.527   2.049  1.3264 -0.6464  1.2512
 3318SOL     OW21589   1.377   1.036   8.324  0.0925  0.5086  0.1289
 3318SOL    HW121590   1.445   0.985   8.281  1.1764  0.7883  1.5290
 3318SOL    HW221591   1.427   1.086   8.388 -2.1371  2.0345  0.6903
 3319SOL     OW21592   3.144   1.440   2.044 -0.4687  0.3992  0.7189
 3319SOL    HW121593   3.224   1.487   2.067 -0.1472 -0.0666  0.5436
 3319SOL    HW221594   3.083   1.501   2.003 -1.1600 -0.2915  0.7087
 3320SOL     OW21595   0.448   2.993   3.105  0.3343 -0.3897  0.2395
 3320SOL    HW121596   0.527   2.973   3.155 -1.2196 -0.8057  2.5425
 3320SOL    HW221597   0.494   3.029   3.030  1.8325 -0.0307  1.3365
 3321SOL     OW21598   0.255   4.000  17.585 -0.6249  0.4861  0.0293
 3321SOL    HW121599   0.240   4.016  17.492 -1.9419 -0.0505  0.1549
 3321SOL    HW221600   0.213   3.914  17.592  2.2536 -0.8711  0.4798
 3322SOL     OW21601   0.205   3.419   2.565  0.5508 -0.0462  0.4938
 3322SOL    HW121602   0.298   3.439   2.571  0.5370  0.6277 -1.6297
 3322SOL    HW221603   0.174   3.509   2.552 -0.6421 -0.2856  1.6907
 3323SOL     OW21604   0.653   2.538   9.281 -0.3428 -0.1852 -0.0605
 3323SOL    HW121605   0.559   2.554   9.268 -0.2300 -0.2289 -0.9429
 3323SOL    HW221606   0.651   2.538   9.377 -1.0947 -1.5301 -0.0692
 3324SOL     OW21607   3.737   3.569  17.084 -0.7375  0.4608  0.0710
 3324SOL    HW121608   3.703   3.639  17.030  0.7884  1.1325 -0.0267
 3324SOL    HW221609   3.828   3.561  17.056 -0.8595 -0.6240 -0.0259
 3325SOL     OW21610   0.664   3.915   0.397  0.4500  0.1051  0.5898
 3325SOL    HW121611   0.749   3.903   0.438  0.0436  2.5371  2.1618
 3325SOL    HW221612   0.687   3.886   0.309  1.3080 -0.9538  1.1694
 3326SOL     OW21613   2.702   1.045   1.690  0.0897 -0.0111 -0.0439
 3326SOL    HW121614   2.640   0.973   1.704 -2.1237  1.4139 -2.7738
 3326SOL    HW221615   2.774   0.997   1.649 -1.9601 -2.9304 -0.1936
 3327SOL     OW21616   1.029   0.397   6.840  0.0888  0.7247 -0.0761
 3327SOL    HW121617   0.978   0.316   6.838  0.3625  0.5994 -2.0378
 3327SOL    HW221618   1.115   0.356   6.834  0.0095  0.3536  1.4242
 3328SOL     OW21619   2.966   3.601   4.684  0.0311 -0.2988 -0.2953
 3328SOL    HW121620   2.893   3.539   4.694 -0.5333  0.2876 -0.8045
 3328SOL    HW221621   2.976   3.587   4.589 -0.4280 -0.0146 -0.3842
 3329SOL     OW21622   1.728   2.430   5.199  0.1309  0.0814  0.3226
 3329SOL    HW121623   1.649   2.455   5.247  0.1709 -0.3040  0.5896
 3329SOL    HW221624   1.739   2.342   5.235 -0.2474 -0.0323  0.1575
 3330SOL     OW21625   3.300   0.562   6.798 -0.1889 -0.3364 -0.4147
 3330SOL    HW121626   3.254   0.576   6.881  0.7935 -0.8499  0.2108
 3330SOL    HW221627   3.233   0.568   6.730 -1.3515 -0.6122  0.7067
 3331SOL     OW21628   4.360   4.331   6.260 -0.1105 -0.1855 -0.1695
 3331SOL    HW121629   4.352   4.422   6.231  0.7836 -0.0561  0.0019
 3331SOL    HW221630   4.358   4.346   6.355 -0.2164 -1.3866  0.0155
 3332SOL     OW21631   2.168   2.482  16.797 -0.0016  0.2834  0.1411
 3332SOL    HW121632   2.220   2.409  16.762  0.5650  0.8890 -0.2751
 3332SOL    HW221633   2.198   2.476  16.888 -0.7038  1.0005  0.4181
 3333SOL     OW21634   2.948   4.700  16.344 -0.0847  0.3939  0.2812
 3333SOL    HW121635   2.899   4.693  16.426 -2.1316  3.5449 -0.6756
 3333SOL    HW221636   2.938   4.610  16.312 -0.5784 -0.1804  2.0376
 3334SOL     OW21637   1.551   0.386   8.033 -0.2187 -0.1996 -0.0398
 3334SOL    HW121638   1.577   0.469   7.993  0.4851 -0.9189 -1.0665
 3334SOL    HW221639   1.500   0.348   7.961 -0.1865 -1.7807  0.7647
 3335SOL     OW21640   1.442   1.480   8.197 -0.1060 -0.2197 -0.4981
 3335SOL    HW121641   1.501   1.406   8.212 -1.0134 -0.5476  1.4535
 3335SOL    HW221642   1.401   1.454   8.115 -0.9230 -2.0182  0.4752
 3336SOL     OW21643   3.672   3.216   2.978 -0.6149 -0.0529  0.5468
 3336SOL    HW121644   3.642   3.225   3.068  1.2140 -0.2711  1.1850
 3336SOL    HW221645   3.768   3.212   2.982 -0.5021 -0.1916 -2.2421
 3337SOL     OW21646   2.436   0.584   9.339  0.7200  0.3288  0.5310
 3337SOL    HW121647   2.428   0.568   9.433 -1.4359 -0.0281  0.3006
 3337SOL    HW221648   2.425   0.494   9.309 -0.6407  0.6221  0.1241
 3338SOL     OW21649   1.561   1.137   7.325 -0.1300 -0.3919  0.2079
 3338SOL    HW121650   1.627   1.069   7.309  1.3966  0.9802  0.7128
 3338SOL    HW221651   1.614   1.217   7.331  1.3238 -1.2368 -1.2545
 3339SOL     OW21652   3.208   2.053   2.792  0.3587 -0.2444 -0.0493
 3339SOL    HW121653   3.245   2.139   2.811  1.5844 -0.7312 -0.1834
 3339SOL    HW221654   3.182   2.069   2.701 -1.6805 -0.6024  0.4760
 3340SOL     OW21655   0.818   2.311   2.577 -0.3667 -0.0452 -0.2885
 3340SOL    HW121656   0.775   2.294   2.661  0.2106  0.4499  0.1188
 3340SOL    HW221657   0.747   2.290   2.516 -0.2215  1.1097 -0.8486
 3341SOL     OW21658   0.503   1.972   5.725  0.7082 -0.2693 -0.1194
 3341SOL    HW121659   0.595   1.949   5.712  0.6873  0.6490 -1.9209
 3341SOL    HW221660   0.482   2.044   5.665  1.0626  0.4427  0.6079
 3342SOL     OW21661   2.768   4.189   5.661  0.3499  0.3139 -0.1907
 3342SOL    HW121662   2.714   4.193   5.740  1.5776 -0.6510  0.7188
 3342SOL    HW221663   2.805   4.107   5.694 -0.1783  0.1019 -0.1290
 3343SOL     OW21664   0.093   1.025   8.856 -0.4549 -0.4762  0.2033
 3343SOL    HW121665   0.090   0.953   8.919 -2.3748  1.1126  1.9642
 3343SOL    HW221666   0.127   1.101   8.903  0.8768 -0.3554 -0.9703
 3344SOL     OW21667   3.668   3.495   1.822  0.0216  0.0559  0.0909
 3344SOL    HW121668   3.734   3.477   1.890  0.2147  1.2227  0.2054
 3344SOL    HW221669   3.596   3.532   1.872 -0.4896 -1.9033  0.8041
 3345SOL     OW21670   3.962   2.707  14.953 -0.3218 -0.2079 -0.5266
 3345SOL    HW121671   3.956   2.800  14.976 -1.4575  0.5064 -3.7051
 3345SOL    HW221672   4.000   2.665  15.030 -0.3013  1.1786  0.2247
 3346SOL     OW21673   0.757   1.402  15.736 -0.5467  0.2722 -0.4509
 3346SOL    HW121674   0.826   1.336  15.728 -0.2332  0.4700  0.6507
 3346SOL    HW221675   0.752   1.429  15.828 -2.5667 -2.4522  0.2406
 3347SOL     OW21676   4.002   2.725   1.837  0.2648  0.2262 -0.0206
 3347SOL    HW121677   4.075   2.664   1.825 -0.0114  0.2962 -1.9963
 3347SOL    HW221678   4.052   2.807   1.833  3.0505 -1.4914 -0.5999
 3348SOL     OW21679   1.520   3.230   7.559 -0.4423  0.2722  0.2119
 3348SOL    HW121680   1.508   3.280   7.478 -1.2283  0.6313  0.5453
 3348SOL    HW221681   1.473   3.283   7.623 -0.1870  0.7395  0.0108
 3349SOL     OW21682   0.923   4.202   5.207  0.1353 -0.0165  0.1629
 3349SOL    HW121683   0.893   4.124   5.253 -0.7557 -0.1671 -0.6845
 3349SOL    HW221684   1.011   4.216   5.242  0.1955  0.2516 -0.0978
 3350SOL     OW21685   1.369   2.271   4.494  0.2053 -0.3790 -0.5896
 3350SOL    HW121686   1.393   2.264   4.586  3.6820  0.8618 -1.3805
 3350SOL    HW221687   1.452   2.301   4.457 -0.3428 -1.5357 -2.7588
 3351SOL     OW21688   1.028   4.509   8.495 -0.0125  0.2671 -0.1439
 3351SOL    HW121689   1.054   4.417   8.498  1.0782  0.5792  0.1875
 3351SOL    HW221690   1.074   4.543   8.572  1.5002  0.9609 -1.3464
 3352SOL     OW21691   3.477   2.281   3.845  0.2873  0.2254 -0.7847
 3352SOL    HW121692   3.426   2.341   3.791 -0.0502  0.1168 -0.5893
 3352SOL    HW221693   3.458   2.314   3.933 -1.2528 -2.1502 -0.2319
 3353SOL     OW21694   0.495   3.451  15.353 -0.4161  0.2095 -0.3951
 3353SOL    HW121695   0.445   3.452  15.272 -0.3161 -2.6903 -0.4855
 3353SOL    HW221696   0.512   3.358  15.368 -1.6215  0.1726  0.7093
 3354SOL     OW21697   1.825   0.698  14.686 -0.0270 -0.6055 -0.2574
 3354SOL    HW121698   1.921   0.706  14.689  0.0133 -0.9867 -0.6142
 3354SOL    HW221699   1.793   0.787  14.671 -0.7026 -1.1012 -1.7129
 3355SOL     OW21700   3.875   4.448   7.961  0.2709 -0.4147 -0.0974
 3355SOL    HW121701   3.843   4.393   7.889 -2.0595 -0.8579  1.2958
 3355SOL    HW221702   3.812   4.519   7.971 -0.4823 -0.9572 -1.0101
 3356SOL     OW21703   1.104   1.776  10.701 -0.1517  0.0929  0.4280
 3356SOL    HW121704   1.019   1.788  10.660  1.0504 -0.9998 -2.3749
 3356SOL    HW221705   1.066   1.769  10.789  0.1114 -1.1337  0.4427
 3357SOL     OW21706   1.064   2.512  10.112  0.1727 -0.3653  0.1358
 3357SOL    HW121707   1.103   2.539  10.029 -2.0616  3.7857  0.4545
 3357SOL    HW221708   0.974   2.529  10.084  0.1285 -2.4420 -0.9938
 3358SOL     OW21709   3.979   4.129   4.224 -0.0848  0.4004  0.2470
 3358SOL    HW121710   3.899   4.103   4.178 -1.6495  2.8594  1.6082
 3358SOL    HW221711   3.982   4.221   4.198 -0.8218 -0.2840 -2.2898
 3359SOL     OW21712   3.720   0.370   3.507 -0.2171 -0.0227 -0.1950
 3359SOL    HW121713   3.802   0.403   3.544 -2.1233  1.0885  3.0564
 3359SOL    HW221714   3.743   0.287   3.465 -1.5703 -0.6762  0.3515
 3360SOL     OW21715   4.695   4.130   0.530  0.0229 -0.6723  0.7669
 3360SOL    HW121716   0.009   4.211   0.534  0.6214 -1.0441  0.5832
 3360SOL    HW221717   0.031   4.070   0.544  1.1041  0.6473  0.8166
 3361SOL     OW21718   2.124   2.681   2.355 -0.1472 -0.2308 -0.2063
 3361SOL    HW121719   2.164   2.720   2.433 -2.4641  0.3013  0.7256
 3361SOL    HW221720   2.138   2.588   2.371 -0.0749  0.1760  2.0197
 3362SOL     OW21721   4.340   2.822   7.733  0.1295  0.4859  0.1416
 3362SOL    HW121722   4.316   2.866   7.815  0.3980  0.8174  0.0414
 3362SOL    HW221723   4.433   2.803   7.733 -0.1330 -0.7665  0.6138
 3363SOL     OW21724   0.866   1.105   1.459  0.1200 -0.6012  0.6216
 3363SOL    HW121725   0.925   1.122   1.386  1.6655 -0.6818  1.8652
 3363SOL    HW221726   0.785   1.071   1.420 -0.1201  0.1629  0.4622
 3364SOL     OW21727   0.433   3.779  17.275 -0.2862 -0.2266 -0.1297
 3364SOL    HW121728   0.409   3.687  17.277 -1.1216 -0.0112 -0.1723
 3364SOL    HW221729   0.344   3.809  17.254 -0.2098 -1.1333 -1.8126
 3365SOL     OW21730   1.833   1.786   7.412 -0.0571  0.1676  0.2749
 3365SOL    HW121731   1.872   1.704   7.381  1.3466  0.7553  0.5057
 3365SOL    HW221732   1.906   1.846   7.397  1.4148 -1.5185  0.5706
 3366SOL     OW21733   0.178   1.815   2.053 -0.7149 -0.2659 -0.3454
 3366SOL    HW121734   0.128   1.751   2.002 -0.1316 -1.7438  0.9338
 3366SOL    HW221735   0.216   1.870   1.984  1.6899 -0.3161  0.9536
 3367SOL     OW21736   0.631   3.831   1.927  0.7117  0.3510 -0.6198
 3367SOL    HW121737   0.585   3.910   1.956  0.5790  0.3982 -0.9591
 3367SOL    HW221738   0.665   3.859   1.842 -0.3809  0.7321 -0.9255
 3368SOL     OW21739   4.237   3.533  14.945  0.4548 -0.1937  0.2509
 3368SOL    HW121740   4.148   3.503  14.926  0.5527 -0.0999 -0.3533
 3368SOL    HW221741   4.274   3.472  14.881 -1.0988 -1.4496  0.5519
 3369SOL     OW21742   0.633   1.974   5.049 -0.5340 -0.5939 -0.9116
 3369SOL    HW121743   0.590   1.893   5.078 -1.5123  0.1065 -0.4030
 3369SOL    HW221744   0.669   1.998   5.134  1.5501 -2.8586 -1.1671
 3370SOL     OW21745   4.422   1.747   2.310  0.0457 -0.0070 -0.5437
 3370SOL    HW121746   4.346   1.690   2.324  1.1781 -1.2590  0.4991
 3370SOL    HW221747   4.415   1.807   2.384  4.6610  0.8853 -0.8327
 3371SOL     OW21748   2.495   0.682   6.781 -0.2281  0.1718  0.0380
 3371SOL    HW121749   2.513   0.775   6.770 -0.1849  0.1772  0.1577
 3371SOL    HW221750   2.496   0.682   6.877 -3.4041 -0.0064  0.0571
 3372SOL     OW21751   4.551   3.112   5.383 -0.5167  0.7391 -0.1221
 3372SOL    HW121752   4.490   3.129   5.454 -2.0955  0.4571 -1.4086
 3372SOL    HW221753   4.608   3.046   5.423 -0.4081  0.7500 -0.2586
 3373SOL     OW21754   4.334   1.618   6.611 -0.2341 -0.4384  0.2265
 3373SOL    HW121755   4.243   1.642   6.629 -0.1795 -1.4770  1.8952
 3373SOL    HW221756   4.379   1.702   6.610 -1.1339  0.0558  1.0188
 3374SOL     OW21757   1.519   1.453   3.855 -0.3806 -0.2936 -0.1005
 3374SOL    HW121758   1.595   1.407   3.890 -0.4181  0.8883  1.5462
 3374SOL    HW221759   1.546   1.544   3.867 -1.3644  0.1186 -0.9981
 3375SOL     OW21760   1.295   3.489   2.318 -0.0960  0.2420 -0.3245
 3375SOL    HW121761   1.319   3.552   2.385 -0.7233 -0.4016  0.5057
 3375SOL    HW221762   1.375   3.461   2.274 -1.4266 -2.8735 -0.8284
 3376SOL     OW21763   3.845   4.162   3.108 -0.1699 -0.1488  0.0335
 3376SOL    HW121764   3.885   4.192   3.190  1.5449 -2.3576  0.0190
 3376SOL    HW221765   3.905   4.201   3.044 -1.8376  0.7771 -0.9645
 3377SOL     OW21766   3.384   3.347  11.389 -0.5596 -0.7317  0.0570
 3377SOL    HW121767   3.424   3.280  11.334  0.6911  0.6934 -0.7715
 3377SOL    HW221768   3.464   3.367  11.438 -0.3293 -2.7793  0.5073
 3378SOL     OW21769   3.545   4.059  16.605  0.1384  0.3409 -0.6097
 3378SOL    HW121770   3.637   4.085  16.605  0.2993 -0.2487 -0.7033
 3378SOL    HW221771   3.544   3.971  16.641  0.0177  0.3652 -0.5554
 3379SOL     OW21772   2.727   2.623   1.540 -0.5448 -0.1098  0.2289
 3379SOL    HW121773   2.704   2.530   1.533 -1.3430  0.1682 -0.8338
 3379SOL    HW221774   2.762   2.642   1.453 -0.6096  0.5377  0.3454
 3380SOL     OW21775   1.632   4.165   7.615 -0.5852 -0.1357  0.4203
 3380SOL    HW121776   1.712   4.120   7.588 -1.0600  0.1912 -1.5081
 3380SOL    HW221777   1.581   4.090   7.646  0.0355 -0.3234  1.0200
 3381SOL     OW21778   1.904   4.134   2.178 -0.7531  0.1574  0.0241
 3381SOL    HW121779   1.906   4.134   2.273 -0.7540  2.0184  0.0236
 3381SOL    HW221780   1.810   4.116   2.167 -0.3550 -2.8294  1.4329
 3382SOL     OW21781   0.983   1.378   4.122  0.3491  0.2032 -0.1298
 3382SOL    HW121782   1.076   1.403   4.115  1.1770 -2.0409  2.8764
 3382SOL    HW221783   0.941   1.453   4.080  1.3368  1.0134  0.2976
 3383SOL     OW21784   2.976   1.444   2.611  0.4642 -0.4193 -0.3371
 3383SOL    HW121785   2.964   1.524   2.561 -0.5757  1.2173  2.5048
 3383SOL    HW221786   2.948   1.479   2.696 -1.8503 -1.3215 -0.7323
 3384SOL     OW21787   3.789   4.736   9.028  0.1054 -0.4153 -0.1281
 3384SOL    HW121788   3.833   0.030   9.107 -3.4395 -0.0055  1.6906
 3384SOL    HW221789   3.704   0.041   9.040  0.8962  1.2777 -0.7025
 3385SOL     OW21790   0.378   0.796   2.225  0.0893  0.1177 -0.4514
 3385SOL    HW121791   0.368   0.720   2.281 -1.0724  1.7898  1.6078
 3385SOL    HW221792   0.419   0.761   2.146 -1.1746 -1.8608 -0.2210
 3386SOL     OW21793   4.251   0.220   7.683  0.4149  0.0845 -1.2058
 3386SOL    HW121794   4.296   0.172   7.753  0.1939  1.2472 -0.2595
 3386SOL    HW221795   4.311   0.293   7.667 -2.2362  2.8190  1.6223
 3387SOL     OW21796   4.229   2.959   6.932 -0.2325 -0.2473 -0.0998
 3387SOL    HW121797   4.282   3.036   6.913  2.0692 -1.7084  0.3871
 3387SOL    HW221798   4.186   2.973   7.016 -2.4309  0.0351 -1.2764
 3388SOL     OW21799   0.948   1.338   7.471  0.0441 -0.7292 -0.2757
 3388SOL    HW121800   0.918   1.414   7.420  0.2812  0.4029  1.2818
 3388SOL    HW221801   1.035   1.367   7.500 -0.3627  1.3263 -1.1202
 3389SOL     OW21802   2.852   2.096   5.073  0.3049  0.1675 -0.9989
 3389SOL    HW121803   2.826   2.007   5.051  0.2057  0.3726 -1.7436
 3389SOL    HW221804   2.947   2.098   5.066  0.2513  2.6111 -1.2382
 3390SOL     OW21805   1.833   0.011  12.979 -0.0809  0.1588  0.1234
 3390SOL    HW121806   1.755   0.043  13.024  0.5184  2.2444 -0.3076
 3390SOL    HW221807   1.868   4.708  13.059 -0.9128  0.7486  0.7943
 3391SOL     OW21808   4.603   2.174  17.678  0.3992  0.0658  0.1580
 3391SOL    HW121809   4.661   2.245  17.706  0.3346  0.0005  0.4518
 3391SOL    HW221810   4.628   2.173  17.586 -1.6384  0.5836 -0.4002
 3392SOL     OW21811   0.889   0.002   3.053  0.2755 -0.1844 -0.1409
 3392SOL    HW121812   0.857   4.654   3.025 -2.1247  0.1925  1.4943
 3392SOL    HW221813   0.962   4.722   3.112 -0.9076 -2.5283  0.6515
 3393SOL     OW21814   4.222   3.830   4.004  0.1653 -0.1597 -0.4844
 3393SOL    HW121815   4.312   3.799   3.994  0.5580  0.9664 -0.4925
 3393SOL    HW221816   4.229   3.859   4.095  0.4777 -1.8112  0.0228
 3394SOL     OW21817   2.247   4.490   8.775  0.2693 -0.2700  0.2913
 3394SOL    HW121818   2.322   4.433   8.792 -0.3133 -1.3417 -0.7302
 3394SOL    HW221819   2.289   4.524   8.696 -2.5234 -0.0628 -1.0888
 3395SOL     OW21820   2.320   3.722  13.898 -0.0618 -0.1463 -0.1845
 3395SOL    HW121821   2.322   3.626  13.905 -1.7866 -0.2847 -1.5887
 3395SOL    HW221822   2.240   3.725  13.846 -0.4757  0.0187  0.4570
 3396SOL     OW21823   1.578   4.357   8.206 -0.1645 -0.3748 -0.3240
 3396SOL    HW121824   1.670   4.337   8.186 -0.0366 -0.5493  0.4195
 3396SOL    HW221825   1.564   4.451   8.195  0.8274  0.1281  2.4826
 3397SOL     OW21826   0.524   4.656   7.468  0.2911  0.2194  0.3125
 3397SOL    HW121827   0.548   4.711   7.543  1.0509  1.5280 -0.8942
 3397SOL    HW221828   0.466   4.595   7.513 -2.1301  1.5058 -1.0686
 3398SOL     OW21829   1.659   1.288   4.607  0.1973  0.0958  0.5809
 3398SOL    HW121830   1.624   1.356   4.550  2.2524  0.7600  0.0927
 3398SOL    HW221831   1.725   1.337   4.656  3.1623 -2.2225 -1.0882
 3399SOL     OW21832   0.469   1.703   5.606 -0.0738 -0.0167  0.4701
 3399SOL    HW121833   0.467   1.796   5.630  1.3980  0.7631 -2.4479
 3399SOL    HW221834   0.378   1.681   5.630 -0.3787 -2.0214 -2.5349
 3400SOL     OW21835   3.224   2.475   3.900  0.1836 -0.3107 -0.0963
 3400SOL    HW121836   3.178   2.445   3.979 -1.2437  4.1869  0.8093
 3400SOL    HW221837   3.153   2.500   3.841  0.8387  0.3003 -0.6387
 3401SOL     OW21838   2.348   4.565   8.527  0.4629  0.0861 -0.5082
 3401SOL    HW121839   2.392   4.639   8.568  0.2122  1.5848 -2.9057
 3401SOL    HW221840   2.426   4.531   8.484 -0.1078  1.0031 -2.2721
 3402SOL     OW21841   2.783   4.237  16.330 -0.7594 -0.0886 -0.8197
 3402SOL    HW121842   2.709   4.176  16.329 -0.0036 -1.0119 -0.3413
 3402SOL    HW221843   2.740   4.323  16.340  0.4017  0.6185 -1.9298
 3403SOL     OW21844   3.132   2.111   5.009 -0.0321 -0.3536  0.6145
 3403SOL    HW121845   3.149   2.198   5.046  1.3910  0.1333 -1.1616
 3403SOL    HW221846   3.212   2.109   4.955  0.9906 -1.7117  2.1800
 3404SOL     OW21847   1.988   1.730  16.155 -0.9631 -0.0603  0.3167
 3404SOL    HW121848   2.075   1.689  16.159 -1.4870 -1.1412  0.6622
 3404SOL    HW221849   1.969   1.732  16.249  0.0873  0.3716  0.5290
 3405SOL     OW21850   4.317   3.896   2.921  0.9097  0.4090 -0.1756
 3405SOL    HW121851   4.376   3.848   2.862  0.7861  0.8763 -0.6792
 3405SOL    HW221852   4.357   3.983   2.916  1.0976  0.2458 -1.5704
 3406SOL     OW21853   2.800   1.737  16.084 -0.1850  0.6925 -0.1921
 3406SOL    HW121854   2.807   1.803  16.153 -0.1633 -1.5364  1.9321
 3406SOL    HW221855   2.780   1.799  16.014 -0.8158  2.0975  1.2338
 3407SOL     OW21856   0.241   3.470   5.003  0.5568  0.2635 -0.0509
 3407SOL    HW121857   0.298   3.416   4.948  0.1236 -0.7614  0.4964
 3407SOL    HW221858   0.293   3.549   5.019 -1.3844  1.5323 -0.0758
 3408SOL     OW21859   1.895   1.230   8.087  0.4377 -0.3657  0.2120
 3408SOL    HW121860   1.920   1.250   8.177  0.9118 -2.2372  0.4899
 3408SOL    HW221861   1.979   1.193   8.059  1.1290  0.7218  0.8244
 3409SOL     OW21862   1.206   1.805  17.548 -0.3234 -0.0780 -0.4703
 3409SOL    HW121863   1.131   1.856  17.520 -0.9633 -0.2075  1.0202
 3409SOL    HW221864   1.270   1.849  17.492 -0.1073  1.1299  0.7407
 3410SOL     OW21865   2.020   2.185  14.835  0.7674 -0.6208  0.5631
 3410SOL    HW121866   2.093   2.203  14.894  0.5579  3.4423 -0.4256
 3410SOL    HW221867   1.974   2.269  14.838  1.0897 -0.4608  0.9653
 3411SOL     OW21868   2.483   0.904   6.111  0.2867  0.0327  0.1492
 3411SOL    HW121869   2.563   0.898   6.163  0.7400  1.7282 -0.3715
 3411SOL    HW221870   2.440   0.974   6.160 -0.7297  0.1345 -0.8837
 3412SOL     OW21871   1.393   0.603  16.616 -0.3680 -0.1909 -0.8730
 3412SOL    HW121872   1.476   0.621  16.660 -1.3687 -1.3901  1.5569
 3412SOL    HW221873   1.385   0.660  16.540  1.1770  1.5263  0.2373
 3413SOL     OW21874   1.501   2.102   7.145 -0.0630  0.5326  0.3457
 3413SOL    HW121875   1.483   2.175   7.203 -2.3529  0.0940  0.1863
 3413SOL    HW221876   1.558   2.047   7.199  1.2102  0.1871 -1.3523
 3414SOL     OW21877   1.787   2.320   7.860  0.5645  0.5170  0.1106
 3414SOL    HW121878   1.701   2.285   7.835  1.2104 -1.7823  1.1252
 3414SOL    HW221879   1.828   2.235   7.875  1.6819  1.0388  0.0059
 3415SOL     OW21880   4.622   3.997  12.668 -0.0512 -0.2626 -0.5028
 3415SOL    HW121881   4.577   4.025  12.588  1.4592  0.0235 -1.2429
 3415SOL    HW221882   4.674   3.921  12.645  2.2364  2.5676 -4.7676
 3416SOL     OW21883   2.858   0.846   2.167 -0.4018  0.5215  0.2875
 3416SOL    HW121884   2.919   0.785   2.208  0.0692 -1.0510 -2.7180
 3416SOL    HW221885   2.885   0.926   2.211  1.0406 -0.2911  0.8562
 3417SOL     OW21886   2.596   4.177   6.700 -0.5153 -0.1640  0.1512
 3417SOL    HW121887   2.593   4.220   6.785  1.6371  1.0388 -0.3931
 3417SOL    HW221888   2.547   4.234   6.640  1.0434  0.8852 -0.1086
 3418SOL     OW21889   1.435   0.855   8.057  0.2172  0.2407 -0.5536
 3418SOL    HW121890   1.465   0.945   8.069 -1.2988  0.6752 -0.1484
 3418SOL    HW221891   1.373   0.840   8.128  2.7383  1.2191  1.8536
 3419SOL     OW21892   3.961   1.011   2.391  0.4691 -0.0052  0.4098
 3419SOL    HW121893   4.013   0.976   2.319 -1.7011 -1.5542 -0.4355
 3419SOL    HW221894   3.899   1.064   2.341 -0.1269 -1.1051 -0.0254
 3420SOL     OW21895   3.005   3.167   2.340  0.6764  0.2848  0.3144
 3420SOL    HW121896   3.001   3.256   2.306 -0.4791 -0.5675 -1.7764
 3420SOL    HW221897   2.915   3.137   2.348 -0.0325  2.8233  1.6911
 3421SOL     OW21898   0.291   0.150  15.846  0.2161  0.5643  0.7061
 3421SOL    HW121899   0.304   0.177  15.937 -0.5993 -1.2669  1.3834
 3421SOL    HW221900   0.210   0.190  15.813 -0.5959 -1.3403  0.3245
 3422SOL     OW21901   2.757   0.213  14.541 -0.1942 -0.0074  0.4692
 3422SOL    HW121902   2.768   0.301  14.576  0.7493 -0.4191  1.2078
 3422SOL    HW221903   2.729   0.165  14.619  0.0422 -0.4551  0.2794
 3423SOL     OW21904   1.429   2.947  11.867 -0.0955  0.2295 -0.1636
 3423SOL    HW121905   1.438   2.856  11.896 -0.7640 -0.0904 -0.9720
 3423SOL    HW221906   1.345   2.936  11.821  0.9940 -0.1335 -2.0394
 3424SOL     OW21907   2.886   3.034  11.684 -0.1482 -0.0639  0.2770
 3424SOL    HW121908   2.805   3.003  11.723 -0.1687  0.7268  0.8617
 3424SOL    HW221909   2.946   2.964  11.711 -0.1956 -1.0852 -2.1888
 3425SOL     OW21910   4.494   2.927  17.458  0.1033  0.0663  0.3344
 3425SOL    HW121911   4.496   2.967  17.371 -2.6044  0.1502  0.3267
 3425SOL    HW221912   4.577   2.957  17.497 -0.5878  0.2682  1.6666
 3426SOL     OW21913   2.640   1.205   3.348 -0.2943 -0.2876  0.4444
 3426SOL    HW121914   2.574   1.197   3.418 -1.3406 -0.9853 -0.6066
 3426SOL    HW221915   2.673   1.292   3.369  2.4320 -2.2372  4.2089
 3427SOL     OW21916   4.584   0.414   3.139 -0.3617  0.2377  0.2842
 3427SOL    HW121917   4.658   0.468   3.165 -1.5348  0.8677  2.2912
 3427SOL    HW221918   4.551   0.385   3.224  1.3467  1.6257  1.4118
 3428SOL     OW21919   0.739   2.277   5.757  0.4027  0.4808  0.5029
 3428SOL    HW121920   0.752   2.193   5.714 -1.5444  1.4979 -2.1131
 3428SOL    HW221921   0.821   2.319   5.784  1.0181 -0.0351 -0.5746
 3429SOL     OW21922   0.396   0.393  14.665  0.3425  0.0975 -0.5810
 3429SOL    HW121923   0.348   0.312  14.682  0.1167  0.3017 -0.2515
 3429SOL    HW221924   0.483   0.359  14.645  0.1277 -0.4988 -0.4990
 3430SOL     OW21925   0.947   0.121   8.778 -0.1582  0.0945 -0.1826
 3430SOL    HW121926   0.888   0.196   8.771  2.5559  1.9614 -3.1751
 3430SOL    HW221927   1.026   0.165   8.811 -0.3301  2.2341 -2.6315
 3431SOL     OW21928   4.443   4.227   7.664 -0.0457 -0.2161 -0.8291
 3431SOL    HW121929   4.487   4.145   7.640 -1.8264 -0.9556 -1.6706
 3431SOL    HW221930   4.377   4.193   7.725  1.6895 -1.6844  0.1982
 3432SOL     OW21931   1.329   1.614   6.403  0.5688 -0.3132 -0.2740
 3432SOL    HW121932   1.279   1.690   6.431 -0.4428 -1.6028  1.4224
 3432SOL    HW221933   1.409   1.622   6.456  0.6313  1.8612 -0.6845
 3433SOL     OW21934   2.939   3.518   5.080  0.3154  0.6868  0.2253
 3433SOL    HW121935   2.904   3.446   5.026 -1.2818  0.0899  2.0243
 3433SOL    HW221936   2.914   3.593   5.027  0.8815 -0.0616 -1.1023
 3434SOL     OW21937   0.836   1.595   4.053  0.6367 -0.0496  0.3841
 3434SOL    HW121938   0.755   1.642   4.033  0.8287 -0.2623 -0.8809
 3434SOL    HW221939   0.851   1.625   4.143  0.2176  0.4837  0.2774
 3435SOL     OW21940   1.602   2.770   7.316 -0.2164 -0.0394  0.4793
 3435SOL    HW121941   1.553   2.851   7.299  1.1370  0.5215 -0.7577
 3435SOL    HW221942   1.688   2.806   7.339 -0.1798 -0.0612  0.3745
 3436SOL     OW21943   0.884   1.475  17.365 -0.2540  0.3450  0.2005
 3436SOL    HW121944   0.847   1.420  17.296 -0.0302  0.1634  0.2239
 3436SOL    HW221945   0.978   1.457  17.360 -0.8897 -1.8906 -3.8336
 3437SOL     OW21946   3.325   2.771  15.952 -0.3588  0.1949  0.4772
 3437SOL    HW121947   3.297   2.682  15.973 -0.1930  0.0862  0.2385
 3437SOL    HW221948   3.240   2.805  15.925 -0.2806  0.4312  0.5271
 3438SOL     OW21949   0.407   0.366   7.194  0.0094 -0.7270  0.2200
 3438SOL    HW121950   0.483   0.326   7.237  0.5958 -2.1973 -2.1834
 3438SOL    HW221951   0.451   0.400   7.116  2.7425  0.9954  2.5515
 3439SOL     OW21952   4.688   4.599   5.122 -0.0673  0.2760  0.2884
 3439SOL    HW121953   4.602   4.640   5.128 -0.8767 -0.9431 -2.9756
 3439SOL    HW221954   4.701   4.600   5.217 -1.3837 -0.6979  0.4798
 3440SOL     OW21955   1.103   3.731   1.877  0.6956  0.0367  0.4022
 3440SOL    HW121956   1.036   3.706   1.941 -1.1694  1.2374 -1.0787
 3440SOL    HW221957   1.115   3.826   1.880  2.4779 -0.2599  2.3216
 3441SOL     OW21958   0.313   3.726   8.100  0.1933 -0.0712 -0.2677
 3441SOL    HW121959   0.238   3.785   8.084  0.4464  0.6667  1.2806
 3441SOL    HW221960   0.379   3.773   8.049 -0.5949  1.6787  0.3033
 3442SOL     OW21961   2.012   3.913   2.053  0.1570  0.6596  0.0854
 3442SOL    HW121962   1.958   3.989   2.076 -0.6342  0.2180 -0.3291
 3442SOL    HW221963   2.023   3.870   2.137 -3.7427  0.0188  0.2657
 3443SOL     OW21964   3.726   0.957   1.985  0.1169 -0.1275 -0.2428
 3443SOL    HW121965   3.690   0.881   2.030 -0.4723  1.1918  1.5539
 3443SOL    HW221966   3.743   0.923   1.897  2.0093 -1.8515  0.7881
 3444SOL     OW21967   4.725   0.103   4.950 -0.5123  0.1329 -0.2276
 3444SOL    HW121968   4.694   0.170   5.011  0.3727 -0.9174  1.3939
 3444SOL    HW221969   4.719   0.028   5.009  1.1167  1.1734  1.2659
 3445SOL     OW21970   0.119   4.310   6.128  0.1422  0.2765  0.6385
 3445SOL    HW121971   0.213   4.314   6.112 -0.2271 -1.2306 -1.9662
 3445SOL    HW221972   0.110   4.228   6.177  0.0641  1.1971  2.1675
 3446SOL     OW21973   1.317   1.475  10.107 -0.4164 -0.8782 -0.6318
 3446SOL    HW121974   1.302   1.435  10.021  0.1345 -1.5094 -0.4331
 3446SOL    HW221975   1.351   1.397  10.151  1.4050 -0.5260 -1.4009
 3447SOL     OW21976   1.473   2.965   9.310 -0.2548  0.4171 -0.5843
 3447SOL    HW121977   1.490   2.902   9.380 -0.1296 -1.5556 -2.3629
 3447SOL    HW221978   1.524   2.917   9.244 -0.4125 -1.5884  0.7573
 3448SOL     OW21979   3.689   2.151  16.965 -0.2242  0.5353  0.0526
 3448SOL    HW121980   3.726   2.070  17.001  0.3431  0.5825 -0.4189
 3448SOL    HW221981   3.726   2.212  17.028 -0.3608  1.0274 -0.3376
 3449SOL     OW21982   0.448   4.533   8.526 -0.2894 -0.0968  0.1893
 3449SOL    HW121983   0.434   4.515   8.618  1.1847  1.3507  0.7046
 3449SOL    HW221984   0.504   4.460   8.499  1.1339  0.7710  0.7617
 3450SOL     OW21985   0.329   2.526   5.391 -0.2157  0.1496 -0.4316
 3450SOL    HW121986   0.260   2.460   5.385 -0.4879  0.3113  0.8778
 3450SOL    HW221987   0.326   2.543   5.485  2.4955  0.5730 -0.4099
 3451SOL     OW21988   1.742   3.652   2.239 -0.0614 -0.7465  0.2104
 3451SOL    HW121989   1.807   3.711   2.276 -1.3549  2.1833 -2.1806
 3451SOL    HW221990   1.793   3.571   2.241  1.3116  0.1438  0.8945
 3452SOL     OW21991   2.493   0.671   8.671  0.2846  0.7548 -0.6519
 3452SOL    HW121992   2.434   0.619   8.725  1.8690  0.6426  0.9935
 3452SOL    HW221993   2.467   0.646   8.582  0.8988  0.3562 -0.7192
 3453SOL     OW21994   2.501   1.060  14.193 -0.1127  0.1621 -0.7384
 3453SOL    HW121995   2.542   1.147  14.191 -3.3229  1.6455 -1.8005
 3453SOL    HW221996   2.409   1.084  14.199  0.3540  1.5786  0.9342
 3454SOL     OW21997   0.808   1.885  13.547  0.4192  0.2609 -0.5004
 3454SOL    HW121998   0.810   1.938  13.468  0.5786 -0.9147 -1.2870
 3454SOL    HW221999   0.718   1.879  13.578  1.1946 -1.6370  1.3846
 3455SOL     OW22000   4.715   4.040   2.360 -0.2776  0.3135 -0.2258
 3455SOL    HW122001   4.688   4.042   2.451 -1.5101 -0.5049 -0.5763
 3455SOL    HW222002   4.711   4.134   2.341 -0.0067  0.2194 -0.7720
 3456SOL     OW22003   3.833   3.957   8.905  0.2622 -0.4982 -0.0225
 3456SOL    HW122004   3.763   3.895   8.925  0.1185 -0.9321 -1.8797
 3456SOL    HW222005   3.828   3.951   8.810  3.1887  0.1194 -0.2048
 3457SOL     OW22006   3.828   0.552   6.460 -0.4680  0.3844  0.2354
 3457SOL    HW122007   3.761   0.546   6.528 -0.7101 -0.8113 -0.0930
 3457SOL    HW222008   3.886   0.484   6.495  0.7205 -0.3471 -3.1245
 3458SOL     OW22009   1.133   1.451   8.434 -0.3347 -0.3164 -0.0648
 3458SOL    HW122010   1.052   1.423   8.477 -0.2409 -0.6402 -0.1049
 3458SOL    HW222011   1.148   1.381   8.371  0.5996  0.1105 -0.3189
 3459SOL     OW22012   1.378   0.117   5.929  0.7689  0.2482 -0.5044
 3459SOL    HW122013   1.292   0.155   5.944  1.1117  0.3370  1.2245
 3459SOL    HW222014   1.358   0.048   5.865 -1.0150 -0.1094  0.4493
 3460SOL     OW22015   4.198   0.603   0.177 -0.4118  0.5461  0.5952
 3460SOL    HW122016   4.290   0.584   0.154 -0.8974 -1.7325  0.4851
 3460SOL    HW222017   4.219   0.684   0.223 -1.9838  1.3699 -0.1519
 3461SOL     OW22018   0.271   2.456  17.183 -0.1822  0.1936 -0.1976
 3461SOL    HW122019   0.302   2.546  17.185  1.0785 -0.2059 -1.4691
 3461SOL    HW222020   0.327   2.407  17.123  1.9631  1.1230  1.0619
 3462SOL     OW22021   1.002   1.079   8.225 -0.0305  0.1996 -0.0613
 3462SOL    HW122022   0.965   1.075   8.313 -2.2620  2.0310 -0.9191
 3462SOL    HW222023   0.927   1.099   8.169 -0.8273  0.0513  0.9480
 3463SOL     OW22024   2.209   4.033   5.193 -0.1420 -0.3045 -0.4230
 3463SOL    HW122025   2.143   3.970   5.165 -2.7859  1.6047  1.5254
 3463SOL    HW222026   2.280   3.971   5.180  0.9190  0.6574  0.8548
 3464SOL     OW22027   0.026   1.236   2.669  0.7669 -0.2151  0.0400
 3464SOL    HW122028   4.729   1.235   2.758 -1.6503 -0.8992 -0.9250
 3464SOL    HW222029   4.724   1.318   2.638 -0.0836  0.6395  3.3636
 3465SOL     OW22030   1.370   4.387   6.545 -0.0476 -0.1818 -0.3446
 3465SOL    HW122031   1.410   4.404   6.459 -1.8172  0.4727 -1.0523
 3465SOL    HW222032   1.315   4.464   6.562  0.7117  0.1775  0.4662
 3466SOL     OW22033   0.817   2.324   3.717 -0.2768 -0.4055  0.3354
 3466SOL    HW122034   0.817   2.275   3.799 -0.2151  0.7066  0.9969
 3466SOL    HW222035   0.782   2.403   3.758  0.4270 -0.0106  0.1803
 3467SOL     OW22036   2.452   4.197   6.986  0.3137  0.1518 -0.3672
 3467SOL    HW122037   2.436   4.115   7.032  0.6896  0.1047 -0.3186
 3467SOL    HW222038   2.539   4.222   7.018  0.9146 -0.5708 -1.4442
 3468SOL     OW22039   2.558   2.295   4.610  0.0253 -0.1288 -0.2551
 3468SOL    HW122040   2.557   2.200   4.597 -1.5178 -0.0925 -0.3689
 3468SOL    HW222041   2.635   2.324   4.561 -2.1096  2.1825 -2.2361
 3469SOL     OW22042   3.268   1.332   1.344  0.7958 -0.2805  0.2978
 3469SOL    HW122043   3.288   1.423   1.326  0.4897 -0.4757 -1.0105
 3469SOL    HW222044   3.195   1.321   1.283  0.4674  0.5986  0.5368
 3470SOL     OW22045   3.570   1.146  14.049 -0.8261  0.5803 -0.3877
 3470SOL    HW122046   3.564   1.167  13.955  0.6114  0.5925 -0.4688
 3470SOL    HW222047   3.477   1.146  14.073 -0.8186  1.0022 -0.3594
 3471SOL     OW22048   3.649   1.942   4.518 -0.1366 -0.4065  0.0038
 3471SOL    HW122049   3.559   1.966   4.498 -0.0331 -0.3864 -0.4451
 3471SOL    HW222050   3.694   2.022   4.491 -0.4643 -0.7480 -1.5835
 3472SOL     OW22051   0.899   3.681   4.550 -0.6688  0.1946  0.4536
 3472SOL    HW122052   0.814   3.725   4.550 -0.9079 -0.2637 -0.3226
 3472SOL    HW222053   0.882   3.607   4.608  0.3636  0.0714  0.6023
 3473SOL     OW22054   3.740   4.610   9.968  0.8395 -0.0110  0.5145
 3473SOL    HW122055   3.820   4.662   9.970  0.5959  0.5044 -2.3549
 3473SOL    HW222056   3.694   4.644   9.890  0.1844 -0.8000  0.5587
 3474SOL     OW22057   4.224   4.542   1.830 -0.2531  0.7952  0.1384
 3474SOL    HW122058   4.195   4.502   1.913  0.5101 -0.3460 -0.1385
 3474SOL    HW222059   4.213   4.469   1.769  0.4757  1.5893 -0.9351
 3475SOL     OW22060   3.293   2.542   8.792  0.1800  0.2264  0.1909
 3475SOL    HW122061   3.200   2.546   8.771  0.1104 -0.5377  0.3792
 3475SOL    HW222062   3.326   2.471   8.738  0.4278  2.6774 -2.9070
 3476SOL     OW22063   2.003   3.663   6.983  0.0720  0.1294  0.9439
 3476SOL    HW122064   2.029   3.683   6.893 -0.9930 -0.4877  0.4991
 3476SOL    HW222065   1.962   3.577   6.969  0.6456  0.0279 -0.1676
 3477SOL     OW22066   0.340   4.559   7.960 -0.2646  0.5008 -0.0646
 3477SOL    HW122067   0.304   4.634   8.007 -2.0176 -0.8218  0.7172
 3477SOL    HW222068   0.320   4.490   8.024  1.4462  1.3754  1.4056
 3478SOL     OW22069   4.554   4.402   3.598 -0.1263 -0.2599  0.2395
 3478SOL    HW122070   4.466   4.425   3.568 -0.3566 -0.8467  0.4757
 3478SOL    HW222071   4.571   4.486   3.640 -2.2697  0.3085 -0.0653
 3479SOL     OW22072   2.856   2.572   3.955 -0.5515 -0.0934 -0.4864
 3479SOL    HW122073   2.773   2.559   3.909  0.3279 -0.9342 -1.8735
 3479SOL    HW222074   2.921   2.553   3.887  0.2385  0.2681  0.1610
 3480SOL     OW22075   4.079   3.943   3.023 -0.1088 -0.0916  0.8302
 3480SOL    HW122076   4.074   4.037   3.006 -1.1265  0.0932  2.1089
 3480SOL    HW222077   4.169   3.921   3.000  0.4795  3.3553 -0.1947
 3481SOL     OW22078   3.025   1.493   6.046  0.0136 -0.5961 -0.3550
 3481SOL    HW122079   3.024   1.522   6.137  2.5838 -0.9109 -0.2453
 3481SOL    HW222080   3.031   1.398   6.059  0.5892 -0.6167 -0.7574
 3482SOL     OW22081   2.388   3.073  12.602  0.4670  0.0557 -0.0745
 3482SOL    HW122082   2.346   3.077  12.688 -3.4276 -1.1236 -1.9496
 3482SOL    HW222083   2.408   3.164  12.580  0.7267  0.2297  0.8489
 3483SOL     OW22084   2.397   0.842   5.476 -0.2338  0.1150  0.5003
 3483SOL    HW122085   2.343   0.859   5.399 -0.8640  0.8966  1.1079
 3483SOL    HW222086   2.325   0.823   5.536 -0.4536 -0.1469  0.1548
 3484SOL     OW22087   4.115   0.715   3.798 -0.3278  0.3058  0.6426
 3484SOL    HW122088   4.033   0.730   3.844 -1.6217 -0.8644 -1.2725
 3484SOL    HW222089   4.147   0.643   3.852 -0.8514 -0.3094  0.1464
 3485SOL     OW22090   0.234   0.674   7.621  0.0743  0.7527  0.2604
 3485SOL    HW122091   0.289   0.709   7.551  0.4029  0.0420  0.1689
 3485SOL    HW222092   0.277   0.589   7.633  0.8035  1.0581 -0.2415
 3486SOL     OW22093   3.887   2.012  17.352 -0.8103 -0.1510 -0.3811
 3486SOL    HW122094   3.887   2.041  17.261  0.3841  1.2282  0.0661
 3486SOL    HW222095   3.833   2.084  17.385 -0.4032  0.5317 -1.2105
 3487SOL     OW22096   4.716   1.811   4.642 -0.1440  0.1995  0.1045
 3487SOL    HW122097   4.733   1.755   4.717 -2.1265 -0.2128  0.2408
 3487SOL    HW222098   0.059   1.808   4.591  1.1987  0.8839  2.1695
 3488SOL     OW22099   0.423   1.858  14.203  0.0353  0.4569 -0.2281
 3488SOL    HW122100   0.370   1.926  14.245 -2.8169 -0.3391 -2.5230
 3488SOL    HW222101   0.459   1.904  14.127  0.5856  0.4839  0.0516
 3489SOL     OW22102   2.046   3.854   6.057 -0.7534  0.1440  0.3895
 3489SOL    HW122103   1.979   3.905   6.103 -2.5804 -2.6487  0.8008
 3489SOL    HW222104   2.090   3.830   6.138  0.8829  1.9921  0.0582
 3490SOL     OW22105   0.068   0.110   3.751  0.4200  0.6520 -0.4781
 3490SOL    HW122106   0.162   0.114   3.733  0.8223 -1.6292  1.0809
 3490SOL    HW222107   0.056   0.170   3.825 -0.3411 -0.3154  0.1881
 3491SOL     OW22108   0.216   3.703   9.109  1.0350  0.2452 -0.2257
 3491SOL    HW122109   0.137   3.726   9.060  2.6677 -0.4034 -3.1912
 3491SOL    HW222110   0.183   3.632   9.165 -1.4296  0.9296 -0.8193
 3492SOL     OW22111   3.310   3.016  17.385 -0.3562 -0.3419  0.0858
 3492SOL    HW122112   3.227   3.040  17.427 -0.4862  1.4510 -1.1869
 3492SOL    HW222113   3.334   3.080  17.318 -0.6191 -1.8150 -1.4256
 3493SOL     OW22114   1.674   3.778   3.344  0.1050 -0.7050 -0.2929
 3493SOL    HW122115   1.751   3.733   3.377 -0.7564 -1.8142  0.2050
 3493SOL    HW222116   1.615   3.747   3.413  1.2819  2.3190  2.0441
 3494SOL     OW22117   2.574   1.454   5.142  0.2488  0.3534 -0.2513
 3494SOL    HW122118   2.577   1.389   5.071 -0.1894  2.7167 -2.4153
 3494SOL    HW222119   2.659   1.449   5.185  0.5374 -0.0281 -0.8606
 3495SOL     OW22120   2.222   2.147   2.482  0.2839 -0.0351 -0.3673
 3495SOL    HW122121   2.301   2.097   2.461  1.3998  1.7851 -0.5340
 3495SOL    HW222122   2.164   2.077   2.510 -0.5020  0.4064 -0.8894
 3496SOL     OW22123   2.242   2.783   9.323 -0.1183  0.0675 -0.2530
 3496SOL    HW122124   2.181   2.804   9.252  0.0335 -0.0638 -0.4219
 3496SOL    HW222125   2.192   2.815   9.399 -2.3855 -1.1689 -1.2189
 3497SOL     OW22126   3.306   0.632  17.413  0.1724 -0.0280 -0.0030
 3497SOL    HW122127   3.237   0.610  17.476 -2.3808  0.3797 -2.6428
 3497SOL    HW222128   3.347   0.706  17.459  2.5934 -0.7727 -0.9845
 3498SOL     OW22129   0.979   0.454   9.124  0.1021 -0.4427 -0.3817
 3498SOL    HW122130   0.896   0.407   9.119  1.0966 -2.0315 -1.7843
 3498SOL    HW222131   1.049   0.397   9.093  0.5983 -0.2581  0.3888
 3499SOL     OW22132   2.513   3.432  15.194 -0.1839  0.6208 -0.1703
 3499SOL    HW122133   2.418   3.425  15.182 -0.1639 -0.4116  0.3457
 3499SOL    HW222134   2.514   3.448  15.288  0.3244  2.6266 -0.5159
 3500SOL     OW22135   1.849   3.109   9.629  0.2453  1.1153 -0.3818
 3500SOL    HW122136   1.893   3.026   9.609  0.4001  1.2014 -0.3983
 3500SOL    HW222137   1.835   3.156   9.547 -3.1798  0.8737  0.0338
 3501SOL     OW22138   1.213   1.075  16.027  0.4224  0.1048 -0.0896
 3501SOL    HW122139   1.281   1.143  16.027  0.5504 -0.0250  0.6131
 3501SOL    HW222140   1.162   1.098  15.949  0.3363  2.5772  0.6926
 3502SOL     OW22141   1.547   3.065   8.484  0.4698 -0.0697 -0.0083
 3502SOL    HW122142   1.490   3.114   8.425  0.0125  1.6457  1.8265
 3502SOL    HW222143   1.473   3.018   8.521  1.0262 -1.4821 -0.7174
 3503SOL     OW22144   1.511   3.984   3.231 -0.4516 -0.7184 -0.2917
 3503SOL    HW122145   1.558   3.903   3.249  0.0986 -0.5872 -1.1362
 3503SOL    HW222146   1.494   4.002   3.324  1.0727  0.4617 -0.2517
 3504SOL     OW22147   0.568   2.153   4.064  0.2236  0.2542 -0.6353
 3504SOL    HW122148   0.566   2.064   4.101  0.5774  0.1496 -0.8667
 3504SOL    HW222149   0.526   2.130   3.982 -0.9952 -1.9152  0.5857
 3505SOL     OW22150   1.069   1.340   9.437 -0.2442  0.1032 -0.3619
 3505SOL    HW122151   0.989   1.380   9.404 -0.2175  0.5275  0.0853
 3505SOL    HW222152   1.125   1.411   9.469 -0.6762  0.9724 -1.5621
 3506SOL     OW22153   1.011   4.079   3.978  0.4434  0.4364  0.1063
 3506SOL    HW122154   1.104   4.079   4.002  0.7698 -0.7668 -1.1423
 3506SOL    HW222155   0.971   4.026   4.047 -0.8871  0.2440 -0.8200
 3507SOL     OW22156   3.284   4.539   9.933  0.4988  0.1113  0.4485
 3507SOL    HW122157   3.225   4.464   9.927  1.4130 -0.4125 -2.1277
 3507SOL    HW222158   3.285   4.555   9.839  3.7376 -0.4176  0.4032
 3508SOL     OW22159   2.819   0.542   2.713 -0.1276  0.4112  0.5989
 3508SOL    HW122160   2.739   0.520   2.761 -0.8500  2.3940  0.2725
 3508SOL    HW222161   2.816   0.477   2.642  0.6407  1.2136 -0.1701
 3509SOL     OW22162   1.762   2.762   9.671  0.1712  0.6027  0.5849
 3509SOL    HW122163   1.854   2.786   9.669  1.3088 -3.8738 -0.4241
 3509SOL    HW222164   1.729   2.804   9.751 -0.2034  1.0603  0.1933
 3510SOL     OW22165   4.004   3.502   5.656 -0.6867  0.1953 -0.3412
 3510SOL    HW122166   3.916   3.510   5.618 -0.4564 -1.7280 -1.2939
 3510SOL    HW222167   4.057   3.482   5.579 -0.7283  0.3883 -0.4200
 3511SOL     OW22168   4.022   3.594   4.026 -0.0329 -0.2301 -0.3468
 3511SOL    HW122169   3.951   3.586   3.963  0.8465 -1.6407 -1.1430
 3511SOL    HW222170   4.076   3.660   3.981 -1.2926  1.1222  0.1078
 3512SOL     OW22171   3.047   0.539   5.342 -0.2696  0.2520 -0.0544
 3512SOL    HW122172   3.134   0.522   5.379 -0.0450 -0.0777 -0.7496
 3512SOL    HW222173   2.997   0.567   5.419 -1.5262  1.5994 -1.3532
 3513SOL     OW22174   3.572   0.507   6.612 -0.7531  0.2872  0.0161
 3513SOL    HW122175   3.538   0.482   6.526 -1.3677  0.3606  0.2417
 3513SOL    HW222176   3.541   0.442   6.675  0.5331  1.4407  1.8445
 3514SOL     OW22177   0.949   1.799  15.086 -0.0115 -0.2177  0.1271
 3514SOL    HW122178   0.885   1.763  15.148 -0.3706 -2.8734 -1.7691
 3514SOL    HW222179   1.003   1.844  15.151 -0.2049  0.6735 -0.3423
 3515SOL     OW22180   2.129   2.092   8.665  0.2686  0.1437 -0.4638
 3515SOL    HW122181   2.110   2.125   8.752  2.1575 -1.2679  0.4846
 3515SOL    HW222182   2.205   2.144   8.637  1.2119 -0.9525  0.0479
 3516SOL     OW22183   0.427   2.710   7.857 -0.2779  0.6268  0.1218
 3516SOL    HW122184   0.452   2.619   7.846 -2.2836  0.0527  0.2089
 3516SOL    HW222185   0.480   2.725   7.935 -0.6115  0.0423  0.4607
 3517SOL     OW22186   0.449   3.920   9.306  0.2445 -0.1981 -0.2042
 3517SOL    HW122187   0.467   3.852   9.241  2.4685  0.0273  0.1691
 3517SOL    HW222188   0.526   3.971   9.281  0.3859  0.0389  0.6956
 3518SOL     OW22189   1.791   2.509   2.694 -0.2187  0.4627 -0.4977
 3518SOL    HW122190   1.796   2.549   2.781 -0.3603  2.0960 -1.2380
 3518SOL    HW222191   1.791   2.586   2.637  2.1286 -0.1297 -1.3313
 3519SOL     OW22192   1.026   2.682   6.365 -0.2202 -0.2568 -0.4159
 3519SOL    HW122193   1.024   2.772   6.332 -1.0068 -0.4434 -0.8740
 3519SOL    HW222194   1.070   2.685   6.450  0.0013  0.2045 -0.5492
 3520SOL     OW22195   1.102   2.056   5.133 -0.3449  0.0450 -0.2193
 3520SOL    HW122196   1.077   2.130   5.076  2.2256  0.6742 -0.5059
 3520SOL    HW222197   1.192   2.075   5.159  0.5080 -1.2076 -2.2023
 3521SOL     OW22198   2.790   0.717  16.916  0.6243 -0.7441  0.5517
 3521SOL    HW122199   2.780   0.769  16.995  0.6650  0.7445 -0.4310
 3521SOL    HW222200   2.810   0.788  16.855 -3.6848 -0.3727 -0.4753
 3522SOL     OW22201   1.937   1.623   3.182  0.3583  0.1943 -0.3261
 3522SOL    HW122202   1.970   1.603   3.094 -0.7765 -1.7510 -0.2992
 3522SOL    HW222203   1.894   1.542   3.208  0.5477 -0.5172 -2.2182
 3523SOL     OW22204   2.529   3.975  13.946  0.2719  0.5956  0.2852
 3523SOL    HW122205   2.461   3.930  13.897  0.9056 -0.8972  0.7638
 3523SOL    HW222206   2.580   3.897  13.967  0.9998  0.4346 -2.1000
 3524SOL     OW22207   1.715   0.897   2.780  0.2554 -0.0535 -0.7840
 3524SOL    HW122208   1.732   0.967   2.717  1.4402  0.8981  0.5911
 3524SOL    HW222209   1.802   0.858   2.777  0.3371  0.0612  0.1872
 3525SOL     OW22210   2.858   1.906  10.938 -0.5615  0.0225 -0.0553
 3525SOL    HW122211   2.796   1.926  11.008  0.0904  2.3966 -0.1558
 3525SOL    HW222212   2.937   1.877  10.985 -1.8979  0.5450  2.5395
 3526SOL     OW22213   0.774   3.839   7.726  0.0902  0.5361  0.3033
 3526SOL    HW122214   0.789   3.755   7.770 -0.9851  0.9470  1.4499
 3526SOL    HW222215   0.709   3.831   7.656  0.3974 -2.3314  0.3577
 3527SOL     OW22216   2.382   0.176   3.677 -0.0890  0.1458  0.0903
 3527SOL    HW122217   2.430   0.191   3.596  0.7395  1.4597  0.8438
 3527SOL    HW222218   2.442   0.118   3.723  0.2931 -0.7166 -1.4984
 3528SOL     OW22219   0.240   1.168   7.565  0.5270 -0.4111 -0.3151
 3528SOL    HW122220   0.309   1.149   7.501 -0.3101 -0.8460 -1.0791
 3528SOL    HW222221   0.163   1.197   7.516  0.0994 -0.6715  0.2036
 3529SOL     OW22222   4.156   2.708   2.593 -0.0606  0.2775 -0.2356
 3529SOL    HW122223   4.181   2.793   2.628  0.5185  0.2969 -0.6822
 3529SOL    HW222224   4.186   2.727   2.504  0.8422  0.1230  0.0340
 3530SOL     OW22225   3.120   1.891   7.230  1.0585 -0.1432 -0.0400
 3530SOL    HW122226   3.083   1.808   7.199  0.6845 -0.1913  0.5264
 3530SOL    HW222227   3.210   1.891   7.198 -0.4997  0.7601 -4.4372
 3531SOL     OW22228   3.643   4.414   6.359 -0.7783  0.0952  0.0142
 3531SOL    HW122229   3.621   4.359   6.284 -0.0927 -1.2093  0.7747
 3531SOL    HW222230   3.738   4.414   6.349 -1.0139 -0.2994 -2.2899
 3532SOL     OW22231   2.816   4.614   5.002  0.2481  0.2449  0.3961
 3532SOL    HW122232   2.882   4.661   4.952  0.3527 -0.6837 -0.3402
 3532SOL    HW222233   2.744   4.675   4.991  0.8050  0.5004 -1.7154
 3533SOL     OW22234   0.116   2.137   8.766 -0.4583  0.6351  0.8233
 3533SOL    HW122235   0.179   2.084   8.814 -0.4388 -0.4922 -0.4650
 3533SOL    HW222236   0.174   2.162   8.694  2.3322 -0.4226  2.7040
 3534SOL     OW22237   4.522   1.546   5.535  0.0421  0.0963  0.0705
 3534SOL    HW122238   4.601   1.537   5.482 -1.4594 -1.6352 -1.8885
 3534SOL    HW222239   4.503   1.452   5.540 -2.0678  0.5628  0.7540
 3535SOL     OW22240   0.234   3.826   3.757  0.1383  0.0940  0.2269
 3535SOL    HW122241   0.326   3.809   3.737 -0.8031 -2.9716 -1.5238
 3535SOL    HW222242   0.208   3.881   3.683  0.0712  0.9571  0.8903
 3536SOL     OW22243   1.075   1.277   7.825 -0.0408  0.4533  0.3632
 3536SOL    HW122244   1.047   1.192   7.791  1.7823  1.0981 -2.7536
 3536SOL    HW222245   0.991   1.305   7.860 -0.7605  0.6264 -1.4726
 3537SOL     OW22246   2.036   1.911   7.918 -0.1809  0.0539  0.5096
 3537SOL    HW122247   2.100   1.875   7.980 -0.2528  0.4400  0.8065
 3537SOL    HW222248   1.966   1.930   7.980  0.4207  1.5252  0.7359
 3538SOL     OW22249   1.121   2.880   7.254  0.0589  0.2470 -0.1181
 3538SOL    HW122250   1.166   2.855   7.174  0.0144 -0.5263  0.1007
 3538SOL    HW222251   1.183   2.948   7.282 -1.1761  2.4081 -2.6428
 3539SOL     OW22252   4.114   2.576   3.390  0.2385 -0.5963  0.1400
 3539SOL    HW122253   4.159   2.517   3.330  0.2560 -0.3081 -0.1330
 3539SOL    HW222254   4.033   2.524   3.392  0.7906 -1.4692 -0.4013
 3540SOL     OW22255   2.502   0.573   7.521  0.1042 -0.6915 -0.6256
 3540SOL    HW122256   2.563   0.641   7.548 -0.8041  0.6427 -1.9000
 3540SOL    HW222257   2.561   0.507   7.485  1.9008  0.9241 -0.6536
 3541SOL     OW22258   0.800   1.999   7.442 -0.2862  0.1468 -0.3361
 3541SOL    HW122259   0.801   1.956   7.356  0.3505 -2.4155  0.9439
 3541SOL    HW222260   0.715   2.043   7.440 -0.2327  0.2500 -0.2991
 3542SOL     OW22261   4.168   2.903   3.142 -0.4534 -0.5402 -0.8620
 3542SOL    HW122262   4.236   2.862   3.196 -1.1144 -0.5357 -0.0301
 3542SOL    HW222263   4.111   2.826   3.140  0.7596 -1.4158 -1.8833
 3543SOL     OW22264   2.343   1.990   8.837 -0.4737  0.3390  0.0279
 3543SOL    HW122265   2.424   2.013   8.792 -1.3752 -1.1632 -2.3781
 3543SOL    HW222266   2.302   1.955   8.757  1.5627  0.7174 -1.1735
 3544SOL     OW22267   0.938   2.483   2.842  0.2104  0.2407  0.3625
 3544SOL    HW122268   0.903   2.556   2.893  0.3044 -0.2661  1.1443
 3544SOL    HW222269   0.873   2.413   2.848  1.4177 -0.9684 -0.7775
 3545SOL     OW22270   3.301   4.257   6.334 -0.5557  0.2822 -0.4792
 3545SOL    HW122271   3.351   4.295   6.262 -0.8644  0.6321 -0.5059
 3545SOL    HW222272   3.315   4.163   6.322  0.9647  0.6893 -1.9233
 3546SOL     OW22273   1.788   4.007   4.421  0.7104 -0.1050 -0.2041
 3546SOL    HW122274   1.863   4.000   4.361  2.2396 -0.8010  1.7965
 3546SOL    HW222275   1.746   4.088   4.394  0.5102 -0.4750 -1.0019
 3547SOL     OW22276   0.763   2.370   1.881 -0.4138  0.1984  0.5503
 3547SOL    HW122277   0.688   2.358   1.823  0.6295  1.2024 -1.0095
 3547SOL    HW222278   0.779   2.283   1.918  0.7172 -0.8163 -2.3212
 3548SOL     OW22279   2.992   4.528   8.640 -0.2495 -0.1914 -0.0382
 3548SOL    HW122280   3.061   4.466   8.615 -0.6864 -0.5324 -0.4031
 3548SOL    HW222281   3.026   4.566   8.721  1.7531 -1.7273 -0.1486
 3549SOL     OW22282   3.090   2.399   7.170  0.0373 -0.1048  0.5639
 3549SOL    HW122283   3.012   2.429   7.217 -0.0874 -1.6767  1.3550
 3549SOL    HW222284   3.051   2.339   7.107  1.1083 -0.4069  0.1833
 3550SOL     OW22285   2.499   3.521   9.450  0.1232 -1.0754  0.6343
 3550SOL    HW122286   2.468   3.433   9.472 -1.7115 -0.5655  0.0714
 3550SOL    HW222287   2.420   3.574   9.456  0.8901  0.1065  0.2570
 3551SOL     OW22288   4.391   0.100  14.662 -0.4620  0.1401  0.1907
 3551SOL    HW122289   4.336   0.160  14.612 -0.1226 -1.3907 -2.0137
 3551SOL    HW222290   4.378   0.016  14.617  1.4071 -1.0818  1.8987
 3552SOL     OW22291   3.231   3.946   4.481 -0.0118  0.6060 -0.7205
 3552SOL    HW122292   3.276   4.018   4.435 -0.0383  0.0154 -1.6851
 3552SOL    HW222293   3.190   3.907   4.404 -0.1994  0.2881 -0.4560
 3553SOL     OW22294   2.228   3.722   6.235 -0.2658 -0.0177  0.0458
 3553SOL    HW122295   2.250   3.681   6.319  0.2221 -0.8438 -0.4932
 3553SOL    HW222296   2.284   3.799   6.220 -1.9097  1.2140  0.2516
 3554SOL     OW22297   3.421   2.271  16.550 -0.4060 -0.2401  0.2932
 3554SOL    HW122298   3.491   2.300  16.492 -0.4243  0.7509  0.7515
 3554SOL    HW222299   3.341   2.312  16.516  0.5803  2.5733  1.2897
 3555SOL     OW22300   4.458   2.549   0.728  0.3123 -0.0946 -0.4856
 3555SOL    HW122301   4.454   2.626   0.785 -1.2210  0.5483 -1.4359
 3555SOL    HW222302   4.424   2.591   0.649  1.0421  0.7034 -0.3803
 3556SOL     OW22303   2.266   1.244   7.041 -0.3434  0.1531  0.0219
 3556SOL    HW122304   2.269   1.338   7.021 -2.0908  0.2253  0.1372
 3556SOL    HW222305   2.358   1.229   7.065 -0.8202 -0.8890  1.2175
 3557SOL     OW22306   3.385   2.284   3.122 -0.4883  0.1065 -0.2802
 3557SOL    HW122307   3.402   2.190   3.115 -1.2474  0.0452 -1.2399
 3557SOL    HW222308   3.308   2.308   3.070 -0.5926  0.8337  0.2095
 3558SOL     OW22309   0.161   0.672   8.350 -0.6684 -0.0488 -0.1533
 3558SOL    HW122310   0.217   0.643   8.422 -1.8085  1.7502  1.4639
 3558SOL    HW222311   0.073   0.688   8.385 -0.1018 -1.5174  1.9646
 3559SOL     OW22312   3.602   1.354   9.233 -0.3190 -0.2606  0.5451
 3559SOL    HW122313   3.559   1.301   9.166  1.5108 -1.1736  0.0962
 3559SOL    HW222314   3.567   1.313   9.312  0.1689  2.1786  2.0203
 3560SOL     OW22315   2.084   2.102  12.333  0.6870  0.4761 -0.0486
 3560SOL    HW122316   2.094   2.033  12.399  0.7617 -0.1629 -0.7291
 3560SOL    HW222317   2.177   2.127  12.333  0.5308  1.0887  0.8907
 3561SOL     OW22318   3.447   3.618   6.093  0.3785  0.7493 -0.2896
 3561SOL    HW122319   3.381   3.641   6.158  1.9809 -0.0568  1.6112
 3561SOL    HW222320   3.419   3.671   6.018 -1.8465  1.4110  1.0367
 3562SOL     OW22321   1.832   2.245  15.506 -0.0132 -0.5471 -0.0939
 3562SOL    HW122322   1.822   2.257  15.412 -3.0679  2.8565  0.6832
 3562SOL    HW222323   1.804   2.155  15.524 -1.2508  0.3352  2.4458
 3563SOL     OW22324   3.154   3.961  16.824  0.2664  0.6643 -0.1931
 3563SOL    HW122325   3.093   4.033  16.809  1.5468  2.0677  1.4513
 3563SOL    HW222326   3.231   4.002  16.861  1.9183 -3.7581  1.2869
 3564SOL     OW22327   1.220   3.047   5.103 -0.2937 -0.4345  0.3317
 3564SOL    HW122328   1.308   3.085   5.108 -1.3566  2.3683 -2.4155
 3564SOL    HW222329   1.234   3.001   5.186  0.4631 -0.3966  0.2294
 3565SOL     OW22330   2.919   3.760   4.912  0.3941  0.7239  0.4374
 3565SOL    HW122331   2.922   3.731   4.821  1.7400 -0.2778  0.7993
 3565SOL    HW222332   3.008   3.791   4.928  1.1617 -1.0700 -0.2746
 3566SOL     OW22333   4.260   1.965   6.295 -0.0142  0.2059  0.3403
 3566SOL    HW122334   4.206   1.984   6.218  3.5284  0.4202 -2.0825
 3566SOL    HW222335   4.195   1.923   6.352  1.0368  0.0365  1.4019
 3567SOL     OW22336   1.195   3.862  17.398  0.2991  0.3918  0.3434
 3567SOL    HW122337   1.172   3.950  17.368 -1.9837 -0.3637 -0.0940
 3567SOL    HW222338   1.206   3.812  17.317  0.1166 -0.0810  0.6125
 3568SOL     OW22339   1.541   3.396   5.114  0.1120 -0.2470  0.0286
 3568SOL    HW122340   1.498   3.316   5.145  0.7877  0.1360  2.0000
 3568SOL    HW222341   1.555   3.381   5.021  0.0537 -1.0766  0.1505
 3569SOL     OW22342   0.709   1.814   9.300  0.2227  0.0971 -0.5059
 3569SOL    HW122343   0.800   1.842   9.296  0.5905 -1.0092 -0.0192
 3569SOL    HW222344   0.720   1.801   9.394  0.2021 -2.1108 -0.7994
 3570SOL     OW22345   3.158   3.812   9.944 -0.7690  0.2135 -0.4503
 3570SOL    HW122346   3.223   3.747   9.972 -0.6341 -0.8422 -3.2326
 3570SOL    HW222347   3.202   3.890   9.979 -2.1662  0.9662 -0.3559
 3571SOL     OW22348   4.165   1.069   9.698  0.2731 -0.0252 -0.6420
 3571SOL    HW122349   4.099   1.130   9.664 -0.2430 -0.1462  0.1471
 3571SOL    HW222350   4.143   1.073   9.791 -0.3585 -1.4721 -0.7394
 3572SOL     OW22351   4.318   0.845   0.205 -0.4414 -0.5925  0.2544
 3572SOL    HW122352   4.412   0.849   0.220 -0.7884 -0.1958  2.3749
 3572SOL    HW222353   4.285   0.921   0.254 -0.4803  2.0140 -3.8212
 3573SOL     OW22354   0.241   4.469   5.188  0.2446 -0.2779 -0.1464
 3573SOL    HW122355   0.210   4.517   5.265  0.6966  1.2841 -0.9245
 3573SOL    HW222356   0.284   4.399   5.237  1.2976  1.0467  0.8104
 3574SOL     OW22357   1.417   1.702   7.288 -0.2843  0.0728 -0.1361
 3574SOL    HW122358   1.422   1.637   7.359 -3.1707 -0.2655 -0.2397
 3574SOL    HW222359   1.406   1.785   7.335 -0.1241 -0.7865  1.4259
 3575SOL     OW22360   1.081   1.808  12.121 -0.3371  0.4925 -0.0142
 3575SOL    HW122361   1.151   1.773  12.066  1.1804  2.6217  0.5745
 3575SOL    HW222362   1.123   1.861  12.188  2.1921 -2.8576  1.0403
 3576SOL     OW22363   0.932   2.511   7.498  0.5481  0.0200 -0.0740
 3576SOL    HW122364   0.943   2.459   7.578  1.0224  1.8032  1.0301
 3576SOL    HW222365   0.867   2.575   7.528  0.9809  0.1727  0.5404
 3577SOL     OW22366   4.422   4.296  11.312  0.1599 -0.3539 -0.2677
 3577SOL    HW122367   4.381   4.381  11.300  0.3770 -0.2915 -0.5594
 3577SOL    HW222368   4.372   4.263  11.386 -0.1724 -0.1531 -0.4050
 3578SOL     OW22369   2.545   0.033  12.350  0.4704  0.4323  0.2301
 3578SOL    HW122370   2.583   4.684  12.360  0.1751  0.1601 -0.9355
 3578SOL    HW222371   2.618   0.075  12.305  0.5189  0.3049  0.1882
 3579SOL     OW22372   3.675   0.007   1.967  0.0920  0.4347  0.2758
 3579SOL    HW122373   3.659   0.067   2.040  3.1391  0.5416  0.8579
 3579SOL    HW222374   3.643   4.662   2.003 -0.4079  1.3745  1.9802
 3580SOL     OW22375   4.520   4.282   9.114  0.6194  0.1506 -0.7831
 3580SOL    HW122376   4.541   4.196   9.152 -1.6730  0.6540  1.6655
 3580SOL    HW222377   4.440   4.299   9.165 -0.6240  0.3331 -2.7876
 3581SOL     OW22378   0.490   2.299  13.953  0.1702 -0.0752  0.3056
 3581SOL    HW122379   0.525   2.344  14.030  0.4616  1.3964 -0.6799
 3581SOL    HW222380   0.554   2.324  13.886  0.4921  0.8833  0.9616
 3582SOL     OW22381   1.866   3.766   8.343 -0.4813  0.2597  0.3466
 3582SOL    HW122382   1.797   3.831   8.329  0.9878  1.2095 -2.5615
 3582SOL    HW222383   1.908   3.757   8.258  1.8378  1.3272  1.3808
 3583SOL     OW22384   2.557   4.254   2.958 -0.0475 -0.0205  0.6762
 3583SOL    HW122385   2.573   4.260   3.052  3.3019  0.7729  0.0594
 3583SOL    HW222386   2.567   4.161   2.938 -2.5840 -0.3825  1.0693
 3584SOL     OW22387   0.249   2.263  13.578 -0.1940  0.8923  0.0260
 3584SOL    HW122388   0.259   2.271  13.483  1.8744  0.7675  0.2281
 3584SOL    HW222389   0.209   2.345  13.609  0.5114  0.7774  1.2630
 3585SOL     OW22390   1.632   1.199   2.563  0.1344  0.7180 -0.1736
 3585SOL    HW122391   1.636   1.163   2.474 -1.5410 -1.1814  0.5077
 3585SOL    HW222392   1.600   1.287   2.546  1.0016  0.8066 -1.3742
 3586SOL     OW22393   1.496   0.064   6.180 -0.3378 -0.1034 -0.2122
 3586SOL    HW122394   1.481   0.064   6.085  0.7343 -1.6742 -0.3712
 3586SOL    HW222395   1.409   0.083   6.215  0.8095 -0.0044  2.5650
 3587SOL     OW22396   2.231   1.153   9.174  0.2967  0.0321 -0.5720
 3587SOL    HW122397   2.274   1.125   9.093  1.5005  0.5370 -0.1169
 3587SOL    HW222398   2.235   1.081   9.237  1.4661 -0.5824 -1.3406
 3588SOL     OW22399   0.190   4.620   2.586 -0.7467 -0.0984 -0.7895
 3588SOL    HW122400   0.099   4.595   2.570 -0.8988 -2.1893  3.5929
 3588SOL    HW222401   0.234   4.609   2.502 -0.1942 -0.4789 -0.4484
 3589SOL     OW22402   3.804   4.397   6.926 -0.3725 -0.1409 -0.6155
 3589SOL    HW122403   3.828   4.402   7.019 -0.8262 -1.0208 -0.4519
 3589SOL    HW222404   3.892   4.415   6.892 -0.7038 -0.1191 -1.4708
 3590SOL     OW22405   4.050   2.281   5.593 -0.0053  0.2736  0.2179
 3590SOL    HW122406   4.013   2.313   5.511  0.0732 -1.0208 -0.3182
 3590SOL    HW222407   4.143   2.297   5.577 -0.5974  1.6338 -1.9152
 3591SOL     OW22408   1.264   0.986   6.585  0.0944  0.3721  0.0967
 3591SOL    HW122409   1.215   1.006   6.665  0.5487 -1.3304  0.7992
 3591SOL    HW222410   1.204   1.027   6.522 -1.7194 -2.3202  0.0311
 3592SOL     OW22411   2.367   3.850   2.145 -0.1117  0.0415  0.1610
 3592SOL    HW122412   2.349   3.890   2.060  0.2659  0.0434  0.0818
 3592SOL    HW222413   2.279   3.855   2.182  0.5927 -1.0846  1.9986
 3593SOL     OW22414   0.181   4.544   9.976  0.2013 -0.0309  0.3229
 3593SOL    HW122415   0.116   4.514   9.912  1.6375  1.8583 -2.0246
 3593SOL    HW222416   0.164   4.496  10.057 -2.1824 -0.4335 -0.4235
 3594SOL     OW22417   4.384   1.872   0.243 -0.6458  0.0129 -0.5520
 3594SOL    HW122418   4.380   1.777   0.234  2.2669 -0.4067  2.4241
 3594SOL    HW222419   4.311   1.885   0.304  0.6313 -2.0396  1.3915
 3595SOL     OW22420   4.241   2.840   5.223  0.0594  0.0696  0.0030
 3595SOL    HW122421   4.196   2.885   5.294  0.4406  3.1077 -1.7064
 3595SOL    HW222422   4.226   2.750   5.252  3.4383 -0.5204 -0.0794
 3596SOL     OW22423   4.603   2.766   7.770 -0.1202 -0.0485 -0.0409
 3596SOL    HW122424   4.611   2.861   7.782  2.8620 -0.6707  3.0055
 3596SOL    HW222425   4.694   2.743   7.790  0.2096  2.4029  1.3193
 3597SOL     OW22426   0.048   0.654   3.190  0.2515 -0.5328  0.4525
 3597SOL    HW122427   0.085   0.742   3.190  2.4466 -1.4581  2.0700
 3597SOL    HW222428   4.724   0.652   3.263  0.1102  1.8552  0.3824
 3598SOL     OW22429   3.449   4.270   9.494 -0.0898  0.1111 -0.0059
 3598SOL    HW122430   3.467   4.277   9.588 -1.4063  0.7692  0.1994
 3598SOL    HW222431   3.496   4.345   9.458  0.3987  1.4674  3.4268
 3599SOL     OW22432   2.943   4.021   4.040 -0.1639 -0.1178 -0.4806
 3599SOL    HW122433   2.965   3.989   3.952  1.1474  0.6522 -0.4431
 3599SOL    HW222434   2.925   4.111   4.013 -0.1526  0.4445  1.3765
 3600SOL     OW22435   2.994   2.153   3.288  0.1372  0.0371 -0.1806
 3600SOL    HW122436   2.925   2.209   3.251 -0.0926 -0.8683 -1.1201
 3600SOL    HW222437   3.032   2.119   3.207  1.1425 -0.9730  0.7105
 3601SOL     OW22438   3.766   3.874   3.130 -0.6609  0.5105 -0.2317
 3601SOL    HW122439   3.745   3.927   3.054 -0.1242  0.4993 -0.3914
 3601SOL    HW222440   3.821   3.936   3.179  1.2653 -0.4043 -1.2222
 3602SOL     OW22441   1.464   2.208   0.245  0.0885  0.1549 -0.0492
 3602SOL    HW122442   1.468   2.303   0.254 -0.7830  0.2452 -0.6586
 3602SOL    HW222443   1.370   2.201   0.231 -0.0346 -0.9548  1.2846
 3603SOL     OW22444   2.947   3.926   6.744  0.4784 -0.2083  0.3387
 3603SOL    HW122445   3.040   3.940   6.729  0.4318  1.0304  1.2415
 3603SOL    HW222446   2.938   3.853   6.806  1.8017  0.3442  1.1672
 3604SOL     OW22447   1.987   1.610   2.708  0.5536  0.4785 -0.1355
 3604SOL    HW122448   2.016   1.539   2.652 -0.5747 -0.2937  0.2456
 3604SOL    HW222449   2.064   1.647   2.749 -0.6875  0.8811  1.8356
 3605SOL     OW22450   2.267   1.783  13.859  0.0082  0.6987  0.7939
 3605SOL    HW122451   2.231   1.871  13.862 -0.6857  0.4445  0.0431
 3605SOL    HW222452   2.192   1.747  13.810 -1.0853  3.0061  0.7759
 3606SOL     OW22453   3.024   4.397  16.587  0.1331  0.3097  0.0766
 3606SOL    HW122454   3.043   4.467  16.650  0.1685 -0.0489  0.4608
 3606SOL    HW222455   2.935   4.418  16.559 -0.2061  0.8383  1.5387
 3607SOL     OW22456   2.771   3.412   4.693 -0.0951 -0.0899  0.3111
 3607SOL    HW122457   2.687   3.367   4.683 -1.1888  2.0663 -0.0513
 3607SOL    HW222458   2.812   3.354   4.758  1.0465  0.7580  0.3412
 3608SOL     OW22459   3.898   1.927   2.878  0.3119  0.2158  0.0671
 3608SOL    HW122460   3.895   1.968   2.965  1.8214 -1.6483  0.9851
 3608SOL    HW222461   3.884   1.834   2.894  1.7795 -0.1381 -0.7065
 3609SOL     OW22462   1.115   0.866   1.652  0.0396 -0.0712  1.4622
 3609SOL    HW122463   1.189   0.910   1.610  1.3048 -0.6756  3.0649
 3609SOL    HW222464   1.076   0.947   1.685  1.7018  0.9832  0.9091
 3610SOL     OW22465   0.866   1.903   2.926  0.1675  0.2173  0.1771
 3610SOL    HW122466   0.806   1.909   2.852  0.7208  2.4469 -0.0862
 3610SOL    HW222467   0.920   1.832   2.892 -0.2937 -0.6758  1.2980
 3611SOL     OW22468   0.186   4.577  15.845 -0.3539  0.0988  0.2644
 3611SOL    HW122469   0.135   4.613  15.918 -0.7277 -0.3214  0.2102
 3611SOL    HW222470   0.150   4.631  15.775 -2.1327  0.2212  1.2610
 3612SOL     OW22471   0.267   1.613   6.011 -0.3060  0.4302 -0.0203
 3612SOL    HW122472   0.286   1.629   6.103  0.0048 -0.4872  0.0674
 3612SOL    HW222473   0.200   1.679   5.990  1.3180  2.1423  0.1460
 3613SOL     OW22474   1.552   2.521   4.478 -0.6910  0.0154  0.1715
 3613SOL    HW122475   1.569   2.559   4.392  0.6259 -1.4986 -0.2338
 3613SOL    HW222476   1.512   2.598   4.519 -2.6033 -1.4592  1.0812
 3614SOL     OW22477   0.956   1.660  17.704 -0.1207 -0.3885  0.3521
 3614SOL    HW122478   1.047   1.644  17.730 -0.4160 -0.7454  1.1563
 3614SOL    HW222479   0.917   1.573  17.705 -0.4001 -0.2723 -0.3443
 3615SOL     OW22480   4.499   1.457   8.915  0.1748 -0.2070 -0.0940
 3615SOL    HW122481   4.486   1.397   8.989  1.4452  2.5598  2.3283
 3615SOL    HW222482   4.594   1.469   8.912 -0.1705  2.0662 -1.7071
 3616SOL     OW22483   2.203   4.676   3.943 -0.3251  0.2277  0.1099
 3616SOL    HW122484   2.135   4.611   3.927 -0.6644  0.3567  0.9997
 3616SOL    HW222485   2.166   0.007   3.998 -0.6031 -2.5443  3.3650
 3617SOL     OW22486   0.976   1.726   8.612  0.0014  0.4096 -0.7744
 3617SOL    HW122487   1.017   1.798   8.659  0.2317 -0.5479  0.4830
 3617SOL    HW222488   1.020   1.653   8.654 -0.8724 -1.6097 -3.3329
 3618SOL     OW22489   3.058   1.227   6.090  0.3244 -0.0209  0.3253
 3618SOL    HW122490   2.995   1.171   6.044  0.9789  0.3225 -0.9923
 3618SOL    HW222491   3.054   1.183   6.174  0.7358 -1.1984 -0.2626
 3619SOL     OW22492   0.024   2.873   4.763  0.1132  0.1947 -0.0928
 3619SOL    HW122493   0.023   2.941   4.696 -0.3718 -0.4660 -0.7516
 3619SOL    HW222494   0.061   2.926   4.833  1.3605  1.7131 -1.9057
 3620SOL     OW22495   1.893   0.652  13.789  0.4894 -0.3683 -0.3912
 3620SOL    HW122496   1.964   0.716  13.785 -1.5213  1.6998 -2.7446
 3620SOL    HW222497   1.885   0.629  13.882 -0.4692  3.9392  0.5962
 3621SOL     OW22498   0.843   3.434   4.653 -0.1409 -0.0104  0.4511
 3621SOL    HW122499   0.805   3.354   4.618  1.0653 -1.0457  1.5135
 3621SOL    HW222500   0.929   3.399   4.679 -0.1065  0.6001  1.1686
 3622SOL     OW22501   1.674   0.244   1.679  0.7455 -0.4746 -0.0356
 3622SOL    HW122502   1.645   0.153   1.688  0.7149 -0.3432  1.1824
 3622SOL    HW222503   1.601   0.288   1.723  0.1491  1.2448 -2.7339
 3623SOL     OW22504   2.760   0.952  10.352 -0.1505 -0.1980  0.3345
 3623SOL    HW122505   2.787   0.915  10.435  2.0773 -1.8725 -1.1311
 3623SOL    HW222506   2.829   1.012  10.325 -2.3573  1.4411 -1.6861
 3624SOL     OW22507   3.039   0.938   7.208 -0.4911  0.1584 -0.0453
 3624SOL    HW122508   3.128   0.904   7.217 -1.0150 -1.2296 -0.0219
 3624SOL    HW222509   3.034   1.004   7.277  0.3583 -0.6261  0.7786
 3625SOL     OW22510   3.734   3.251  17.499  0.3687  0.2185  0.2322
 3625SOL    HW122511   3.642   3.258  17.526  0.0225  1.0813 -1.1904
 3625SOL    HW222512   3.732   3.159  17.476 -1.5651  0.0710  1.0166
 3626SOL     OW22513   3.245   3.408   4.970 -0.2469  0.2478  0.1315
 3626SOL    HW122514   3.305   3.417   5.044  1.7832  1.9606 -1.7452
 3626SOL    HW222515   3.290   3.345   4.913 -2.2162 -0.0690 -1.0726
 3627SOL     OW22516   0.555   4.383  16.856  0.2367  0.4267  0.1922
 3627SOL    HW122517   0.598   4.427  16.929  0.0165 -0.3990  0.8203
 3627SOL    HW222518   0.590   4.436  16.784  1.6980 -1.0179 -0.1737
 3628SOL     OW22519   0.521   2.966   8.220  0.5061 -0.9403  0.5560
 3628SOL    HW122520   0.468   2.975   8.299  2.3611  2.0744  1.4426
 3628SOL    HW222521   0.504   2.874   8.200  1.4243 -1.3588  1.7272
 3629SOL     OW22522   0.664   3.502  11.446 -0.2582 -0.2109 -0.1635
 3629SOL    HW122523   0.733   3.555  11.404 -0.9027 -0.6708 -1.7770
 3629SOL    HW222524   0.610   3.570  11.487  0.1345  0.4084 -0.6678
 3630SOL     OW22525   0.400   1.477   4.987 -0.0072  0.3867  0.3315
 3630SOL    HW122526   0.360   1.491   4.901 -1.5306 -1.3895  0.7464
 3630SOL    HW222527   0.411   1.382   4.991 -0.6737  0.2894 -0.0228
 3631SOL     OW22528   3.315   2.939   8.076 -0.1981  0.3391 -0.0749
 3631SOL    HW122529   3.331   3.033   8.085 -0.2611  0.4606 -1.2778
 3631SOL    HW222530   3.236   2.920   8.025 -0.3472 -1.2224  0.7244
 3632SOL     OW22531   2.762   3.462   3.810  0.5851  0.4332 -0.2859
 3632SOL    HW122532   2.820   3.395   3.846  0.8726  1.4884  1.1940
 3632SOL    HW222533   2.702   3.465   3.884  3.6149  0.3772  2.1797
 3633SOL     OW22534   3.836   2.941   7.103  0.0818  0.0951 -0.2074
 3633SOL    HW122535   3.882   3.011   7.057 -0.4622  0.8059  0.3186
 3633SOL    HW222536   3.876   2.925   7.189 -0.3195 -1.7527 -0.3612
 3634SOL     OW22537   0.434   2.214   5.386 -0.1614 -0.6247  0.1515
 3634SOL    HW122538   0.380   2.274   5.334  0.2660  0.6001  1.1496
 3634SOL    HW222539   0.420   2.242   5.476  0.3226  0.1676 -0.0217
 3635SOL     OW22540   1.430   1.820   0.510 -0.2710 -0.5217  0.2319
 3635SOL    HW122541   1.422   1.890   0.446  2.5746  1.1589  1.7084
 3635SOL    HW222542   1.524   1.806   0.504  0.2864  3.2776  0.4374
 3636SOL     OW22543   2.130   1.270   7.777  0.4408 -0.3648  0.3256
 3636SOL    HW122544   2.127   1.245   7.870  3.3853 -0.6516  0.3387
 3636SOL    HW222545   2.149   1.186   7.736  0.3429 -0.1560 -0.1498
 3637SOL     OW22546   3.329   0.140   0.926  0.3440 -0.3383  0.4069
 3637SOL    HW122547   3.387   0.170   0.857 -2.0626  0.7757 -1.1311
 3637SOL    HW222548   3.240   0.153   0.891  0.5675 -0.0135 -0.0356
 3638SOL     OW22549   4.577   3.437   5.566  0.0089  0.2035  0.1030
 3638SOL    HW122550   4.570   3.402   5.477  1.3638  0.8088 -0.2398
 3638SOL    HW222551   4.487   3.466   5.581  0.2293  0.6485  0.5606
 3639SOL     OW22552   2.651   0.753  10.694  0.3345  0.1206 -0.3400
 3639SOL    HW122553   2.687   0.674  10.734  1.6562  0.9500  0.1052
 3639SOL    HW222554   2.608   0.789  10.771 -1.6519  0.4327 -1.6079
 3640SOL     OW22555   0.582   2.404  11.207 -0.0677  0.2155 -0.8074
 3640SOL    HW122556   0.586   2.493  11.173  0.4440 -0.3063 -2.1279
 3640SOL    HW222557   0.491   2.384  11.183 -0.0828  0.0031 -0.5820
 3641SOL     OW22558   0.767   2.624   7.179 -0.7398 -0.1411 -0.3316
 3641SOL    HW122559   0.770   2.675   7.260 -0.7995  0.6930 -0.8536
 3641SOL    HW222560   0.690   2.567   7.179 -0.4524 -0.5717  3.0701
 3642SOL     OW22561   0.901   2.938   2.226  0.3834  0.6817 -0.3544
 3642SOL    HW122562   0.831   2.923   2.290  1.3367  1.1335  0.7990
 3642SOL    HW222563   0.847   2.921   2.149 -0.1838  2.3561 -0.3444
 3643SOL     OW22564   4.483   2.160   6.269 -0.3379 -0.3869 -0.4363
 3643SOL    HW122565   4.529   2.152   6.185 -0.9955  1.8680 -1.0047
 3643SOL    HW222566   4.407   2.101   6.270 -2.0375  1.8524  0.7957
 3644SOL     OW22567   3.776   3.691  17.430 -0.0468 -0.1451  0.2124
 3644SOL    HW122568   3.843   3.626  17.408 -1.0140 -0.8266 -0.7179
 3644SOL    HW222569   3.692   3.645  17.427  0.2225 -0.5039 -1.6947
 3645SOL     OW22570   0.596   0.286   0.391 -0.2811 -0.3372 -0.1113
 3645SOL    HW122571   0.659   0.282   0.462  2.8674 -0.1548 -2.8820
 3645SOL    HW222572   0.606   0.201   0.348  1.3914 -0.7772  1.1640
 3646SOL     OW22573   1.678   1.995   0.962 -0.1659 -0.1373  0.3301
 3646SOL    HW122574   1.634   2.065   0.913  0.6819  1.3106  1.6498
 3646SOL    HW222575   1.630   1.914   0.945 -0.0386  0.2559 -2.0203
 3647SOL     OW22576   2.370   1.410   2.324  0.5326 -0.3611  0.3088
 3647SOL    HW122577   2.412   1.354   2.259  0.6670  1.1268 -0.9017
 3647SOL    HW222578   2.287   1.412   2.276 -0.8175 -0.9795  2.6301
 3648SOL     OW22579   3.011   4.609  13.128 -0.0034 -0.5693  0.2282
 3648SOL    HW122580   2.978   4.635  13.214 -0.5930 -2.4310  0.5580
 3648SOL    HW222581   2.942   4.628  13.065  0.4826 -2.2856 -0.8222
 3649SOL     OW22582   0.962   3.938  12.021  0.1482  0.3125  0.6787
 3649SOL    HW122583   0.983   4.019  12.069  0.6291  0.4978  0.1540
 3649SOL    HW222584   0.872   3.956  11.996 -0.0359  0.7494  1.6523
 3650SOL     OW22585   2.423   3.968   7.425  0.4621  0.1256  0.1755
 3650SOL    HW122586   2.506   4.015   7.416  0.7513 -0.5457 -0.6275
 3650SOL    HW222587   2.455   3.889   7.468 -0.3740  0.0730  0.7107
 3651SOL     OW22588   1.485   2.449   1.464 -0.1644  0.3318  0.2389
 3651SOL    HW122589   1.421   2.501   1.415 -1.3642 -1.7801 -0.4483
 3651SOL    HW222590   1.435   2.370   1.485 -1.4273  1.8525  2.8532
 3652SOL     OW22591   2.245   3.229   4.178 -0.3335 -0.1874  0.4940
 3652SOL    HW122592   2.155   3.195   4.172  0.0712 -1.4646  1.6841
 3652SOL    HW222593   2.232   3.299   4.242  0.0996  1.0314 -0.7452
 3653SOL     OW22594   1.269   2.384   1.614 -0.3157 -0.0817  0.0051
 3653SOL    HW122595   1.267   2.438   1.693  1.8664  0.4578 -0.3095
 3653SOL    HW222596   1.175   2.372   1.602 -0.5904  0.3431  1.7468
 3654SOL     OW22597   4.475   3.654   9.306 -0.0362 -0.3434  0.1622
 3654SOL    HW122598   4.528   3.648   9.385  0.4748 -1.1678 -0.2473
 3654SOL    HW222599   4.484   3.748   9.286  2.3756 -0.9553 -1.6291
 3655SOL     OW22600   1.563   1.531   3.003  0.3357 -0.5157  0.5006
 3655SOL    HW122601   1.625   1.523   2.930  0.2670 -0.6273  0.4563
 3655SOL    HW222602   1.572   1.627   3.010 -1.8834 -0.4148  1.8641
 3656SOL     OW22603   0.007   3.013   6.005  0.0028 -0.4365  0.1763
 3656SOL    HW122604   0.025   3.097   6.047 -2.1457 -0.5870  1.3926
 3656SOL    HW222605   4.663   3.039   5.961 -0.0210 -0.9333 -0.0692
 3657SOL     OW22606   4.159   1.701   5.221 -0.2713  0.3283  0.3258
 3657SOL    HW122607   4.190   1.617   5.188 -0.9135  0.1177  0.2633
 3657SOL    HW222608   4.218   1.709   5.296  1.4109  0.5284 -1.0236
 3658SOL     OW22609   3.653   0.731  11.869  0.0625  0.2823 -0.0677
 3658SOL    HW122610   3.707   0.777  11.804 -0.8273  0.1351 -0.9050
 3658SOL    HW222611   3.728   0.698  11.919 -0.5415 -2.0636 -0.7311
 3659SOL     OW22612   3.156   4.703  10.213 -0.1973  0.4421  0.3035
 3659SOL    HW122613   3.217   4.633  10.237  1.4515  1.0917 -1.9475
 3659SOL    HW222614   3.159   0.023  10.289  0.8289 -1.7816  1.9354
 3660SOL     OW22615   3.410   2.815   5.130  0.0778  0.1806  0.0995
 3660SOL    HW122616   3.501   2.842   5.145 -0.6161  3.6108 -1.7102
 3660SOL    HW222617   3.363   2.894   5.102  0.5373  0.7847  1.0165
 3661SOL     OW22618   0.372   1.604   6.999  0.0429 -0.3273  0.5918
 3661SOL    HW122619   0.281   1.604   6.969  0.0664 -0.5098  0.5199
 3661SOL    HW222620   0.421   1.572   6.923  0.6008 -2.2621  1.7778
 3662SOL     OW22621   0.863   4.328   0.636 -0.0525  0.0387 -0.1777
 3662SOL    HW122622   0.808   4.288   0.569 -0.4173 -1.3325  0.9587
 3662SOL    HW222623   0.879   4.412   0.593  0.2657  0.0450 -0.0436
 3663SOL     OW22624   2.037   2.907  13.240  0.1178  0.0822  0.0887
 3663SOL    HW122625   2.052   2.814  13.254 -2.0491 -0.5499 -1.6608
 3663SOL    HW222626   2.017   2.938  13.328  3.7092  1.2660  0.5093
 3664SOL     OW22627   1.980   4.083   3.200 -0.0719 -0.3479 -0.0109
 3664SOL    HW122628   1.892   4.051   3.185 -0.3009 -1.0138  2.8334
 3664SOL    HW222629   1.954   4.160   3.249  0.2086 -0.8550  0.9229
 3665SOL     OW22630   2.473   0.230   4.376  0.2556 -0.6193  0.0767
 3665SOL    HW122631   2.449   0.250   4.286 -2.5657  0.6057  1.1052
 3665SOL    HW222632   2.545   0.290   4.395 -0.6518  0.6638 -0.5844
 3666SOL     OW22633   1.816   2.116  12.385 -0.1560 -0.1001  0.4693
 3666SOL    HW122634   1.902   2.128  12.343 -0.4946 -2.2324 -0.8261
 3666SOL    HW222635   1.823   2.182  12.453  0.8530 -0.9444  1.1888
 3667SOL     OW22636   3.070   3.556  15.934 -0.1620 -0.5908 -0.3071
 3667SOL    HW122637   3.074   3.487  16.000  1.2992  0.3594  0.6057
 3667SOL    HW222638   3.050   3.631  15.990 -0.1812 -1.2336  0.5534
 3668SOL     OW22639   2.311   0.758   1.605  0.4563  0.3253  0.4866
 3668SOL    HW122640   2.294   0.692   1.538 -0.9093  2.5935 -1.4040
 3668SOL    HW222641   2.227   0.760   1.651  0.6989  1.3637  0.9019
 3669SOL     OW22642   2.182   0.313   7.887 -0.5660 -0.2265 -0.3146
 3669SOL    HW122643   2.196   0.376   7.816 -1.5129 -0.5827 -0.8216
 3669SOL    HW222644   2.253   0.249   7.878 -0.7123 -0.2319 -1.3949
 3670SOL     OW22645   1.375   4.085   9.501 -0.0000 -0.5718 -0.4717
 3670SOL    HW122646   1.436   4.139   9.550  1.4008 -2.5954  0.0227
 3670SOL    HW222647   1.398   4.006   9.549  1.0006 -0.7781 -1.3006
 3671SOL     OW22648   4.616   3.433   6.649 -0.5690  0.7699 -0.1326
 3671SOL    HW122649   4.524   3.436   6.676 -1.4055 -2.7444 -2.5776
 3671SOL    HW222650   4.646   3.524   6.653 -0.8890  0.7622  2.4386
 3672SOL     OW22651   0.973   3.185   6.177  0.0990 -0.0953 -0.3115
 3672SOL    HW122652   1.056   3.140   6.164  0.1351 -0.6420  1.6847
 3672SOL    HW222653   0.997   3.277   6.185 -1.2474  0.3250 -1.0807
 3673SOL     OW22654   0.255   2.630   1.095 -0.6905 -0.6153 -0.2349
 3673SOL    HW122655   0.270   2.724   1.088 -0.2725 -0.7381 -0.9845
 3673SOL    HW222656   0.160   2.634   1.106 -0.7290  0.3704 -0.9234
 3674SOL     OW22657   1.544   1.810   4.009 -0.3546 -0.0608  0.0294
 3674SOL    HW122658   1.584   1.845   3.929 -1.7114 -2.5569 -1.7464
 3674SOL    HW222659   1.614   1.819   4.073 -0.1234 -0.9988 -0.0996
 3675SOL     OW22660   1.619   1.487   9.404 -0.3136 -0.7033  0.1955
 3675SOL    HW122661   1.592   1.576   9.381  0.8611 -0.8952 -1.9436
 3675SOL    HW222662   1.714   1.488   9.396 -0.5274 -0.1691 -2.3133
 3676SOL     OW22663   2.187   3.792   4.269 -0.1281 -0.2521 -0.3409
 3676SOL    HW122664   2.172   3.878   4.308 -1.1748 -0.9021  0.6822
 3676SOL    HW222665   2.227   3.743   4.341 -1.0903  0.3683  0.5993
 3677SOL     OW22666   1.148   1.879   0.611 -0.4918 -0.0472 -0.8410
 3677SOL    HW122667   1.172   1.806   0.553  0.4636  0.1083 -0.6240
 3677SOL    HW222668   1.201   1.951   0.578 -1.5588  0.3348 -1.7187
 3678SOL     OW22669   1.973   4.661   5.248 -0.0989 -0.2626 -0.1251
 3678SOL    HW122670   2.054   4.613   5.266 -0.2583  0.2245  1.9026
 3678SOL    HW222671   1.920   4.588   5.215  0.9030 -0.8726 -0.3760
 3679SOL     OW22672   2.345   4.576  17.567  0.8419 -0.0657  0.1011
 3679SOL    HW122673   2.413   4.527  17.612 -1.9157 -3.2100  0.8223
 3679SOL    HW222674   2.399   4.650  17.539  0.7348 -0.2204 -0.5180
 3680SOL     OW22675   2.974   3.968   6.350  0.2158 -0.3826  0.2079
 3680SOL    HW122676   2.900   3.982   6.409  2.2848  0.5835  2.5588
 3680SOL    HW222677   3.022   3.899   6.396  0.4640 -0.5295 -0.2692
 3681SOL     OW22678   1.935   0.501  12.344  0.4179 -0.0962  0.1235
 3681SOL    HW122679   1.889   0.534  12.421  2.4691  0.9146  0.9145
 3681SOL    HW222680   1.992   0.440  12.391 -0.3833  0.1647  1.4373
 3682SOL     OW22681   1.499   2.009   4.700 -0.0534 -0.3908 -0.5664
 3682SOL    HW122682   1.415   2.029   4.741 -0.3541  0.9400 -1.8303
 3682SOL    HW222683   1.562   2.064   4.747 -0.9712 -0.7951  1.1030
 3683SOL     OW22684   1.877   0.034   9.266  0.6756  0.4953  0.3483
 3683SOL    HW122685   1.969   0.057   9.254  0.9585  0.0045  1.6448
 3683SOL    HW222686   1.842   0.056   9.180  2.4650 -2.4192 -1.1437
 3684SOL     OW22687   2.317   2.675   6.155 -0.4329  0.8907 -0.1896
 3684SOL    HW122688   2.370   2.612   6.105 -0.5452  1.1841 -0.6734
 3684SOL    HW222689   2.230   2.654   6.123  0.6658 -1.7309 -1.4841
 3685SOL     OW22690   3.470   1.900  10.348 -0.4329 -0.2321 -0.4994
 3685SOL    HW122691   3.383   1.862  10.363 -0.3913 -0.2280 -0.2538
 3685SOL    HW222692   3.523   1.821  10.341 -1.2302 -0.9558  1.8777
 3686SOL     OW22693   3.660   4.144  17.576 -0.3747  0.2591  0.0025
 3686SOL    HW122694   3.614   4.128  17.659 -0.6352  1.2769  0.0516
 3686SOL    HW222695   3.616   4.213  17.527 -0.7650 -1.8679 -2.6684
 3687SOL     OW22696   4.513   3.053   6.917  0.3393 -0.0774  0.0266
 3687SOL    HW122697   4.454   3.128   6.920 -0.4259 -0.5835 -2.4831
 3687SOL    HW222698   4.594   3.105   6.918 -0.4814  1.1828 -0.1603
 3688SOL     OW22699   0.960   0.416  11.167 -0.4245 -0.1654 -0.6307
 3688SOL    HW122700   1.007   0.448  11.090  0.7911  0.8916  0.5569
 3688SOL    HW222701   1.033   0.422  11.228 -1.9567  1.1294  1.0713
 3689SOL     OW22702   4.057   2.913   4.041  0.8037 -0.8058  0.0127
 3689SOL    HW122703   4.136   2.959   4.069  0.5851 -0.4263  0.0081
 3689SOL    HW222704   4.076   2.899   3.948  0.5576  1.4069 -0.3661
 3690SOL     OW22705   1.226   0.819  10.120 -0.2699 -0.0671  0.2884
 3690SOL    HW122706   1.146   0.831  10.171 -0.1906  1.6459  0.0289
 3690SOL    HW222707   1.205   0.858  10.036  2.0276  0.3372 -0.1135
 3691SOL     OW22708   1.427   1.249   4.185 -0.2189 -0.1484 -0.3790
 3691SOL    HW122709   1.443   1.185   4.116  0.7713 -1.2467  0.8683
 3691SOL    HW222710   1.506   1.238   4.237 -1.1502 -2.8925  0.4531
 3692SOL     OW22711   1.110   0.584   4.445 -0.1757  0.2041 -0.0166
 3692SOL    HW122712   1.179   0.583   4.379 -0.0447 -0.5103  0.1369
 3692SOL    HW222713   1.055   0.509   4.423 -1.8959  1.2260  0.6963
 3693SOL     OW22714   3.466   0.187   3.844  0.5247  0.4094 -0.1375
 3693SOL    HW122715   3.373   0.166   3.858  0.3399  1.8906  0.8995
 3693SOL    HW222716   3.493   0.098   3.821 -0.9685  0.5062 -2.2209
 3694SOL     OW22717   3.044   4.511   2.768 -0.0558 -0.2598  0.0824
 3694SOL    HW122718   3.078   4.548   2.686  1.4588 -0.1328  0.7586
 3694SOL    HW222719   2.956   4.548   2.766  0.2595  0.5051  0.4084
 3695SOL     OW22720   4.727   3.746   5.700  0.2213  0.0342  0.2912
 3695SOL    HW122721   4.688   3.739   5.612 -0.7274  1.0387  0.6268
 3695SOL    HW222722   4.688   3.671   5.745  1.3383 -0.7236  0.0022
 3696SOL     OW22723   1.003   0.580   5.397 -0.0733  0.6062 -0.0753
 3696SOL    HW122724   1.074   0.516   5.407  0.5311  0.9967 -1.8315
 3696SOL    HW222725   0.924   0.526   5.390  2.4184 -2.9730 -1.0006
 3697SOL     OW22726   1.815   4.677   6.613  0.0004  0.3968 -0.2566
 3697SOL    HW122727   1.837   4.622   6.538  0.8702 -0.5773  0.7187
 3697SOL    HW222728   1.720   4.685   6.615  0.1571  1.8742  1.1118
 3698SOL     OW22729   0.072   0.716   6.787 -0.4112 -0.1197 -0.2923
 3698SOL    HW122730   0.151   0.674   6.822 -1.0205  0.2764  1.5864
 3698SOL    HW222731   0.013   0.706   6.862  1.2001  1.2104  1.1661
 3699SOL     OW22732   2.453   2.948   4.829 -0.4539  0.0271 -0.5926
 3699SOL    HW122733   2.529   2.953   4.771  1.3663 -0.6532  1.7583
 3699SOL    HW222734   2.486   2.913   4.912  0.2325  2.1023 -0.0016
 3700SOL     OW22735   3.574   0.623   5.614 -0.7924  0.1452  0.0929
 3700SOL    HW122736   3.556   0.601   5.523  1.1379 -1.1267  0.0323
 3700SOL    HW222737   3.589   0.716   5.598 -2.4877  0.3803 -0.1229
 3701SOL     OW22738   1.777   3.511   6.235 -0.6793  0.0117  0.3556
 3701SOL    HW122739   1.740   3.502   6.323 -3.2154 -0.9402 -0.7859
 3701SOL    HW222740   1.719   3.460   6.178 -3.4795  1.4684  1.9050
 3702SOL     OW22741   0.195   1.685   4.536  0.3981 -0.3890  0.1200
 3702SOL    HW122742   0.238   1.622   4.477 -1.6218 -2.2086  0.5922
 3702SOL    HW222743   0.266   1.746   4.554 -0.8153  0.4213  2.1595
 3703SOL     OW22744   1.236   1.477   4.098  0.5075 -0.0639 -0.2756
 3703SOL    HW122745   1.303   1.408   4.092 -2.2135 -2.6397 -0.7705
 3703SOL    HW222746   1.232   1.505   4.006  2.0625  1.8372  0.2373
 3704SOL     OW22747   1.826   4.197   9.316  0.5625 -0.6887 -0.3185
 3704SOL    HW122748   1.897   4.262   9.315 -0.7000  0.6110 -2.8485
 3704SOL    HW222749   1.799   4.211   9.407 -0.2062  1.2454 -0.8391
 3705SOL     OW22750   3.753   1.999  12.884 -0.2835 -0.6036  0.2589
 3705SOL    HW122751   3.833   1.994  12.832  0.0224  3.4824  0.2923
 3705SOL    HW222752   3.731   2.092  12.889 -1.0843 -0.9279  3.1107
 3706SOL     OW22753   0.257   4.325   7.350  0.1069 -0.2819 -0.0643
 3706SOL    HW122754   0.248   4.381   7.273  1.4892  2.8287  2.0245
 3706SOL    HW222755   0.197   4.359   7.417 -0.3974  0.0817 -0.7004
 3707SOL     OW22756   0.326   2.140   2.909 -0.1044  0.8238 -0.1708
 3707SOL    HW122757   0.235   2.126   2.882  0.3157  0.4768 -1.4357
 3707SOL    HW222758   0.334   2.080   2.983  0.8795  0.8894 -0.2179
 3708SOL     OW22759   2.174   1.609   2.444 -0.3648  0.3623 -0.6789
 3708SOL    HW122760   2.111   1.549   2.483  1.0362 -0.2430  0.6371
 3708SOL    HW222761   2.252   1.554   2.442  0.8267  1.9879  0.8172
 3709SOL     OW22762   2.632   2.176   4.345  0.1120  0.1942 -0.0176
 3709SOL    HW122763   2.556   2.144   4.297 -0.6152  1.5099  0.2394
 3709SOL    HW222764   2.614   2.270   4.340  2.6991  0.6382 -0.8898
 3710SOL     OW22765   3.537   4.199   8.501  0.4677  0.0674 -0.4525
 3710SOL    HW122766   3.627   4.169   8.502 -0.5694 -3.0672 -0.5801
 3710SOL    HW222767   3.486   4.122   8.476  0.7229 -0.2373 -0.0216
 3711SOL     OW22768   2.674   2.611   3.512  0.6191  0.1566  0.6753
 3711SOL    HW122769   2.586   2.576   3.496  0.0943  0.3992  3.0257
 3711SOL    HW222770   2.652   2.703   3.528  0.6637 -0.2692  3.1723
 3712SOL     OW22771   2.680   3.231  13.087 -0.0001 -0.4535  0.0551
 3712SOL    HW122772   2.640   3.221  13.174 -0.0104  0.1393  0.1162
 3712SOL    HW222773   2.773   3.220  13.104  0.1593  1.5910  0.5121
 3713SOL     OW22774   4.664   3.907   4.916 -0.3761  0.5114  0.2165
 3713SOL    HW122775   4.596   3.908   4.983 -0.4573  0.2882  0.1395
 3713SOL    HW222776   4.690   3.815   4.919  0.5047  0.8362  2.4447
 3714SOL     OW22777   3.321   1.414   0.596 -0.0028 -0.1405 -0.0475
 3714SOL    HW122778   3.398   1.377   0.640  0.8349  1.7561  0.1003
 3714SOL    HW222779   3.369   1.438   0.517  0.1246  1.8233  0.6108
 3715SOL     OW22780   4.027   3.244   1.290  0.6881 -0.0081  0.7196
 3715SOL    HW122781   3.988   3.164   1.326 -2.5064  0.4750 -1.6385
 3715SOL    HW222782   3.996   3.307   1.355  0.2018  0.7775 -0.2697
 3716SOL     OW22783   0.714   3.953  17.686 -0.2412  0.9284 -0.0493
 3716SOL    HW122784   0.685   3.904  17.609  2.7242  1.1141 -1.3051
 3716SOL    HW222785   0.807   3.970  17.669  0.3211 -0.2154  1.8299
 3717SOL     OW22786   0.875   3.180   4.040  0.0114 -0.3711  0.6567
 3717SOL    HW122787   0.857   3.236   3.965  1.1404  1.9788  2.1468
 3717SOL    HW222788   0.803   3.209   4.096  1.3969  0.1436  2.1717
 3718SOL     OW22789   2.988   3.051   7.039 -0.6873  0.3567 -0.8715
 3718SOL    HW122790   3.070   3.005   7.060 -1.0639  0.2720  0.4404
 3718SOL    HW222791   2.951   3.066   7.126  0.0759  0.8622 -0.6375
 3719SOL     OW22792   4.111   4.465   0.940  0.2386  0.0337  0.2781
 3719SOL    HW122793   4.055   4.390   0.959  1.0997 -0.3488  1.3483
 3719SOL    HW222794   4.112   4.452   0.845 -0.1219  2.9581 -0.1251
 3720SOL     OW22795   2.514   1.212   2.903 -0.5420  0.5534  0.0109
 3720SOL    HW122796   2.485   1.126   2.871 -0.5447 -0.0375  1.5872
 3720SOL    HW222797   2.502   1.273   2.831  0.0125  0.3009 -0.2972
 3721SOL     OW22798   3.112   1.482   7.686 -0.1617  0.1876 -0.4295
 3721SOL    HW122799   3.152   1.531   7.614 -1.4401 -0.8672 -1.8473
 3721SOL    HW222800   3.106   1.542   7.760  1.8375  1.3034 -1.1704
 3722SOL     OW22801   2.858   4.043  12.897 -0.5009  0.3015  0.1635
 3722SOL    HW122802   2.852   4.128  12.852  0.3455  0.2949  0.0333
 3722SOL    HW222803   2.953   4.036  12.882 -0.3747  1.7137  0.3073
 3723SOL     OW22804   4.630   1.177  11.784 -0.1706 -0.3440  0.0421
 3723SOL    HW122805   4.600   1.125  11.709 -1.2474  0.0639  0.1981
 3723SOL    HW222806   4.633   1.112  11.855  0.6097  0.3684  0.6571
 3724SOL     OW22807   3.380   0.612   5.807  0.6222  0.5403 -0.0231
 3724SOL    HW122808   3.450   0.613   5.741  1.4636 -0.4055  0.8565
 3724SOL    HW222809   3.299   0.631   5.761 -0.3650 -0.6467  1.2101
 3725SOL     OW22810   3.480   2.601  10.737 -0.4626  0.4872 -0.0359
 3725SOL    HW122811   3.553   2.606  10.675 -1.0138  0.3475 -0.6981
 3725SOL    HW222812   3.422   2.545  10.686  1.2985  0.2448 -1.8014
 3726SOL     OW22813   4.078   3.783   6.827 -0.1460  0.1812 -0.3775
 3726SOL    HW122814   4.155   3.830   6.794 -2.2811  3.6053 -0.5463
 3726SOL    HW222815   4.060   3.832   6.907 -1.8482 -1.0490 -0.0170
 3727SOL     OW22816   1.668   0.832  12.752  0.4660 -0.3290  0.8389
 3727SOL    HW122817   1.738   0.817  12.689 -0.4440  2.1574 -0.7545
 3727SOL    HW222818   1.672   0.748  12.798 -1.4521 -1.4092 -0.9710
 3728SOL     OW22819   4.443   3.060  17.201  0.2036  0.2059 -0.1918
 3728SOL    HW122820   4.491   3.086  17.122 -0.3106  1.6538 -0.0283
 3728SOL    HW222821   4.385   3.135  17.213  1.2165  1.1179 -0.9688
 3729SOL     OW22822   3.940   3.437  12.779  0.2804  0.0890 -0.3829
 3729SOL    HW122823   3.990   3.518  12.796  0.7947  0.0616 -1.8268
 3729SOL    HW222824   3.918   3.405  12.866  0.3946  0.3659 -0.2496
 3730SOL     OW22825   3.167   1.229  16.703  0.1371 -0.1108 -0.5560
 3730SOL    HW122826   3.130   1.190  16.781 -0.3241  1.9629  0.2673
 3730SOL    HW222827   3.092   1.239  16.645 -1.4343 -1.3560  1.2797
 3731SOL     OW22828   3.368   2.261   4.102 -0.5072  0.2756  0.4061
 3731SOL    HW122829   3.274   2.244   4.093 -0.2232 -0.8487 -0.3360
 3731SOL    HW222830   3.385   2.253   4.196  2.6401  0.1755 -0.1970
 3732SOL     OW22831   3.538   4.675   3.752  0.5626 -0.2159 -0.5097
 3732SOL    HW122832   3.486   4.668   3.671  3.0170 -1.8760 -1.9607
 3732SOL    HW222833   3.623   4.634   3.735  2.1123  2.7171  0.3376
 3733SOL     OW22834   0.088   3.548   8.654  0.4690 -0.0715  0.6517
 3733SOL    HW122835   0.182   3.560   8.640  0.6671 -1.0626  1.0988
 3733SOL    HW222836   0.085   3.550   8.750 -3.3195  1.8760  0.4913
 3734SOL     OW22837   1.029   1.857   1.957 -0.0237 -0.2328 -0.2802
 3734SOL    HW122838   0.975   1.841   1.880  0.3238 -0.0680 -0.5599
 3734SOL    HW222839   0.986   1.787   2.006  0.7064 -0.7506 -0.3665
 3735SOL     OW22840   3.576   4.398   4.395 -0.0905 -0.3332  0.3461
 3735SOL    HW122841   3.589   4.391   4.490 -1.7509  0.4216  0.6207
 3735SOL    HW222842   3.553   4.307   4.381 -1.2631 -0.0508  0.4754
 3736SOL     OW22843   1.579   1.177   7.035 -0.0665  0.3055  0.2635
 3736SOL    HW122844   1.556   1.198   7.126  2.3829 -0.8040  1.1371
 3736SOL    HW222845   1.499   1.148   6.990 -1.5696 -1.7608  4.2527
 3737SOL     OW22846   1.091   2.210   7.783  0.1441 -0.2118 -0.0922
 3737SOL    HW122847   1.085   2.275   7.713 -1.7882  1.3432  1.5199
 3737SOL    HW222848   1.181   2.184   7.765  0.6346  1.9977 -0.8495
 3738SOL     OW22849   2.366   1.836   8.573  0.1560  0.1060 -0.2351
 3738SOL    HW122850   2.354   1.802   8.484 -1.7044  1.6794 -0.5959
 3738SOL    HW222851   2.389   1.755   8.618 -2.1821 -1.6074 -2.0769
 3739SOL     OW22852   1.081   4.153   5.816  0.1239 -0.2596 -0.2359
 3739SOL    HW122853   1.064   4.194   5.900  3.5041 -2.5505  1.5980
 3739SOL    HW222854   0.991   4.134   5.788  0.3803 -1.4720 -0.2754
 3740SOL     OW22855   2.022   4.125   8.521  0.0122  0.2087  0.4462
 3740SOL    HW122856   2.022   4.030   8.508 -1.8925  0.2000  0.4713
 3740SOL    HW222857   2.021   4.136   8.616 -1.0488 -0.8658  0.5503
 3741SOL     OW22858   2.370   4.320   1.777  0.0611 -0.5227 -0.1225
 3741SOL    HW122859   2.404   4.235   1.748  1.0601  0.2178 -1.1283
 3741SOL    HW222860   2.300   4.338   1.714 -0.3420 -2.0332 -0.1012
 3742SOL     OW22861   3.814   4.565   5.431  0.2732  0.2791  0.6889
 3742SOL    HW122862   3.747   4.578   5.498  0.0512 -1.4265  0.8048
 3742SOL    HW222863   3.799   4.633   5.365  1.0406 -0.9537 -0.7556
 3743SOL     OW22864   1.507   0.902   6.615  0.5307 -0.1722 -0.3267
 3743SOL    HW122865   1.418   0.926   6.590 -0.2088 -1.3551  1.2330
 3743SOL    HW222866   1.535   0.980   6.663 -0.3811  0.8959 -1.5289
 3744SOL     OW22867   3.259   0.069   9.989  0.3428 -0.3018 -0.4077
 3744SOL    HW122868   3.236   0.061  10.082  2.0508 -0.5005 -0.0002
 3744SOL    HW222869   3.266   4.716   9.959  2.5045 -0.8927  1.8809
 3745SOL     OW22870   3.908   3.855   8.372  0.1628 -0.2989  0.6556
 3745SOL    HW122871   3.993   3.872   8.411  1.3318 -0.7333 -1.7151
 3745SOL    HW222872   3.860   3.845   8.455  0.0714  1.6693  0.8525
 3746SOL     OW22873   2.210   2.634  13.019 -0.4085  0.2084 -0.4580
 3746SOL    HW122874   2.141   2.583  12.977 -0.1338 -0.8968  0.4210
 3746SOL    HW222875   2.175   2.640  13.108  1.5378  1.4133  0.2326
 3747SOL     OW22876   0.774   2.593  17.013  0.0109 -0.3051 -0.3572
 3747SOL    HW122877   0.799   2.506  16.980 -0.0357 -0.4335 -0.0488
 3747SOL    HW222878   0.845   2.640  16.969 -1.1756  0.1607 -1.7465
 3748SOL     OW22879   0.260   2.181  13.850 -0.5340  0.1866 -0.0199
 3748SOL    HW122880   0.273   2.190  13.755 -0.1616 -1.4495 -0.1177
 3748SOL    HW222881   0.349   2.201  13.880 -0.8500 -0.3489  1.2639
 3749SOL     OW22882   4.123   1.510   7.283 -0.0620  0.0433 -0.1629
 3749SOL    HW122883   4.180   1.586   7.287  1.5597 -1.0652 -2.0702
 3749SOL    HW222884   4.145   1.471   7.198  0.3051  2.1527 -1.0179
 3750SOL     OW22885   2.868   3.812   9.509 -0.1213  0.0722  0.0830
 3750SOL    HW122886   2.889   3.893   9.556 -0.6684  0.1452  0.2089
 3750SOL    HW222887   2.815   3.762   9.572  2.0310 -0.9637  1.0486
 3751SOL     OW22888   3.230   3.782  10.871 -0.0060 -0.1784  0.0732
 3751SOL    HW122889   3.316   3.786  10.828 -0.0817 -0.4749 -0.1108
 3751SOL    HW222890   3.224   3.686  10.875  0.2009 -0.2240 -0.6159
 3752SOL     OW22891   4.073   2.984   5.393 -0.0339  0.1937  0.2593
 3752SOL    HW122892   4.082   3.075   5.421  0.6757  0.7774 -1.8873
 3752SOL    HW222893   4.006   2.962   5.457 -0.6118 -0.3964 -0.5485
 3753SOL     OW22894   1.536   4.502  15.172 -0.5857 -0.5230 -0.2299
 3753SOL    HW122895   1.503   4.586  15.205 -1.6617 -1.5794  1.3810
 3753SOL    HW222896   1.632   4.504  15.180 -0.5955 -0.0110 -0.2416
 3754SOL     OW22897   4.705   2.455   5.563 -0.0039  0.1483  0.2614
 3754SOL    HW122898   4.730   2.390   5.629  0.1165 -1.8182 -1.7049
 3754SOL    HW222899   4.735   2.411   5.483 -1.3627 -0.3151  0.0063
 3755SOL     OW22900   2.448   3.964   1.274  1.0203 -0.0288  0.5161
 3755SOL    HW122901   2.475   4.051   1.245 -1.8227  0.8051  0.3446
 3755SOL    HW222902   2.377   3.986   1.335 -0.0213  1.9960 -1.4281
 3756SOL     OW22903   3.972   4.366   5.352 -0.0370  0.1134  0.1418
 3756SOL    HW122904   3.907   4.433   5.372 -1.6494 -0.9058 -1.6607
 3756SOL    HW222905   3.959   4.312   5.431 -0.2274  0.5023  0.3745
 3757SOL     OW22906   1.359   4.629   2.777  0.3076 -0.3761 -0.1252
 3757SOL    HW122907   1.371   4.570   2.851 -2.2179  0.7079  1.1390
 3757SOL    HW222908   1.266   4.615   2.759 -0.0097 -1.5637  2.5861
 3758SOL     OW22909   1.816   0.952   5.929 -0.1516 -0.3230  0.1858
 3758SOL    HW122910   1.833   0.867   5.971  0.5115 -0.5396 -0.5160
 3758SOL    HW222911   1.747   0.995   5.980  0.5306  1.5313 -0.4534
 3759SOL     OW22912   2.475   0.800   4.934 -0.4607 -0.0924 -0.4779
 3759SOL    HW122913   2.508   0.779   5.021  1.4502  0.6020 -1.0542
 3759SOL    HW222914   2.394   0.844   4.960 -1.5207 -1.0642 -2.1186
 3760SOL     OW22915   0.481   4.233  12.494 -0.2438 -0.0388 -0.2458
 3760SOL    HW122916   0.501   4.317  12.452  1.4854  0.1776  1.0355
 3760SOL    HW222917   0.562   4.183  12.484 -0.2883 -0.4211  1.3113
 3761SOL     OW22918   2.289   4.383   5.540  0.3296  0.1199  0.7185
 3761SOL    HW122919   2.292   4.425   5.454 -2.5371 -0.2937  0.3945
 3761SOL    HW222920   2.215   4.325   5.519  1.3868 -0.5015 -1.2473
 3762SOL     OW22921   2.446   3.229   3.977  0.1363  0.9946  0.0716
 3762SOL    HW122922   2.416   3.316   3.949  1.5727  0.3451 -3.5337
 3762SOL    HW222923   2.403   3.231   4.062 -0.8458  0.6860 -0.4115
 3763SOL     OW22924   0.998   3.692  11.935 -0.0868 -0.0612 -0.1662
 3763SOL    HW122925   0.983   3.786  11.944  0.6621  0.0739 -0.3655
 3763SOL    HW222926   0.936   3.672  11.865  1.5807  1.6462 -2.1340
 3764SOL     OW22927   0.899   4.100   1.757 -0.3195  0.0732 -0.3060
 3764SOL    HW122928   0.847   4.125   1.834  1.7681  0.1291  1.1005
 3764SOL    HW222929   0.919   4.188   1.723 -2.5637  0.7864  0.1997
 3765SOL     OW22930   1.551   1.891   3.298 -0.5800 -0.2902  0.2482
 3765SOL    HW122931   1.461   1.914   3.275 -0.5113 -0.7722 -0.5048
 3765SOL    HW222932   1.540   1.862   3.389  1.3074  2.9841  1.5022
 3766SOL     OW22933   1.057   1.496   8.756 -0.5614  0.0483 -0.2992
 3766SOL    HW122934   1.051   1.401   8.758  0.9106 -0.0515 -0.6476
 3766SOL    HW222935   1.148   1.512   8.783 -0.2774 -0.2194 -1.1063
 3767SOL     OW22936   4.050   1.741   6.684  0.2716 -0.0002  0.0590
 3767SOL    HW122937   4.004   1.783   6.756  0.3755  2.3301 -1.2478
 3767SOL    HW222938   4.102   1.811   6.646  0.5391 -0.8215 -1.0774
 3768SOL     OW22939   2.801   2.411   0.697 -0.3132 -0.0516  0.5176
 3768SOL    HW122940   2.889   2.374   0.691  0.6587  2.3537  0.1517
 3768SOL    HW222941   2.754   2.358   0.761  1.4306 -1.7767  0.4025
 3769SOL     OW22942   2.437   4.372  14.932  0.1077  0.4045 -0.6910
 3769SOL    HW122943   2.368   4.339  14.873 -0.0989 -1.4176  0.5695
 3769SOL    HW222944   2.426   4.303  14.997  0.3417  0.6685 -0.3711
 3770SOL     OW22945   3.184   0.603   2.511  0.2793 -1.1233  0.2419
 3770SOL    HW122946   3.129   0.604   2.590 -0.2686 -0.3840 -0.1500
 3770SOL    HW222947   3.253   0.662   2.543  0.4863 -0.8184 -0.7885
 3771SOL     OW22948   0.975   1.231   9.116  0.7541  0.1099  0.0749
 3771SOL    HW122949   1.051   1.173   9.116  0.9783  0.4033  1.7862
 3771SOL    HW222950   1.016   1.313   9.088  1.3619 -0.2016  0.0609
 3772SOL     OW22951   2.217   2.616   5.230 -0.5469  0.5022 -0.2594
 3772SOL    HW122952   2.152   2.680   5.201 -1.3987 -2.0276 -3.8331
 3772SOL    HW222953   2.213   2.559   5.153 -3.3952 -1.2912  1.2384
 3773SOL     OW22954   0.392   2.639   2.834  0.3950  0.6598  0.4641
 3773SOL    HW122955   0.432   2.694   2.902  0.1546  0.4504  0.7724
 3773SOL    HW222956   0.400   2.553   2.875  0.8973  0.9803  1.0458
 3774SOL     OW22957   0.487   1.204   1.307  0.1300  0.1385 -0.0872
 3774SOL    HW122958   0.565   1.149   1.294  0.2107  0.8533 -2.6371
 3774SOL    HW222959   0.521   1.292   1.319  1.5294 -0.5782  1.0759
 3775SOL     OW22960   3.332   4.179  16.496  0.2314 -0.6293  0.5001
 3775SOL    HW122961   3.283   4.100  16.475 -2.4268  0.8644  0.9909
 3775SOL    HW222962   3.403   4.142  16.548  0.6248 -1.7804 -0.8684
 3776SOL     OW22963   1.967   0.781   2.738 -0.2465 -0.2664 -0.2316
 3776SOL    HW122964   2.051   0.783   2.692 -0.2510  0.6665 -0.1863
 3776SOL    HW222965   1.989   0.710   2.799 -2.0276 -0.2529  0.4166
 3777SOL     OW22966   2.545   3.567  14.971  0.1439  0.3653  0.0135
 3777SOL    HW122967   2.638   3.563  14.994 -0.1718 -1.2820  1.0089
 3777SOL    HW222968   2.510   3.528  15.051  1.0881 -2.0308 -0.7393
 3778SOL     OW22969   4.120   4.609   5.509 -0.5122  0.4295  0.0964
 3778SOL    HW122970   4.073   4.559   5.442  0.8652  0.0943 -0.6291
 3778SOL    HW222971   4.060   4.620   5.582 -0.7479 -2.0719  0.2786
 3779SOL     OW22972   1.893   4.083  10.770  0.5744 -0.4554 -0.1065
 3779SOL    HW122973   1.974   4.104  10.816 -0.5933  0.4228  1.5244
 3779SOL    HW222974   1.871   4.172  10.742 -1.7832 -0.2132  2.5599
 3780SOL     OW22975   1.558   0.446   9.969 -0.3627  0.3606  0.2269
 3780SOL    HW122976   1.628   0.383   9.951  2.5634  3.3527  1.1757
 3780SOL    HW222977   1.490   0.394  10.011 -0.1789  0.2585  0.3991
 3781SOL     OW22978   2.207   4.381   3.292  0.0280  0.6189 -0.2427
 3781SOL    HW122979   2.242   4.448   3.233 -1.1341 -0.3604 -2.0514
 3781SOL    HW222980   2.209   4.313   3.225 -0.7908  0.5346 -0.1797
 3782SOL     OW22981   2.849   1.407   4.959  0.4250 -0.5447 -0.1271
 3782SOL    HW122982   2.877   1.389   5.049  1.3290  0.3225 -0.2277
 3782SOL    HW222983   2.887   1.494   4.950 -0.2037 -0.2149  0.5013
 3783SOL     OW22984   2.646   4.436   6.940 -0.0637  0.2443  0.0240
 3783SOL    HW122985   2.719   4.433   6.879  0.5339  2.1910  0.6547
 3783SOL    HW222986   2.567   4.461   6.892  0.8216 -2.0269 -2.6070
 3784SOL     OW22987   0.277   0.538   9.611 -0.0918 -0.1056  0.1918
 3784SOL    HW122988   0.364   0.512   9.640 -1.0673 -2.1759  1.2672
 3784SOL    HW222989   0.235   0.519   9.695 -0.6322 -0.2141 -0.0997
 3785SOL     OW22990   3.473   4.359  16.351  0.0755  0.2867 -0.4942
 3785SOL    HW122991   3.518   4.278  16.328 -2.5026 -1.7720  1.6145
 3785SOL    HW222992   3.406   4.314  16.404  0.6514  1.7596  1.4850
 3786SOL     OW22993   2.333   0.148   1.496  0.5002  0.0190  0.5623
 3786SOL    HW122994   2.246   0.184   1.511  0.3045  0.1214 -0.8123
 3786SOL    HW222995   2.347   0.172   1.404 -0.6752  0.9320  0.6242
 3787SOL     OW22996   4.327   1.225   3.273 -0.3110 -0.3750  0.5169
 3787SOL    HW122997   4.264   1.153   3.277 -0.7012  0.0565  1.8007
 3787SOL    HW222998   4.402   1.164   3.272 -1.0681 -1.2969 -0.6127
 3788SOL     OW22999   2.984   4.613  14.620  0.1727 -0.5298 -0.2949
 3788SOL    HW123000   3.043   4.592  14.691 -2.4016 -0.1491  1.9629
 3788SOL    HW223001   2.919   4.546  14.640 -1.2640  0.5035 -1.4428
 3789SOL     OW23002   2.846   3.353   9.507 -0.0240  0.2172 -0.0101
 3789SOL    HW123003   2.899   3.278   9.534  0.4744  0.7611  0.5193
 3789SOL    HW223004   2.772   3.307   9.467 -1.2501  2.0933  0.1334
 3790SOL     OW23005   1.905   4.531  14.580 -0.2910 -0.2632 -0.2490
 3790SOL    HW123006   1.954   4.613  14.578 -1.8624  0.6410 -1.6271
 3790SOL    HW223007   1.874   4.523  14.670  1.1183  0.6658  0.3166
 3791SOL     OW23008   4.592   2.393   4.744 -0.3119  0.0695  0.4334
 3791SOL    HW123009   4.588   2.373   4.837 -1.0792 -0.3881  0.3000
 3791SOL    HW223010   4.627   2.310   4.714  0.4921  0.1469  1.1551
 3792SOL     OW23011   2.198   0.591   8.391  0.1391 -0.3594  0.2548
 3792SOL    HW123012   2.133   0.619   8.328 -0.9696  0.0093  1.5545
 3792SOL    HW223013   2.169   0.605   8.481 -0.5211 -2.0930  0.3201
 3793SOL     OW23014   3.432   3.938   6.376  0.1243  0.1633  0.1253
 3793SOL    HW123015   3.357   3.878   6.371 -2.1555  2.9047  1.5451
 3793SOL    HW223016   3.433   3.955   6.471 -0.6434  0.7022  0.0367
 3794SOL     OW23017   4.220   4.115   7.974  0.2737  0.1184 -0.2451
 3794SOL    HW123018   4.260   4.038   7.934 -0.1331 -0.2871  0.1277
 3794SOL    HW223019   4.245   4.092   8.064 -1.2223 -2.0508 -0.3844
 3795SOL     OW23020   2.440   1.310   7.435 -0.0503 -0.1009 -0.8352
 3795SOL    HW123021   2.361   1.358   7.409 -0.1619  0.5779  0.7351
 3795SOL    HW223022   2.413   1.291   7.525 -1.3679 -0.2315 -1.2573
 3796SOL     OW23023   2.841   1.395  15.863  0.1670 -0.3524  0.4126
 3796SOL    HW123024   2.906   1.450  15.908  0.4408 -1.9981  2.0371
 3796SOL    HW223025   2.760   1.425  15.905 -0.2775 -1.8446  0.6121
 3797SOL     OW23026   4.686   0.616   7.672 -0.3207  0.0107 -0.1209
 3797SOL    HW123027   0.027   0.633   7.620 -0.0459 -0.0959  0.2592
 3797SOL    HW223028   4.614   0.638   7.613  0.3841 -0.5444 -1.2032
 3798SOL     OW23029   4.337   1.594  17.743 -0.4777  0.1954  0.2404
 3798SOL    HW123030   4.323   1.573  17.651  1.5179 -0.2173  0.0325
 3798SOL    HW223031   4.422   1.550  17.748 -0.6337 -0.0598  0.6770
 3799SOL     OW23032   0.123   3.957   5.188 -0.0606 -0.0259 -0.2584
 3799SOL    HW123033   0.131   3.997   5.102 -2.0782 -0.3840 -0.6041
 3799SOL    HW223034   0.062   3.885   5.173 -0.4652 -0.1945  2.1713
 3800SOL     OW23035   4.204   3.655  15.740 -0.4413 -0.4610 -0.3785
 3800SOL    HW123036   4.237   3.571  15.774 -1.7567 -0.9991 -0.4349
 3800SOL    HW223037   4.150   3.683  15.813 -0.0179  1.2298 -0.7294
 3801SOL     OW23038   0.386   3.953   4.323 -0.1305 -0.2571  0.2466
 3801SOL    HW123039   0.307   3.918   4.364 -0.2805  0.3405  0.4812
 3801SOL    HW223040   0.353   3.966   4.234  0.2844 -0.1286  0.1142
 3802SOL     OW23041   0.518   4.695  16.912 -0.0042  0.2544  0.4667
 3802SOL    HW123042   0.515   0.052  16.899 -2.2755 -0.0960 -1.5111
 3802SOL    HW223043   0.611   4.686  16.889  0.5160 -1.6943  3.3251
 3803SOL     OW23044   4.304   4.617   2.273  0.3911 -0.1395 -0.0053
 3803SOL    HW123045   4.311   4.677   2.198  1.1441 -1.2822 -0.8466
 3803SOL    HW223046   4.220   4.574   2.257  0.2625  0.3913 -0.7830
 3804SOL     OW23047   2.154   1.020   8.806 -0.4202  0.3820 -0.3053
 3804SOL    HW123048   2.225   1.051   8.862  1.4319 -1.5471 -1.6030
 3804SOL    HW223049   2.089   1.005   8.874  0.3434 -1.0449  0.1115
 3805SOL     OW23050   2.974   1.007   2.376 -0.2784  0.0431  0.3544
 3805SOL    HW123051   2.989   1.101   2.361 -0.7362  0.0623  0.0072
 3805SOL    HW223052   3.064   0.979   2.394 -0.2103 -0.2902 -0.4877
 3806SOL     OW23053   2.799   0.470   0.808 -0.1667 -0.5992  0.1238
 3806SOL    HW123054   2.863   0.427   0.865  1.7388  0.6359 -1.0624
 3806SOL    HW223055   2.738   0.400   0.786 -1.2863  0.2391  0.5067
 3807SOL     OW23056   1.192   1.131  12.252 -0.5870 -0.0579 -0.1018
 3807SOL    HW123057   1.146   1.115  12.170 -1.3377 -1.2212  0.5552
 3807SOL    HW223058   1.171   1.222  12.271 -0.1478 -0.0175  0.1965
 3808SOL     OW23059   1.166   1.898   4.421 -0.1906  0.5639 -0.0519
 3808SOL    HW123060   1.218   1.970   4.385 -1.3808  0.2369 -2.3957
 3808SOL    HW223061   1.190   1.830   4.358 -0.3881  0.3144  0.1429
 3809SOL     OW23062   2.313   2.858  12.174 -0.0569 -0.4720 -0.1326
 3809SOL    HW123063   2.296   2.902  12.257 -1.8296 -0.2345 -0.6193
 3809SOL    HW223064   2.247   2.788  12.174 -2.0796  1.4625 -0.6594
 3810SOL     OW23065   3.907   0.220   5.327  0.8326  0.4008 -0.0065
 3810SOL    HW123066   3.989   0.210   5.279  3.1111 -1.4261  4.2174
 3810SOL    HW223067   3.924   0.208   5.421 -0.3083 -0.5725  0.0774
 3811SOL     OW23068   1.142   1.464  16.249 -0.3369  0.0178  0.2660
 3811SOL    HW123069   1.194   1.474  16.329  0.2669  3.3656 -0.5631
 3811SOL    HW223070   1.215   1.483  16.190  0.2578  1.6890  1.5282
 3812SOL     OW23071   0.699   0.869   2.626 -0.1066  0.1394 -0.6241
 3812SOL    HW123072   0.685   0.958   2.593  2.6349  0.1912 -1.6002
 3812SOL    HW223073   0.632   0.875   2.694  0.0064 -1.1743 -0.3839
 3813SOL     OW23074   2.925   3.152   6.592 -0.2491  0.4296  0.0199
 3813SOL    HW123075   2.840   3.165   6.636 -0.3002 -0.5775  0.2303
 3813SOL    HW223076   2.939   3.057   6.598  1.1388  0.6190 -0.4457
 3814SOL     OW23077   2.488   4.733   7.000 -0.0659 -0.4164  0.4633
 3814SOL    HW123078   2.531   0.009   6.915 -2.0076  2.5966 -0.0783
 3814SOL    HW223079   2.524   4.649   7.027  0.2171 -0.0196  1.3002
 3815SOL     OW23080   4.452   3.735  13.297  0.0443 -0.1630 -0.5127
 3815SOL    HW123081   4.487   3.818  13.264  1.7454 -1.3546 -1.7312
 3815SOL    HW223082   4.445   3.746  13.392  1.7738  0.1742 -0.4323
 3816SOL     OW23083   2.421   0.028   8.870 -0.3912 -0.1546 -0.1352
 3816SOL    HW123084   2.448   4.674   8.878 -0.8283  0.1200  4.9155
 3816SOL    HW223085   2.349   0.022   8.808 -0.9845 -1.2396  0.6434
 3817SOL     OW23086   0.031   3.552  10.856  1.4151 -0.1533  0.4302
 3817SOL    HW123087   4.695   3.550  10.916  0.0095 -1.1224 -1.3330
 3817SOL    HW223088   4.732   3.604  10.785  2.5422 -1.0277 -0.8175
 3818SOL     OW23089   1.805   3.006   8.419  0.4641 -0.0225 -0.6427
 3818SOL    HW123090   1.803   3.076   8.354 -0.8409 -1.1586 -1.8217
 3818SOL    HW223091   1.716   3.011   8.455  0.1519 -2.6874 -1.0315
 3819SOL     OW23092   2.268   0.113  14.553 -0.3516 -0.0837 -0.2145
 3819SOL    HW123093   2.187   0.072  14.526 -0.9770  1.0821 -0.1219
 3819SOL    HW223094   2.333   0.072  14.497 -2.0401 -0.7040 -1.7068
 3820SOL     OW23095   1.871   4.402   1.765  0.8308  0.0761  0.0135
 3820SOL    HW123096   1.918   4.408   1.848 -0.2906  2.9089  0.4225
 3820SOL    HW223097   1.795   4.346   1.777 -0.2934  1.9380  1.4344
 3821SOL     OW23098   4.657   0.438   7.371  0.2287 -0.3468  0.5103
 3821SOL    HW123099   0.008   0.415   7.397  1.1777  1.8722 -0.7581
 3821SOL    HW223100   4.683   0.494   7.298 -1.0815 -0.4981 -0.0890
 3822SOL     OW23101   4.597   3.626  11.261 -0.2091 -0.4640  0.3719
 3822SOL    HW123102   4.532   3.580  11.313  0.6643 -3.0699 -0.8532
 3822SOL    HW223103   4.633   3.680  11.332  1.5237 -0.3303 -0.6050
 3823SOL     OW23104   0.636   0.257   7.350  0.1446 -0.4594  0.3133
 3823SOL    HW123105   0.697   0.329   7.366  0.1440 -0.1193 -1.1891
 3823SOL    HW223106   0.692   0.180   7.364  0.1818 -0.5415 -0.2796
 3824SOL     OW23107   1.766   0.599  14.942 -0.0810  0.0427 -0.5853
 3824SOL    HW123108   1.859   0.605  14.963 -0.3349 -0.9666  0.7624
 3824SOL    HW223109   1.777   0.631  14.852  3.1837  1.3695  0.3000
 3825SOL     OW23110   4.121   4.655   8.255 -0.2674 -0.2776  0.6467
 3825SOL    HW123111   4.070   4.576   8.269 -1.7294  0.5376 -0.0578
 3825SOL    HW223112   4.110   4.688   8.344  0.4724  0.1485  0.5818
 3826SOL     OW23113   2.543   0.827   1.723 -0.8470  0.1165  0.6138
 3826SOL    HW123114   2.457   0.806   1.686 -0.2671  0.9882 -1.1906
 3826SOL    HW223115   2.572   0.746   1.764  0.9753  0.6452  0.3775
 3827SOL     OW23116   1.228   3.794   7.773 -0.0488  0.2579 -0.3014
 3827SOL    HW123117   1.290   3.857   7.809  0.0594 -0.2866  0.4625
 3827SOL    HW223118   1.146   3.824   7.813  0.9632  1.0878  1.1265
 3828SOL     OW23119   2.558   0.289  12.671  0.2229  0.1887 -0.1014
 3828SOL    HW123120   2.627   0.272  12.606 -0.2181  0.4402 -0.6339
 3828SOL    HW223121   2.599   0.244  12.745 -0.7432  0.0494  0.3485
 3829SOL     OW23122   2.813   1.921   4.525  0.5070  0.2258 -0.5248
 3829SOL    HW123123   2.779   1.833   4.506  2.0461 -0.2372 -1.1296
 3829SOL    HW223124   2.862   1.946   4.447 -0.4061  1.1429 -0.7989
 3830SOL     OW23125   4.018   1.119   7.166  0.3519  0.0574 -0.8186
 3830SOL    HW123126   4.019   1.030   7.131  1.0206 -0.7671  1.3137
 3830SOL    HW223127   3.952   1.100   7.233  1.9335 -0.2215  0.6486
 3831SOL     OW23128   1.932   0.367   9.189  0.1778  0.3046  0.0719
 3831SOL    HW123129   1.863   0.372   9.122 -0.0210  0.7948  0.3121
 3831SOL    HW223130   1.961   0.276   9.180 -0.0466 -0.2617  5.2430
 3832SOL     OW23131   1.191   2.916   1.950  0.5698  0.2407 -0.2937
 3832SOL    HW123132   1.266   2.868   1.983  0.5681 -0.1434 -0.8381
 3832SOL    HW223133   1.155   2.939   2.036  1.6791  1.6410 -0.2045
 3833SOL     OW23134   4.130   4.006   3.805  0.2949  0.7025  0.2815
 3833SOL    HW123135   4.164   4.092   3.828 -1.1337  1.5772 -0.8854
 3833SOL    HW223136   4.154   3.949   3.879 -0.8578  2.4179  1.9819
 3834SOL     OW23137   4.490   1.334   9.185 -0.0931  0.5089 -0.3491
 3834SOL    HW123138   4.570   1.283   9.197  0.2848  0.9444 -0.9762
 3834SOL    HW223139   4.461   1.351   9.275  4.8051 -0.7232  1.4761
 3835SOL     OW23140   3.658   1.777   3.110  0.1100 -0.2729 -0.4841
 3835SOL    HW123141   3.582   1.721   3.123 -0.9690  1.5512  1.0267
 3835SOL    HW223142   3.696   1.773   3.198 -0.8272  0.1701 -0.0593
 3836SOL     OW23143   4.042   3.821   6.291 -0.1587  0.5758 -0.0806
 3836SOL    HW123144   4.034   3.733   6.254  1.6467  0.9187 -1.2686
 3836SOL    HW223145   4.032   3.800   6.384  2.7194 -2.5509 -0.5190
 3837SOL     OW23146   1.997   2.755   4.388  0.0529 -0.2409  0.7455
 3837SOL    HW123147   2.042   2.817   4.330 -0.3209 -0.2843  0.4104
 3837SOL    HW223148   2.069   2.704   4.424 -1.1821 -1.1282  1.9784
 3838SOL     OW23149   4.328   2.937  14.990 -0.1220 -0.1677  0.1485
 3838SOL    HW123150   4.393   2.868  15.005 -0.2825  0.2817  2.8989
 3838SOL    HW223151   4.352   2.949  14.899  2.3404 -0.9596  0.6950
 3839SOL     OW23152   4.505   3.021   2.184  0.5779  0.1333  0.7531
 3839SOL    HW123153   4.553   2.939   2.181 -0.9239 -0.7148 -0.0447
 3839SOL    HW223154   4.443   2.995   2.252  1.0214  1.5202  1.6987
 3840SOL     OW23155   4.679   1.163   9.221 -0.2958  0.8253 -1.1268
 3840SOL    HW123156   4.736   1.144   9.295 -2.8441  0.3405  0.6905
 3840SOL    HW223157   4.677   1.075   9.184 -0.1946  0.2918  0.1492
 3841SOL     OW23158   1.878   1.407   4.712  0.1321  0.1136 -0.2683
 3841SOL    HW123159   1.941   1.477   4.693  0.7885 -0.9915 -2.2050
 3841SOL    HW223160   1.848   1.423   4.801  1.0231 -1.4809  0.3205
 3842SOL     OW23161   1.570   0.217  16.540 -0.3178 -0.4135 -0.3798
 3842SOL    HW123162   1.503   0.174  16.487 -2.3769 -1.3422  2.9724
 3842SOL    HW223163   1.645   0.158  16.531  1.2386  1.2628  1.2365
 3843SOL     OW23164   1.291   2.955   5.336 -0.4244  0.0709  0.1184
 3843SOL    HW123165   1.374   3.000   5.351 -1.2319  1.7542 -0.3786
 3843SOL    HW223166   1.317   2.866   5.360 -0.8012  0.3304  1.4976
 3844SOL     OW23167   2.195   3.017   7.326 -0.1469 -0.0182 -0.4743
 3844SOL    HW123168   2.231   2.930   7.342  0.4274  0.3393  0.1413
 3844SOL    HW223169   2.271   3.074   7.325  0.7513 -1.1712  1.4155
 3845SOL     OW23170   4.160   0.715   9.222  0.1249 -0.4303  0.1531
 3845SOL    HW123171   4.175   0.757   9.306  0.2103 -4.2608  2.0826
 3845SOL    HW223172   4.223   0.763   9.170 -1.6189 -1.3274 -2.7966
 3846SOL     OW23173   1.996   1.880   2.492  0.8790 -0.2475 -0.0223
 3846SOL    HW123174   2.009   1.787   2.510 -1.5472 -0.6833 -0.5179
 3846SOL    HW223175   2.014   1.888   2.399 -0.3746 -1.3871 -0.3687
 3847SOL     OW23176   2.988   2.133   7.116 -0.3478  0.3693 -0.3352
 3847SOL    HW123177   3.061   2.072   7.110  0.9731  1.8359  0.9288
 3847SOL    HW223178   2.933   2.114   7.040 -0.0252  1.5393 -0.8599
 3848SOL     OW23179   4.011   3.152   4.941 -0.1615  0.3654  0.2443
 3848SOL    HW123180   4.098   3.191   4.951  0.6998 -1.4777  0.0008
 3848SOL    HW223181   4.024   3.104   4.859  3.1956 -0.6771  1.3849
 3849SOL     OW23182   2.464   3.664   1.067 -0.5614  0.3652 -0.2894
 3849SOL    HW123183   2.457   3.754   1.036  0.8061  0.2169 -1.0679
 3849SOL    HW223184   2.376   3.628   1.054 -0.5566 -0.3939  1.7748
 3850SOL     OW23185   0.477   1.500  14.165 -0.8497 -0.1375 -0.0462
 3850SOL    HW123186   0.517   1.567  14.220 -0.1001 -0.5265 -0.1239
 3850SOL    HW223187   0.387   1.499  14.196 -1.1415  1.1640 -0.8569
 3851SOL     OW23188   1.859   3.844   4.050  0.3891  0.0579 -0.0454
 3851SOL    HW123189   1.877   3.935   4.071 -0.6529  0.2519 -0.0126
 3851SOL    HW223190   1.784   3.854   3.992  1.6400  1.0018 -1.5013
 3852SOL     OW23191   1.790   0.199   7.734 -0.4393 -0.0648  0.1851
 3852SOL    HW123192   1.778   0.190   7.640 -2.9859 -1.0572  0.6098
 3852SOL    HW223193   1.743   0.282   7.748 -1.0725 -0.2701 -0.7298
 3853SOL     OW23194   2.871   1.453   8.373  0.1337 -0.0656  0.4359
 3853SOL    HW123195   2.885   1.390   8.303 -1.1871  0.5136 -0.3458
 3853SOL    HW223196   2.963   1.472   8.392 -0.4185  1.6958  1.4025
 3854SOL     OW23197   3.723   1.246   2.718  0.2363  0.2521  0.5111
 3854SOL    HW123198   3.715   1.286   2.632 -1.7739  1.6207  1.3173
 3854SOL    HW223199   3.684   1.160   2.703 -0.1795  0.3655  0.9209
 3855SOL     OW23200   3.629   2.235   1.963 -0.5791  0.1223  0.4058
 3855SOL    HW123201   3.578   2.184   2.026 -0.2792 -0.2543  0.3425
 3855SOL    HW223202   3.567   2.235   1.890  0.5157  1.1186 -0.5203
 3856SOL     OW23203   2.796   2.962   5.467  0.1286 -0.7023 -0.0940
 3856SOL    HW123204   2.735   2.970   5.540  2.0939 -0.3024  1.5209
 3856SOL    HW223205   2.751   2.892   5.419  0.5084 -0.6552 -0.5261
 3857SOL     OW23206   3.480   4.395  16.940 -0.3367 -0.1619  0.0618
 3857SOL    HW123207   3.446   4.449  17.011  1.3050  0.7811  0.1269
 3857SOL    HW223208   3.450   4.446  16.865  1.2936  4.2097  2.4458
 3858SOL     OW23209   3.299   3.444   0.953  0.5683  0.4018 -0.0323
 3858SOL    HW123210   3.217   3.405   0.921  0.2255 -0.1995  1.5620
 3858SOL    HW223211   3.331   3.474   0.868  0.2256 -1.5498 -0.8750
 3859SOL     OW23212   2.594   0.327   1.967 -0.8001  0.0892 -0.6342
 3859SOL    HW123213   2.567   0.284   1.886  0.4988  1.1511 -1.6264
 3859SOL    HW223214   2.689   0.324   1.954 -0.7928 -2.0538 -0.1808
 3860SOL     OW23215   2.613   1.309   4.913 -0.0710 -1.1297 -0.2539
 3860SOL    HW123216   2.619   1.247   4.841 -0.3592 -1.1234 -0.2834
 3860SOL    HW223217   2.705   1.332   4.928 -0.3161  0.0804 -0.5757
 3861SOL     OW23218   0.436   1.333   2.530  0.2300 -0.1913  0.5743
 3861SOL    HW123219   0.399   1.362   2.447 -1.6890  0.0773  1.5378
 3861SOL    HW223220   0.400   1.246   2.544 -2.2394  0.7581  0.0123
 3862SOL     OW23221   3.274   1.298  14.461  0.0119  0.7344 -0.1764
 3862SOL    HW123222   3.293   1.211  14.496 -0.6748  0.1913 -1.1529
 3862SOL    HW223223   3.260   1.350  14.540 -0.8725  0.3583 -0.0826
 3863SOL     OW23224   4.642   3.394   4.800  0.1939  0.0214  0.1655
 3863SOL    HW123225   4.562   3.412   4.749  1.6171  0.1305 -2.0306
 3863SOL    HW223226   4.667   3.307   4.767 -0.8964 -0.2626  0.0768
 3864SOL     OW23227   1.768   4.171  16.974  0.1820 -0.3394 -0.6763
 3864SOL    HW123228   1.773   4.138  17.063  0.4530  2.3329  0.2879
 3864SOL    HW223229   1.776   4.091  16.921 -3.1404 -0.7758 -0.4693
 3865SOL     OW23230   3.829   3.072   8.571 -0.3469  0.4775  0.3000
 3865SOL    HW123231   3.899   3.011   8.549 -0.0041  0.3818  1.6066
 3865SOL    HW223232   3.759   3.007   8.579  0.3063 -0.1820  0.6622
 3866SOL     OW23233   3.990   2.643   4.579  0.6172 -0.0441  0.4828
 3866SOL    HW123234   3.943   2.617   4.500  0.5032 -0.8461  0.8201
 3866SOL    HW223235   4.068   2.593   4.554 -1.9213 -2.5904 -2.2894
 3867SOL     OW23236   3.701   1.174   5.477  0.3309  0.4108  0.2713
 3867SOL    HW123237   3.638   1.224   5.529 -0.7962  0.0072 -0.7228
 3867SOL    HW223238   3.788   1.211   5.492 -0.1153  1.3825  0.4673
 3868SOL     OW23239   0.715   0.581  14.668 -0.0429 -0.3656  0.1295
 3868SOL    HW123240   0.682   0.623  14.588  0.2982  1.5434  0.9797
 3868SOL    HW223241   0.667   0.500  14.656  1.9628 -1.7240  1.3590
 3869SOL     OW23242   4.425   3.041  14.758  0.1707 -0.0428 -0.0518
 3869SOL    HW123243   4.381   3.064  14.676  0.2478 -2.3257 -0.7231
 3869SOL    HW223244   4.513   3.020  14.725  0.5895  1.8485 -0.1445
 3870SOL     OW23245   0.816   3.639  11.737 -0.2959 -0.1794 -0.1271
 3870SOL    HW123246   0.856   3.607  11.655 -2.9450  0.0742 -1.5140
 3870SOL    HW223247   0.799   3.729  11.710  0.0158 -0.6515 -1.9604
 3871SOL     OW23248   2.492   2.403   2.287 -0.1370 -0.1874  0.0032
 3871SOL    HW123249   2.489   2.317   2.245 -0.5888 -0.0705 -0.2000
 3871SOL    HW223250   2.521   2.390   2.377  2.3909 -1.2793 -0.9733
 3872SOL     OW23251   2.693   0.905   7.437 -0.3313 -0.1556 -0.1038
 3872SOL    HW123252   2.688   0.906   7.341  2.8510 -0.7595 -0.2939
 3872SOL    HW223253   2.774   0.955   7.451 -0.0761 -0.3832 -0.7818
 3873SOL     OW23254   4.481   0.941   1.780  0.0245 -0.5572  0.5722
 3873SOL    HW123255   4.450   0.954   1.690  2.3190 -0.0476 -0.1254
 3873SOL    HW223256   4.446   0.852   1.790 -2.3186  0.4632  1.4213
 3874SOL     OW23257   4.652   3.798   6.110  0.2442  0.1577  0.1788
 3874SOL    HW123258   4.596   3.721   6.103 -0.8399  0.9406  0.2967
 3874SOL    HW223259   4.671   3.813   6.203  0.1830 -0.3017  0.2649
 3875SOL     OW23260   1.469   2.020   3.577  0.6097 -0.2594 -0.7352
 3875SOL    HW123261   1.429   1.937   3.606  2.0023 -0.1357  1.5584
 3875SOL    HW223262   1.414   2.040   3.502  0.2879  1.1630 -0.1162
 3876SOL     OW23263   0.471   3.370   8.113  0.0555 -0.6747 -0.0645
 3876SOL    HW123264   0.435   3.367   8.202 -1.4244 -0.8749 -0.6732
 3876SOL    HW223265   0.395   3.387   8.058  0.2541 -0.3555 -0.2421
 3877SOL     OW23266   1.096   0.126  13.032 -0.0855  0.1893 -0.6900
 3877SOL    HW123267   1.019   0.161  12.987 -1.0425 -0.6413  0.3011
 3877SOL    HW223268   1.093   0.170  13.117 -1.7505 -0.5187 -0.3929
 3878SOL     OW23269   3.151   3.427   3.157 -0.1382 -0.2779  0.3329
 3878SOL    HW123270   3.170   3.393   3.244 -0.3193 -1.0723  0.0630
 3878SOL    HW223271   3.109   3.510   3.179 -0.2509  0.0709 -1.1694
 3879SOL     OW23272   2.863   3.959   5.800 -0.2829  0.6017  0.6121
 3879SOL    HW123273   2.869   3.864   5.812 -0.4664  0.6215  0.8838
 3879SOL    HW223274   2.935   3.982   5.858  1.7934  0.0754 -1.7541
 3880SOL     OW23275   2.090   1.978   2.737 -0.3606  0.1618  0.1825
 3880SOL    HW123276   2.010   2.023   2.763 -0.3884 -0.6327  1.4671
 3880SOL    HW223277   2.072   1.941   2.650  1.1258  0.0441 -0.0906
 3881SOL     OW23278   2.997   1.791  15.683  0.3146 -0.4790  0.1529
 3881SOL    HW123279   3.091   1.801  15.698 -0.3067  2.3438  2.1901
 3881SOL    HW223280   2.988   1.865  15.622 -3.2259  1.1653  2.6223
 3882SOL     OW23281   0.744   4.564   7.370  0.1186  0.5420 -0.0469
 3882SOL    HW123282   0.739   4.473   7.400  1.2362  0.7924  0.8844
 3882SOL    HW223283   0.664   4.600   7.409 -0.4666 -2.4175  1.4955
 3883SOL     OW23284   2.876   0.302   3.346  0.0483 -0.4210 -0.3439
 3883SOL    HW123285   2.851   0.242   3.416  0.2751 -0.6495 -0.4614
 3883SOL    HW223286   2.849   0.253   3.269 -1.8361 -0.9373  0.6377
 3884SOL     OW23287   0.839   1.206   3.941 -0.0831 -0.6323  0.4731
 3884SOL    HW123288   0.796   1.160   4.012 -0.3662 -0.5776  0.3370
 3884SOL    HW223289   0.884   1.273   3.992 -2.4319 -0.1319  1.8579
 3885SOL     OW23290   4.640   2.467   8.759  0.2044  0.1052  0.0291
 3885SOL    HW123291   4.650   2.506   8.673 -1.4859 -1.6640 -0.9612
 3885SOL    HW223292   4.546   2.464   8.773  0.4777  0.5451  2.0483
 3886SOL     OW23293   1.968   2.772   7.914 -0.2048 -0.3483 -0.1453
 3886SOL    HW123294   1.920   2.810   7.988  0.8166  0.6442  0.0036
 3886SOL    HW223295   1.914   2.707   7.868 -0.3024  0.9401 -1.8510
 3887SOL     OW23296   0.723   3.532   7.502  0.4486  0.2403  0.0739
 3887SOL    HW123297   0.702   3.494   7.588  1.0053  0.2649  0.2208
 3887SOL    HW223298   0.816   3.511   7.512  0.4552 -0.2802 -1.1780
 3888SOL     OW23299   2.743   0.842   6.216 -0.0902 -1.1058  0.0539
 3888SOL    HW123300   2.744   0.815   6.308  3.4823 -0.9035  0.0689
 3888SOL    HW223301   2.742   0.762   6.164 -0.6889 -1.6232  0.8546
 3889SOL     OW23302   0.282   4.133   5.874  0.3286 -0.3769 -0.2738
 3889SOL    HW123303   0.255   4.132   5.783 -1.7460 -3.6105  0.3531
 3889SOL    HW223304   0.238   4.054   5.905  0.4193 -0.3750 -0.1399
 3890SOL     OW23305   3.010   2.350   4.809  0.5156 -0.1106 -0.2961
 3890SOL    HW123306   3.005   2.259   4.779 -0.2803 -0.2964  0.3898
 3890SOL    HW223307   3.070   2.388   4.745  1.1039  1.5852  1.2577
 3891SOL     OW23308   1.586   0.300  15.185  0.0512 -0.1201  0.6292
 3891SOL    HW123309   1.653   0.362  15.214 -0.7802  2.2593 -2.5207
 3891SOL    HW223310   1.611   0.221  15.234 -0.1238 -0.9119 -0.5755
 3892SOL     OW23311   1.410   4.466   5.169  0.2046 -0.6388 -1.1456
 3892SOL    HW123312   1.375   4.554   5.155  0.6746 -0.3086 -0.2751
 3892SOL    HW223313   1.326   4.426   5.194 -0.9169  1.3715 -1.6783
 3893SOL     OW23314   3.849   0.022   5.998 -0.2963 -0.3132 -0.4615
 3893SOL    HW123315   3.824   0.097   6.052 -0.0611  0.1532 -1.0068
 3893SOL    HW223316   3.858   4.695   6.069  1.5361 -0.8403 -1.1634
 3894SOL     OW23317   1.107   2.109   1.885 -0.1049 -0.0337  0.4434
 3894SOL    HW123318   1.125   2.173   1.954  0.5378  0.7197 -0.4344
 3894SOL    HW223319   1.060   2.038   1.928 -0.4330  0.7780  1.4372
 3895SOL     OW23320   2.620   3.637   9.901  0.0452 -0.0457 -0.5182
 3895SOL    HW123321   2.618   3.549   9.938 -1.4607  0.5188  0.7039
 3895SOL    HW223322   2.665   3.625   9.817  0.7049  0.3028 -0.2162
 3896SOL     OW23323   2.645   0.822   0.488 -0.0613 -0.0315  0.7745
 3896SOL    HW123324   2.664   0.863   0.572  1.3502 -1.4931  1.1648
 3896SOL    HW223325   2.609   0.735   0.507  0.0798 -0.1781  0.3739
 3897SOL     OW23326   3.994   1.356   2.652 -0.0693 -0.0540  0.4642
 3897SOL    HW123327   3.982   1.416   2.578  2.8969 -0.2041 -0.1257
 3897SOL    HW223328   3.911   1.308   2.660 -0.1104 -0.0444  0.1001
 3898SOL     OW23329   3.243   2.352   3.563 -0.2706  0.2795  0.8285
 3898SOL    HW123330   3.210   2.370   3.475  0.6919  0.7831  0.5738
 3898SOL    HW223331   3.170   2.309   3.608 -1.3455  0.6197 -0.5835
 3899SOL     OW23332   2.232   2.325   2.715  0.0176  0.4889  0.2549
 3899SOL    HW123333   2.143   2.306   2.684  0.5838 -1.3903 -0.2075
 3899SOL    HW223334   2.285   2.262   2.666 -1.9525 -1.0169  0.0716
 3900SOL     OW23335   3.136   3.342   3.834 -0.0131 -0.1081 -0.1759
 3900SOL    HW123336   3.073   3.322   3.903 -0.1097 -0.9606 -0.5159
 3900SOL    HW223337   3.206   3.288   3.870  1.3509  0.8732 -1.3597
 3901SOL     OW23338   3.700   3.207   6.845 -0.1181 -0.2023  0.0486
 3901SOL    HW123339   3.686   3.269   6.916 -1.7254 -1.5296  0.8778
 3901SOL    HW223340   3.782   3.165   6.870 -0.1927 -0.6222 -0.4085
 3902SOL     OW23341   4.339   2.412  17.319  0.0605 -0.4951 -0.2012
 3902SOL    HW123342   4.349   2.357  17.242 -1.8097  0.1862 -0.9377
 3902SOL    HW223343   4.267   2.368  17.365 -1.5442  1.4792 -0.7955
 3903SOL     OW23344   0.353   3.806  16.421  0.2362  0.5489 -0.3120
 3903SOL    HW123345   0.406   3.730  16.444  1.0401  0.5321 -2.2788
 3903SOL    HW223346   0.299   3.823  16.499 -0.6884  1.5746 -1.1780
 3904SOL     OW23347   4.220   2.318   3.574 -0.3296  0.0367 -0.0085
 3904SOL    HW123348   4.130   2.348   3.591  0.0666  0.8649  0.5989
 3904SOL    HW223349   4.276   2.395   3.574  0.3626 -0.4615  0.5882
 3905SOL     OW23350   3.733   3.215   6.364 -0.4638 -0.1487  0.3475
 3905SOL    HW123351   3.805   3.262   6.322 -0.4356 -0.0162  0.5434
 3905SOL    HW223352   3.772   3.201   6.450  1.6492 -0.1994 -0.6019
 3906SOL     OW23353   0.181   3.501   8.009 -0.7784  0.4619 -0.6144
 3906SOL    HW123354   0.110   3.495   8.072 -0.7121  1.0381 -0.4811
 3906SOL    HW223355   0.234   3.572   8.046  1.6008 -1.8640  0.4382
 3907SOL     OW23356   3.896   2.096   6.362 -0.1610 -0.4540 -0.0426
 3907SOL    HW123357   3.941   2.181   6.360  0.6880 -0.8444  2.1205
 3907SOL    HW223358   3.806   2.122   6.342  0.2035 -0.7164 -1.9593
 3908SOL     OW23359   2.718   4.170   7.377  0.3279 -0.1378 -0.1104
 3908SOL    HW123360   2.679   4.256   7.390  0.5165 -0.0363 -0.2122
 3908SOL    HW223361   2.740   4.180   7.284  0.3348  2.6876  0.1801
 3909SOL     OW23362   1.274   1.964  14.339  0.3029  0.1267  0.3236
 3909SOL    HW123363   1.216   2.037  14.360 -3.6625 -2.9022 -0.0128
 3909SOL    HW223364   1.269   1.920  14.424  2.4396 -2.9372 -1.1164
 3910SOL     OW23365   2.685   1.925   7.288 -0.0767  0.5725 -0.6108
 3910SOL    HW123366   2.764   1.885   7.254  0.8306 -0.0201  2.1651
 3910SOL    HW223367   2.667   1.991   7.221  1.5220  1.5624 -0.0471
 3911SOL     OW23368   0.348   2.906   4.266  0.7630 -0.1232  0.1059
 3911SOL    HW123369   0.411   2.927   4.197 -1.5985  0.0416 -1.9996
 3911SOL    HW223370   0.263   2.913   4.221 -0.9009 -0.0381  3.2455
 3912SOL     OW23371   0.468   1.398   8.932  0.5013  0.1499 -0.7750
 3912SOL    HW123372   0.515   1.447   9.000 -0.0526  0.6372 -0.7383
 3912SOL    HW223373   0.391   1.452   8.909 -1.8306 -1.8836  2.2903
 3913SOL     OW23374   0.300   4.567   3.716  0.2976 -0.4215  0.1388
 3913SOL    HW123375   0.230   4.532   3.771 -0.6392 -0.7788 -1.2989
 3913SOL    HW223376   0.345   4.487   3.687 -0.0749 -0.5295 -0.1385
 3914SOL     OW23377   2.252   2.170   1.196  0.0730 -0.4474 -0.3447
 3914SOL    HW123378   2.291   2.106   1.136  0.3187 -0.8037  0.1958
 3914SOL    HW223379   2.304   2.249   1.183 -0.4628  0.0275  0.3986
 3915SOL     OW23380   0.485   2.491   7.164  0.1010  0.3343  0.1562
 3915SOL    HW123381   0.443   2.576   7.150 -3.2479 -1.7808 -2.4001
 3915SOL    HW223382   0.428   2.452   7.229 -0.9496  0.0673 -0.9360
 3916SOL     OW23383   3.179   3.167   1.711  0.4172 -0.0890 -0.0115
 3916SOL    HW123384   3.139   3.099   1.766 -1.8038  2.1840  1.2023
 3916SOL    HW223385   3.106   3.229   1.712 -0.1536 -0.7644  0.2893
 3917SOL     OW23386   3.757   0.731   3.244 -0.1587 -0.1948  0.3249
 3917SOL    HW123387   3.747   0.669   3.316  0.6149 -0.8689 -0.1504
 3917SOL    HW223388   3.779   0.810   3.293  1.3261 -1.0891  1.0759
 3918SOL     OW23389   0.327   2.085   8.431  0.2450 -0.1170  0.7013
 3918SOL    HW123390   0.314   2.153   8.497 -0.0917 -0.6169  1.1531
 3918SOL    HW223391   0.250   2.031   8.448 -2.0566  1.6534 -4.1990
 3919SOL     OW23392   2.262   3.658   9.471 -0.5089  0.1197 -0.1761
 3919SOL    HW123393   2.168   3.642   9.480 -0.4790  0.8065  1.3337
 3919SOL    HW223394   2.276   3.726   9.537 -2.5259  1.1476 -0.8055
 3920SOL     OW23395   1.871   1.652   5.260  0.0443 -0.4898  0.4839
 3920SOL    HW123396   1.857   1.702   5.341 -1.6892  0.7622 -0.5897
 3920SOL    HW223397   1.963   1.676   5.245 -0.7765 -0.1966 -3.9723
 3921SOL     OW23398   0.458   2.027   0.012 -0.8322  0.1169  0.2625
 3921SOL    HW123399   0.477   1.933   0.020 -1.6600 -0.0925 -0.2408
 3921SOL    HW223400   0.528   2.081   0.049  0.2885 -0.5482 -0.9043
 3922SOL     OW23401   1.440   1.970   5.067  0.3061  0.0658  0.2842
 3922SOL    HW123402   1.392   2.045   5.102 -1.1456  0.4075 -2.4047
 3922SOL    HW223403   1.527   2.003   5.042  0.5697 -1.3400 -0.6272
 3923SOL     OW23404   1.448   1.655   1.512 -0.3480  0.0914 -0.2854
 3923SOL    HW123405   1.377   1.664   1.575  0.1517  0.3997  0.2340
 3923SOL    HW223406   1.464   1.747   1.492  2.9333 -0.3941  0.0785
 3924SOL     OW23407   3.987   4.432   8.200 -0.9658  0.1703  0.6612
 3924SOL    HW123408   3.954   4.433   8.110  0.3058  0.1366  0.2014
 3924SOL    HW223409   3.905   4.435   8.249 -0.9005 -1.8999  0.9032
 3925SOL     OW23410   1.031   1.108   6.484 -0.0699 -0.3555 -0.0009
 3925SOL    HW123411   0.991   1.022   6.471  0.4481 -0.5336 -0.4251
 3925SOL    HW223412   1.000   1.141   6.568 -0.7809 -0.6064 -0.1631
 3926SOL     OW23413   4.243   1.407   4.842 -0.5410 -0.3794 -0.4685
 3926SOL    HW123414   4.247   1.490   4.891  1.6774 -0.5672 -0.3010
 3926SOL    HW223415   4.194   1.347   4.898  0.7198 -1.3483 -0.4089
 3927SOL     OW23416   1.713   3.982   8.203  0.0375  0.0964  0.2730
 3927SOL    HW123417   1.738   3.998   8.112  0.5507  0.2524  0.4443
 3927SOL    HW223418   1.764   4.043   8.257  1.6515 -0.9639 -0.0851
 3928SOL     OW23419   1.471   0.830   7.775  0.5716  0.3201  0.5039
 3928SOL    HW123420   1.470   0.922   7.747  0.5451 -0.0484 -0.6791
 3928SOL    HW223421   1.424   0.845   7.857  0.0692 -1.0234  0.4637
 3929SOL     OW23422   1.934   2.147   1.466 -0.5394  0.5962 -0.0439
 3929SOL    HW123423   1.852   2.123   1.510  0.0152 -1.0920  0.0786
 3929SOL    HW223424   1.906   2.159   1.375 -1.0048 -0.1333  0.0068
 3930SOL     OW23425   1.608   0.028   4.576  0.3174 -0.3682 -0.0694
 3930SOL    HW123426   1.565   0.106   4.610 -1.2012 -1.3065  0.1504
 3930SOL    HW223427   1.534   4.736   4.523 -0.2063 -0.7383  0.8622
 3931SOL     OW23428   3.756   0.144   3.026  0.1424  0.1992 -0.0178
 3931SOL    HW123429   3.702   0.065   3.026  0.8052 -0.2453  2.1078
 3931SOL    HW223430   3.760   0.171   3.118  2.0705  1.1984 -0.3861
 3932SOL     OW23431   1.974   4.254   7.670 -0.1838  0.1273  0.1247
 3932SOL    HW123432   1.965   4.279   7.762  1.7230 -1.1646  0.6816
 3932SOL    HW223433   2.048   4.307   7.638  0.8037 -1.4357 -0.1959
 3933SOL     OW23434   3.258   2.576   7.052  0.6869  0.0749 -0.2974
 3933SOL    HW123435   3.348   2.556   7.079  0.0003 -2.3177  0.2015
 3933SOL    HW223436   3.204   2.517   7.105  0.4770 -1.1795 -1.8910
 3934SOL     OW23437   1.097   1.392  12.195 -0.4932 -0.1943 -0.0522
 3934SOL    HW123438   1.020   1.352  12.237 -0.6951 -1.1917 -1.3753
 3934SOL    HW223439   1.112   1.469  12.250  1.7432  0.8674 -2.2097
 3935SOL     OW23440   0.188   0.157  10.307  0.1745  0.8670 -0.0554
 3935SOL    HW123441   0.240   0.180  10.384 -1.1530 -0.1563  1.1402
 3935SOL    HW223442   0.160   0.069  10.332  0.2604  0.4531 -1.4412
 3936SOL     OW23443   1.398   1.534   5.069 -0.0763  0.5035 -0.0833
 3936SOL    HW123444   1.375   1.470   5.136  1.4594  0.1100  0.0790
 3936SOL    HW223445   1.377   1.479   4.994 -1.7623  0.2996  0.5296
 3937SOL     OW23446   1.857   3.239   6.745 -0.3457  0.1087 -0.1420
 3937SOL    HW123447   1.948   3.224   6.718  0.0694 -0.0004  1.3357
 3937SOL    HW223448   1.825   3.149   6.741  1.2651 -0.4992  0.7247
 3938SOL     OW23449   4.131   0.436  16.898 -0.1283 -0.3278 -0.2385
 3938SOL    HW123450   4.086   0.379  16.961 -1.6591  0.6951 -0.3988
 3938SOL    HW223451   4.078   0.516  16.901  0.5309  0.1551 -1.7172
 3939SOL     OW23452   4.365   2.651   6.909  0.1623 -0.4362  0.3228
 3939SOL    HW123453   4.398   2.728   6.955 -1.3326 -1.0373  2.4225
 3939SOL    HW223454   4.349   2.696   6.827  2.3558  0.9925  0.7027
 3940SOL     OW23455   4.627   4.314  16.416  0.4039 -0.2311 -0.3427
 3940SOL    HW123456   4.717   4.320  16.447  0.5037  1.8848 -1.0579
 3940SOL    HW223457   4.607   4.407  16.404 -2.1729 -0.5523  1.5775
 3941SOL     OW23458   4.635   0.815  15.718 -0.6317 -0.4781 -0.2248
 3941SOL    HW123459   4.676   0.902  15.712  1.0104 -1.3567 -1.6893
 3941SOL    HW223460   4.695   0.770  15.659  0.1849 -0.3185  0.4789
 3942SOL     OW23461   1.044   1.047  13.849  0.2130 -0.6382 -0.0069
 3942SOL    HW123462   1.080   0.963  13.821  1.2789 -0.2299  0.1298
 3942SOL    HW223463   0.975   1.016  13.907  0.6136 -0.7019  0.4358
 3943SOL     OW23464   0.656   4.037   3.425  0.3673 -0.1849 -0.4791
 3943SOL    HW123465   0.667   4.007   3.335  1.3571 -0.6241 -0.2013
 3943SOL    HW223466   0.734   4.090   3.443 -2.5618  3.4579  1.6518
 3944SOL     OW23467   1.969   3.364   2.372  0.1861 -0.0313  0.2864
 3944SOL    HW123468   1.918   3.287   2.349 -1.6339  1.4178 -0.5567
 3944SOL    HW223469   1.945   3.381   2.463  0.9279  0.9494  0.3050
 3945SOL     OW23470   2.778   4.482  17.569  0.7123 -0.0086 -0.4262
 3945SOL    HW123471   2.693   4.475  17.613 -0.6275 -0.1739 -3.0414
 3945SOL    HW223472   2.815   4.555  17.619 -0.8653 -1.2525  2.5978
 3946SOL     OW23473   0.791   4.440   8.679  0.3219 -0.2474 -0.4758
 3946SOL    HW123474   0.864   4.460   8.738  0.3585  2.3403 -1.4232
 3946SOL    HW223475   0.763   4.527   8.653 -1.5610 -1.3323 -2.0901
 3947SOL     OW23476   1.998   2.432  16.222 -0.3258  0.3657  1.0449
 3947SOL    HW123477   1.971   2.465  16.136 -0.1422 -1.2206  0.3808
 3947SOL    HW223478   2.070   2.488  16.249  2.6026 -1.3100 -3.3343
 3948SOL     OW23479   0.940   0.137   2.371  0.4611 -0.2174  0.5396
 3948SOL    HW123480   0.973   0.195   2.303  4.0218 -0.0320  2.4433
 3948SOL    HW223481   0.914   0.206   2.433  0.6676  0.0242  0.3565
 3949SOL     OW23482   4.731   0.790  14.950 -0.0486  0.0192 -0.3843
 3949SOL    HW123483   4.693   0.732  14.884 -0.5178 -1.2727  1.0004
 3949SOL    HW223484   4.709   0.745  15.032  0.3309  1.0679  0.2929
 3950SOL     OW23485   2.844   1.516   1.483 -0.3278  0.9229 -0.2979
 3950SOL    HW123486   2.866   1.582   1.417  0.8102  0.7012 -0.1416
 3950SOL    HW223487   2.783   1.570   1.534 -0.0208  1.7535 -0.8056
 3951SOL     OW23488   4.193   0.503   3.994  0.2804  0.0108  0.4238
 3951SOL    HW123489   4.282   0.539   3.998  0.2080  0.4326 -2.0960
 3951SOL    HW223490   4.201   0.429   4.055 -1.1965 -1.5288 -1.2825
 3952SOL     OW23491   0.979   1.945   3.176  0.1038 -0.4576  0.0503
 3952SOL    HW123492   0.941   1.858   3.186  0.0422 -0.0159  3.5491
 3952SOL    HW223493   0.987   1.955   3.081  0.2270  2.0046  0.3380
 3953SOL     OW23494   3.205   0.903   3.687  0.4787 -0.1682  0.4502
 3953SOL    HW123495   3.196   0.992   3.654  1.9387 -0.6044 -1.1247
 3953SOL    HW223496   3.118   0.890   3.723  0.1848 -1.7010 -0.8366
 3954SOL     OW23497   1.058   3.884  16.239 -0.1163  0.3298  0.3759
 3954SOL    HW123498   1.113   3.830  16.182 -0.0405  0.0783  0.6870
 3954SOL    HW223499   1.087   3.968  16.205 -0.9345  0.4451 -0.0419
 3955SOL     OW23500   0.402   2.030   6.605 -0.2816 -0.0771 -0.2009
 3955SOL    HW123501   0.458   2.038   6.528  1.3505 -0.2808  0.9407
 3955SOL    HW223502   0.471   2.030   6.672  0.9729  0.6131 -1.5011
 3956SOL     OW23503   4.702   3.681   6.745  0.6479  0.2262 -0.3538
 3956SOL    HW123504   0.003   3.760   6.706  0.2699  0.4235 -0.3231
 3956SOL    HW223505   4.646   3.725   6.809 -0.8315  0.0899 -1.5647
 3957SOL     OW23506   4.256   3.736   9.007  0.5719  0.5315  0.0574
 3957SOL    HW123507   4.322   3.804   8.992  0.2975  0.2529 -2.3501
 3957SOL    HW223508   4.255   3.739   9.103 -0.4886 -0.9921  0.0766
 3958SOL     OW23509   1.909   1.037   5.497 -0.2988  0.5939 -0.1862
 3958SOL    HW123510   1.897   1.111   5.557 -1.1228  0.4596 -0.1862
 3958SOL    HW223511   1.890   0.958   5.548  0.1385  0.8819  0.4343
 3959SOL     OW23512   2.809   2.367   8.538 -0.5743 -0.5071 -0.1083
 3959SOL    HW123513   2.786   2.332   8.452 -0.2998 -1.0153  0.0249
 3959SOL    HW223514   2.813   2.462   8.530 -1.0180 -0.2350  2.7495
 3960SOL     OW23515   3.119   0.930   1.645  0.1868  0.3092  0.1904
 3960SOL    HW123516   3.195   0.931   1.586 -1.3512  2.2744 -1.7219
 3960SOL    HW223517   3.165   0.923   1.729 -3.2899 -0.9950  1.9684
 3961SOL     OW23518   1.933   2.732   2.140 -0.0688  0.0526  0.2525
 3961SOL    HW123519   1.999   2.741   2.209  0.3769  2.7463 -0.5358
 3961SOL    HW223520   1.915   2.638   2.142  1.4953 -0.2282  0.9016
 3962SOL     OW23521   0.504   2.774  14.578 -0.2680 -0.7865  0.1256
 3962SOL    HW123522   0.530   2.690  14.616  2.2433 -0.2590 -0.4481
 3962SOL    HW223523   0.578   2.825  14.612 -0.6062 -0.6348  0.6295
 3963SOL     OW23524   2.653   4.497   9.217  0.0369 -0.3320  0.3310
 3963SOL    HW123525   2.742   4.529   9.203  0.3265 -2.1416 -1.9676
 3963SOL    HW223526   2.673   4.404   9.223  0.9411 -0.1225  0.6462
 3964SOL     OW23527   3.188   2.766   7.252  0.0568 -0.3113 -0.1995
 3964SOL    HW123528   3.239   2.707   7.198  1.3221  1.5560 -1.0481
 3964SOL    HW223529   3.096   2.756   7.228 -0.3477  2.9628 -0.0321
 3965SOL     OW23530   1.223   4.285   9.649 -0.3118 -0.6880 -0.9605
 3965SOL    HW123531   1.266   4.337   9.581 -2.7275  0.4991 -1.5747
 3965SOL    HW223532   1.268   4.202   9.631 -0.2368 -0.8323 -0.1395
 3966SOL     OW23533   0.944   1.978   7.805 -0.3963 -0.0981  0.1591
 3966SOL    HW123534   0.990   2.060   7.786 -0.5049  0.3705  1.8837
 3966SOL    HW223535   0.852   2.003   7.794 -0.9934 -2.0182  0.8564
 3967SOL     OW23536   2.066   3.312   7.038 -0.2567 -0.2263  0.0832
 3967SOL    HW123537   2.015   3.235   7.059  0.4929 -1.0022 -0.9113
 3967SOL    HW223538   2.001   3.374   7.004  0.0255 -1.2665 -2.3997
 3968SOL     OW23539   4.158   2.930   6.636 -0.6793 -0.3192 -0.1644
 3968SOL    HW123540   4.173   2.943   6.730  0.9270  1.2669 -0.6386
 3968SOL    HW223541   4.225   2.866   6.609 -1.9307 -1.7457  0.0880
 3969SOL     OW23542   1.507   1.927   1.480 -0.0774 -0.0929  0.5471
 3969SOL    HW123543   1.457   1.996   1.524 -2.0084 -0.6038 -0.8824
 3969SOL    HW223544   1.524   1.971   1.397  0.8463 -1.7792 -0.1693
 3970SOL     OW23545   4.479   3.900   8.891  0.1350 -0.1641 -0.6537
 3970SOL    HW123546   4.462   3.993   8.877 -2.2932 -0.3204  1.3127
 3970SOL    HW223547   4.554   3.896   8.832 -0.9896  1.2760 -2.1878
 3971SOL     OW23548   3.978   3.750   9.175  0.5990 -0.4470 -0.4088
 3971SOL    HW123549   4.071   3.734   9.193  0.2242 -1.8884  0.2514
 3971SOL    HW223550   3.970   3.726   9.083  1.0442 -1.6553 -0.1381
 3972SOL     OW23551   0.945   2.673   5.425  0.3523  0.1061  0.6568
 3972SOL    HW123552   0.951   2.651   5.518 -1.6371 -2.2414  0.2499
 3972SOL    HW223553   0.971   2.592   5.380 -1.6264 -0.1074 -0.1215
 3973SOL     OW23554   4.098   4.117   7.000 -0.0774 -0.3559  0.0386
 3973SOL    HW123555   4.011   4.085   7.027  0.3978 -1.2389  0.5273
 3973SOL    HW223556   4.153   4.095   7.075 -1.0550 -2.1696  0.2278
 3974SOL     OW23557   0.459   1.765   2.158 -0.1521  0.7021  0.1888
 3974SOL    HW123558   0.366   1.787   2.164 -0.9727 -2.5859 -0.5570
 3974SOL    HW223559   0.497   1.842   2.117  2.5540 -0.4832  0.4649
 3975SOL     OW23560   0.267   1.670  17.638 -0.3606  0.0337  0.3032
 3975SOL    HW123561   0.189   1.697  17.590 -1.0904  0.8271  1.9306
 3975SOL    HW223562   0.308   1.754  17.656 -0.6803  0.1959  0.2819
 3976SOL     OW23563   0.661   1.249   3.712  0.7981  0.4230 -0.4862
 3976SOL    HW123564   0.698   1.332   3.681  0.2494  1.6364  2.1374
 3976SOL    HW223565   0.719   1.223   3.783 -2.6338  0.4170  2.3049
 3977SOL     OW23566   0.017   4.485  13.726  0.1677  0.3156 -0.5107
 3977SOL    HW123567   4.659   4.486  13.734  0.3767  0.8388  1.9270
 3977SOL    HW223568   0.037   4.407  13.776  1.1390  0.5225 -0.5836
 3978SOL     OW23569   0.049   3.439  16.050 -0.1804 -1.0802  0.2599
 3978SOL    HW123570   0.142   3.421  16.042 -0.3592 -1.1138 -1.7750
 3978SOL    HW223571   0.052   3.532  16.030  0.9356 -1.2851 -0.5122
 3979SOL     OW23572   4.474   4.230   8.060  0.0074 -0.0850 -0.3218
 3979SOL    HW123573   4.459   4.139   8.086 -1.6347  0.3386  0.2033
 3979SOL    HW223574   4.391   4.255   8.018 -1.0743 -3.1114  0.0373
 3980SOL     OW23575   4.545   1.717   0.487 -0.2680 -0.1608  0.3739
 3980SOL    HW123576   4.507   1.693   0.402  0.5594 -0.1866  0.0132
 3980SOL    HW223577   4.634   1.687   0.469  0.0134 -0.9586  3.0240
 3981SOL     OW23578   0.018   0.628  15.570 -0.5187 -0.9235 -0.2443
 3981SOL    HW123579   4.724   0.574  15.497 -1.4877  0.2956 -0.7258
 3981SOL    HW223580   0.106   0.592  15.582 -1.0618 -3.2837 -3.3023
 3982SOL     OW23581   4.601   2.786   5.411  0.3381  0.1672 -0.3888
 3982SOL    HW123582   4.686   2.821   5.436  0.2358 -0.7536  1.2828
 3982SOL    HW223583   4.608   2.753   5.322  1.8932 -0.0116 -0.1848
 3983SOL     OW23584   1.185   0.813   5.124 -0.1090  0.1194 -0.3276
 3983SOL    HW123585   1.249   0.764   5.176  0.8609  0.3590 -1.3036
 3983SOL    HW223586   1.209   0.905   5.138  1.4597 -0.3762  0.2010
 3984SOL     OW23587   1.249   0.505   3.430  0.8830  0.1058  0.0567
 3984SOL    HW123588   1.305   0.553   3.491  0.5003 -2.4641  2.4344
 3984SOL    HW223589   1.178   0.560   3.398  0.8945 -0.3123 -0.6952
 3985SOL     OW23590   4.496   2.253   9.106 -0.0382  0.8536 -0.1491
 3985SOL    HW123591   4.514   2.175   9.158 -0.4851  1.6638  1.2119
 3985SOL    HW223592   4.553   2.236   9.031  0.4346 -1.4575  0.7348
 3986SOL     OW23593   0.799   3.444   6.058 -0.3773 -0.0515  0.1436
 3986SOL    HW123594   0.743   3.433   6.136 -0.5066 -3.4214 -0.4423
 3986SOL    HW223595   0.875   3.470   6.111  0.5882  0.2684 -1.4075
 3987SOL     OW23596   1.518   4.261   9.681 -0.5597  0.1395 -0.4773
 3987SOL    HW123597   1.462   4.329   9.644  0.7253  0.4927 -1.8095
 3987SOL    HW223598   1.510   4.261   9.776  1.1304 -1.4057 -0.3254
 3988SOL     OW23599   0.259   0.963   6.978  0.0164  0.1849  0.1091
 3988SOL    HW123600   0.166   0.978   6.995 -0.6755 -0.8801 -2.6976
 3988SOL    HW223601   0.261   0.959   6.882  0.9746 -3.9076  0.3167
 3989SOL     OW23602   2.315   4.144   8.368  0.4060 -0.1475  0.5665
 3989SOL    HW123603   2.356   4.124   8.452  1.2210 -1.7058 -0.1929
 3989SOL    HW223604   2.222   4.128   8.385 -0.2581  0.0564 -2.8731
 3990SOL     OW23605   2.555   0.852  10.938 -0.3894  0.2011 -0.9915
 3990SOL    HW123606   2.568   0.930  10.992  2.0415 -0.0050 -1.3153
 3990SOL    HW223607   2.527   0.788  11.003 -2.6639  2.6138  0.4081
 3991SOL     OW23608   0.158   3.928   3.164  0.3337 -0.1787  0.6015
 3991SOL    HW123609   0.156   4.016   3.202 -0.3003  0.0977 -0.0772
 3991SOL    HW223610   0.219   3.877   3.217  0.8110 -1.2376 -0.9751
 3992SOL     OW23611   1.791   0.877   4.941 -0.4607  0.7199  0.6732
 3992SOL    HW123612   1.812   0.847   5.030 -0.2465  0.6898  0.6133
 3992SOL    HW223613   1.794   0.972   4.934  0.3674  0.4425 -2.6165
 3993SOL     OW23614   2.693   2.834   2.443  0.2913 -0.4940  0.3624
 3993SOL    HW123615   2.726   2.909   2.394 -1.1242 -0.6566 -0.8243
 3993SOL    HW223616   2.720   2.763   2.385  1.3760 -0.2720  0.5874
 3994SOL     OW23617   3.904   2.344  15.181 -0.0652 -0.6843  0.5985
 3994SOL    HW123618   3.912   2.440  15.178  0.7481 -0.7715 -0.0082
 3994SOL    HW223619   3.978   2.321  15.125 -1.1659  1.2592 -1.6886
 3995SOL     OW23620   1.787   2.965   6.693  0.2715  0.1705 -0.1954
 3995SOL    HW123621   1.803   2.909   6.616  1.0221 -3.2864  2.4683
 3995SOL    HW223622   1.855   2.932   6.752  0.7593 -1.4210 -1.6322
 3996SOL     OW23623   2.067   0.981  17.268 -0.5222 -0.3293  0.1537
 3996SOL    HW123624   2.156   0.959  17.295 -0.8524 -0.5616  1.0704
 3996SOL    HW223625   2.079   1.045  17.198  4.8516 -1.9348 -0.4118
 3997SOL     OW23626   0.789   0.143   6.780 -0.0620 -0.0279 -0.2313
 3997SOL    HW123627   0.809   0.055   6.748 -1.5061 -0.8436  1.1082
 3997SOL    HW223628   0.748   0.190   6.706  0.9174  1.5706  0.2420
 3998SOL     OW23629   3.463   0.527  10.121 -0.5182  0.1827  0.1684
 3998SOL    HW123630   3.538   0.496  10.070 -0.3395  2.4720 -0.9314
 3998SOL    HW223631   3.395   0.533  10.054 -1.4964 -0.3424  1.1191
 3999SOL     OW23632   3.982   4.241  15.194 -0.0631  0.8856  0.1108
 3999SOL    HW123633   3.993   4.304  15.123  1.1349  1.1765  0.5620
 3999SOL    HW223634   4.012   4.282  15.274 -1.2411 -1.5386  1.8087
 4000SOL     OW23635   1.994   3.152   8.972  0.0744  0.3196 -0.1747
 4000SOL    HW123636   2.019   3.062   8.949 -0.1693  0.8305 -2.3742
 4000SOL    HW223637   2.004   3.187   8.884 -2.4328 -2.0325 -1.3767
 4001SOL     OW23638   2.287   2.422  12.591 -0.1898  0.7338  0.3134
 4001SOL    HW123639   2.327   2.357  12.649 -0.4166  0.5971  0.3157
 4001SOL    HW223640   2.197   2.389  12.591  0.5828 -1.4060  0.5447
 4002SOL     OW23641   2.664   3.952   8.873 -0.3082  0.4644 -0.7171
 4002SOL    HW123642   2.691   3.860   8.878  1.1397  0.8325 -1.8851
 4002SOL    HW223643   2.571   3.937   8.888 -0.3527  0.4750 -0.9736
 4003SOL     OW23644   0.257   4.654   5.555 -0.1408  0.4669  0.3261
 4003SOL    HW123645   0.204   4.707   5.614  1.7167  0.9956  1.5310
 4003SOL    HW223646   0.342   4.671   5.595  0.3116  1.6902 -1.1530
 4004SOL     OW23647   2.690   0.605   8.977  0.1986 -0.6302 -0.0852
 4004SOL    HW123648   2.720   0.578   8.890  1.2253 -0.7964  0.3248
 4004SOL    HW223649   2.629   0.535   9.003 -1.9174  1.0887 -0.4222
 4005SOL     OW23650   2.581   4.051  10.326  0.0404 -0.2077  0.3971
 4005SOL    HW123651   2.584   3.966  10.282 -0.8169  0.2093 -0.4805
 4005SOL    HW223652   2.544   4.016  10.407 -2.3815 -1.2022 -1.1091
 4006SOL     OW23653   3.992   0.247   9.709  0.0088 -0.3854 -0.3077
 4006SOL    HW123654   4.027   0.305   9.777 -0.2687  0.1277 -0.6063
 4006SOL    HW223655   3.908   0.217   9.744  0.4854 -1.2475  0.0873
 4007SOL     OW23656   2.889   1.574   5.785 -0.4407  0.5986 -0.2172
 4007SOL    HW123657   2.959   1.565   5.849 -0.1721 -0.1666 -0.6269
 4007SOL    HW223658   2.822   1.513   5.818 -0.3043  0.8934  0.6048
 4008SOL     OW23659   3.762   2.667   3.929 -0.5538 -0.3368  0.7960
 4008SOL    HW123660   3.744   2.576   3.908 -4.3575  0.5129  0.2864
 4008SOL    HW223661   3.851   2.662   3.964  0.1720 -1.0206 -1.1757
 4009SOL     OW23662   0.658   0.377   4.812 -0.8341  1.0334 -0.1883
 4009SOL    HW123663   0.670   0.426   4.893  2.8546  0.5866 -0.4448
 4009SOL    HW223664   0.643   0.443   4.744  0.6455  3.4144  1.7824
 4010SOL     OW23665   3.150   1.017  16.222 -0.2632 -0.3382 -0.3156
 4010SOL    HW123666   3.093   1.094  16.221  0.0992 -0.0996 -2.2696
 4010SOL    HW223667   3.231   1.056  16.254 -0.2001 -1.7756  1.3400
 4011SOL     OW23668   3.895   2.162   7.677 -0.7352 -0.2576  0.3270
 4011SOL    HW123669   3.883   2.257   7.688 -1.7596 -0.8243  4.1950
 4011SOL    HW223670   3.822   2.137   7.621 -1.8591  0.6514  1.3636
 4012SOL     OW23671   3.433   2.323   5.493 -0.1625  0.1662  0.2866
 4012SOL    HW123672   3.425   2.276   5.576  2.3338  0.0813  0.4816
 4012SOL    HW223673   3.477   2.401   5.526  0.2758 -0.5748  1.4413
 4013SOL     OW23674   4.104   4.520   0.137 -0.2355  0.0356  0.2714
 4013SOL    HW123675   4.174   4.499   0.076  0.7631 -1.3238  1.8858
 4013SOL    HW223676   4.139   4.477   0.214 -1.4043 -0.7360  0.3797
 4014SOL     OW23677   3.834   4.485   3.215  0.2162 -0.3037  0.3869
 4014SOL    HW123678   3.874   4.398   3.221 -1.5745 -1.3375 -2.2633
 4014SOL    HW223679   3.769   4.487   3.285 -0.6885  0.8552 -0.4876
 4015SOL     OW23680   2.230   2.755   7.983  0.7870 -0.0496  0.4302
 4015SOL    HW123681   2.252   2.834   8.033 -0.8073  0.6812 -0.0100
 4015SOL    HW223682   2.145   2.771   7.942  0.5947 -0.9796  0.4655
 4016SOL     OW23683   0.350   1.250   6.514 -0.1212  0.0507 -0.0265
 4016SOL    HW123684   0.284   1.205   6.462  0.9132  1.6281 -2.7357
 4016SOL    HW223685   0.415   1.259   6.444 -0.4424  1.5329 -0.1351
 4017SOL     OW23686   3.593   4.494   5.101  0.3901 -0.0096  0.6031
 4017SOL    HW123687   3.532   4.531   5.037  1.2593  1.6672  0.7395
 4017SOL    HW223688   3.617   4.571   5.154  0.3708  0.9798 -0.8191
 4018SOL     OW23689   4.017   1.899   7.488  0.1700  0.6602 -0.4556
 4018SOL    HW123690   4.062   1.982   7.471  0.4286  0.5920 -0.0892
 4018SOL    HW223691   4.057   1.854   7.413  1.0164  0.0411  0.3803
 4019SOL     OW23692   0.866   2.628   6.712  0.8551  0.2205  0.0485
 4019SOL    HW123693   0.797   2.569   6.741  1.0045 -0.8334 -1.7624
 4019SOL    HW223694   0.935   2.562   6.715  1.5063  0.8631 -0.6839
 4020SOL     OW23695   1.844   3.881  16.795  0.1889 -0.0281 -0.3753
 4020SOL    HW123696   1.841   3.818  16.723 -1.5976 -0.3519 -0.0212
 4020SOL    HW223697   1.778   3.846  16.855  0.6445  0.9663  0.7066
 4021SOL     OW23698   1.692   4.120   8.907  0.2736 -0.0313  0.1772
 4021SOL    HW123699   1.775   4.144   8.867  0.5044 -0.3939  0.4411
 4021SOL    HW223700   1.720   4.086   8.992  0.4391 -1.3483 -0.4077
 4022SOL     OW23701   2.433   2.861  13.637 -0.1397  0.0280 -0.2575
 4022SOL    HW123702   2.436   2.816  13.553 -2.0567 -0.2475 -0.1795
 4022SOL    HW223703   2.356   2.918  13.639  1.3096  1.9197  1.8266
 4023SOL     OW23704   3.769   1.444   7.577  0.1607  0.2186  0.2357
 4023SOL    HW123705   3.790   1.465   7.486 -0.6325 -0.7125 -0.1493
 4023SOL    HW223706   3.851   1.404   7.605  0.5738  2.0536  1.7011
 4024SOL     OW23707   4.606   1.728  13.135  0.2284 -0.0367  0.0819
 4024SOL    HW123708   4.668   1.692  13.199 -0.5003 -1.5922 -0.0990
 4024SOL    HW223709   4.523   1.695  13.169  0.0442  0.7230  0.3588
 4025SOL     OW23710   1.749   0.508   0.570  0.1320 -0.8634 -0.0752
 4025SOL    HW123711   1.763   0.590   0.524 -2.2598 -0.9757 -0.9642
 4025SOL    HW223712   1.763   0.435   0.509  0.2252 -0.7191 -0.2240
 4026SOL     OW23713   2.128   3.313   9.412 -0.1584 -0.1372 -0.2007
 4026SOL    HW123714   2.149   3.273   9.328 -0.1730  0.9288 -0.7084
 4026SOL    HW223715   2.053   3.364   9.380 -0.6300 -1.0038 -0.4942
 4027SOL     OW23716   1.832   0.958  11.565  0.0891  0.3798 -0.4099
 4027SOL    HW123717   1.758   0.932  11.619  0.5010 -1.3773 -0.6944
 4027SOL    HW223718   1.909   0.916  11.603 -0.8598 -0.2281  0.8329
 4028SOL     OW23719   2.655   3.331   2.862  0.0511 -0.1106 -0.4353
 4028SOL    HW123720   2.623   3.282   2.939  0.8364  0.9059  0.5400
 4028SOL    HW223721   2.745   3.349   2.890  0.5589 -0.7249 -1.6992
 4029SOL     OW23722   2.614   1.150   5.667  0.1984  0.3939  0.5505
 4029SOL    HW123723   2.531   1.134   5.712  0.2119 -2.6018 -0.5195
 4029SOL    HW223724   2.664   1.142   5.748  0.6639 -0.9893  0.1244
 4030SOL     OW23725   3.938   3.328  14.431  0.6648 -0.1806 -0.5054
 4030SOL    HW123726   3.933   3.424  14.424  2.1862  0.0354  1.3992
 4030SOL    HW223727   3.930   3.309  14.338 -0.2668  2.9457 -1.0621
 4031SOL     OW23728   2.760   0.906   8.251 -0.4191  0.6022 -0.1561
 4031SOL    HW123729   2.722   0.828   8.211 -0.5991  0.5917  0.0360
 4031SOL    HW223730   2.798   0.935   8.168 -1.9785 -0.5822 -1.2819
 4032SOL     OW23731   3.236   4.433   2.405 -0.4446  0.2048  0.0984
 4032SOL    HW123732   3.271   4.445   2.317 -0.5570 -0.3142 -0.0203
 4032SOL    HW223733   3.157   4.385   2.381  0.0281 -1.8023  2.4870
 4033SOL     OW23734   0.854   2.068   5.247  0.3093 -0.3056  0.0437
 4033SOL    HW123735   0.940   2.069   5.204 -0.5040  0.6608 -1.5588
 4033SOL    HW223736   0.859   1.980   5.286 -1.5496 -0.1442  0.6138
 4034SOL     OW23737   0.013   1.542   2.857 -0.2927  0.6398  0.4528
 4034SOL    HW123738   4.700   1.470   2.894  1.1275  0.8264  2.7622
 4034SOL    HW223739   4.680   1.606   2.855 -1.9467 -1.3129 -2.9493
 4035SOL     OW23740   1.400   3.219   3.756 -0.0492 -0.3974  0.5909
 4035SOL    HW123741   1.329   3.216   3.820 -1.1068 -0.0356 -0.5699
 4035SOL    HW223742   1.386   3.138   3.706 -1.3996  0.7082 -0.8427
 4036SOL     OW23743   2.194   1.585   8.017 -0.2371 -0.2026  0.5260
 4036SOL    HW123744   2.232   1.519   8.074  0.5276  0.4930  0.8204
 4036SOL    HW223745   2.259   1.655   8.023 -1.3756  0.8562  0.5467
 4037SOL     OW23746   3.465   0.490   3.049  0.0719  0.6250 -0.1761
 4037SOL    HW123747   3.546   0.464   3.004 -0.8586 -2.3773 -0.1634
 4037SOL    HW223748   3.460   0.435   3.128 -0.9466  1.2823  0.2159
 4038SOL     OW23749   2.077   2.927   9.644  0.5886 -0.5518 -0.4142
 4038SOL    HW123750   2.117   2.843   9.668 -0.3159 -1.7947 -3.1726
 4038SOL    HW223751   2.076   2.913   9.549  1.4026  0.6762 -0.6101
 4039SOL     OW23752   2.674   3.918   9.852 -0.4375 -0.2052 -0.4514
 4039SOL    HW123753   2.731   3.934   9.927  0.4367  0.2146 -1.2086
 4039SOL    HW223754   2.652   3.825   9.855 -0.4332 -0.1786  0.3230
 4040SOL     OW23755   0.885   0.515   9.946 -0.7029 -0.2650  0.2192
 4040SOL    HW123756   0.900   0.426   9.915 -1.1273 -0.7942  1.5274
 4040SOL    HW223757   0.941   0.570   9.891 -1.8714 -0.1974 -0.8954
 4041SOL     OW23758   1.250   1.848  12.612  0.1797  0.0891  0.0207
 4041SOL    HW123759   1.185   1.812  12.672  0.0825 -1.0405 -0.7559
 4041SOL    HW223760   1.332   1.825  12.656  0.1110  2.2859  1.2751
 4042SOL     OW23761   2.156   1.786  10.004 -0.3976 -0.1487 -0.5630
 4042SOL    HW123762   2.081   1.730   9.985 -0.6261 -0.2025  0.5141
 4042SOL    HW223763   2.192   1.748  10.084  0.5229 -0.2310 -1.0127
 4043SOL     OW23764   0.380   0.264  12.266 -0.1021  0.3367  0.6633
 4043SOL    HW123765   0.380   0.352  12.228 -0.5555  0.4997  1.0272
 4043SOL    HW223766   0.474   0.260  12.283  0.2272  0.0557 -1.2350
 4044SOL     OW23767   1.198   0.839   3.231  0.3583  0.3865 -0.4359
 4044SOL    HW123768   1.129   0.888   3.186 -0.1019  1.4310  1.3889
 4044SOL    HW223769   1.142   0.789   3.290 -0.5667  1.2886 -0.5510
 4045SOL     OW23770   1.484   2.712   1.703  0.3252 -0.1278  0.0761
 4045SOL    HW123771   1.451   2.801   1.713  0.4203 -0.0736 -0.0954
 4045SOL    HW223772   1.409   2.654   1.721  0.3584 -0.1491  0.1482
 4046SOL     OW23773   3.080   1.294   1.584  0.0897  0.6344  0.0812
 4046SOL    HW123774   3.175   1.299   1.571  0.0276  0.2594 -0.5314
 4046SOL    HW223775   3.084   1.276   1.678 -0.1845  0.1104 -0.0051
 4047SOL     OW23776   0.835   2.344   5.043 -0.0386 -0.5105  0.1428
 4047SOL    HW123777   0.764   2.391   5.087  0.9867 -0.3888  1.6797
 4047SOL    HW223778   0.803   2.357   4.954 -2.7266 -3.8007  0.6049
 4048SOL     OW23779   0.829   3.886   5.525 -0.1986  0.1250 -0.5450
 4048SOL    HW123780   0.905   3.937   5.553 -0.2463 -0.7752  1.2036
 4048SOL    HW223781   0.776   3.957   5.488  0.5767  1.6521  1.2783
 4049SOL     OW23782   3.854   1.077   5.019 -0.0593 -0.5643 -0.5649
 4049SOL    HW123783   3.830   0.985   5.007 -1.6882 -0.3688  1.0595
 4049SOL    HW223784   3.796   1.093   5.094  0.6569 -0.3591 -0.0648
 4050SOL     OW23785   1.928   4.324   2.984 -0.3937 -0.2307  0.3053
 4050SOL    HW123786   1.906   4.398   2.928  1.1896 -1.7967 -2.3870
 4050SOL    HW223787   2.001   4.290   2.932  0.1612  1.0105  0.2864
 4051SOL     OW23788   0.491   3.518  17.019 -0.1041  0.0939 -0.8903
 4051SOL    HW123789   0.516   3.426  17.015  0.6168  0.2013  0.9089
 4051SOL    HW223790   0.436   3.520  17.098  2.0573  2.3779  0.5536
 4052SOL     OW23791   1.061   2.579  10.811  0.0313 -0.0152 -0.4103
 4052SOL    HW123792   0.996   2.644  10.785 -3.0186 -2.8764 -0.0332
 4052SOL    HW223793   1.077   2.518  10.738 -1.5124  1.8816 -2.3574
 4053SOL     OW23794   1.857   3.136  15.514 -0.4827  0.0242 -0.1161
 4053SOL    HW123795   1.902   3.064  15.558 -0.1516  0.9025  0.9979
 4053SOL    HW223796   1.859   3.097  15.427  0.9113  0.6232 -0.3575
 4054SOL     OW23797   0.398   1.864   3.039  0.1973  0.0494 -0.3306
 4054SOL    HW123798   0.331   1.821   2.985  1.3532 -1.1237 -0.8245
 4054SOL    HW223799   0.476   1.871   2.986 -0.2260  1.5182 -0.7648
 4055SOL     OW23800   3.879   2.977   6.640  0.1652  0.4651  0.2422
 4055SOL    HW123801   3.832   2.902   6.604 -0.3363  1.1947 -0.6449
 4055SOL    HW223802   3.974   2.965   6.633  0.1090 -0.5106  1.3247
 4056SOL     OW23803   4.404   3.808   5.308 -0.3398  0.0668 -0.4835
 4056SOL    HW123804   4.396   3.737   5.244  2.0708 -0.6234 -0.0224
 4056SOL    HW223805   4.425   3.880   5.250 -0.2164 -0.1230 -0.6737
 4057SOL     OW23806   2.952   1.424   4.288  0.1223 -0.0093 -0.0066
 4057SOL    HW123807   2.920   1.420   4.379 -3.0739 -0.3012 -1.1451
 4057SOL    HW223808   2.881   1.376   4.246  0.4219  1.9757 -2.7778
 4058SOL     OW23809   4.010   0.335   8.240 -0.4771 -0.1427 -0.4645
 4058SOL    HW123810   4.106   0.333   8.246 -0.6309 -1.5083  1.5014
 4058SOL    HW223811   3.997   0.398   8.169  1.5850  0.6864 -0.1133
 4059SOL     OW23812   2.583   1.814   3.317  0.4993  0.2750 -0.3246
 4059SOL    HW123813   2.580   1.882   3.384 -1.8306 -0.3584  0.2065
 4059SOL    HW223814   2.674   1.785   3.325  0.8182  0.6932 -2.4499
 4060SOL     OW23815   1.578   0.532   4.373 -1.1386  0.3566 -0.2357
 4060SOL    HW123816   1.638   0.606   4.382  0.2209 -0.7498 -0.1345
 4060SOL    HW223817   1.503   0.571   4.330 -0.8700  0.8431 -0.2589
 4061SOL     OW23818   2.984   2.106  15.566  0.8071  0.7455 -0.4614
 4061SOL    HW123819   3.043   2.079  15.496 -0.3649 -2.7274 -0.1059
 4061SOL    HW223820   2.911   2.147  15.520  0.1502  1.0654  0.8684
 4062SOL     OW23821   0.902   0.833   2.141 -0.1323  0.0699  0.1835
 4062SOL    HW123822   0.818   0.855   2.181  0.9909  2.1143  1.4107
 4062SOL    HW223823   0.952   0.785   2.208 -1.0917 -1.1961  0.0019
 4063SOL     OW23824   1.417   3.006   7.131  1.0152 -0.3033 -0.1155
 4063SOL    HW123825   1.481   2.979   7.065  2.1533  1.8791  0.1154
 4063SOL    HW223826   1.380   3.079   7.083  3.5756  0.0574 -1.5691
 4064SOL     OW23827   1.929   0.857   4.718 -0.3412 -0.8978 -0.1129
 4064SOL    HW123828   1.872   0.843   4.793  0.3416 -1.2201  0.3407
 4064SOL    HW223829   1.996   0.795   4.745 -2.3321 -1.8630  2.6454
 4065SOL     OW23830   0.823   1.017   8.487 -0.5714  0.1871 -0.5927
 4065SOL    HW123831   0.781   0.933   8.468 -1.0411  0.4581 -0.7576
 4065SOL    HW223832   0.757   1.076   8.525 -0.3560  1.8473 -2.8400
 4066SOL     OW23833   3.350   1.998   3.036  0.3231 -0.0751  0.2341
 4066SOL    HW123834   3.299   1.984   3.115  0.7799  0.9628  0.7005
 4066SOL    HW223835   3.321   1.925   2.980  0.8143  0.3217 -0.5454
 4067SOL     OW23836   1.193   2.028  11.587 -0.3021  0.4291  0.0952
 4067SOL    HW123837   1.131   2.085  11.542  1.7335  1.4508 -1.4064
 4067SOL    HW223838   1.168   1.938  11.567 -1.0789  0.7299 -0.2669
 4068SOL     OW23839   3.328   1.630   5.681 -0.2354 -0.6956 -0.4368
 4068SOL    HW123840   3.295   1.566   5.743 -1.7495 -0.0883 -0.6062
 4068SOL    HW223841   3.254   1.654   5.626 -0.3399  1.2743  0.5675
 4069SOL     OW23842   2.768   0.366   6.825  0.0293  0.1377 -0.3089
 4069SOL    HW123843   2.825   0.347   6.900 -1.4202  0.4287  0.8738
 4069SOL    HW223844   2.741   0.280   6.793 -1.1531  0.4846 -0.2646
 4070SOL     OW23845   2.243   2.122  14.506  0.5221 -0.4049  0.0999
 4070SOL    HW123846   2.282   2.194  14.556 -0.8399  0.5437 -0.2090
 4070SOL    HW223847   2.151   2.131  14.530  0.5888 -0.6295  0.4444
 4071SOL     OW23848   1.834   4.136  13.294  0.0870 -0.1659  0.0371
 4071SOL    HW123849   1.897   4.152  13.365 -0.5069 -0.6094  0.6669
 4071SOL    HW223850   1.892   4.143  13.218  1.2123  0.7485  0.9649
 4072SOL     OW23851   4.224   1.601   5.456  0.5587 -0.3657  0.3771
 4072SOL    HW123852   4.165   1.528   5.476  0.4390 -0.1206  0.9265
 4072SOL    HW223853   4.311   1.567   5.478  0.8948  1.3222  1.7300
 4073SOL     OW23854   1.538   1.400  14.550  0.0808  0.3165  0.1753
 4073SOL    HW123855   1.448   1.433  14.553 -0.5010 -1.2032 -0.7877
 4073SOL    HW223856   1.585   1.471  14.594 -0.0336 -0.1821  1.1000
 4074SOL     OW23857   0.728   0.135   1.110  0.5896  0.2391 -0.0835
 4074SOL    HW123858   0.650   0.086   1.138  0.7061 -0.8987 -1.7895
 4074SOL    HW223859   0.795   0.070   1.129  0.9551  0.1737 -1.6131
 4075SOL     OW23860   0.146   2.643   5.045 -0.1726 -0.0275  0.6867
 4075SOL    HW123861   0.229   2.678   5.013  0.2193  0.1393  1.8920
 4075SOL    HW223862   0.087   2.687   4.983 -0.6613 -0.6265  0.7242
 4076SOL     OW23863   4.565   0.922   3.018  0.1169 -0.1525  0.1700
 4076SOL    HW123864   4.641   0.910   3.075 -0.2832  3.1798  1.3854
 4076SOL    HW223865   4.580   0.847   2.961  0.7170 -0.2940  0.5120
 4077SOL     OW23866   4.673   2.103   3.161  0.4070  0.0739 -0.0642
 4077SOL    HW123867   4.672   2.162   3.085  0.6365 -0.0805 -0.1865
 4077SOL    HW223868   4.683   2.019   3.116 -0.1917  1.1973 -2.3046
 4078SOL     OW23869   4.539   2.929   7.323 -0.3524  0.1985 -0.6002
 4078SOL    HW123870   4.630   2.959   7.327 -0.8864  1.9042 -1.5048
 4078SOL    HW223871   4.508   2.947   7.412 -0.2409 -1.1463 -0.2752
 4079SOL     OW23872   1.523   3.094   4.810  0.0602  0.0311 -0.1040
 4079SOL    HW123873   1.533   3.003   4.782  1.8815  0.7426 -1.8210
 4079SOL    HW223874   1.551   3.141   4.732 -0.2321 -1.7684 -1.3029
 4080SOL     OW23875   0.726   3.748   0.162 -0.5279 -0.3717  0.3715
 4080SOL    HW123876   0.685   3.666   0.132 -0.1648 -0.4982  0.2151
 4080SOL    HW223877   0.714   3.807   0.087  0.5022 -0.3814  0.2027
 4081SOL     OW23878   2.280   3.971  13.656 -0.1472 -0.4177  0.2161
 4081SOL    HW123879   2.204   4.029  13.671  0.6930  0.8394 -0.3378
 4081SOL    HW223880   2.243   3.888  13.684 -0.6980  0.0072  0.7633
 4082SOL     OW23881   0.713   0.972   6.307  0.0996 -0.2020  0.2730
 4082SOL    HW123882   0.738   0.967   6.399 -0.5342 -0.6755  0.4169
 4082SOL    HW223883   0.659   1.049   6.287 -1.0874 -0.0606  4.0526
 4083SOL     OW23884   2.103   4.365  14.225  0.1579 -0.4702  0.1445
 4083SOL    HW123885   2.105   4.447  14.176 -1.6770 -1.5531 -1.7264
 4083SOL    HW223886   2.025   4.327  14.185 -0.6996  1.5403 -0.1117
 4084SOL     OW23887   0.574   0.483   5.266  0.2423 -0.5787  0.7528
 4084SOL    HW123888   0.523   0.529   5.199  0.8593  2.7314  2.5907
 4084SOL    HW223889   0.634   0.430   5.213  1.7319  2.0634 -0.1964
 4085SOL     OW23890   4.529   2.519   7.879  0.4354  0.4346  0.6033
 4085SOL    HW123891   4.526   2.532   7.973  2.3266  1.5928  0.5024
 4085SOL    HW223892   4.542   2.609   7.851 -0.1512 -0.1652 -1.6756
 4086SOL     OW23893   0.088   0.466   1.205 -0.3219 -0.2884  0.4093
 4086SOL    HW123894   0.113   0.401   1.140  0.2039  0.4688 -0.1440
 4086SOL    HW223895   0.171   0.507   1.228 -0.5893 -0.0379  0.9424
 4087SOL     OW23896   1.012   2.564   1.493 -0.0562 -0.1268  0.1336
 4087SOL    HW123897   0.953   2.612   1.552  1.3111  0.3128  1.1300
 4087SOL    HW223898   0.958   2.492   1.461  1.9472 -0.4263 -2.5075
 4088SOL     OW23899   4.320   4.628  14.433 -0.0173  0.0351 -0.2428
 4088SOL    HW123900   4.298   4.566  14.364 -0.6089  1.4208 -1.3050
 4088SOL    HW223901   4.402   4.665  14.401  0.5884 -1.1186 -0.0310
 4089SOL     OW23902   2.310   2.734   4.025 -0.1511  0.0447 -0.2098
 4089SOL    HW123903   2.220   2.734   4.059  0.8713  0.3031  2.4430
 4089SOL    HW223904   2.355   2.792   4.086  1.4127  0.6292 -1.9032
 4090SOL     OW23905   3.269   4.345   4.248  0.5483  0.3247  0.2174
 4090SOL    HW123906   3.212   4.361   4.173 -0.7640 -0.7003  1.0154
 4090SOL    HW223907   3.207   4.335   4.319  1.1034 -2.8635  0.2642
 4091SOL     OW23908   0.571   2.365   8.715  0.1507  0.3220  0.4553
 4091SOL    HW123909   0.534   2.414   8.789  0.1591 -1.1518  1.4407
 4091SOL    HW223910   0.657   2.342   8.749  0.0703 -0.7412 -0.0765
 4092SOL     OW23911   0.330   3.739   6.470 -0.6279 -0.2024 -0.1000
 4092SOL    HW123912   0.379   3.716   6.391 -1.4287 -0.2322 -0.5945
 4092SOL    HW223913   0.382   3.812   6.502 -0.7485  0.1065 -0.6143
 4093SOL     OW23914   1.599   2.866   4.673 -0.1366  0.4293  0.2886
 4093SOL    HW123915   1.529   2.828   4.620  0.6636 -0.6545  0.0067
 4093SOL    HW223916   1.675   2.884   4.617 -0.0631  0.4235  0.3873
 4094SOL     OW23917   0.076   0.636   5.895  0.7653  0.3893 -0.4000
 4094SOL    HW123918   0.147   0.698   5.910  1.3177 -0.4401  0.4245
 4094SOL    HW223919   0.104   0.607   5.809  0.6534  0.6026 -0.5078
 4095SOL     OW23920   4.362   2.224   8.102 -0.1461  0.4396 -0.6557
 4095SOL    HW123921   4.377   2.264   8.017  1.7227  0.3450 -0.3748
 4095SOL    HW223922   4.268   2.204   8.095 -0.3523  0.7017  1.3782
 4096SOL     OW23923   4.345   2.312   1.629 -0.7490 -0.6248 -0.0717
 4096SOL    HW123924   4.392   2.230   1.642  0.4926  0.2652  1.1430
 4096SOL    HW223925   4.290   2.308   1.708  1.0982  1.0471  1.3288
 4097SOL     OW23926   4.074   2.028   5.636  0.0026  0.4748 -0.1031
 4097SOL    HW123927   4.056   2.122   5.633  1.4061  0.7460 -0.2943
 4097SOL    HW223928   4.086   2.008   5.544  0.7576 -1.5616  0.4296
 4098SOL     OW23929   1.927   2.035  16.436 -0.4471 -0.5489 -0.3615
 4098SOL    HW123930   1.929   2.077  16.522  1.0618  0.9576 -1.1327
 4098SOL    HW223931   1.865   2.086  16.384 -0.0035 -1.0882 -1.4236
 4099SOL     OW23932   2.941   2.700  16.455 -0.3090 -0.4801 -0.4594
 4099SOL    HW123933   2.946   2.605  16.465 -3.1364 -0.5669  0.1128
 4099SOL    HW223934   3.030   2.733  16.464 -0.2940 -0.9376  1.0849
 4100SOL     OW23935   1.250   3.567   7.425 -0.0186  0.3438 -0.3245
 4100SOL    HW123936   1.212   3.654   7.415 -0.9930 -0.2422 -1.8154
 4100SOL    HW223937   1.279   3.564   7.517  2.0535 -0.9008 -1.0296
 4101SOL     OW23938   2.839   3.735  17.442  0.2614  0.0373  0.0778
 4101SOL    HW123939   2.871   3.669  17.381  1.7473  0.3439  0.5355
 4101SOL    HW223940   2.908   3.728  17.509  0.4093  2.8699  0.2033
 4102SOL     OW23941   2.438   1.504   4.186 -0.2427  0.6766 -0.3270
 4102SOL    HW123942   2.368   1.547   4.137 -0.0452  0.2979 -0.9338
 4102SOL    HW223943   2.408   1.413   4.190  2.5795 -0.1594  1.9334
 4103SOL     OW23944   1.311   2.516   0.543 -0.1428 -0.5993  0.1663
 4103SOL    HW123945   1.216   2.515   0.534  0.0035  0.5191 -1.4553
 4103SOL    HW223946   1.313   2.547   0.634 -0.9293 -0.1760  0.0319
 4104SOL     OW23947   0.512   0.614   4.489  0.0643  0.0362 -0.2744
 4104SOL    HW123948   0.598   0.601   4.448  0.9946 -0.0416  1.7410
 4104SOL    HW223949   0.471   0.677   4.430 -1.6010 -0.1472  0.6948
 4105SOL     OW23950   3.299   2.509   0.628  0.1316  0.9635  0.3555
 4105SOL    HW123951   3.321   2.456   0.551 -2.3055 -2.6307  2.1428
 4105SOL    HW223952   3.238   2.448   0.671  0.8938  1.1100  1.6252
 4106SOL     OW23953   1.291   1.995   3.214 -0.1977 -0.0759 -0.0964
 4106SOL    HW123954   1.282   2.027   3.124  1.5232  0.4410 -0.0801
 4106SOL    HW223955   1.289   2.080   3.258  2.4788  1.2415 -2.5429
 4107SOL     OW23956   0.312   4.475   3.368 -0.4165  0.3149  0.2273
 4107SOL    HW123957   0.389   4.489   3.423 -0.6452 -1.3066  0.9504
 4107SOL    HW223958   0.251   4.541   3.400  1.2851  1.6362  0.7568
 4108SOL     OW23959   2.633   4.192   9.225 -0.2381  0.0929 -0.1205
 4108SOL    HW123960   2.562   4.176   9.163  1.5377  4.4768 -3.3074
 4108SOL    HW223961   2.709   4.162   9.175 -0.5465  0.9225 -1.0856
 4109SOL     OW23962   2.681   2.821   7.287  0.6928  0.0191  0.3545
 4109SOL    HW123963   2.628   2.888   7.245  3.0288  0.8770 -1.2051
 4109SOL    HW223964   2.687   2.853   7.377  1.9178 -1.0837  0.6775
 4110SOL     OW23965   2.882   2.358   7.672  0.1905  0.6006  0.3128
 4110SOL    HW123966   2.839   2.356   7.587  0.0807  0.8675  0.3613
 4110SOL    HW223967   2.874   2.267   7.699  1.3355 -0.6149 -3.4989
 4111SOL     OW23968   3.370   3.752   9.392  0.1017  0.3357 -0.0828
 4111SOL    HW123969   3.430   3.826   9.405  0.5914  0.1382 -1.2271
 4111SOL    HW223970   3.327   3.746   9.477  0.9130 -0.7670  0.2583
 4112SOL     OW23971   3.247   1.198   3.984  0.0936 -0.0080 -0.1550
 4112SOL    HW123972   3.230   1.208   3.890 -1.5522  1.1142  0.2520
 4112SOL    HW223973   3.209   1.281   4.014  0.5790 -0.1042  0.7194
 4113SOL     OW23974   1.136   3.578   4.387 -0.0970 -0.4527 -0.3234
 4113SOL    HW123975   1.103   3.488   4.385 -1.6551  0.1464 -1.1962
 4113SOL    HW223976   1.061   3.622   4.427  0.4229  0.8148 -0.7391
 4114SOL     OW23977   0.194   2.617   0.244  0.6284 -0.2541 -0.1713
 4114SOL    HW123978   0.106   2.597   0.214  0.3366  0.0168  0.5177
 4114SOL    HW223979   0.195   2.583   0.333 -2.0140  1.2256  0.4054
 4115SOL     OW23980   0.296   1.500   4.349  0.1675  0.2833 -0.0301
 4115SOL    HW123981   0.281   1.406   4.341  0.4395  0.2509 -0.1601
 4115SOL    HW223982   0.217   1.523   4.300  0.1311  1.2552  0.4928
 4116SOL     OW23983   1.294   3.212   6.984 -0.0199  0.0140  0.1553
 4116SOL    HW123984   1.208   3.198   6.946 -0.6588  2.2771  0.7965
 4116SOL    HW223985   1.286   3.304   7.008  1.9938  0.2134  0.1190
 4117SOL     OW23986   2.838   1.264   2.865 -0.3921 -0.2514  0.0191
 4117SOL    HW123987   2.753   1.245   2.906 -0.0517 -1.1614  0.3199
 4117SOL    HW223988   2.889   1.304   2.935 -2.1540  0.3455  0.9676
 4118SOL     OW23989   1.406   0.966   0.504 -0.2779  0.3759  0.2116
 4118SOL    HW123990   1.384   1.030   0.437  3.3192  0.6744 -0.6939
 4118SOL    HW223991   1.346   0.892   0.494 -0.4987  0.4148  1.2664
 4119SOL     OW23992   1.577   1.057   4.047  0.1738 -0.1687 -0.0957
 4119SOL    HW123993   1.646   1.010   4.093  1.3092 -2.1481 -3.9081
 4119SOL    HW223994   1.524   0.996   3.997 -0.4174  0.2454  0.0195
 4120SOL     OW23995   4.167   1.307  16.839  0.0347 -0.1082  0.0964
 4120SOL    HW123996   4.094   1.360  16.807 -0.0297  0.8537  1.8495
 4120SOL    HW223997   4.188   1.359  16.916  0.2917 -0.4456  0.2544
 4121SOL     OW23998   2.287   3.016   8.111 -0.4001  0.0592  0.4391
 4121SOL    HW123999   2.360   2.970   8.153 -1.2610 -1.0603  0.7255
 4121SOL    HW224000   2.233   3.040   8.187  3.0105  1.5203  2.3614
 4122SOL     OW24001   1.156   4.677   5.039  0.1624 -0.2770 -0.1930
 4122SOL    HW124002   1.218   4.710   5.104  1.1986  0.3030 -1.4812
 4122SOL    HW224003   1.213   4.651   4.966  1.4560 -1.3518  1.1933
 4123SOL     OW24004   2.702   1.744   1.574 -0.1928  0.0268  0.1325
 4123SOL    HW124005   2.632   1.696   1.530  2.1917 -1.1184 -2.4440
 4123SOL    HW224006   2.692   1.829   1.532 -0.4939  0.3133  0.7861
 4124SOL     OW24007   3.601   0.787   6.698  0.4489  0.1890 -0.3181
 4124SOL    HW124008   3.587   0.695   6.675  1.4340  0.1763 -0.8342
 4124SOL    HW224009   3.548   0.825   6.628  0.8985 -0.3039 -0.9191
 4125SOL     OW24010   3.742   3.620   5.278 -1.0598  0.4628 -0.4837
 4125SOL    HW124011   3.656   3.639   5.315 -0.5880 -1.2842  1.4870
 4125SOL    HW224012   3.770   3.558   5.345  1.3848  0.2818 -1.6750
 4126SOL     OW24013   0.759   1.908   7.166 -0.6868  0.0608 -0.6107
 4126SOL    HW124014   0.797   1.983   7.120 -1.4581  0.0290 -1.2899
 4126SOL    HW224015   0.812   1.838   7.129  2.0408  0.5577  2.2715
 4127SOL     OW24016   3.686   2.096   7.472 -0.7141 -0.1319 -0.0758
 4127SOL    HW124017   3.665   2.053   7.389  2.3424 -1.5199 -0.1145
 4127SOL    HW224018   3.699   2.184   7.437 -1.8411  1.1326  2.6908
 4128SOL     OW24019   4.075   3.835   8.806 -0.0360 -0.0234 -0.5804
 4128SOL    HW124020   4.005   3.797   8.859  0.4403  1.2843  1.0311
 4128SOL    HW224021   4.142   3.800   8.865 -1.3185  0.0184  0.8848
 4129SOL     OW24022   4.466   2.551  15.760  0.3637  0.3906 -0.4107
 4129SOL    HW124023   4.392   2.611  15.744  2.4439  3.0396 -0.1756
 4129SOL    HW224024   4.498   2.580  15.845  0.9049 -1.4133 -0.0087
 4130SOL     OW24025   4.603   1.948   8.187 -0.0795 -0.1437 -0.2959
 4130SOL    HW124026   4.520   1.947   8.139 -0.7704 -1.1071  0.8964
 4130SOL    HW224027   4.584   1.981   8.275  2.1396  0.5195 -0.0671
 4131SOL     OW24028   2.812   2.127  16.778  0.0311  0.3292  0.0114
 4131SOL    HW124029   2.762   2.096  16.853 -1.8217 -0.6675 -1.6357
 4131SOL    HW224030   2.757   2.105  16.703 -0.7442  3.3934 -0.2914
 4132SOL     OW24031   3.400   3.103   9.298  0.2654 -0.4898 -0.3260
 4132SOL    HW124032   3.428   3.071   9.212  0.2157 -1.0417 -0.1347
 4132SOL    HW224033   3.373   3.193   9.278  0.1047 -0.2642  0.9216
 4133SOL     OW24034   1.661   1.151   4.326  0.2709  0.0139 -0.4124
 4133SOL    HW124035   1.687   1.240   4.352 -1.1385  0.5245 -0.7335
 4133SOL    HW224036   1.692   1.095   4.397 -0.3654 -0.9496 -0.9029
 4134SOL     OW24037   0.394   2.703  17.176  0.5011 -0.3604 -0.2252
 4134SOL    HW124038   0.462   2.759  17.139  0.1088  0.3432  0.1221
 4134SOL    HW224039   0.311   2.748  17.162  0.3432 -0.3393  0.7388
 4135SOL     OW24040   2.306   0.499   8.108  0.0085 -0.1155  0.0200
 4135SOL    HW124041   2.243   0.436   8.071 -0.4074  0.6285 -0.5385
 4135SOL    HW224042   2.271   0.505   8.197  1.3183  2.6926  0.3311
 4136SOL     OW24043   3.765   4.453   3.976  0.6149  0.9043  0.1441
 4136SOL    HW124044   3.683   4.436   4.022  0.6373  1.8374  0.5168
 4136SOL    HW224045   3.785   4.543   4.001  1.8155  0.2096  1.7359
 4137SOL     OW24046   3.462   3.590   4.755 -0.0081 -0.5554  0.1041
 4137SOL    HW124047   3.545   3.613   4.713 -1.1739  0.5266 -1.5817
 4137SOL    HW224048   3.416   3.539   4.688 -2.1649 -1.9281  2.6414
 4138SOL     OW24049   2.780   2.236   5.960 -0.7508  0.1770  0.5684
 4138SOL    HW124050   2.753   2.240   5.868  4.0665  0.9751 -0.8391
 4138SOL    HW224051   2.876   2.240   5.953 -0.6783 -2.1483  0.2974
 4139SOL     OW24052   0.281   3.455   6.709 -0.6856  0.4816  0.2544
 4139SOL    HW124053   0.223   3.386   6.678  0.7401  0.2074 -1.8087
 4139SOL    HW224054   0.232   3.490   6.783 -1.1107 -0.0095  0.2082
 4140SOL     OW24055   3.498   2.951   6.193  0.2566 -0.8069 -0.6587
 4140SOL    HW124056   3.489   3.013   6.266 -2.3068 -0.0082 -1.6275
 4140SOL    HW224057   3.482   2.868   6.238 -3.7146  0.7651  0.8854
 4141SOL     OW24058   4.180   2.216   7.115  0.0584  0.0293 -0.4724
 4141SOL    HW124059   4.248   2.178   7.171 -0.0736  0.7641  0.1814
 4141SOL    HW224060   4.228   2.286   7.070  1.3583 -1.7685 -1.8797
 4142SOL     OW24061   4.462   4.243  13.645  0.2170  0.3273 -0.0159
 4142SOL    HW124062   4.468   4.199  13.561 -1.8327  1.0184 -0.5303
 4142SOL    HW224063   4.431   4.169  13.698  2.5916 -0.2372  0.5684
 4143SOL     OW24064   4.152   1.861  13.672  0.4530 -1.0350 -0.4859
 4143SOL    HW124065   4.194   1.834  13.590  1.2566  1.6427 -0.9792
 4143SOL    HW224066   4.223   1.856  13.736 -0.2089  0.9875  0.4092
 4144SOL     OW24067   4.068   2.938  14.720 -0.4033  0.5584 -0.1101
 4144SOL    HW124068   4.056   3.019  14.670 -1.6682 -1.2184 -2.6686
 4144SOL    HW224069   4.157   2.907  14.704 -0.1147  0.3124  1.9833
 4145SOL     OW24070   1.936   0.020   4.496 -0.2613 -0.1954  0.4477
 4145SOL    HW124071   2.024   0.052   4.519 -0.3279  1.3837 -1.4832
 4145SOL    HW224072   1.879   0.070   4.554  0.7149  1.1599  0.2670
 4146SOL     OW24073   2.158   3.782   1.875 -0.0046  0.9217 -0.1867
 4146SOL    HW124074   2.236   3.837   1.872 -0.1088  1.0099 -1.5950
 4146SOL    HW224075   2.094   3.820   1.934 -0.9441 -1.0623  0.0714
 4147SOL     OW24076   0.830   1.488   7.237 -0.0223 -0.7776 -0.1911
 4147SOL    HW124077   0.921   1.517   7.242 -0.6061  0.8872  0.4608
 4147SOL    HW224078   0.800   1.548   7.168  1.8547  1.2103  0.7578
 4148SOL     OW24079   3.589   1.894   4.104  0.5588 -0.3093  0.4007
 4148SOL    HW124080   3.559   1.831   4.170  1.8437  0.3924  1.6275
 4148SOL    HW224081   3.647   1.941   4.163  1.9229 -1.8079  0.2597
 4149SOL     OW24082   2.163   2.940  12.977  0.0037  0.3311 -0.3200
 4149SOL    HW124083   2.124   2.966  13.060 -1.0870  1.0715 -1.0600
 4149SOL    HW224084   2.155   2.846  12.989 -0.1770  0.2039 -1.3990
 4150SOL     OW24085   1.162   4.440   5.205  0.5219  0.4752 -0.0890
 4150SOL    HW124086   1.148   4.473   5.116 -0.6955  0.1196 -0.0287
 4150SOL    HW224087   1.094   4.487   5.254 -0.2711 -1.4513  0.6649
 4151SOL     OW24088   0.579   4.575   7.791  0.6645 -0.3608 -0.6388
 4151SOL    HW124089   0.578   4.659   7.744 -0.0416 -0.1838 -0.3172
 4151SOL    HW224090   0.489   4.576   7.825  1.0482 -0.6344  0.3730
 4152SOL     OW24091   2.566   2.852   1.475  0.5404 -0.2575 -0.2912
 4152SOL    HW124092   2.526   2.868   1.560  1.4107  1.3853 -0.1697
 4152SOL    HW224093   2.619   2.776   1.497 -1.7623 -1.1813  1.9913
 4153SOL     OW24094   2.291   3.700   8.402  0.1791  0.2383 -0.3066
 4153SOL    HW124095   2.245   3.618   8.384  0.5368  0.4428 -2.1061
 4153SOL    HW224096   2.271   3.756   8.327  0.0183  0.9334  0.2453
 4154SOL     OW24097   4.265   4.313  14.020  0.8202  0.1373 -0.1179
 4154SOL    HW124098   4.240   4.406  14.013 -0.4141 -0.1466  0.5100
 4154SOL    HW224099   4.182   4.265  14.014 -0.2829  1.7812  2.1299
 4155SOL     OW24100   4.104   1.981   8.412 -0.0073 -0.1926  0.4276
 4155SOL    HW124101   4.198   1.961   8.411 -0.3849 -1.8388 -1.0538
 4155SOL    HW224102   4.081   1.968   8.320 -1.3613  0.9477  0.6086
 4156SOL     OW24103   2.128   1.768  10.358  0.1564 -0.3892 -0.0223
 4156SOL    HW124104   2.218   1.777  10.328 -0.1250 -0.2588 -0.8356
 4156SOL    HW224105   2.136   1.750  10.451 -2.8122 -0.5674  0.1991
 4157SOL     OW24106   0.329   3.511   3.410 -0.2482  0.1190  0.0502
 4157SOL    HW124107   0.311   3.457   3.333  0.8219 -0.3829  0.1498
 4157SOL    HW224108   0.303   3.599   3.383  0.8140  0.3236 -0.3363
 4158SOL     OW24109   2.102   2.222   4.600 -0.0277 -0.0140  0.2856
 4158SOL    HW124110   2.157   2.254   4.529  1.7473 -0.2823  1.5489
 4158SOL    HW224111   2.053   2.161   4.545  2.8889 -0.3036 -1.9863
 4159SOL     OW24112   1.226   2.429  15.153 -0.1956  0.3065  0.0934
 4159SOL    HW124113   1.236   2.337  15.129  1.7340  0.2507  1.1508
 4159SOL    HW224114   1.133   2.440  15.176 -0.5378 -3.9903  0.7118
 4160SOL     OW24115   1.842   3.354  13.529  0.4129  0.3885  0.1864
 4160SOL    HW124116   1.843   3.337  13.435  1.2294 -0.9634  0.4373
 4160SOL    HW224117   1.746   3.354  13.530  0.4198  0.0062  0.5749
 4161SOL     OW24118   1.128   0.276   5.976  0.2613 -0.0980 -0.1060
 4161SOL    HW124119   1.192   0.345   5.959 -1.4741  0.9221 -2.5902
 4161SOL    HW224120   1.048   0.325   5.961  0.8147  0.3444 -1.6054
 4162SOL     OW24121   3.027   1.370   5.176 -0.8374 -0.4372  0.0828
 4162SOL    HW124122   2.964   1.320   5.228 -2.7358  0.1282 -1.6460
 4162SOL    HW224123   3.101   1.375   5.236 -1.9306 -2.7962  1.5873
 4163SOL     OW24124   3.927   1.660   0.698 -0.0692 -0.2585 -0.2845
 4163SOL    HW124125   3.859   1.679   0.762 -0.7141  0.4877 -1.1866
 4163SOL    HW224126   3.979   1.741   0.697  2.1136 -1.6422  0.5861
 4164SOL     OW24127   1.095   0.892  16.976  0.4705 -0.2251  0.3327
 4164SOL    HW124128   1.015   0.840  16.978  2.0137 -2.6609 -0.1705
 4164SOL    HW224129   1.139   0.858  16.898 -1.0716  0.1689 -0.6986
 4165SOL     OW24130   1.281   1.935   1.745  0.3709 -0.4249 -0.1160
 4165SOL    HW124131   1.219   1.989   1.794 -0.7766 -1.4783 -0.4113
 4165SOL    HW224132   1.318   1.995   1.679 -0.2982  0.9184  0.7247
 4166SOL     OW24133   1.071   1.207  14.075 -0.0671  0.5060 -0.3739
 4166SOL    HW124134   1.097   1.156  13.998  2.4284 -1.1261  1.5628
 4166SOL    HW224135   0.981   1.180  14.093  0.1821  0.8663  1.4020
 4167SOL     OW24136   4.381   3.922   9.218  0.2833 -0.3305 -0.3281
 4167SOL    HW124137   4.341   3.997   9.173  0.7716 -0.9321 -1.7784
 4167SOL    HW224138   4.462   3.961   9.249 -0.7727  2.4269 -1.0308
 4168SOL     OW24139   4.700   0.492   2.683  0.7898 -0.8844  0.4406
 4168SOL    HW124140   4.652   0.432   2.740  0.4828 -2.5936 -1.6098
 4168SOL    HW224141   0.041   0.439   2.684 -0.5568 -2.8864  0.3820
 4169SOL     OW24142   1.768   1.834   4.165 -0.1510  0.0841 -0.3951
 4169SOL    HW124143   1.744   1.813   4.256  0.1544  1.3831 -0.0136
 4169SOL    HW224144   1.863   1.824   4.173 -0.1050 -0.3410 -1.4414
 4170SOL     OW24145   1.931   0.866   4.196  0.6054  0.1037 -0.4171
 4170SOL    HW124146   2.008   0.814   4.218  1.5457  1.4644 -0.5284
 4170SOL    HW224147   1.869   0.833   4.262 -1.9904 -0.0016 -2.8976
 4171SOL     OW24148   2.866   1.527   3.559  0.2399  0.0091  0.5455
 4171SOL    HW124149   2.960   1.509   3.550 -0.1096 -1.0317 -1.0698
 4171SOL    HW224150   2.869   1.600   3.620  1.2363  1.0683 -0.7593
 4172SOL     OW24151   4.167   4.054   6.430  0.2969 -0.1048  0.1220
 4172SOL    HW124152   4.083   4.010   6.417  1.7599 -2.1976 -2.2772
 4172SOL    HW224153   4.147   4.114   6.502  3.4196  0.4705  0.5137
 4173SOL     OW24154   3.083   4.620  17.456  0.5548  0.1266 -0.0292
 4173SOL    HW124155   3.064   4.659  17.542  2.4176 -2.2045  1.4394
 4173SOL    HW224156   3.146   4.557  17.491  0.5005 -0.9173 -1.8282
 4174SOL     OW24157   3.024   3.436   6.994 -0.2054  1.0615  0.1458
 4174SOL    HW124158   3.062   3.507   7.046  0.2523 -0.8731  2.4065
 4174SOL    HW224159   3.088   3.366   6.981 -0.0521  1.7483 -2.7009
 4175SOL     OW24160   4.377   3.442   7.359  0.0314 -0.3270 -0.0919
 4175SOL    HW124161   4.461   3.402   7.381 -0.4928 -0.6642  1.3099
 4175SOL    HW224162   4.316   3.382   7.401  0.0376  0.2441  0.7250
 4176SOL     OW24163   3.874   3.020   5.144  0.7158  0.4577 -0.0005
 4176SOL    HW124164   3.931   3.054   5.075 -0.4056  0.1800 -1.0498
 4176SOL    HW224165   3.941   3.014   5.213  2.1648 -0.9947 -1.5434
 4177SOL     OW24166   2.476   4.375   7.607  0.7403  0.6725 -0.2282
 4177SOL    HW124167   2.517   4.309   7.664  0.7029  1.2275  0.4492
 4177SOL    HW224168   2.537   4.448   7.618  2.1174 -0.4529 -0.3721
 4178SOL     OW24169   0.991   3.606   4.996 -0.0649 -0.4523 -0.6774
 4178SOL    HW124170   0.991   3.513   4.972  1.2222 -0.3684 -0.9677
 4178SOL    HW224171   0.967   3.606   5.089  0.7974  1.6039 -0.4672
 4179SOL     OW24172   1.488   0.285  15.640 -0.1366 -0.6840 -0.1058
 4179SOL    HW124173   1.434   0.333  15.577 -0.8820  1.1173  1.9130
 4179SOL    HW224174   1.447   0.317  15.720  0.3209  0.0524 -0.1677
 4180SOL     OW24175   3.981   2.461  10.482  0.9404 -0.2269 -0.0245
 4180SOL    HW124176   3.913   2.420  10.427  1.8680 -0.5534 -0.9316
 4180SOL    HW224177   3.940   2.426  10.561 -2.8830  0.5007 -1.6475
 4181SOL     OW24178   0.571   4.349   4.221  0.5624  0.2147  0.1406
 4181SOL    HW124179   0.535   4.407   4.288  1.1929  1.0324 -0.2242
 4181SOL    HW224180   0.499   4.354   4.159  0.2156  1.8235  0.6808
 4182SOL     OW24181   3.691   1.548   9.767  0.0088 -0.0522  0.1323
 4182SOL    HW124182   3.725   1.519   9.852 -1.6098  0.6996  1.0409
 4182SOL    HW224183   3.738   1.495   9.703  1.1752  0.1036  0.8687
 4183SOL     OW24184   2.944   0.667  15.881  0.5051  0.4317 -0.2105
 4183SOL    HW124185   3.014   0.695  15.821  1.8233  0.5959  1.4045
 4183SOL    HW224186   2.953   0.736  15.947 -0.6363 -2.0758  2.5308
 4184SOL     OW24187   2.390   0.766   7.776 -0.0843 -0.5673 -0.0918
 4184SOL    HW124188   2.376   0.674   7.800  0.1048 -0.7215 -0.5748
 4184SOL    HW224189   2.480   0.757   7.745  0.4436  1.1582  0.9982
 4185SOL     OW24190   1.294   4.270   9.092 -0.3569  0.5480 -0.2189
 4185SOL    HW124191   1.260   4.301   9.008 -0.9579 -3.3309 -1.3763
 4185SOL    HW224192   1.383   4.305   9.081 -0.2155  0.3635  0.3407
 4186SOL     OW24193   1.913   4.358   7.936  0.0585  1.0021 -0.4928
 4186SOL    HW124194   1.891   4.401   8.019  2.2525 -0.1454  0.6620
 4186SOL    HW224195   1.854   4.409   7.880 -1.8107  0.6918  1.1825
 4187SOL     OW24196   3.054   1.992  16.762  0.8410 -0.3249 -0.3985
 4187SOL    HW124197   3.107   1.971  16.840  0.2209 -1.1397 -0.1908
 4187SOL    HW224198   2.976   2.030  16.801  0.8770 -0.2050 -0.4466
 4188SOL     OW24199   2.911   4.278   9.543  0.4139 -0.3800 -0.3261
 4188SOL    HW124200   2.969   4.299   9.470  0.1550 -0.4098 -0.5388
 4188SOL    HW224201   2.971   4.221   9.592  1.9405  1.2170 -0.3187
 4189SOL     OW24202   0.605   1.938   1.966  0.0183 -0.6983  0.1584
 4189SOL    HW124203   0.661   1.915   1.892  1.6673 -0.6842  1.4258
 4189SOL    HW224204   0.535   1.978   1.913  1.3186 -0.2762 -1.2481
 4190SOL     OW24205   3.169   2.582  16.072  0.8453 -0.0157  0.1044
 4190SOL    HW124206   3.166   2.509  16.133 -0.7934 -2.0753 -2.4019
 4190SOL    HW224207   3.117   2.543  16.001  0.1557  2.1380 -0.5930
 4191SOL     OW24208   0.608   1.210   4.126  0.4422  0.6613  0.2097
 4191SOL    HW124209   0.538   1.156   4.088  1.2891 -0.3551  0.1013
 4191SOL    HW224210   0.588   1.287   4.073  0.1476  1.6406  1.7345
 4192SOL     OW24211   0.875   0.188   3.446 -0.0900  0.2759 -0.4297
 4192SOL    HW124212   0.955   0.222   3.486  0.8128 -1.8252 -0.4473
 4192SOL    HW224213   0.877   0.095   3.468  0.7588  0.9239  2.1690
 4193SOL     OW24214   2.899   1.786   0.023 -0.7345 -0.0412  0.4005
 4193SOL    HW124215   2.816   1.746   0.047 -0.7453  1.1549  2.3160
 4193SOL    HW224216   2.888   1.881   0.023  0.6476  0.1267 -1.6475
 4194SOL     OW24217   3.585   2.287  11.108  0.6511 -0.6408  0.2170
 4194SOL    HW124218   3.637   2.361  11.141  1.0647 -0.7962 -0.0833
 4194SOL    HW224219   3.591   2.224  11.179  0.3614  0.2030  0.9951
 4195SOL     OW24220   1.471   0.004  15.010  0.3063 -0.0788  0.3343
 4195SOL    HW124221   1.419   4.724  14.932  0.2826  2.1422 -0.1566
 4195SOL    HW224222   1.427   4.700  15.084  0.8080 -0.9907  0.1137
 4196SOL     OW24223   1.763   0.727   8.959 -0.3812  0.8287 -0.7927
 4196SOL    HW124224   1.707   0.799   8.986  2.0178  1.7029  1.8695
 4196SOL    HW224225   1.775   0.692   9.047  0.0533 -0.9140 -1.5426
 4197SOL     OW24226   4.290   2.719   0.196  0.1747  0.1590  0.6812
 4197SOL    HW124227   4.286   2.809   0.163 -0.0971 -1.4029 -3.6194
 4197SOL    HW224228   4.322   2.671   0.119 -1.6235 -0.0836  0.0818
 4198SOL     OW24229   3.425   2.199  15.958 -0.1871  0.2066 -0.1847
 4198SOL    HW124230   3.342   2.203  16.006  0.3830  1.2939  0.6992
 4198SOL    HW224231   3.439   2.105  15.969 -0.8885 -0.1831 -2.5399
 4199SOL     OW24232   3.027   1.937   2.283  0.0228 -0.4537 -0.0327
 4199SOL    HW124233   3.025   1.899   2.196 -1.3986 -0.1238 -0.1435
 4199SOL    HW224234   2.977   1.877   2.338  0.0511 -0.1237  0.3544
 4200SOL     OW24235   2.396   3.585   1.928  0.8293 -0.2851  0.0175
 4200SOL    HW124236   2.449   3.606   1.850 -0.6903  0.4688 -0.8077
 4200SOL    HW224237   2.308   3.615   1.907 -0.5946 -3.2143  1.7926
 4201SOL     OW24238   0.547   3.918   5.603  0.2682  0.2881 -0.0490
 4201SOL    HW124239   0.641   3.927   5.586  0.2079  0.1253 -0.4531
 4201SOL    HW224240   0.548   3.826   5.628 -0.7682 -0.1252 -1.5907
 4202SOL     OW24241   1.511   2.454   3.441  0.7067  0.4024  0.3776
 4202SOL    HW124242   1.532   2.389   3.509  0.0683  1.8073  1.9117
 4202SOL    HW224243   1.449   2.410   3.382 -0.8391  1.9609  0.8578
 4203SOL     OW24244   1.016   2.133  14.884  0.2161 -0.6148 -0.1995
 4203SOL    HW124245   0.936   2.178  14.909  1.6893  1.9883 -0.2204
 4203SOL    HW224246   1.011   2.113  14.790  0.5943 -2.1573  0.1070
 4204SOL     OW24247   3.090   1.236  10.437  0.2301 -0.1658 -0.2805
 4204SOL    HW124248   3.008   1.285  10.437  1.1687  1.3848 -0.3090
 4204SOL    HW224249   3.150   1.310  10.433 -1.0590  0.8447 -1.2511
 4205SOL     OW24250   1.829   2.347   7.338 -0.2059 -0.1754  0.3113
 4205SOL    HW124251   1.752   2.386   7.296 -2.2999 -0.6157  3.7764
 4205SOL    HW224252   1.890   2.421   7.343 -1.2420  0.8562 -2.1867
 4206SOL     OW24253   3.043   2.503   5.029  1.0916 -0.0717 -0.3466
 4206SOL    HW124254   3.014   2.477   4.942  0.0004 -0.0322  0.0115
 4206SOL    HW224255   3.131   2.467   5.037  1.3463  0.5780 -0.1815
 4207SOL     OW24256   1.967   3.902   5.181 -0.3812 -0.2020  0.3569
 4207SOL    HW124257   1.882   3.925   5.143  0.4469 -1.7224 -2.4145
 4207SOL    HW224258   1.993   3.836   5.116 -0.3726 -1.7171  1.9115
 4208SOL     OW24259   2.851   0.368   8.873  0.0868 -0.2224  0.0139
 4208SOL    HW124260   2.935   0.353   8.917 -0.6046 -1.7449  0.8010
 4208SOL    HW224261   2.885   0.408   8.793  0.3831 -1.2733 -0.3843
 4209SOL     OW24262   2.539   2.085   8.031  0.2829 -0.9286 -0.5565
 4209SOL    HW124263   2.495   2.100   7.947 -0.4449  0.3857  0.0641
 4209SOL    HW224264   2.626   2.124   8.030 -0.5257  0.8473 -1.0303
 4210SOL     OW24265   1.456   0.275   4.593 -0.2477 -0.3019 -0.5222
 4210SOL    HW124266   1.430   0.337   4.661  1.0666 -0.8696  0.5142
 4210SOL    HW224267   1.383   0.268   4.533 -0.8644 -4.3829  0.7008
 4211SOL     OW24268   3.413   4.040   5.841 -0.3094  0.2420 -0.1329
 4211SOL    HW124269   3.428   4.106   5.772  2.3656  0.2901  0.4949
 4211SOL    HW224270   3.324   4.062   5.869 -0.5721 -1.6040  0.4709
 4212SOL     OW24271   1.732   4.032   5.504 -0.5502 -0.0997 -0.2598
 4212SOL    HW124272   1.696   3.983   5.430 -1.2603 -1.9336  1.3111
 4212SOL    HW224273   1.808   3.976   5.520  0.2207  1.1074  0.3547
 4213SOL     OW24274   0.579   1.295   6.351  0.1345  0.3379  0.4486
 4213SOL    HW124275   0.568   1.293   6.256  0.7439 -2.2526  0.4437
 4213SOL    HW224276   0.578   1.391   6.353 -2.3021  0.2933  0.7532
 4214SOL     OW24277   3.678   4.199   3.498  0.1132 -0.3950 -0.0397
 4214SOL    HW124278   3.762   4.226   3.534 -0.3358 -1.0375  1.4861
 4214SOL    HW224279   3.709   4.110   3.482  0.5613 -0.8999  3.6045
 4215SOL     OW24280   0.279   4.498   7.706 -0.0148  0.4829  0.0720
 4215SOL    HW124281   0.290   4.510   7.800  0.4272 -0.2465  0.1172
 4215SOL    HW224282   0.188   4.527   7.697  0.0211  0.7924  0.7549
 4216SOL     OW24283   4.297   1.329   0.272 -0.2309 -0.3175  0.2526
 4216SOL    HW124284   4.256   1.250   0.237 -3.7168  0.6311  2.2017
 4216SOL    HW224285   4.375   1.305   0.322 -0.2776  0.6105  0.7653
 4217SOL     OW24286   4.493   0.197   4.008 -0.0895  0.2701  0.3632
 4217SOL    HW124287   4.483   0.241   4.092  1.6516 -0.1946  0.8122
 4217SOL    HW224288   4.565   0.137   4.028  0.5942  1.4386  1.3634
 4218SOL     OW24289   2.701   0.113   8.908 -0.4065 -0.2584  0.1783
 4218SOL    HW124290   2.708   0.200   8.870 -1.7170 -0.0709  0.3982
 4218SOL    HW224291   2.613   0.083   8.886 -0.6475 -0.0013  0.8042
 4219SOL     OW24292   3.108   0.822   6.910 -0.0886 -0.0828  0.4156
 4219SOL    HW124293   3.180   0.879   6.884 -0.8982  0.2057 -1.2503
 4219SOL    HW224294   3.098   0.771   6.829  0.4633 -0.0642  0.3360
 4220SOL     OW24295   2.187   3.152   8.322 -0.1147  0.1033  0.5780
 4220SOL    HW124296   2.101   3.165   8.281  0.5314 -1.1676 -1.1826
 4220SOL    HW224297   2.230   3.235   8.305 -1.3482  0.7047  0.3492
 4221SOL     OW24298   2.876   2.016   3.518  0.0517  0.2426  0.2792
 4221SOL    HW124299   2.789   2.032   3.552  0.7093 -0.3615  2.2353
 4221SOL    HW224300   2.883   2.072   3.441 -2.0621  0.0622 -0.0286
 4222SOL     OW24301   3.634   0.697   4.836  0.2266 -0.0641 -0.6032
 4222SOL    HW124302   3.716   0.734   4.802 -0.2052 -1.0948 -2.7720
 4222SOL    HW224303   3.571   0.750   4.786 -2.3292 -1.2715  1.3597
 4223SOL     OW24304   3.136   2.277   8.606 -0.8021  0.0880 -0.3190
 4223SOL    HW124305   3.079   2.341   8.649  1.1868  1.0284  0.9376
 4223SOL    HW224306   3.169   2.227   8.681 -0.0849  0.9878 -0.0225
 4224SOL     OW24307   3.596   0.322  16.100  0.1930  1.0570 -0.1596
 4224SOL    HW124308   3.609   0.233  16.067 -0.6429  0.7127  0.4406
 4224SOL    HW224309   3.567   0.322  16.191  2.2627  0.4639  0.4807
 4225SOL     OW24310   1.365   0.915   4.552 -0.0010 -0.2770 -0.6007
 4225SOL    HW124311   1.413   0.997   4.550  0.4709 -0.5294  0.1888
 4225SOL    HW224312   1.276   0.948   4.564  0.1982 -0.1258  0.4987
 4226SOL     OW24313   3.446   0.483   6.050  0.6757  0.1938  0.0914
 4226SOL    HW124314   3.486   0.422   5.988 -1.5137 -0.2872 -0.8644
 4226SOL    HW224315   3.444   0.561   5.995 -1.3487  0.8434  1.0991
 4227SOL     OW24316   4.729   3.373   2.162 -0.0116 -0.1118  0.2340
 4227SOL    HW124317   4.644   3.333   2.178 -1.0154  0.8150 -2.7010
 4227SOL    HW224318   0.043   3.346   2.237 -0.6451 -0.1666  0.6443
 4228SOL     OW24319   4.629   4.006  17.211 -0.4395  0.1925 -0.4572
 4228SOL    HW124320   4.538   4.032  17.197 -0.2762  1.4827  0.9211
 4228SOL    HW224321   4.679   4.065  17.154 -0.0157  0.9883  0.7522
 4229SOL     OW24322   4.386   0.703   4.002  0.5827 -0.0748 -0.2737
 4229SOL    HW124323   4.364   0.793   4.026 -1.9939 -1.3999  2.4865
 4229SOL    HW224324   4.448   0.722   3.932 -2.3575 -0.5398 -2.9647
 4230SOL     OW24325   0.009   0.685  16.435  0.2547  0.0594  0.0197
 4230SOL    HW124326   0.025   0.668  16.342  0.2609  1.2524 -0.1964
 4230SOL    HW224327   4.654   0.667  16.445  0.7196 -2.4081 -0.0161
 4231SOL     OW24328   3.092   0.318   5.630  0.4934  0.2342  0.4403
 4231SOL    HW124329   3.038   0.281   5.561  0.8002 -0.1615  0.4140
 4231SOL    HW224330   3.161   0.252   5.640 -1.5796 -1.9611  0.0261
 4232SOL     OW24331   1.325   4.705   5.705 -0.2486  0.5868  0.1368
 4232SOL    HW124332   1.305   4.615   5.680 -2.7138  0.4077  2.7483
 4232SOL    HW224333   1.343   0.005   5.619 -0.9132  0.5439 -0.0194
 4233SOL     OW24334   2.460   3.909   9.334  0.0057 -0.0827 -0.2498
 4233SOL    HW124335   2.400   3.940   9.401 -0.0067 -0.0806 -0.2619
 4233SOL    HW224336   2.491   3.984   9.283 -4.0380  1.2202 -0.8287
 4234SOL     OW24337   1.550   2.532   9.870  0.3152 -0.0790 -0.0072
 4234SOL    HW124338   1.641   2.512   9.892  0.1896 -0.8705 -0.2260
 4234SOL    HW224339   1.547   2.628   9.869 -1.5544 -0.1426 -1.5489
 4235SOL     OW24340   4.214   2.396  14.241 -0.4677  0.3704  0.3066
 4235SOL    HW124341   4.211   2.313  14.288  3.2178 -0.0942 -0.3359
 4235SOL    HW224342   4.280   2.444  14.290 -1.3963  3.7832 -1.8314
 4236SOL     OW24343   3.729   1.722   8.636 -0.0234 -0.1729  0.4514
 4236SOL    HW124344   3.711   1.678   8.553  0.7071 -0.2733  0.3500
 4236SOL    HW224345   3.806   1.775   8.618 -0.2554 -0.1524 -0.4920
 4237SOL     OW24346   4.149   1.538   0.368 -0.6604  0.5183 -0.9798
 4237SOL    HW124347   4.201   1.461   0.346 -0.3252  0.4251  0.1383
 4237SOL    HW224348   4.164   1.584   0.286 -2.7856  1.8074 -0.6371
 4238SOL     OW24349   3.933   1.703   1.875  0.4462 -0.4278  0.9566
 4238SOL    HW124350   3.869   1.736   1.812  0.3975 -1.2271  0.5906
 4238SOL    HW224351   3.893   1.719   1.960  0.1769 -1.6717  1.0600
 4239SOL     OW24352   1.206   4.119   5.213  0.8778  0.3323 -0.4625
 4239SOL    HW124353   1.199   4.140   5.120  1.4954 -0.0024 -0.5865
 4239SOL    HW224354   1.196   4.023   5.214  0.3547  0.3853 -0.6026
 4240SOL     OW24355   0.746   2.659   4.566 -0.0173 -0.0863 -0.3721
 4240SOL    HW124356   0.772   2.592   4.631  1.6991 -0.0129 -0.9779
 4240SOL    HW224357   0.671   2.692   4.616  1.5085  1.0452  1.1868
 4241SOL     OW24358   2.986   0.149   6.110  0.2153  0.6833 -0.2403
 4241SOL    HW124359   3.046   0.090   6.156  1.5067  0.4657 -2.2505
 4241SOL    HW224360   3.033   0.183   6.034 -0.6088  2.1151 -0.1019
 4242SOL     OW24361   4.089   0.931   2.113 -0.2202 -0.2551 -0.0822
 4242SOL    HW124362   4.061   0.933   2.021  2.0093  1.7318 -0.7148
 4242SOL    HW224363   4.180   0.905   2.106 -0.4936 -1.5129  1.1435
 4243SOL     OW24364   2.617   1.633  16.724 -0.4046 -0.5641  0.0785
 4243SOL    HW124365   2.628   1.549  16.768  3.6529  1.0594  2.1735
 4243SOL    HW224366   2.619   1.616  16.629 -0.8081  0.0082 -0.0296
 4244SOL     OW24367   1.687   1.685   0.351 -0.1052 -0.4687 -0.4408
 4244SOL    HW124368   1.759   1.742   0.378 -0.5720  0.2770 -0.7924
 4244SOL    HW224369   1.712   1.647   0.267  0.0764  1.2938 -1.1749
 4245SOL     OW24370   0.099   2.425   8.365  0.1938  0.0261 -0.6301
 4245SOL    HW124371   0.004   2.431   8.369  0.1540 -1.0990  0.1838
 4245SOL    HW224372   0.103   2.334   8.336 -2.4047 -0.6974  1.2982
 4246SOL     OW24373   1.590   1.075   1.180  0.2054  0.8862 -0.6229
 4246SOL    HW124374   1.572   1.029   1.098  0.5341 -1.3328  0.5496
 4246SOL    HW224375   1.633   1.000   1.220 -0.8573  0.6195  0.0268
 4247SOL     OW24376   3.307   2.479  10.310  0.4388  0.4442 -0.0829
 4247SOL    HW124377   3.339   2.567  10.330  0.1334  0.7606 -1.0091
 4247SOL    HW224378   3.383   2.440  10.267 -0.9974 -2.8367  0.3432
 4248SOL     OW24379   1.095   3.748   6.108 -0.3165 -0.0916 -0.1258
 4248SOL    HW124380   1.037   3.722   6.037 -1.1881 -0.1033  0.5943
 4248SOL    HW224381   1.042   3.800   6.168 -0.4499 -2.0521  1.4147
 4249SOL     OW24382   0.895   0.220   4.036  0.1824  0.2276 -0.5905
 4249SOL    HW124383   0.971   0.169   4.008 -1.1546 -0.7719 -2.3994
 4249SOL    HW224384   0.821   0.167   4.006 -1.4130  1.2914  1.4188
 4250SOL     OW24385   2.608   3.152   7.734  0.2246 -0.9876 -0.0558
 4250SOL    HW124386   2.538   3.212   7.710  1.6415  0.0492 -1.5959
 4250SOL    HW224387   2.637   3.103   7.657 -0.4577 -0.4134 -0.6809
 4251SOL     OW24388   0.578   2.431   7.902  0.3672  0.4719 -0.4294
 4251SOL    HW124389   0.531   2.355   7.866  0.7687  0.4223 -0.8626
 4251SOL    HW224390   0.578   2.412   7.996  1.5610 -1.0885 -0.7388
 4252SOL     OW24391   3.608   3.790   6.663 -0.2757  0.1013 -0.4521
 4252SOL    HW124392   3.541   3.857   6.646 -1.3429 -0.6206  0.9553
 4252SOL    HW224393   3.580   3.751   6.745 -1.4186  0.1821 -0.8032
 4253SOL     OW24394   0.667   4.310   7.435 -0.1060 -0.0628  0.2222
 4253SOL    HW124395   0.737   4.314   7.501 -0.2788  0.6675  0.3568
 4253SOL    HW224396   0.589   4.303   7.491 -0.0164 -2.2152  0.0810
 4254SOL     OW24397   1.973   3.290   5.999  0.3105 -0.4908  0.4644
 4254SOL    HW124398   1.963   3.376   6.040  2.1260  1.0829 -2.3842
 4254SOL    HW224399   2.063   3.275   6.026 -0.0017  0.5610  2.0625
 4255SOL     OW24400   0.952   4.576   6.094 -0.6075  0.1367  0.0963
 4255SOL    HW124401   0.973   4.546   6.005  1.1549 -2.7849  1.4735
 4255SOL    HW224402   0.884   4.511   6.112 -0.4796  0.3202  1.2078
 4256SOL     OW24403   0.350   3.915   0.275  0.7220  0.1114  0.0869
 4256SOL    HW124404   0.381   3.900   0.186  1.4711  0.2453  0.3186
 4256SOL    HW224405   0.371   3.833   0.321  1.0869  0.5525  0.7095
 4257SOL     OW24406   0.972   1.355   2.163 -0.5090  0.0489  0.3591
 4257SOL    HW124407   0.912   1.315   2.100 -0.4924  2.7239 -1.3489
 4257SOL    HW224408   1.022   1.278   2.189 -0.1752 -1.2004 -4.0631
 4258SOL     OW24409   1.439   0.427   1.732  0.0598 -0.5305 -0.4627
 4258SOL    HW124410   1.388   0.476   1.667 -0.7801  0.3290  0.8451
 4258SOL    HW224411   1.488   0.495   1.778 -2.8878  1.2485  0.0419
 4259SOL     OW24412   0.007   2.509   1.007  0.0082  0.5464  0.3147
 4259SOL    HW124413   4.677   2.471   0.951  0.1862 -0.9095  1.0854
 4259SOL    HW224414   0.061   2.433   1.026 -0.0331  0.7077  1.0899
 4260SOL     OW24415   1.440   3.410   6.125  0.0723 -0.2490  0.6117
 4260SOL    HW124416   1.411   3.475   6.060  2.1019 -0.0803 -0.1226
 4260SOL    HW224417   1.515   3.365   6.085  1.5615  2.2985  0.5235
 4261SOL     OW24418   0.597   0.542   8.890  0.8256  0.2074  0.4156
 4261SOL    HW124419   0.523   0.519   8.834  1.3732 -0.6126  0.0186
 4261SOL    HW224420   0.581   0.633   8.915  0.8238  0.0257  1.0784
 4262SOL     OW24421   4.655   1.879   9.066  0.6336  0.7603 -0.3597
 4262SOL    HW124422   4.635   1.922   9.149  0.0307 -0.0986 -0.0543
 4262SOL    HW224423   4.694   1.952   9.018  2.3482  0.0984  0.0372
 4263SOL     OW24424   3.903   3.950  17.006 -0.4097  0.2204 -0.3228
 4263SOL    HW124425   3.954   3.968  16.928  0.0123  0.6670  0.0579
 4263SOL    HW224426   3.833   3.899  16.964  0.1691 -2.2775  1.7608
 4264SOL     OW24427   1.919   0.864   7.451 -0.5752 -0.2854  0.3289
 4264SOL    HW124428   1.940   0.807   7.378  0.6350  0.8169 -0.1845
 4264SOL    HW224429   1.992   0.844   7.510 -0.1514  1.5617  0.4460
 4265SOL     OW24430   2.240   0.768   2.572 -0.6166 -0.0478  0.0236
 4265SOL    HW124431   2.311   0.751   2.634  0.2085  3.1221 -0.0697
 4265SOL    HW224432   2.250   0.862   2.557 -0.5059 -0.1922 -0.8044
 4266SOL     OW24433   3.741   0.950   4.122 -0.0274 -0.3665 -0.5884
 4266SOL    HW124434   3.695   0.939   4.206  1.5762 -1.0579  0.1934
 4266SOL    HW224435   3.672   0.979   4.062 -1.0888  2.9764  2.1832
 4267SOL     OW24436   3.575   3.825   3.369  0.3541  0.2356 -0.7427
 4267SOL    HW124437   3.603   3.805   3.279 -0.6487  0.0598 -1.0143
 4267SOL    HW224438   3.664   3.841   3.400  1.0734  0.6697 -3.0157
 4268SOL     OW24439   1.298   4.380   7.624 -0.5029 -0.4155 -0.0296
 4268SOL    HW124440   1.220   4.435   7.628 -0.8656 -1.0129  1.0557
 4268SOL    HW224441   1.351   4.405   7.700  1.5437 -1.0880 -1.2317
 4269SOL     OW24442   2.007   0.564   2.915  0.9027  0.4332  0.3935
 4269SOL    HW124443   1.939   0.518   2.865  1.0683 -0.4914  1.0356
 4269SOL    HW224444   1.960   0.593   2.993 -1.4558  2.3748 -1.7295
 4270SOL     OW24445   3.341   3.439   5.331  0.5056 -0.1584 -0.2858
 4270SOL    HW124446   3.303   3.446   5.419  1.3125  0.5267  0.0177
 4270SOL    HW224447   3.339   3.346   5.310  2.0474  0.1089 -1.6027
 4271SOL     OW24448   3.263   4.524  11.869  0.5428 -0.1249  0.3686
 4271SOL    HW124449   3.172   4.521  11.840  0.5043 -1.1675  0.6094
 4271SOL    HW224450   3.260   4.457  11.937 -0.8254 -0.5326 -0.0947
 4272SOL     OW24451   0.833   0.485  13.211 -0.1300  0.1645 -0.3004
 4272SOL    HW124452   0.809   0.477  13.119 -2.1119  1.1227  0.1324
 4272SOL    HW224453   0.799   0.572  13.228  0.3621 -0.0383  1.7240
 4273SOL     OW24454   0.451   0.300   5.460 -0.2207 -0.5061 -0.2238
 4273SOL    HW124455   0.360   0.328   5.450 -0.4381 -0.9672  0.4558
 4273SOL    HW224456   0.492   0.359   5.396  0.8972  0.8106  1.6880
 4274SOL     OW24457   2.911   3.894   9.254  0.0177  0.3221 -0.1675
 4274SOL    HW124458   2.874   3.854   9.332 -2.4464  2.5692 -0.1637
 4274SOL    HW224459   2.998   3.913   9.288 -0.3660 -1.6557  1.8692
 4275SOL     OW24460   3.044   1.681   0.873  0.0054 -0.1134 -0.1867
 4275SOL    HW124461   3.067   1.714   0.960 -1.2949  2.3818 -0.7858
 4275SOL    HW224462   3.092   1.599   0.866  2.3513  1.1799  0.4805
 4276SOL     OW24463   4.181   2.585   8.006 -1.1497 -0.0547  0.5641
 4276SOL    HW124464   4.201   2.549   8.093 -0.4033  1.9307  1.1954
 4276SOL    HW224465   4.203   2.528   7.932  2.2592  2.5716 -0.4121
 4277SOL     OW24466   4.329   4.201   2.274 -0.5586  0.8084  0.0067
 4277SOL    HW124467   4.356   4.195   2.366 -2.2711 -0.9363  0.3959
 4277SOL    HW224468   4.389   4.266   2.238 -1.8895  2.0456  0.0376
 4278SOL     OW24469   2.665   0.507   7.039 -0.4151 -0.4054 -0.3006
 4278SOL    HW124470   2.747   0.513   7.087 -0.1501 -0.5897 -0.7327
 4278SOL    HW224471   2.682   0.450   6.964 -0.8149 -0.0263 -0.6792
 4279SOL     OW24472   2.708   3.416   1.939 -0.7453 -0.4136 -0.2336
 4279SOL    HW124473   2.803   3.426   1.936 -1.1222  3.2908 -0.5957
 4279SOL    HW224474   2.694   3.463   2.022 -2.4879  0.3574 -0.9582
 4280SOL     OW24475   2.984   0.081  14.461  0.5347  0.2963  0.0590
 4280SOL    HW124476   2.995   0.005  14.518 -1.0197 -0.3168 -0.4618
 4280SOL    HW224477   2.894   0.103  14.483  0.5160  0.7334 -0.4427
 4281SOL     OW24478   3.248   1.940   9.057 -0.0479  0.0274 -0.4841
 4281SOL    HW124479   3.296   1.858   9.057  1.2171  0.7455  2.7258
 4281SOL    HW224480   3.234   1.950   8.963  1.1643 -1.9391 -0.8713
 4282SOL     OW24481   2.273   3.367  16.539 -0.4397 -0.2725  0.4076
 4282SOL    HW124482   2.323   3.313  16.601  0.7073  0.3163 -0.0023
 4282SOL    HW224483   2.329   3.445  16.542 -0.2559 -0.4528  1.8781
 4283SOL     OW24484   0.197   1.478   5.174  0.7146 -0.8923 -0.1694
 4283SOL    HW124485   0.151   1.561   5.161  0.6447 -1.0360 -0.8231
 4283SOL    HW224486   0.244   1.468   5.092  1.2956 -1.8729  0.2768
 4284SOL     OW24487   0.395   2.022   6.203  0.2527  0.3105 -0.2191
 4284SOL    HW124488   0.391   2.020   6.108  1.3357  0.7585 -0.2812
 4284SOL    HW224489   0.440   2.106   6.214 -1.3452  1.0549  0.5520
 4285SOL     OW24490   4.148   3.768   7.637  0.7518 -0.4662 -0.3955
 4285SOL    HW124491   4.145   3.729   7.724  0.8841  4.0162  1.5831
 4285SOL    HW224492   4.235   3.735   7.614  0.4720 -1.2997 -0.2707
 4286SOL     OW24493   4.585   3.765   4.150 -0.0177 -0.6446  0.3714
 4286SOL    HW124494   4.509   3.711   4.175 -1.1163  1.9104  2.6037
 4286SOL    HW224495   4.624   3.785   4.235  2.3453 -0.0712 -0.8598
 4287SOL     OW24496   3.208   1.405   3.287  0.5385 -0.2759  0.9187
 4287SOL    HW124497   3.199   1.438   3.376  1.4735  0.3608  0.7797
 4287SOL    HW224498   3.128   1.354   3.273 -0.0151  0.4375  1.4749
 4288SOL     OW24499   4.645   3.307   3.544 -0.3173 -0.3841 -0.1861
 4288SOL    HW124500   4.666   3.366   3.472  2.3744 -1.1207 -0.0268
 4288SOL    HW224501   4.557   3.337   3.562 -0.0662  0.4190 -0.3175
 4289SOL     OW24502   0.387   0.436   4.237 -0.7257 -0.0315 -0.2677
 4289SOL    HW124503   0.386   0.409   4.145 -1.1538 -1.1427  0.0727
 4289SOL    HW224504   0.451   0.507   4.232  0.1048 -0.8448 -1.1996
 4290SOL     OW24505   1.919   1.635   8.032 -0.4988 -0.0231 -0.2210
 4290SOL    HW124506   2.010   1.615   8.007  0.2795 -0.9737  3.4276
 4290SOL    HW224507   1.904   1.660   7.940  0.3110 -0.7926 -0.5646
 4291SOL     OW24508   2.080   3.506   8.436  0.0848 -0.1788 -0.5928
 4291SOL    HW124509   2.004   3.481   8.488  0.3961 -1.5172 -0.7965
 4291SOL    HW224510   2.038   3.490   8.351  0.2504 -1.4059 -0.4391
 4292SOL     OW24511   2.430   3.573  16.530 -0.0375  0.5864  0.5068
 4292SOL    HW124512   2.388   3.613  16.454  3.5026 -0.8563 -2.2366
 4292SOL    HW224513   2.453   3.648  16.585 -1.1816  0.8973  0.5508
 4293SOL     OW24514   0.769   1.073   3.459  0.0407 -0.2026 -0.1785
 4293SOL    HW124515   0.728   1.133   3.522 -0.0913 -0.7051  0.2187
 4293SOL    HW224516   0.862   1.094   3.464  0.0364 -0.4675  1.0927
 4294SOL     OW24517   2.888   4.303  11.753  0.2314  0.8609  0.2152
 4294SOL    HW124518   2.851   4.232  11.702 -1.0730  0.0165  2.3136
 4294SOL    HW224519   2.979   4.307  11.725 -0.3876  1.0768 -1.7276
 4295SOL     OW24520   1.243   3.400  15.452 -0.1544  0.2335 -0.6081
 4295SOL    HW124521   1.252   3.486  15.411  0.8167  1.5916  2.5209
 4295SOL    HW224522   1.251   3.435  15.540  0.6672 -1.5788  0.0209
 4296SOL     OW24523   3.077   3.484   7.435 -0.7427 -0.4793 -0.0014
 4296SOL    HW124524   3.083   3.520   7.346 -1.1871  0.4914  0.3661
 4296SOL    HW224525   3.161   3.439   7.445 -0.0547  1.0403  0.9367
 4297SOL     OW24526   4.389   0.463   2.428  0.1031  0.6737 -0.0773
 4297SOL    HW124527   4.436   0.542   2.454  1.8155 -0.6736  0.9431
 4297SOL    HW224528   4.301   0.498   2.420  0.5030  1.5154 -0.8060
 4298SOL     OW24529   4.020   1.037   4.090 -0.2075 -0.3514  0.1424
 4298SOL    HW124530   3.941   1.032   4.036 -0.5647  1.0391  0.5347
 4298SOL    HW224531   3.980   1.024   4.176  1.3216 -1.4966  0.6993
 4299SOL     OW24532   4.229   3.259   7.519 -0.0168  0.6687 -0.1362
 4299SOL    HW124533   4.270   3.178   7.490 -2.1144 -1.0182  1.6483
 4299SOL    HW224534   4.225   3.239   7.612  1.1093  0.0719 -0.2223
 4300SOL     OW24535   1.548   0.308   9.094 -0.6675  0.9512  0.0061
 4300SOL    HW124536   1.490   0.238   9.064 -0.2538  0.6281 -0.0481
 4300SOL    HW224537   1.520   0.324   9.184 -1.4308  1.4208 -0.3182
 4301SOL     OW24538   2.618   0.949   6.926 -0.0937 -0.0164  0.0718
 4301SOL    HW124539   2.713   0.937   6.928  0.0522  1.2372  0.4369
 4301SOL    HW224540   2.619   1.039   6.893  0.3779  0.4756  1.4334
 4302SOL     OW24541   2.866   4.475   6.777  0.1560 -0.1765 -0.1365
 4302SOL    HW124542   2.878   4.382   6.794 -0.0144  0.0066  0.9695
 4302SOL    HW224543   2.907   4.487   6.691 -0.8650  4.2017 -0.0197
 4303SOL     OW24544   2.117   2.212   6.466 -0.0063  0.6028  0.2953
 4303SOL    HW124545   2.099   2.224   6.373  3.0574 -0.3272 -0.3944
 4303SOL    HW224546   2.092   2.302   6.487 -1.2713 -0.0397  1.5137
 4304SOL     OW24547   2.864   1.821  16.569 -0.0379  0.5061  0.3902
 4304SOL    HW124548   2.958   1.812  16.561 -0.2031  0.7136 -1.8547
 4304SOL    HW224549   2.839   1.728  16.567 -0.8949  0.6658  3.9460
 4305SOL     OW24550   1.168   4.596   8.698 -0.4492  0.0079 -0.6954
 4305SOL    HW124551   1.251   4.569   8.739 -0.8909  1.7121  1.2766
 4305SOL    HW224552   1.203   4.673   8.654 -0.6635  1.2586  1.3601
 4306SOL     OW24553   0.628   0.794   6.077  0.3955 -0.0783 -0.3175
 4306SOL    HW124554   0.707   0.837   6.043  0.7604  1.1877  2.0746
 4306SOL    HW224555   0.617   0.845   6.158  1.5880  1.8074 -1.3429
 4307SOL     OW24556   4.733   2.526   6.113  0.2049 -0.2567  0.1444
 4307SOL    HW124557   4.693   2.604   6.075 -0.5526 -0.3793  0.6908
 4307SOL    HW224558   4.692   2.522   6.200  0.1501 -1.9521  0.0276
 4308SOL     OW24559   1.719   0.493  11.083 -0.5653  0.5814 -0.5403
 4308SOL    HW124560   1.757   0.467  11.167 -0.2788  0.6313 -0.6539
 4308SOL    HW224561   1.775   0.567  11.058 -0.8797  0.2619 -2.1467
 4309SOL     OW24562   1.473   2.441   6.606  0.3852  0.4166  0.1803
 4309SOL    HW124563   1.383   2.411   6.624  0.1833 -0.8492 -2.9352
 4309SOL    HW224564   1.461   2.533   6.585  1.1557 -0.4033 -3.8431
 4310SOL     OW24565   4.361   0.025   8.611  0.0035 -0.0555 -0.8023
 4310SOL    HW124566   4.310   4.683   8.622 -1.8323  1.1536 -0.5470
 4310SOL    HW224567   4.398   0.001   8.526 -1.2213 -0.7866 -1.1262
 4311SOL     OW24568   0.394   2.922   5.078 -0.0467  0.6334  0.4702
 4311SOL    HW124569   0.487   2.935   5.065 -0.4007  0.8586 -1.8042
 4311SOL    HW224570   0.402   2.851   5.143 -0.7512  2.0860  2.1491
 4312SOL     OW24571   0.093   4.201   4.481 -0.1666 -0.0566  0.3792
 4312SOL    HW124572   0.140   4.246   4.552  0.6819 -1.5851  0.7865
 4312SOL    HW224573   0.145   4.122   4.468 -1.9307 -0.9435 -1.1992
 4313SOL     OW24574   0.330   1.786  16.433  0.4524 -0.6535 -0.5081
 4313SOL    HW124575   0.354   1.715  16.493 -2.9341 -1.8627 -0.6321
 4313SOL    HW224576   0.240   1.758  16.419  0.1507  0.0683 -0.0392
 4314SOL     OW24577   4.529   0.856   5.115  0.1438 -0.2936  0.0609
 4314SOL    HW124578   4.527   0.761   5.119 -1.5966 -0.2868 -0.3759
 4314SOL    HW224579   4.617   0.883   5.088  0.6906 -0.1120  2.0355
 4315SOL     OW24580   2.382   3.969   1.883 -0.1241  0.3759  0.4192
 4315SOL    HW124581   2.455   4.007   1.834  0.3656  0.7368  1.4411
 4315SOL    HW224582   2.313   4.022   1.843  0.4697 -1.1582 -2.7074
 4316SOL     OW24583   3.993   0.374   6.565  0.2515  0.1666 -0.4221
 4316SOL    HW124584   3.977   0.303   6.627 -2.4300  0.6626 -0.5443
 4316SOL    HW224585   4.076   0.409   6.598 -1.4738  1.5221  2.4352
 4317SOL     OW24586   3.078   1.223   1.841  0.2610  0.2046  0.2378
 4317SOL    HW124587   3.042   1.149   1.889 -0.5636  0.9175  0.7225
 4317SOL    HW224588   3.117   1.270   1.915 -0.4809 -3.0196  2.6843
 4318SOL     OW24589   1.009   2.294   1.702  0.0568 -0.4329 -0.5704
 4318SOL    HW124590   1.039   2.210   1.738  1.5528 -0.0103 -0.8293
 4318SOL    HW224591   0.964   2.341   1.773 -1.1113 -1.5474 -0.5743
 4319SOL     OW24592   1.690   3.705   8.106 -0.6217 -0.5167 -0.2313
 4319SOL    HW124593   1.625   3.678   8.172 -0.0551 -0.4739  0.3435
 4319SOL    HW224594   1.708   3.789   8.149  1.2489 -1.5199  0.9595
 4320SOL     OW24595   1.790   0.885  10.012  0.3393  0.5725  0.5458
 4320SOL    HW124596   1.810   0.837   9.931  1.2738  2.4188 -0.3146
 4320SOL    HW224597   1.698   0.857  10.010  0.4392  0.4163 -2.9422
 4321SOL     OW24598   3.274   3.005   4.170 -0.0500  0.1625  0.0548
 4321SOL    HW124599   3.303   2.923   4.210  3.3292  1.5272  0.3751
 4321SOL    HW224600   3.258   2.955   4.090  3.5762 -0.7232 -0.1258
 4322SOL     OW24601   0.542   3.545   1.022  0.7271  0.2574 -0.1711
 4322SOL    HW124602   0.510   3.474   0.966  2.1241 -1.0646  0.7203
 4322SOL    HW224603   0.607   3.493   1.069 -0.7201 -1.1975  0.2034
 4323SOL     OW24604   1.552   2.045   4.215 -0.1778 -0.1756 -0.0495
 4323SOL    HW124605   1.618   2.114   4.211  3.6093 -3.9355 -1.9863
 4323SOL    HW224606   1.593   1.982   4.275 -0.4500  0.3066  0.6478
 4324SOL     OW24607   1.382   2.322   8.737 -0.0335 -0.5092  0.5517
 4324SOL    HW124608   1.328   2.401   8.729 -0.7551 -1.3398 -2.6614
 4324SOL    HW224609   1.425   2.322   8.651  0.0011  0.5154  0.5680
 4325SOL     OW24610   0.475   0.007   5.690 -0.2180 -0.0228 -0.2542
 4325SOL    HW124611   0.518   0.051   5.617  1.2043 -0.7141  0.1639
 4325SOL    HW224612   0.549   4.724   5.747  0.3901  2.0344 -0.3084
 4326SOL     OW24613   3.457   1.182   6.661 -0.2373 -0.7998 -0.1459
 4326SOL    HW124614   3.537   1.232   6.652  0.1757 -1.2082  1.2519
 4326SOL    HW224615   3.416   1.222   6.584 -1.8536 -2.0767  0.0361
 4327SOL     OW24616   1.885   4.173   8.281  0.3302 -0.0454 -0.5539
 4327SOL    HW124617   1.906   4.266   8.284 -1.3502  0.3295 -0.7202
 4327SOL    HW224618   1.919   4.141   8.365 -2.3533  0.3287  0.6490
 4328SOL     OW24619   3.342   4.577   0.960  0.0982 -0.0352 -0.0368
 4328SOL    HW124620   3.428   4.538   0.975  0.5781  0.4640 -1.5035
 4328SOL    HW224621   3.358   4.665   0.927  0.3777  0.3793  1.1900
 4329SOL     OW24622   1.074   1.667   5.529 -0.0376 -0.5648  0.6354
 4329SOL    HW124623   1.047   1.634   5.614 -0.0178 -1.8052  0.1632
 4329SOL    HW224624   1.137   1.722   5.576 -0.8625  0.6218  0.3313
 4330SOL     OW24625   0.038   3.658   3.104 -0.0299 -0.3807  0.1841
 4330SOL    HW124626   0.051   3.749   3.131  0.1579 -0.3176 -0.1263
 4330SOL    HW224627   0.126   3.623   3.114  0.2835  0.2291 -0.4730
 4331SOL     OW24628   0.751   2.796   3.443  0.3841 -0.3045 -0.2061
 4331SOL    HW124629   0.795   2.744   3.511  2.2073  1.0512 -0.3678
 4331SOL    HW224630   0.665   2.760   3.463  0.3326 -0.3109 -0.4394
 4332SOL     OW24631   1.760   0.792   8.053 -0.2508  0.5740  0.4490
 4332SOL    HW124632   1.678   0.827   8.088 -0.3157 -0.1585  1.0293
 4332SOL    HW224633   1.819   0.862   8.078  0.0078  0.7303 -0.6115
 4333SOL     OW24634   1.283   1.878  15.738  0.0337 -0.3071 -0.0962
 4333SOL    HW124635   1.333   1.813  15.788  1.6330  0.7340 -0.3402
 4333SOL    HW224636   1.237   1.826  15.671  0.4547 -0.7218 -0.0628
 4334SOL     OW24637   4.459   1.236   0.468  0.1537 -0.1720 -0.4351
 4334SOL    HW124638   4.462   1.311   0.528  2.8829  0.6194 -1.5916
 4334SOL    HW224639   4.470   1.158   0.523 -0.1124  1.2816  1.7060
 4335SOL     OW24640   2.577   1.735  12.801 -0.3169  0.1019  0.5560
 4335SOL    HW124641   2.624   1.702  12.877  2.5556  2.5167 -0.1855
 4335SOL    HW224642   2.486   1.718  12.825  0.4160 -1.0470  2.4882
 4336SOL     OW24643   0.502   1.715   7.493  0.6158  0.2195 -0.5165
 4336SOL    HW124644   0.590   1.682   7.472 -0.1128 -1.9359 -0.1783
 4336SOL    HW224645   0.455   1.710   7.409  0.2307 -1.5189 -0.1962
 4337SOL     OW24646   4.517   1.438   8.202  0.0435  0.2022 -0.2555
 4337SOL    HW124647   4.584   1.382   8.160 -0.5998 -0.1641 -0.7959
 4337SOL    HW224648   4.433   1.420   8.160 -0.0699  2.8393 -1.1523
 4338SOL     OW24649   2.305   4.218   7.366 -0.0723  0.5089 -0.5743
 4338SOL    HW124650   2.336   4.129   7.382 -0.0798  1.1634  3.0594
 4338SOL    HW224651   2.349   4.268   7.434  0.6670  1.1997 -1.5553
 4339SOL     OW24652   1.653   0.631   8.385  0.0737 -0.3171  0.4471
 4339SOL    HW124653   1.689   0.566   8.324 -0.6477  0.7123 -1.0897
 4339SOL    HW224654   1.731   0.685   8.396  0.6686 -0.5832 -2.4259
 4340SOL     OW24655   3.150   3.748   0.896  0.4356 -0.0368  0.4010
 4340SOL    HW124656   3.071   3.696   0.878 -0.5273  0.7044  2.4424
 4340SOL    HW224657   3.128   3.783   0.983 -2.0874  2.0058 -1.0464
 4341SOL     OW24658   0.970   4.564   8.889 -0.2913 -0.1582 -0.1381
 4341SOL    HW124659   1.043   4.585   8.831  0.1864  1.2502  0.9851
 4341SOL    HW224660   0.931   4.650   8.907  0.0473  0.2047 -1.1538
 4342SOL     OW24661   1.909   4.267  12.622  0.0178 -0.5221 -0.3213
 4342SOL    HW124662   1.932   4.332  12.555  1.0146  0.1794  0.6983
 4342SOL    HW224663   1.862   4.205  12.566 -0.8426 -0.9399  0.8663
 4343SOL     OW24664   1.506   1.591   7.787  0.1300 -0.3867  0.1954
 4343SOL    HW124665   1.555   1.647   7.728 -0.9325 -0.9460 -1.2216
 4343SOL    HW224666   1.537   1.633   7.867 -3.0142  1.7046  0.3093
 4344SOL     OW24667   3.415   3.483   1.429 -0.0203 -0.0274 -0.0596
 4344SOL    HW124668   3.360   3.433   1.369 -0.6477  1.7668 -0.9909
 4344SOL    HW224669   3.451   3.420   1.492 -2.0164 -2.5102 -1.3951
 4345SOL     OW24670   2.049   3.537   6.130  0.1402  0.1637 -0.1962
 4345SOL    HW124671   2.106   3.602   6.172 -1.6012  2.1789 -0.9695
 4345SOL    HW224672   1.972   3.544   6.186 -0.1237 -2.3777 -0.2339
 4346SOL     OW24673   0.499   4.267   2.854  0.3677  0.2825 -0.5845
 4346SOL    HW124674   0.472   4.337   2.795  1.8496  0.1095 -1.4679
 4346SOL    HW224675   0.411   4.232   2.866  1.2791 -0.9418  2.6615
 4347SOL     OW24676   0.724   1.503  14.063 -0.6440  0.2877  0.0026
 4347SOL    HW124677   0.714   1.568  13.993  0.8555  0.3942 -0.0988
 4347SOL    HW224678   0.631   1.488  14.082 -1.4900  1.7263 -2.8275
 4348SOL     OW24679   1.344   2.845   6.327 -1.0303 -0.8399  0.0883
 4348SOL    HW124680   1.262   2.892   6.340 -1.0300 -0.7258 -0.3393
 4348SOL    HW224681   1.321   2.795   6.249 -0.5743 -0.9711  0.0358
 4349SOL     OW24682   3.175   0.496   2.874 -0.0205  0.3785  1.3542
 4349SOL    HW124683   3.209   0.486   2.963 -0.9360  2.0480  1.8820
 4349SOL    HW224684   3.106   0.429   2.876 -0.0789  0.4099  0.2321
 4350SOL     OW24685   4.573   0.171   1.763  0.2897  0.6493  0.3388
 4350SOL    HW124686   4.624   0.149   1.841 -0.2052 -0.8033  0.2691
 4350SOL    HW224687   4.635   0.227   1.716  0.8308  1.8470  2.4761
 4351SOL     OW24688   3.616   4.232   2.744  0.4752  0.3568 -0.4024
 4351SOL    HW124689   3.552   4.267   2.683  0.9039  3.3042  0.8261
 4351SOL    HW224690   3.657   4.162   2.694 -0.3997 -1.0064  0.8046
 4352SOL     OW24691   3.966   1.226   1.764 -0.2073  0.1796 -0.4865
 4352SOL    HW124692   4.018   1.177   1.701  0.7734  0.6393 -0.0269
 4352SOL    HW224693   3.993   1.318   1.759  0.7194 -0.0368  0.4218
 4353SOL     OW24694   0.504   2.049   3.325  0.3260  0.3003 -0.6625
 4353SOL    HW124695   0.587   2.017   3.289  0.8466 -0.5825  1.3181
 4353SOL    HW224696   0.519   2.048   3.420 -0.1041  2.3435 -0.5732
 4354SOL     OW24697   0.280   0.510  12.734  0.5744  0.2418  0.7845
 4354SOL    HW124698   0.212   0.465  12.685  2.3911 -1.1251 -0.5081
 4354SOL    HW224699   0.345   0.537  12.669 -1.2327 -1.0147 -1.5239
 4355SOL     OW24700   2.462   1.798   5.510 -0.2046 -0.2536  0.0115
 4355SOL    HW124701   2.517   1.750   5.572 -0.0826  0.0991  0.1784
 4355SOL    HW224702   2.403   1.832   5.577  0.4005 -0.2920  0.5665
 4356SOL     OW24703   0.591   1.700   9.087 -0.0393  0.1253 -0.1796
 4356SOL    HW124704   0.614   1.733   9.174 -1.8576  3.4150 -0.9508
 4356SOL    HW224705   0.681   1.675   9.067 -0.8074 -1.7245 -1.2288
 4357SOL     OW24706   1.307   1.854   2.387  0.0717  0.6154  0.0631
 4357SOL    HW124707   1.307   1.834   2.294  1.2961  2.7627 -0.4086
 4357SOL    HW224708   1.328   1.948   2.385  0.5043  0.5032 -0.5505
 4358SOL     OW24709   1.820   4.490   8.549 -0.7934  0.0287  1.1202
 4358SOL    HW124710   1.739   4.542   8.544 -1.0986 -0.2981  2.8142
 4358SOL    HW224711   1.836   4.457   8.461 -0.5480  0.9946  0.8022
 4359SOL     OW24712   4.389   3.173  10.653  0.2850 -0.8387 -0.1737
 4359SOL    HW124713   4.375   3.091  10.606 -1.4585 -0.4836 -0.2722
 4359SOL    HW224714   4.457   3.214  10.599  0.1635 -2.6352 -1.6955
 4360SOL     OW24715   3.962   4.669   9.477 -0.0549  0.4493  0.1493
 4360SOL    HW124716   4.020   4.720   9.534  1.8559 -1.8081  0.2309
 4360SOL    HW224717   3.906   4.626   9.542 -0.0460 -0.6628 -0.5894
 4361SOL     OW24718   0.092   2.751   4.134  0.3801 -0.7648 -0.4397
 4361SOL    HW124719   0.047   2.730   4.052  2.3722  0.4736 -1.8423
 4361SOL    HW224720   0.050   2.830   4.170  1.7789 -0.2907  0.1518
 4362SOL     OW24721   3.021   0.362   0.994 -0.3713 -0.1644  0.1822
 4362SOL    HW124722   3.078   0.370   0.917 -1.4190  0.4136 -0.5346
 4362SOL    HW224723   3.018   0.266   1.003  0.0939 -0.3678 -1.7724
 4363SOL     OW24724   2.633   0.392  15.055  0.2874 -0.0052 -0.6170
 4363SOL    HW124725   2.642   0.484  15.081  1.9577 -0.4355  0.3287
 4363SOL    HW224726   2.618   0.401  14.961  1.5358  1.1382 -0.7095
 4364SOL     OW24727   4.368   0.130  16.188 -0.2329  0.2177  0.2739
 4364SOL    HW124728   4.279   0.133  16.153 -0.5690 -4.1183  0.7405
 4364SOL    HW224729   4.369   0.203  16.251  1.0313  1.6468 -1.4019
 4365SOL     OW24730   2.178   2.949   8.498  0.0241  0.6833 -0.2007
 4365SOL    HW124731   2.172   3.021   8.436 -2.0045  0.6787  0.0085
 4365SOL    HW224732   2.136   2.881   8.445  2.7010 -0.2228 -1.1471
 4366SOL     OW24733   0.064   3.274   2.762 -0.1760  0.1121  0.5029
 4366SOL    HW124734   0.119   3.342   2.724 -1.0776  1.1764  1.1240
 4366SOL    HW224735   0.124   3.199   2.756  1.6082  1.4655  1.5343
 4367SOL     OW24736   2.260   3.043   2.959 -0.3912 -0.0482 -0.8607
 4367SOL    HW124737   2.323   3.088   3.015 -1.5624  2.3291 -1.4782
 4367SOL    HW224738   2.307   2.962   2.937  0.1174  0.1128 -0.3559
 4368SOL     OW24739   3.980   3.044   3.411 -0.4343  0.4779 -0.8092
 4368SOL    HW124740   3.900   2.999   3.385  0.7544 -1.1186 -1.6912
 4368SOL    HW224741   4.036   2.971   3.438 -1.0614 -0.1849 -1.3192
 4369SOL     OW24742   0.379   1.791   0.663  0.2967  0.1271  0.2837
 4369SOL    HW124743   0.449   1.757   0.608 -2.0914  1.1489 -3.4511
 4369SOL    HW224744   0.426   1.866   0.699  1.0413  0.0166 -0.4546
 4370SOL     OW24745   1.425   0.903   2.340  0.2468 -0.6417 -0.2820
 4370SOL    HW124746   1.356   0.836   2.330 -0.5465 -0.2188  2.4721
 4370SOL    HW224747   1.375   0.981   2.364  3.4872  0.8742  1.4297
 4371SOL     OW24748   0.171   1.847   6.596  0.3373 -0.2430  0.0017
 4371SOL    HW124749   0.168   1.783   6.526  1.5733 -0.6932  0.3524
 4371SOL    HW224750   0.247   1.900   6.570  1.1783 -0.6912  1.5045
 4372SOL     OW24751   0.037   1.163   6.856 -0.1327  0.1365 -0.1553
 4372SOL    HW124752   0.044   1.251   6.819 -0.9412 -0.1683 -1.0549
 4372SOL    HW224753   0.067   1.106   6.785 -1.0121  0.4526 -0.7732
 4373SOL     OW24754   2.268   2.089   9.123 -0.0470  0.0518 -0.0865
 4373SOL    HW124755   2.260   2.094   9.028  1.0909 -2.8149 -0.3255
 4373SOL    HW224756   2.246   2.180   9.143 -1.7928  0.4774 -3.9086
 4374SOL     OW24757   1.551   4.479   3.269  0.1532 -0.6664  0.2670
 4374SOL    HW124758   1.502   4.418   3.324 -0.2065  1.4130  2.2328
 4374SOL    HW224759   1.511   4.554   3.313  1.0736 -0.2481  0.3752
 4375SOL     OW24760   1.027   4.426   4.881  0.0281  0.4468 -0.5538
 4375SOL    HW124761   0.973   4.376   4.942  0.9163  2.1572  1.6198
 4375SOL    HW224762   1.098   4.363   4.869  0.1201  0.2820  0.8413
 4376SOL     OW24763   1.239   1.004   5.484 -0.1507 -0.2473 -0.3957
 4376SOL    HW124764   1.235   0.987   5.390 -0.8918  2.9028 -0.9395
 4376SOL    HW224765   1.181   0.933   5.513 -2.0240  0.9304 -1.2704
 4377SOL     OW24766   0.344   3.034   3.359 -0.2170  0.0394  0.0107
 4377SOL    HW124767   0.378   3.049   3.271  1.0192 -0.4728  0.4099
 4377SOL    HW224768   0.396   3.100   3.404  1.2078 -0.7551 -0.4974
 4378SOL     OW24769   1.272   2.626   1.382  0.4897 -0.1849 -0.0663
 4378SOL    HW124770   1.246   2.715   1.407 -0.9035 -1.1750  2.0190
 4378SOL    HW224771   1.198   2.580   1.421 -0.2561  0.0160 -1.2575
 4379SOL     OW24772   4.069   0.693   4.242 -0.2013 -0.7979 -0.2282
 4379SOL    HW124773   4.013   0.718   4.168 -0.3765 -0.8679 -0.1175
 4379SOL    HW224774   4.049   0.761   4.305  0.0947 -0.4416 -0.5168
 4380SOL     OW24775   3.499   0.550   7.756  0.5859  0.6002 -0.1294
 4380SOL    HW124776   3.546   0.470   7.733 -0.0287 -0.2686  1.6442
 4380SOL    HW224777   3.476   0.593   7.674  0.4813 -0.6204 -0.7407
 4381SOL     OW24778   0.083   3.913   6.679 -0.7076  0.6516 -0.1121
 4381SOL    HW124779   0.167   3.872   6.701 -0.5193  1.3768  0.5225
 4381SOL    HW224780   0.103   3.969   6.604 -0.6327  0.8726  0.0740
 4382SOL     OW24781   0.098   4.095  16.715 -0.0154 -0.2544  0.0788
 4382SOL    HW124782   0.164   4.100  16.784 -1.5791  0.2630  1.5242
 4382SOL    HW224783   0.066   4.185  16.711  0.4102 -0.0039  2.4790
 4383SOL     OW24784   3.308   3.394   6.697 -0.0555 -0.4837 -0.9408
 4383SOL    HW124785   3.251   3.325   6.661 -0.5085 -1.3363  1.4253
 4383SOL    HW224786   3.385   3.386   6.640 -0.7001  0.3148 -1.9269
 4384SOL     OW24787   3.712   1.698   6.943  0.3896 -0.2499 -0.6356
 4384SOL    HW124788   3.679   1.610   6.927  0.2775  0.2111 -2.9588
 4384SOL    HW224789   3.630   1.745   6.927 -0.0088 -0.5710  0.5136
 4385SOL     OW24790   1.929   0.169   3.583 -0.3096 -0.5116 -0.0865
 4385SOL    HW124791   1.903   0.149   3.494  1.4618  1.8317 -1.1426
 4385SOL    HW224792   2.004   0.110   3.582  0.2240  0.1952 -1.4204
 4386SOL     OW24793   3.422   0.518   6.326  0.6114 -0.3201  0.2593
 4386SOL    HW124794   3.473   0.600   6.325  0.2505 -0.1116 -0.9757
 4386SOL    HW224795   3.439   0.491   6.236 -1.5100  0.1780 -0.2893
 4387SOL     OW24796   0.311   0.891   1.185  0.8309  0.4097  0.4270
 4387SOL    HW124797   0.223   0.867   1.216  0.9166 -0.8321 -0.2947
 4387SOL    HW224798   0.345   0.924   1.268 -1.3491  0.5442  1.2683
 4388SOL     OW24799   2.414   2.237   7.567  0.3579 -0.3059 -0.1987
 4388SOL    HW124800   2.415   2.153   7.520 -2.0070 -0.9212  0.8559
 4388SOL    HW224801   2.503   2.268   7.551  0.0851  0.9892  0.8100
 4389SOL     OW24802   3.798   0.221  14.794 -0.3852  0.2313  0.8492
 4389SOL    HW124803   3.728   0.205  14.731  1.1317 -1.9483 -0.2805
 4389SOL    HW224804   3.782   0.311  14.820 -2.0519  0.0264  0.4938
 4390SOL     OW24805   3.928   2.771   4.885 -0.1218 -0.3768 -0.1567
 4390SOL    HW124806   4.017   2.784   4.917 -0.1889  0.3371 -0.2775
 4390SOL    HW224807   3.927   2.804   4.796  1.0075  1.7186  0.5955
 4391SOL     OW24808   0.695   0.337   3.600 -0.0147  0.0164 -0.0797
 4391SOL    HW124809   0.737   0.272   3.545 -0.0499  1.0594 -1.3378
 4391SOL    HW224810   0.660   0.389   3.528 -1.1256  2.3727  2.1497
 4392SOL     OW24811   1.504   4.621   8.130 -0.1900 -0.1155 -0.1758
 4392SOL    HW124812   1.422   4.641   8.085  0.0188 -1.8339 -1.3085
 4392SOL    HW224813   1.478   4.622   8.222 -4.5124  0.1748 -1.4264
 4393SOL     OW24814   1.063   0.048  15.289 -0.2298  0.4751 -0.9855
 4393SOL    HW124815   1.045   0.120  15.349  1.3328 -0.3016  0.4275
 4393SOL    HW224816   0.992   0.053  15.225 -2.5657 -1.1591  1.5007
 4394SOL     OW24817   4.575   2.817   3.958  0.3281 -0.2376 -0.1117
 4394SOL    HW124818   4.523   2.772   4.025 -0.8032 -0.3032 -1.0479
 4394SOL    HW224819   4.576   2.754   3.886 -1.4142  0.2404 -0.5472
 4395SOL     OW24820   0.984   4.655   4.450 -0.4778  0.5544  0.7284
 4395SOL    HW124821   0.906   4.704   4.477 -0.3033  2.5653 -2.3293
 4395SOL    HW224822   1.021   4.635   4.535 -0.7983  1.3386  1.0562
 4396SOL     OW24823   0.209   0.782   6.144 -0.2720  0.3752  0.1679
 4396SOL    HW124824   0.240   0.698   6.178 -0.0835 -0.2155 -1.4660
 4396SOL    HW224825   0.263   0.785   6.065 -1.2947 -0.0954 -0.5546
 4397SOL     OW24826   1.784   0.075   7.464 -0.2342  0.2192  0.3303
 4397SOL    HW124827   1.850   0.116   7.408 -1.2958  0.8974 -0.4225
 4397SOL    HW224828   1.712   0.056   7.403 -1.7288 -1.1776  2.5496
 4398SOL     OW24829   1.253   1.125  15.654  0.2834  0.0704 -0.3534
 4398SOL    HW124830   1.167   1.156  15.682 -0.1763 -1.0987 -0.4857
 4398SOL    HW224831   1.246   1.031  15.670  1.1056 -0.4207 -2.9012
 4399SOL     OW24832   2.714   2.708  13.949 -0.0884 -0.1358  0.0828
 4399SOL    HW124833   2.661   2.674  13.877 -0.7771  0.6321  0.2353
 4399SOL    HW224834   2.648   2.692  14.016 -0.5677 -0.2328 -0.4127
 4400SOL     OW24835   2.515   1.928   4.075  0.2399  0.3046 -0.0766
 4400SOL    HW124836   2.535   1.901   4.165  1.7424  2.4111  0.2189
 4400SOL    HW224837   2.463   2.005   4.097  1.5652  0.8675  1.0578
 4401SOL     OW24838   3.582   2.527   2.351  0.6898 -0.2745  0.1263
 4401SOL    HW124839   3.677   2.519   2.353  0.7944  0.1330 -2.7460
 4401SOL    HW224840   3.560   2.467   2.279  2.0364 -1.8241  1.0026
 4402SOL     OW24841   2.941   4.208   4.855 -0.1552  0.1471  0.3452
 4402SOL    HW124842   2.883   4.282   4.873  1.7147  1.6449  0.1817
 4402SOL    HW224843   2.912   4.147   4.922 -0.6515 -1.3844 -1.2569
 4403SOL     OW24844   0.354   1.229   4.320 -0.4401  0.2858  0.4007
 4403SOL    HW124845   0.331   1.144   4.283  0.1515  0.4987 -0.4719
 4403SOL    HW224846   0.449   1.223   4.319 -0.5434 -0.6493 -3.1649
 4404SOL     OW24847   1.302   1.359   6.283  0.5445  0.1272 -0.7982
 4404SOL    HW124848   1.380   1.319   6.322 -0.0608  0.2551  0.5506
 4404SOL    HW224849   1.307   1.446   6.323  3.9268  0.2046 -1.3700
 4405SOL     OW24850   3.278   3.937   7.245  0.0069  0.1574  0.7158
 4405SOL    HW124851   3.188   3.919   7.220  0.9168 -1.5502 -1.3337
 4405SOL    HW224852   3.273   3.916   7.338 -1.1046 -1.6019  0.2568
 4406SOL     OW24853   1.438   3.381   8.588 -0.0666  0.2167 -0.4855
 4406SOL    HW124854   1.481   3.442   8.647  1.0669  0.1244 -1.2057
 4406SOL    HW224855   1.503   3.380   8.517 -0.8385 -3.7269 -1.1497
 4407SOL     OW24856   2.592   3.575   7.997 -0.1508  0.1316 -0.0592
 4407SOL    HW124857   2.572   3.576   8.091  0.7979 -0.0672  0.1349
 4407SOL    HW224858   2.664   3.513   7.993  0.1326  0.3669  1.4993
 4408SOL     OW24859   3.503   3.898  14.848  0.4768 -0.6678  0.2687
 4408SOL    HW124860   3.427   3.872  14.900  0.1751 -3.1291 -1.3757
 4408SOL    HW224861   3.570   3.887  14.915  0.7143  1.2112  0.3182
 4409SOL     OW24862   4.227   1.164   2.448  0.5371  0.3167  0.0256
 4409SOL    HW124863   4.152   1.162   2.506 -1.7807 -0.3307 -2.9752
 4409SOL    HW224864   4.236   1.070   2.430 -0.5470 -0.2239  2.3366
 4410SOL     OW24865   1.162   3.822   6.449  0.4634  0.0145 -0.0409
 4410SOL    HW124866   1.204   3.816   6.534 -0.0463 -2.2255  0.0785
 4410SOL    HW224867   1.226   3.840   6.380  0.0258  2.4202  0.1980
 4411SOL     OW24868   3.491   2.390   7.739 -0.9496 -0.0845  0.0058
 4411SOL    HW124869   3.462   2.321   7.679 -2.1587  0.0350  0.4608
 4411SOL    HW224870   3.548   2.335   7.793  1.4782 -0.1361 -2.5734
 4412SOL     OW24871   3.093   3.484   0.650  0.5443 -0.0178 -0.4166
 4412SOL    HW124872   3.044   3.479   0.732 -0.2406 -0.6859 -0.9307
 4412SOL    HW224873   3.117   3.394   0.630  1.1501  0.4073 -1.5638
 4413SOL     OW24874   4.330   1.222   7.848  0.3879 -0.1530  0.3452
 4413SOL    HW124875   4.383   1.150   7.883  0.2490 -1.0727 -1.3361
 4413SOL    HW224876   4.244   1.181   7.841  0.0019  0.8656 -0.9430
 4414SOL     OW24877   2.605   1.935   3.035 -0.3273 -0.2134 -0.6707
 4414SOL    HW124878   2.616   1.903   3.125  2.9785  1.4697 -0.4985
 4414SOL    HW224879   2.537   1.998   3.059  2.0488  1.9877  0.2032
 4415SOL     OW24880   4.610   2.648   6.336  0.0832  0.0788  0.0729
 4415SOL    HW124881   4.540   2.583   6.329 -0.2964  0.3652  1.3184
 4415SOL    HW224882   4.581   2.720   6.279  1.4529  0.2338 -0.4223
 4416SOL     OW24883   1.396   3.335   8.958  0.4310  0.1380 -0.4739
 4416SOL    HW124884   1.469   3.388   8.925  0.5762  0.4579  0.3531
 4416SOL    HW224885   1.351   3.411   8.995  0.1641  0.2925 -1.1185
 4417SOL     OW24886   1.029   0.674   3.391 -0.0886  0.1708  0.0360
 4417SOL    HW124887   0.989   0.600   3.346  0.5013  0.4866 -0.9875
 4417SOL    HW224888   0.958   0.710   3.445 -0.8301 -0.9096 -0.2269
 4418SOL     OW24889   2.830   3.801  17.740  0.0247  0.5684  0.0761
 4418SOL    HW124890   2.919   3.833  17.725  0.3096  0.2184  1.0455
 4418SOL    HW224891   2.775   3.857  17.685 -0.6666 -1.3752 -1.2448
 4419SOL     OW24892   3.523   1.499  12.317 -0.5025 -1.1138  0.4798
 4419SOL    HW124893   3.556   1.579  12.276  0.0141 -1.2049  0.7193
 4419SOL    HW224894   3.463   1.479  12.245 -1.6736 -1.0072  1.4229
 4420SOL     OW24895   4.435   2.001  17.060  0.1886 -0.5098  0.2686
 4420SOL    HW124896   4.488   1.999  16.980 -0.8696 -1.7267 -0.4270
 4420SOL    HW224897   4.386   1.918  17.053 -1.6740  0.6422 -0.5901
 4421SOL     OW24898   3.102   2.074   8.439 -0.2253 -0.4068 -0.0884
 4421SOL    HW124899   3.115   2.163   8.472 -1.5348 -0.5242  0.7508
 4421SOL    HW224900   3.069   2.042   8.523 -0.4621  0.7349  0.2535
 4422SOL     OW24901   4.703   4.317   9.698 -0.2145 -0.1480  0.2574
 4422SOL    HW124902   4.620   4.363   9.707  0.2394  0.3364  1.9574
 4422SOL    HW224903   4.683   4.248   9.635 -0.3846  1.9343 -1.9424
 4423SOL     OW24904   1.921   2.754  17.041 -0.5538 -0.8881 -0.3740
 4423SOL    HW124905   1.861   2.828  17.031  0.7167 -0.2245 -3.0182
 4423SOL    HW224906   1.962   2.744  16.956  1.5631  0.9400  0.4449
 4424SOL     OW24907   3.999   0.502   8.512 -0.0320 -0.2248  0.1532
 4424SOL    HW124908   4.062   0.528   8.444  0.7342  2.8297  2.0071
 4424SOL    HW224909   4.031   0.415   8.535 -1.4483 -0.4049  1.4598
 4425SOL     OW24910   3.995   4.700   5.756 -0.1442  0.1809 -0.0668
 4425SOL    HW124911   3.909   4.721   5.791 -0.2961  0.5477 -0.6503
 4425SOL    HW224912   4.052   4.719   5.830  2.4172 -2.0280 -1.4795
 4426SOL     OW24913   3.667   1.958   7.235 -0.2531  0.4625 -0.1481
 4426SOL    HW124914   3.591   1.911   7.202  0.3285 -0.6311  0.0795
 4426SOL    HW224915   3.716   1.982   7.156  0.9361 -0.3127  0.3562
 4427SOL     OW24916   3.472   1.128   6.009 -0.4159 -0.1618 -0.1240
 4427SOL    HW124917   3.455   1.036   6.031 -0.4691 -0.0337  0.3642
 4427SOL    HW224918   3.536   1.105   5.941 -1.4186 -0.8175 -0.8456
 4428SOL     OW24919   4.661   3.991   2.963  1.1200 -0.6050  0.6132
 4428SOL    HW124920   0.002   4.016   3.010  0.4575  0.8751  0.9538
 4428SOL    HW224921   4.608   3.955   3.034 -1.9416 -2.2732 -2.5050
 4429SOL     OW24922   1.096   0.779   5.538  0.0664  0.5020 -0.2967
 4429SOL    HW124923   1.107   0.727   5.618 -1.9579  0.4406 -0.0684
 4429SOL    HW224924   1.076   0.701   5.485 -0.2862 -0.4403  1.2278
 4430SOL     OW24925   0.479   0.637   4.747 -1.0897 -0.0126  0.0924
 4430SOL    HW124926   0.503   0.622   4.656 -2.6680 -0.3727 -0.2759
 4430SOL    HW224927   0.383   0.635   4.749 -1.0740 -1.5728 -1.0961
 4431SOL     OW24928   1.803   1.378   7.846 -0.0322  0.6697 -0.0448
 4431SOL    HW124929   1.815   1.388   7.940  1.4723  2.0141 -0.3661
 4431SOL    HW224930   1.808   1.282   7.849 -0.6525  0.7084  2.3869
 4432SOL     OW24931   1.260   3.174  11.266 -0.4894  0.0881  0.0534
 4432SOL    HW124932   1.297   3.196  11.351 -2.3177 -1.6173  1.2751
 4432SOL    HW224933   1.344   3.164  11.221 -0.4041 -0.5545  0.3478
 4433SOL     OW24934   4.377   3.364   3.731  0.9644 -0.2208  0.3680
 4433SOL    HW124935   4.306   3.306   3.759  0.0101  1.6675  1.8127
 4433SOL    HW224936   4.342   3.453   3.735  1.4916 -0.0120  0.3572
 4434SOL     OW24937   3.375   1.256  11.009 -1.0260  0.2096 -0.2724
 4434SOL    HW124938   3.414   1.320  10.950  2.7306  0.6590  2.7077
 4434SOL    HW224939   3.338   1.317  11.072 -0.3108 -0.9504  1.2680
 4435SOL     OW24940   2.202   3.498  10.815 -0.9506 -0.0687  0.0784
 4435SOL    HW124941   2.165   3.427  10.764 -0.9503  0.8436 -1.2040
 4435SOL    HW224942   2.167   3.577  10.774 -0.5583 -0.0472 -0.2095
 4436SOL     OW24943   4.319   0.585   5.915  0.1140 -0.3531  0.8709
 4436SOL    HW124944   4.274   0.659   5.875  2.5255  0.6028 -0.0712
 4436SOL    HW224945   4.405   0.593   5.874  0.0246  1.0101  0.9536
 4437SOL     OW24946   2.564   0.198   5.297 -0.5618 -0.4417  0.1413
 4437SOL    HW124947   2.615   0.187   5.377  1.3578  3.8427 -0.4886
 4437SOL    HW224948   2.514   0.278   5.316 -1.8894 -0.9644 -1.0936
 4438SOL     OW24949   2.107   1.659  13.654 -0.0011 -0.4181 -0.6613
 4438SOL    HW124950   2.145   1.740  13.619 -0.1342 -0.8888 -1.8682
 4438SOL    HW224951   2.017   1.688  13.665  0.2102  0.0561 -0.1659
 4439SOL     OW24952   4.240   2.040   4.703  0.5150 -0.2730  0.3828
 4439SOL    HW124953   4.266   2.036   4.611 -1.9115 -2.5890 -0.2164
 4439SOL    HW224954   4.255   2.131   4.726  0.6547  0.0385 -0.9122
 4440SOL     OW24955   2.200   2.697   5.862  0.3660 -0.7670 -0.1881
 4440SOL    HW124956   2.212   2.792   5.861  0.6120 -0.8099 -1.6732
 4440SOL    HW224957   2.121   2.703   5.807  0.2700 -1.2539 -0.0986
 4441SOL     OW24958   3.829   0.702   6.990 -0.2566  0.3066 -0.0273
 4441SOL    HW124959   3.809   0.610   7.008 -1.5869  0.4819 -0.6106
 4441SOL    HW224960   3.879   0.697   6.909 -2.0400 -1.2488 -1.0323
 4442SOL     OW24961   4.391   3.778   8.505  0.2990 -0.2108  0.3942
 4442SOL    HW124962   4.295   3.789   8.505 -0.1406 -4.1923  2.3968
 4442SOL    HW224963   4.399   3.697   8.555  1.0862  0.3210  1.1153
 4443SOL     OW24964   2.305   0.645   8.948 -0.1304 -0.4711 -0.2993
 4443SOL    HW124965   2.321   0.738   8.961 -2.6418 -0.0754 -0.0466
 4443SOL    HW224966   2.268   0.633   9.036  1.3142  1.7959  0.6247
 4444SOL     OW24967   0.747   4.392   7.714  0.5575  0.3232  0.2785
 4444SOL    HW124968   0.690   4.465   7.736 -0.9879 -0.4339 -1.1485
 4444SOL    HW224969   0.692   4.316   7.696  0.6845 -0.0387  1.4044
 4445SOL     OW24970   0.084   2.197  16.775 -0.3577  0.2336 -0.2641
 4445SOL    HW124971   0.151   2.202  16.843 -2.6841 -1.5584  2.1593
 4445SOL    HW224972   0.103   2.263  16.708  2.4484 -1.0024 -0.6586
 4446SOL     OW24973   1.032   2.118   6.758  0.3417 -0.0251  0.6232
 4446SOL    HW124974   1.053   2.024   6.753 -2.5735 -0.4661 -3.5280
 4446SOL    HW224975   0.964   2.125   6.825 -2.7894  0.8014 -2.6479
 4447SOL     OW24976   3.213   2.422  16.368 -0.0535  0.2196 -0.0575
 4447SOL    HW124977   3.121   2.422  16.394  0.1512  1.4123  0.6682
 4447SOL    HW224978   3.208   2.375  16.285  0.8828 -1.2020  0.6825
 4448SOL     OW24979   4.181   4.666  15.122 -0.3237  0.1053  0.6725
 4448SOL    HW124980   4.218   4.635  15.039  0.7814  0.5396  1.0037
 4448SOL    HW224981   4.144   0.013  15.097 -0.6557 -1.1505 -3.0788
 4449SOL     OW24982   2.549   1.592   1.419  0.2290  0.7881  0.5998
 4449SOL    HW124983   2.487   1.519   1.415  1.6983 -0.4118 -0.4350
 4449SOL    HW224984   2.491   1.655   1.376 -1.5776  0.5640  2.6946
 4450SOL     OW24985   1.527   4.531   5.839  0.0764  0.0979  0.2705
 4450SOL    HW124986   1.517   4.461   5.775  0.3430  0.2487  0.0617
 4450SOL    HW224987   1.455   4.591   5.823 -0.6127 -0.5396  0.9910
 4451SOL     OW24988   2.770   0.076  12.203 -0.1307  0.7565 -0.2532
 4451SOL    HW124989   2.850   0.029  12.182  0.0057  1.2823 -0.8978
 4451SOL    HW224990   2.770   0.149  12.142  3.2840  2.0533  1.3432
 4452SOL     OW24991   2.559   3.667   3.482 -0.0517  0.1032 -0.5213
 4452SOL    HW124992   2.533   3.756   3.506  1.6248  0.5352 -0.3203
 4452SOL    HW224993   2.473   3.632   3.504  0.3176 -0.5241 -0.0647
 4453SOL     OW24994   1.052   2.813   6.842 -0.0142  0.3468 -0.0361
 4453SOL    HW124995   1.017   2.733   6.881  1.7825 -1.0643 -1.3434
 4453SOL    HW224996   1.115   2.833   6.910  0.1507  0.5182 -0.2377
 4454SOL     OW24997   2.934   2.829  14.029  0.2844  0.2729 -0.1667
 4454SOL    HW124998   2.979   2.745  14.038 -0.3725  0.2330  2.6676
 4454SOL    HW224999   2.846   2.806  13.999 -0.2700  0.8358  1.0279
 4455SOL     OW25000   3.832   4.406   2.761 -0.2493  0.6486 -0.0358
 4455SOL    HW125001   3.768   4.334   2.758  0.4180  0.0757 -0.5265
 4455SOL    HW225002   3.810   4.449   2.844  1.1357 -0.1238  0.7543
 4456SOL     OW25003   1.449   0.166   3.199 -0.2018  0.2409 -0.3221
 4456SOL    HW125004   1.448   0.092   3.260  2.0332 -0.3977 -1.0617
 4456SOL    HW225005   1.500   0.225   3.255  2.7788 -1.4894 -1.2281
 4457SOL     OW25006   0.191   4.034   6.462  0.0501 -0.7690  0.4684
 4457SOL    HW125007   0.181   4.124   6.491 -0.1871 -0.7457  0.3189
 4457SOL    HW225008   0.245   4.043   6.383  1.2869 -1.1031  1.2760
 4458SOL     OW25009   4.318   4.597   8.876  0.1235 -0.3915 -0.2756
 4458SOL    HW125010   4.232   4.623   8.909  0.2710  0.2226 -0.3707
 4458SOL    HW225011   4.296   4.538   8.804  0.8782 -0.8085 -0.1625
 4459SOL     OW25012   0.602   3.931  16.659  0.4548 -0.2157 -0.0356
 4459SOL    HW125013   0.635   3.843  16.680  1.4361  0.1324 -0.1387
 4459SOL    HW225014   0.596   3.959  16.750 -3.5026 -0.3950 -0.2567
 4460SOL     OW25015   4.376   1.740   0.713  0.5838  0.0645 -0.1713
 4460SOL    HW125016   4.308   1.673   0.700 -1.1541  1.7761  0.1416
 4460SOL    HW225017   4.435   1.706   0.646  1.6444 -0.0451  0.8058
 4461SOL     OW25018   1.753   2.018   6.183 -0.1572  0.3190  0.5354
 4461SOL    HW125019   1.759   1.936   6.134  1.3734 -0.1802  1.5660
 4461SOL    HW225020   1.763   2.085   6.115  0.4867  0.7216  1.0265
 4462SOL     OW25021   1.873   3.533   3.091  0.2473 -0.1354  0.3414
 4462SOL    HW125022   1.935   3.468   3.059  0.2141 -0.0868  0.1730
 4462SOL    HW225023   1.836   3.496   3.171  1.6916 -1.2772  0.4732
 4463SOL     OW25024   4.285   3.578   2.921 -0.2605 -0.2203  0.0879
 4463SOL    HW125025   4.330   3.647   2.873 -0.0362 -0.3343  0.1295
 4463SOL    HW225026   4.357   3.520   2.948  0.2697 -0.5337 -2.0153
 4464SOL     OW25027   4.179   3.262   7.814  0.1829  0.1134  0.1455
 4464SOL    HW125028   4.162   3.345   7.858  1.5736 -0.1364  1.1835
 4464SOL    HW225029   4.236   3.222   7.880  0.5690 -0.3634 -0.4640
 4465SOL     OW25030   4.141   3.992   9.334  0.6205 -0.2789  0.0406
 4465SOL    HW125031   4.086   3.976   9.258 -0.3752  0.3678  0.6307
 4465SOL    HW225032   4.220   3.943   9.310  1.3107 -0.3809  2.5594
 4466SOL     OW25033   3.476   0.271   1.858 -0.5362 -0.2921 -0.2936
 4466SOL    HW125034   3.486   0.365   1.874 -1.3390 -0.2542 -0.0422
 4466SOL    HW225035   3.544   0.245   1.921 -1.0745  2.5852  1.4744
 4467SOL     OW25036   4.718   2.020  10.851 -0.1164 -0.9065 -0.5433
 4467SOL    HW125037   4.703   2.067  10.769  3.0062  0.5340 -0.2672
 4467SOL    HW225038   0.009   1.934  10.821 -0.4246 -1.4957  0.8873
 4468SOL     OW25039   1.201   0.043   3.477 -0.3354  0.3938  0.4454
 4468SOL    HW125040   1.207   0.070   3.568  1.1561 -0.0731  0.4906
 4468SOL    HW225041   1.190   0.130   3.439 -1.1103  0.4529  0.8246
 4469SOL     OW25042   2.683   1.391   8.997  0.0910 -0.3878  0.3588
 4469SOL    HW125043   2.626   1.334   9.049  0.9264  0.0337  1.7297
 4469SOL    HW225044   2.622   1.460   8.972  0.3002 -0.7216 -1.0457
 4470SOL     OW25045   4.318   0.872   3.442 -0.1856 -0.9562  0.3802
 4470SOL    HW125046   4.362   0.954   3.465  2.2115 -1.9675 -0.5277
 4470SOL    HW225047   4.225   0.892   3.437  0.6528  2.9026  0.2217
 4471SOL     OW25048   0.473   0.990   2.734 -0.0413 -0.2873  0.3869
 4471SOL    HW125049   0.379   0.986   2.754 -0.5056  2.2630 -1.2798
 4471SOL    HW225050   0.467   0.989   2.638 -3.0144 -1.0924  0.5851
 4472SOL     OW25051   3.783   3.321   3.443 -0.0147 -0.0406  0.3685
 4472SOL    HW125052   3.774   3.238   3.491  0.2242 -1.4102 -1.9337
 4472SOL    HW225053   3.868   3.354   3.471 -0.7091 -0.4525  2.9049
 4473SOL     OW25054   1.621   1.511   4.452 -0.1916 -0.4458 -0.3772
 4473SOL    HW125055   1.530   1.538   4.439  0.5887  2.2416 -0.1122
 4473SOL    HW225056   1.666   1.590   4.481  2.1764 -1.7459 -0.4941
 4474SOL     OW25057   0.262   4.120   8.982 -0.2120 -0.1495  0.3293
 4474SOL    HW125058   0.229   4.085   9.065  0.4555  1.7997  1.3974
 4474SOL    HW225059   0.224   4.057   8.920  0.4613 -0.4326  0.2065
 4475SOL     OW25060   3.160   3.986   3.290  0.0213  0.4182 -0.1500
 4475SOL    HW125061   3.116   4.069   3.307  0.5853  1.0216 -1.5722
 4475SOL    HW225062   3.155   3.942   3.375  0.5381  0.2159 -0.2178
 4476SOL     OW25063   2.334   3.506   8.166  0.2204 -0.1600  0.1013
 4476SOL    HW125064   2.268   3.539   8.105 -1.3683 -4.7799 -0.6925
 4476SOL    HW225065   2.314   3.413   8.156  1.1093 -0.2076 -1.2130
 4477SOL     OW25066   2.685   2.989   4.730  0.0226  0.7268 -0.1875
 4477SOL    HW125067   2.730   3.035   4.659  0.1329  0.6118 -0.1923
 4477SOL    HW225068   2.753   2.986   4.798 -3.0334 -0.0081  2.8042
 4478SOL     OW25069   1.578   0.213   6.450 -0.1935  0.3850 -0.1574
 4478SOL    HW125070   1.543   0.242   6.535 -0.8945 -0.8718 -0.0213
 4478SOL    HW225071   1.531   0.130   6.449 -0.3296  0.4446  0.6176
 4479SOL     OW25072   2.669   0.828   8.743 -0.7527 -0.0427  0.2000
 4479SOL    HW125073   2.619   0.746   8.739 -1.5456  0.4374  0.3202
 4479SOL    HW225074   2.655   0.848   8.651 -1.5041 -1.4497  0.0175
 4480SOL     OW25075   3.832   2.982   0.672  0.0304 -0.4987 -0.2956
 4480SOL    HW125076   3.862   2.959   0.760  0.7812 -0.0619 -0.4404
 4480SOL    HW225077   3.760   2.920   0.661  0.4401 -0.8705 -0.8822
 4481SOL     OW25078   3.255   0.295   3.184  0.0661  0.3050 -0.4614
 4481SOL    HW125079   3.349   0.280   3.194  0.2104  0.8121 -1.1073
 4481SOL    HW225080   3.236   0.221   3.127  2.0499  0.2380 -1.0307
 4482SOL     OW25081   3.501   4.312  17.387  0.6212 -0.4126 -0.0474
 4482SOL    HW125082   3.515   4.405  17.369  0.6839 -1.2722 -4.2916
 4482SOL    HW225083   3.533   4.278  17.304  0.5786  0.8146 -0.5672
 4483SOL     OW25084   4.325   2.136   8.609  0.0625 -0.8137  0.1402
 4483SOL    HW125085   4.378   2.067   8.570  0.5790 -0.0444 -0.5165
 4483SOL    HW225086   4.320   2.114   8.703  2.3414 -0.1988  0.3942
 4484SOL     OW25087   1.846   3.349   3.507  0.5346  0.5934  0.4236
 4484SOL    HW125088   1.839   3.444   3.494 -1.0394  0.1965 -1.5838
 4484SOL    HW225089   1.761   3.335   3.547  0.0222 -0.0522 -0.8996
 4485SOL     OW25090   2.335   2.802   7.324 -0.2796 -0.0601  0.6432
 4485SOL    HW125091   2.393   2.820   7.250 -0.4217 -1.4532  0.2025
 4485SOL    HW225092   2.336   2.707   7.331 -1.1407 -0.1293 -0.0130
 4486SOL     OW25093   3.569   2.732   3.349  0.1052  0.6886  0.3853
 4486SOL    HW125094   3.660   2.721   3.321  0.3589 -1.4409  2.0444
 4486SOL    HW225095   3.529   2.651   3.318  0.9049  0.9931 -1.4175
 4487SOL     OW25096   4.505   3.130  12.741 -0.1369  0.1640 -0.4980
 4487SOL    HW125097   4.573   3.194  12.763 -1.4237  1.1452  0.6868
 4487SOL    HW225098   4.455   3.180  12.677  1.7488  1.2672 -1.1092
 4488SOL     OW25099   3.279   1.535  13.072 -0.6545 -0.9972  0.0296
 4488SOL    HW125100   3.324   1.504  13.152  0.4676  3.8296  1.2752
 4488SOL    HW225101   3.343   1.514  13.004  1.5959  0.6052  1.6420
 4489SOL     OW25102   4.385   2.096   4.181 -0.3135 -0.2445  0.7133
 4489SOL    HW125103   4.414   2.110   4.091 -1.1332  0.9743  0.6350
 4489SOL    HW225104   4.452   2.141   4.231 -1.9266  1.9109  0.9471
 4490SOL     OW25105   4.527   2.324   8.335  0.5548 -0.1838 -0.0276
 4490SOL    HW125106   4.459   2.289   8.277 -0.1226 -0.3187  0.8495
 4490SOL    HW225107   4.475   2.387   8.385  0.5425 -0.2686  0.0674
 4491SOL     OW25108   2.603   0.364   1.502 -0.1221 -0.0713  0.2236
 4491SOL    HW125109   2.602   0.459   1.490  1.8460  0.0848  1.2599
 4491SOL    HW225110   2.602   0.333   1.411  0.1623 -0.3624  0.3207
 4492SOL     OW25111   0.161   3.237   5.165  0.2618  0.6358 -0.2906
 4492SOL    HW125112   0.216   3.207   5.237 -2.9055 -0.3156  1.7651
 4492SOL    HW225113   0.207   3.316   5.139  0.4235  1.2119  1.7471
 4493SOL     OW25114   0.974   0.824   6.462 -0.2224  0.2447 -0.4890
 4493SOL    HW125115   0.959   0.811   6.555  0.9390 -0.7780 -0.4471
 4493SOL    HW225116   1.061   0.786   6.448 -0.7286 -0.9979 -0.2546
 4494SOL     OW25117   2.191   3.571  11.351  0.0758  0.2746 -0.8571
 4494SOL    HW125118   2.247   3.649  11.355 -1.2700  1.2231 -0.5280
 4494SOL    HW225119   2.197   3.543  11.260  2.2635  0.9534 -0.9133
 4495SOL     OW25120   4.400   1.757   6.193  0.1662 -0.1035  0.3063
 4495SOL    HW125121   4.354   1.835   6.223 -0.8531  0.0915 -1.7811
 4495SOL    HW225122   4.490   1.790   6.192  0.2613 -0.4258 -1.8353
 4496SOL     OW25123   1.061   0.705  15.059 -0.5692  0.0872  0.5852
 4496SOL    HW125124   1.048   0.703  14.964 -0.4558  0.5601  0.5591
 4496SOL    HW225125   1.032   0.617  15.082  3.3273 -1.2344  0.3201
 4497SOL     OW25126   0.015   2.625   4.412  0.1709 -0.0596  0.9749
 4497SOL    HW125127   0.099   2.666   4.431 -0.0848  0.5769  0.7487
 4497SOL    HW225128   0.021   2.640   4.318 -1.2966  0.3719  0.9463
 4498SOL     OW25129   3.392   4.150   4.374 -0.1921  0.6543 -0.1615
 4498SOL    HW125130   3.377   4.198   4.455  0.2879  0.0276  0.3081
 4498SOL    HW225131   3.341   4.208   4.318 -1.7499 -1.2345 -0.6962
 4499SOL     OW25132   1.961   2.777   7.164 -0.0161 -0.2625  0.5771
 4499SOL    HW125133   2.014   2.699   7.178 -0.3212 -0.7023 -0.8274
 4499SOL    HW225134   1.975   2.824   7.247 -0.1946 -2.9377  2.1189
 4500SOL     OW25135   0.908   4.468   7.177  0.2527  0.0110 -0.1566
 4500SOL    HW125136   0.852   4.516   7.237  1.5054 -0.1583  1.1385
 4500SOL    HW225137   0.995   4.483   7.213  0.2351  0.2748 -0.2229
 4501SOL     OW25138   1.118   1.438   5.371 -0.5326 -0.0230 -0.2212
 4501SOL    HW125139   1.080   1.375   5.432 -0.2090  0.0051  0.0089
 4501SOL    HW225140   1.111   1.516   5.426  2.6626 -0.0661  0.2452
 4502SOL     OW25141   0.922   0.857   8.924 -0.7125 -0.0043 -0.0244
 4502SOL    HW125142   0.889   0.947   8.920  1.3638  0.7803  0.4475
 4502SOL    HW225143   0.918   0.822   8.835  1.1036 -3.4047  1.2228
 4503SOL     OW25144   3.905   4.384   6.267 -0.1234 -0.8111 -0.1864
 4503SOL    HW125145   3.897   4.289   6.273 -1.4518 -0.5772  1.7070
 4503SOL    HW225146   3.956   4.386   6.186  1.3978 -0.3861  0.7737
 4504SOL     OW25147   0.226   3.545   7.206 -0.5921  0.0282  0.0170
 4504SOL    HW125148   0.148   3.600   7.196 -0.0165  1.1355  1.5234
 4504SOL    HW225149   0.252   3.541   7.114 -1.4687  0.6753 -0.2548
 4505SOL     OW25150   1.423   0.003  15.546  0.0348 -0.0557 -0.0644
 4505SOL    HW125151   1.439   0.092  15.578 -0.3980 -0.6474  1.7888
 4505SOL    HW225152   1.417   4.695  15.630  0.7476 -0.3940 -0.2041
 4506SOL     OW25153   3.899   4.642   6.307  0.0785  0.4150  0.1448
 4506SOL    HW125154   3.919   4.550   6.291  0.3050  0.7299 -1.3962
 4506SOL    HW225155   3.989   4.669   6.324  0.5570 -2.4808  2.1409
 4507SOL     OW25156   3.062   0.543  15.231 -0.8668  0.1416  0.0778
 4507SOL    HW125157   3.009   0.491  15.292 -0.0372 -0.2461  0.4621
 4507SOL    HW225158   3.016   0.527  15.148  0.6360  0.0027 -0.7150
 4508SOL     OW25159   2.322   2.572   2.127  0.9125  0.7948 -0.1526
 4508SOL    HW125160   2.269   2.621   2.189 -1.2239  1.0161 -2.1719
 4508SOL    HW225161   2.377   2.516   2.183 -0.1854  2.2641  2.3988
 4509SOL     OW25162   2.572   3.581   4.025  0.2104 -0.1191 -0.3100
 4509SOL    HW125163   2.605   3.671   4.032  0.0887  0.0019 -1.3933
 4509SOL    HW225164   2.590   3.545   4.112 -0.6473  0.8940  0.2862
 4510SOL     OW25165   3.098   3.637   0.051  0.0040  0.1704 -0.0050
 4510SOL    HW125166   3.054   3.689   0.118 -1.1368  0.2131 -0.7934
 4510SOL    HW225167   3.170   3.698   0.037  0.5147 -0.1723  1.0774
 4511SOL     OW25168   0.226   1.075  16.439  0.1523  0.0049 -0.8947
 4511SOL    HW125169   0.215   1.155  16.387 -2.6662  0.5192  0.4948
 4511SOL    HW225170   0.141   1.036  16.418 -1.6053  1.7760  2.9589
 4512SOL     OW25171   1.101   3.864   8.533  0.1729  0.3140  0.6595
 4512SOL    HW125172   1.054   3.892   8.455  0.6274  0.3840  0.4124
 4512SOL    HW225173   1.026   3.854   8.593 -0.8559  1.1327 -0.4869
 4513SOL     OW25174   1.526   0.619   5.958 -0.6068 -0.3267 -0.5285
 4513SOL    HW125175   1.619   0.619   5.981 -0.7215 -2.4388 -0.0981
 4513SOL    HW225176   1.506   0.713   5.958  2.3533  0.2964 -1.0323
 4514SOL     OW25177   3.541   3.798  13.815 -0.2691  0.6330 -0.0286
 4514SOL    HW125178   3.515   3.711  13.785  0.0657  1.1397 -1.7871
 4514SOL    HW225179   3.465   3.824  13.867 -2.7916 -1.5652 -2.6385
 4515SOL     OW25180   1.692   2.530   8.069  0.5600 -0.7777  1.0344
 4515SOL    HW125181   1.731   2.444   8.053 -0.1229 -0.4170 -2.5677
 4515SOL    HW225182   1.640   2.523   8.149 -0.9005 -0.6797  0.0942
 4516SOL     OW25183   2.327   2.233   8.498  0.7305  0.6064  0.0688
 4516SOL    HW125184   2.366   2.162   8.447 -0.0813 -1.3747  2.2430
 4516SOL    HW225185   2.399   2.253   8.557 -1.7753 -0.2927  3.4410
 4517SOL     OW25186   3.681   1.741   2.420  0.0127 -0.5032  0.5443
 4517SOL    HW125187   3.614   1.792   2.465 -0.2682  0.5489 -1.0595
 4517SOL    HW225188   3.657   1.748   2.327 -0.6421  4.2750  1.1054
 4518SOL     OW25189   2.197   4.727   7.256 -0.0219  0.0483  0.4797
 4518SOL    HW125190   2.143   4.682   7.192  1.0877  0.1399 -0.5126
 4518SOL    HW225191   2.246   4.655   7.296 -0.2754  0.1315  0.9345
 4519SOL     OW25192   3.800   1.927   3.315  0.2612  0.2937  0.5437
 4519SOL    HW125193   3.864   1.969   3.258  0.1652  2.4602  2.0200
 4519SOL    HW225194   3.856   1.874   3.372 -0.1829 -1.2469 -0.4468
 4520SOL     OW25195   1.530   1.386   1.243  0.7958 -0.3094  0.1956
 4520SOL    HW125196   1.516   1.293   1.262  0.7778 -0.8563 -2.4558
 4520SOL    HW225197   1.438   1.412   1.231  0.7780 -1.7723 -2.8835
 4521SOL     OW25198   0.140   1.474   3.634 -0.3988  0.0973 -0.0655
 4521SOL    HW125199   0.195   1.437   3.703  0.3975  0.4558 -0.5114
 4521SOL    HW225200   0.055   1.481   3.679 -0.4108  1.6728 -0.3066
 4522SOL     OW25201   1.150   2.259   2.119  0.2013  0.1313 -0.1880
 4522SOL    HW125202   1.058   2.279   2.139 -0.5554 -4.4588  0.9259
 4522SOL    HW225203   1.201   2.336   2.145 -1.6465  1.3200 -0.0352
 4523SOL     OW25204   3.399   1.283   5.337 -0.7726 -0.0057  0.0208
 4523SOL    HW125205   3.445   1.326   5.409  0.4954  0.6722 -1.1948
 4523SOL    HW225206   3.310   1.303   5.368 -1.6226 -0.9778 -1.7577
 4524SOL     OW25207   2.306   0.339  11.641 -0.1729 -0.5831  0.3366
 4524SOL    HW125208   2.314   0.267  11.579 -2.0874  1.2160 -2.0147
 4524SOL    HW225209   2.318   0.417  11.586  0.6852 -1.6749 -1.0088
 4525SOL     OW25210   3.657   1.413   7.175  0.0673  0.1060  0.0617
 4525SOL    HW125211   3.712   1.339   7.147  0.8119  1.4312 -1.9711
 4525SOL    HW225212   3.717   1.464   7.230 -2.1418  1.6622  1.0155
 4526SOL     OW25213   4.171   3.512   5.442 -0.0468 -0.2756  0.4732
 4526SOL    HW125214   4.204   3.543   5.358  0.3319  0.6506  0.9613
 4526SOL    HW225215   4.206   3.580   5.500 -1.2621 -0.0902  1.0072
 4527SOL     OW25216   2.836   4.290   8.097 -0.5057  0.2695 -0.3393
 4527SOL    HW125217   2.786   4.275   8.177 -0.5915 -0.3651 -0.5198
 4527SOL    HW225218   2.817   4.211   8.048  0.1011 -1.3538  2.0632
 4528SOL     OW25219   1.106   4.428   4.077 -0.5162  0.3332  0.0976
 4528SOL    HW125220   1.105   4.514   4.118 -2.0024  0.2677  0.2036
 4528SOL    HW225221   1.014   4.416   4.055  0.0826  1.2741 -2.8444
 4529SOL     OW25222   1.033   2.180   0.821  0.1131 -0.5926 -0.4699
 4529SOL    HW125223   1.045   2.197   0.727  2.4086 -1.2480 -0.2870
 4529SOL    HW225224   1.098   2.245   0.848 -2.9554  2.1159  0.3965
 4530SOL     OW25225   0.362   0.855   2.959  0.3769 -0.5018  0.5504
 4530SOL    HW125226   0.270   0.852   2.932 -0.0015 -3.9628  2.2675
 4530SOL    HW225227   0.365   0.767   2.995  2.5965 -1.1121 -1.1234
 4531SOL     OW25228   0.620   2.295  15.799 -0.4829 -0.5506 -0.0362
 4531SOL    HW125229   0.697   2.302  15.856  1.2778 -0.3224 -2.4385
 4531SOL    HW225230   0.646   2.363  15.737  1.2152 -1.4252 -0.3060
 4532SOL     OW25231   2.805   2.173  11.563 -0.0789  0.3380  0.5229
 4532SOL    HW125232   2.895   2.164  11.595 -0.8178  0.6358  2.6819
 4532SOL    HW225233   2.755   2.137  11.636 -0.3349 -0.9250 -0.2827
 4533SOL     OW25234   0.152   4.509  12.424 -0.3351 -0.5685  0.1810
 4533SOL    HW125235   0.166   4.567  12.499  0.3704 -1.4920  0.7663
 4533SOL    HW225236   0.063   4.480  12.442  0.7315 -3.0270  1.5660
 4534SOL     OW25237   1.368   0.102   2.588  0.3020  0.0652 -0.3234
 4534SOL    HW125238   1.364   0.028   2.649  1.4552  0.8057  0.6435
 4534SOL    HW225239   1.292   0.141   2.631  0.7894  0.1618  0.4640
 4535SOL     OW25240   0.414   1.743  12.865  0.4074  0.0102  0.0869
 4535SOL    HW125241   0.375   1.722  12.780 -3.6688 -2.1060  2.4584
 4535SOL    HW225242   0.437   1.656  12.899  2.8345  0.2267 -0.9829
 4536SOL     OW25243   1.398   1.182   2.719  0.2444 -0.4762 -0.1780
 4536SOL    HW125244   1.349   1.104   2.690 -2.0676  0.4855  1.1230
 4536SOL    HW225245   1.477   1.189   2.666 -0.7228  2.7616 -1.1724
 4537SOL     OW25246   1.081   0.031   7.845 -0.4421 -0.3913  0.8425
 4537SOL    HW125247   1.159   0.031   7.900 -0.5529 -1.1815  1.0000
 4537SOL    HW225248   1.004   0.014   7.900 -1.1944 -2.3919 -0.7962
 4538SOL     OW25249   2.617   1.370   8.400  0.3804  0.0959  0.0214
 4538SOL    HW125250   2.706   1.393   8.425  1.5731 -2.0541 -2.2869
 4538SOL    HW225251   2.625   1.388   8.306  2.7606 -0.5706  0.1030
 4539SOL     OW25252   3.686   2.533  11.194 -0.0459  0.0688  0.3789
 4539SOL    HW125253   3.704   2.596  11.124 -0.7378  0.5745  0.6528
 4539SOL    HW225254   3.638   2.586  11.258 -1.7376 -1.4167  0.3359
 4540SOL     OW25255   4.237   3.349   4.866 -0.7999  0.4666  0.4574
 4540SOL    HW125256   4.159   3.395   4.897 -0.2559  1.9692 -0.3695
 4540SOL    HW225257   4.307   3.388   4.919  0.7773 -0.2283 -1.1205
 4541SOL     OW25258   0.347   2.414   0.943 -0.2568 -0.1607  0.8793
 4541SOL    HW125259   0.264   2.368   0.954 -0.1517 -0.7207 -0.6305
 4541SOL    HW225260   0.337   2.501   0.983 -1.3079  0.1880 -0.1466
 4542SOL     OW25261   3.059   3.604   3.883 -0.1837 -0.1483  0.4045
 4542SOL    HW125262   3.088   3.525   3.838 -0.8311  0.2269 -0.6811
 4542SOL    HW225263   3.133   3.660   3.860  1.0999 -3.1791 -2.7795
 4543SOL     OW25264   2.925   2.065  16.192 -0.3586 -0.8857  0.1096
 4543SOL    HW125265   2.833   2.051  16.172 -0.5547 -0.0865  0.4577
 4543SOL    HW225266   2.973   1.985  16.214  0.6170 -0.2733  0.2394
 4544SOL     OW25267   2.519   1.862   6.886 -1.0724 -0.2841  0.1005
 4544SOL    HW125268   2.455   1.802   6.849 -1.5262 -0.0464  0.4975
 4544SOL    HW225269   2.576   1.876   6.811 -1.8258  2.0428 -0.0099
 4545SOL     OW25270   1.062   3.378   2.037  0.1993 -0.6834  0.5578
 4545SOL    HW125271   1.045   3.347   1.949  1.6636 -0.2958  0.1351
 4545SOL    HW225272   0.986   3.338   2.080 -0.9905  0.0570 -0.8566
 4546SOL     OW25273   3.678   0.173   1.495  0.5602  0.1951 -0.6950
 4546SOL    HW125274   3.702   0.147   1.584 -0.3354  0.4875 -0.3772
 4546SOL    HW225275   3.604   0.113   1.487  0.2181  0.5532 -0.2442
 4547SOL     OW25276   2.224   4.321   3.872  0.1089  0.0386  0.2604
 4547SOL    HW125277   2.187   4.375   3.802 -0.1853  0.3304  0.6390
 4547SOL    HW225278   2.209   4.232   3.840  0.2820 -0.1843  0.8074
 4548SOL     OW25279   1.350   1.785  10.788 -0.1526  0.1161 -0.3202
 4548SOL    HW125280   1.265   1.762  10.751  0.3193 -3.7995  1.0476
 4548SOL    HW225281   1.401   1.785  10.707 -0.7484  1.0039 -0.6974
 4549SOL     OW25282   4.244   4.177   4.498 -0.1716  0.1619 -0.2101
 4549SOL    HW125283   4.243   4.102   4.557 -0.2166  0.0163 -0.3939
 4549SOL    HW225284   4.149   4.189   4.508 -0.9248 -1.3197 -5.2878
 4550SOL     OW25285   1.952   4.380   2.039  0.0603  0.2774 -0.7838
 4550SOL    HW125286   1.925   4.289   2.055 -1.4269  1.3196  2.5314
 4550SOL    HW225287   2.044   4.356   2.026  0.0336 -0.8639  1.1531
 4551SOL     OW25288   1.372   4.046   0.891  0.0603  0.0436  0.3171
 4551SOL    HW125289   1.413   4.045   0.978 -0.5526  2.0324  0.6236
 4551SOL    HW225290   1.338   4.134   0.881 -0.1207 -0.3583 -2.5116
 4552SOL     OW25291   0.318   1.021   3.178  0.3722  0.0902 -0.0523
 4552SOL    HW125292   0.404   1.059   3.196  0.0790  0.4885  0.5184
 4552SOL    HW225293   0.330   0.978   3.093  2.2581  2.3887 -0.9718
 4553SOL     OW25294   0.599   0.318   5.721  0.4407  0.8635  0.5494
 4553SOL    HW125295   0.541   0.298   5.648  0.3773  1.2197  0.5062
 4553SOL    HW225296   0.629   0.403   5.691 -0.9493  1.1865  0.0692
 4554SOL     OW25297   1.088   1.772   7.720 -0.4407 -0.0667 -0.3449
 4554SOL    HW125298   1.095   1.710   7.793 -0.8076  0.6373  0.2875
 4554SOL    HW225299   1.042   1.849   7.754  3.0782  2.4130 -1.2750
 4555SOL     OW25300   0.851   2.602   6.173 -0.0817 -0.2625 -0.0432
 4555SOL    HW125301   0.916   2.585   6.242  1.4872  1.2038 -1.1889
 4555SOL    HW225302   0.865   2.693   6.148  3.3602 -0.4750  1.1092
 4556SOL     OW25303   3.662   2.243   1.232  0.6842 -0.4287  0.3159
 4556SOL    HW125304   3.683   2.151   1.244  0.6141 -0.2194  1.9575
 4556SOL    HW225305   3.734   2.266   1.173 -1.0182  2.8345 -0.5014
 4557SOL     OW25306   2.662   3.150   6.655  0.1607 -0.0198 -0.0048
 4557SOL    HW125307   2.596   3.081   6.648  0.4386 -0.2354 -0.5106
 4557SOL    HW225308   2.641   3.165   6.747  0.8600  0.8629  0.0206
 4558SOL     OW25309   0.990   3.344  16.080  0.1893 -0.1567 -0.0886
 4558SOL    HW125310   1.081   3.313  16.087 -0.1231 -0.4454  2.6536
 4558SOL    HW225311   1.008   3.438  16.089 -0.2363  0.1045 -1.8986
 4559SOL     OW25312   0.986   1.931   9.406  0.2744 -0.1204  0.2419
 4559SOL    HW125313   0.999   1.842   9.376  0.1194 -0.0554 -0.0133
 4559SOL    HW225314   1.070   1.968   9.377  0.3824  0.8885  1.8154
 4560SOL     OW25315   4.509   1.083   6.878 -0.4885  0.5270  0.0143
 4560SOL    HW125316   4.449   1.158   6.870 -2.4239 -1.0031  0.2660
 4560SOL    HW225317   4.596   1.120   6.862  0.2892 -0.8258  1.1791
 4561SOL     OW25318   3.387   3.281   2.711  0.0729  0.0020  0.7421
 4561SOL    HW125319   3.315   3.218   2.700  0.9195 -1.0762  1.3217
 4561SOL    HW225320   3.380   3.308   2.803 -1.9249 -0.2628  0.6659
 4562SOL     OW25321   0.937   0.035   8.387 -0.5360 -0.6053  0.3581
 4562SOL    HW125322   0.966   4.688   8.418  0.5541  0.6776  2.8305
 4562SOL    HW225323   0.950   0.092   8.463 -1.6496 -1.4829  1.2063
 4563SOL     OW25324   0.179   1.790   8.771 -0.0612  0.1780  0.0626
 4563SOL    HW125325   0.202   1.851   8.841  0.7254 -0.0710  0.0232
 4563SOL    HW225326   0.085   1.803   8.760 -0.0459 -0.5339 -0.9371
 4564SOL     OW25327   2.945   3.576   9.334 -0.2780  0.0947  0.8635
 4564SOL    HW125328   2.932   3.482   9.345 -0.4617 -0.0024 -0.1295
 4564SOL    HW225329   2.920   3.608   9.421 -3.5590  0.5042 -0.2318
 4565SOL     OW25330   1.558   4.378   9.009 -0.1341 -0.7465  0.2451
 4565SOL    HW125331   1.596   4.302   8.965 -0.2025 -1.1738  0.9177
 4565SOL    HW225332   1.642   4.424   9.010 -0.3393 -0.3302 -2.1511
 4566SOL     OW25333   3.865   3.838   8.635  0.1859  0.3196  0.0339
 4566SOL    HW125334   3.939   3.871   8.687  2.4410  0.0650 -3.0155
 4566SOL    HW225335   3.897   3.750   8.618  0.3115 -0.2381  3.0933
 4567SOL     OW25336   4.043   2.823   9.002 -0.3141 -0.0384  0.5156
 4567SOL    HW125337   4.035   2.907   9.047 -1.9802 -0.2592  0.6066
 4567SOL    HW225338   4.097   2.773   9.064 -1.2760 -0.1432  1.2778
 4568SOL     OW25339   2.131   2.023   6.646 -0.0945 -0.0938 -0.0903
 4568SOL    HW125340   2.213   1.989   6.610 -0.7369 -1.2638 -0.4369
 4568SOL    HW225341   2.109   2.086   6.577  0.3574  0.0593 -0.0937
 4569SOL     OW25342   0.179   0.473   4.733 -0.1666  0.0199 -0.2334
 4569SOL    HW125343   0.183   0.390   4.781  0.5838 -0.3695 -0.9532
 4569SOL    HW225344   0.215   0.435   4.652 -1.8498  0.3665 -1.1433
 4570SOL     OW25345   3.452   1.180   4.349  0.1013 -0.2301 -0.1309
 4570SOL    HW125346   3.409   1.261   4.377  1.4237  0.9685 -1.6405
 4570SOL    HW225347   3.538   1.214   4.325  0.6516 -2.7699 -1.7699
 4571SOL     OW25348   2.779   2.871   6.398  0.0552 -0.1575 -0.1974
 4571SOL    HW125349   2.738   2.957   6.391 -0.0124 -0.1029  0.8926
 4571SOL    HW225350   2.759   2.848   6.489 -1.4408  0.9445 -0.2531
 4572SOL     OW25351   4.059   0.467   4.741 -0.5796  0.3762 -0.0879
 4572SOL    HW125352   3.970   0.455   4.774 -1.0325  2.1242 -0.6337
 4572SOL    HW225353   4.049   0.541   4.681  3.0692  1.0808  0.1645
 4573SOL     OW25354   2.512   3.804   8.525 -0.0791 -0.1958  0.0515
 4573SOL    HW125355   2.495   3.754   8.605  1.4701 -0.2111  0.3691
 4573SOL    HW225356   2.449   3.760   8.468  0.7374  0.2040 -1.1530
 4574SOL     OW25357   0.580   2.286   0.308  0.2350  0.7751 -0.6572
 4574SOL    HW125358   0.498   2.324   0.341  0.0608  0.2591 -0.4942
 4574SOL    HW225359   0.643   2.301   0.379  0.9565  1.1363 -1.3670
 4575SOL     OW25360   0.802   1.271   3.188 -0.5002  0.4729 -1.0419
 4575SOL    HW125361   0.897   1.256   3.180 -0.4250  0.8882 -0.9319
 4575SOL    HW225362   0.804   1.297   3.280 -2.4016 -1.3963 -0.4923
 4576SOL     OW25363   1.066   2.138   4.129  0.4026 -0.1035 -0.2809
 4576SOL    HW125364   1.065   2.079   4.054 -0.5942  0.6620 -0.8616
 4576SOL    HW225365   1.148   2.109   4.170  0.5571 -0.7159 -1.0314
 4577SOL     OW25366   1.696   2.261   2.798  0.9383 -0.6013  0.2195
 4577SOL    HW125367   1.728   2.338   2.750  0.0106 -0.5167 -0.2495
 4577SOL    HW225368   1.607   2.291   2.816  1.2888  0.7104 -0.1866
 4578SOL     OW25369   2.696   1.987   6.675  0.4670  0.3581 -0.6537
 4578SOL    HW125370   2.719   1.895   6.672 -1.6155 -0.2054  0.5121
 4578SOL    HW225371   2.656   1.999   6.588  0.4363 -0.4259 -0.7444
 4579SOL     OW25372   0.922   2.932   8.306  0.1633  0.3305 -0.1139
 4579SOL    HW125373   0.945   2.977   8.225  0.6152  2.3645  1.1416
 4579SOL    HW225374   0.943   3.004   8.366 -1.7059  0.7101  0.0931
 4580SOL     OW25375   2.279   4.061   1.452  0.3318  0.3831 -0.6014
 4580SOL    HW125376   2.284   4.065   1.547  1.2544 -2.1980 -0.5475
 4580SOL    HW225377   2.196   4.104   1.431 -0.2566 -1.0753 -1.2074
 4581SOL     OW25378   2.715   3.053   5.058 -0.5885 -0.3740 -0.3143
 4581SOL    HW125379   2.646   2.986   5.058 -1.6185  0.6808 -1.0855
 4581SOL    HW225380   2.797   3.006   5.047 -1.0494 -1.2523 -0.0380
 4582SOL     OW25381   3.377   2.776  17.694 -0.0407 -0.3577 -0.4837
 4582SOL    HW125382   3.409   2.864  17.678  0.3601 -0.5172 -0.5642
 4582SOL    HW225383   3.288   2.786  17.729  0.3289 -1.1494  0.6952
 4583SOL     OW25384   4.403   2.838   8.831 -0.4090 -0.1138  0.0342
 4583SOL    HW125385   4.426   2.822   8.923 -1.3291  2.1302  0.6655
 4583SOL    HW225386   4.379   2.749   8.806 -1.2380  0.6237 -1.8375
 4584SOL     OW25387   3.647   2.109   2.764 -0.0636  0.1325 -0.2611
 4584SOL    HW125388   3.711   2.042   2.787  0.0644  0.2819 -0.1783
 4584SOL    HW225389   3.610   2.140   2.847  0.6077 -1.5077  0.6523
 4585SOL     OW25390   2.269   3.966   9.547 -0.1239 -0.4884  0.0933
 4585SOL    HW125391   2.311   4.004   9.624 -0.4479  0.9547 -0.4415
 4585SOL    HW225392   2.199   4.029   9.529 -0.1161 -0.7764 -0.9542
 4586SOL     OW25393   0.019   3.369   5.741 -0.4472  0.0563  0.1270
 4586SOL    HW125394   4.691   3.324   5.794 -1.5356  0.2796 -1.0349
 4586SOL    HW225395   4.694   3.399   5.675 -1.2365 -0.7658  0.5004
 4587SOL     OW25396   3.488   1.786   5.969  0.0165 -0.1297 -0.4272
 4587SOL    HW125397   3.400   1.801   5.935 -0.9511 -2.9498  0.7855
 4587SOL    HW225398   3.475   1.731   6.047  0.2995  0.0784 -0.2323
 4588SOL     OW25399   0.565   2.819   6.057  0.2925  0.3973 -0.8910
 4588SOL    HW125400   0.470   2.811   6.061  0.4942 -0.9414  1.0608
 4588SOL    HW225401   0.593   2.849   6.143 -0.1768 -0.5565 -0.4055
 4589SOL     OW25402   2.565   4.705  16.364 -0.3612  0.0282  0.1441
 4589SOL    HW125403   2.616   0.048  16.363  1.4237 -1.0806  1.3442
 4589SOL    HW225404   2.513   4.711  16.445 -1.2792  0.1059 -0.4562
 4590SOL     OW25405   1.840   1.856   3.286 -0.2722 -0.3654 -0.3989
 4590SOL    HW125406   1.746   1.853   3.270  0.3322  1.7149 -4.3277
 4590SOL    HW225407   1.865   1.772   3.247 -2.7786  0.0613 -2.9387
 4591SOL     OW25408   4.085   1.689  13.854 -0.2728 -0.6408  0.2448
 4591SOL    HW125409   4.075   1.749  13.781 -0.0403 -0.8150  0.0689
 4591SOL    HW225410   4.132   1.612  13.821  1.6685  0.1937  1.0514
 4592SOL     OW25411   4.499   4.017   8.404 -0.1719 -0.0859 -0.2512
 4592SOL    HW125412   4.475   3.936   8.449 -1.2709  0.4514  0.1123
 4592SOL    HW225413   4.578   4.044   8.451 -0.8642 -0.1035  0.9295
 4593SOL     OW25414   1.268   1.015   4.903  0.3823  0.3453 -0.8526
 4593SOL    HW125415   1.219   1.028   4.984 -0.5801  2.2213 -1.7463
 4593SOL    HW225416   1.299   1.105   4.897  0.0554  0.2382 -4.0414
 4594SOL     OW25417   2.098   4.379  12.346 -0.2911 -0.5231 -0.4425
 4594SOL    HW125418   2.019   4.399  12.296 -0.7145  0.1539  0.4864
 4594SOL    HW225419   2.119   4.296  12.304  0.3436 -0.9065  0.6249
 4595SOL     OW25420   4.287   3.039   9.178 -0.2727 -0.1509 -0.4583
 4595SOL    HW125421   4.265   3.090   9.100  1.4747 -0.7676 -1.3416
 4595SOL    HW225422   4.199   3.022   9.213 -0.4582  0.1300 -0.7877
 4596SOL     OW25423   4.179   1.556  10.301 -0.3400  0.0551 -0.4554
 4596SOL    HW125424   4.189   1.619  10.230  4.4329  0.2352  0.3904
 4596SOL    HW225425   4.146   1.480  10.253  0.2020 -1.1403  1.0476
 4597SOL     OW25426   3.710   3.108  17.190  0.0861  0.3988  0.0937
 4597SOL    HW125427   3.658   3.183  17.162  1.6646  1.9399  1.3183
 4597SOL    HW225428   3.669   3.086  17.274  0.7946 -1.0967  0.0677
 4598SOL     OW25429   1.172   0.450   3.745  0.3521  0.0464 -0.2147
 4598SOL    HW125430   1.079   0.470   3.736  0.3633  1.2410  2.1218
 4598SOL    HW225431   1.214   0.518   3.691  0.8271 -0.8335 -0.9463
 4599SOL     OW25432   1.282   4.073  10.816  0.4799  0.7033  0.2501
 4599SOL    HW125433   1.352   4.092  10.754  0.7265  1.1115  0.6553
 4599SOL    HW225434   1.236   4.008  10.763  1.6915  1.1732 -1.3614
 4600SOL     OW25435   0.438   3.938   0.581 -0.3281  0.2093  0.4866
 4600SOL    HW125436   0.471   4.014   0.630  1.1624 -0.5624  0.6651
 4600SOL    HW225437   0.493   3.935   0.503 -2.0084 -1.0912 -0.6420
 4601SOL     OW25438   0.925   0.889   4.975  0.2939  0.0112  0.3778
 4601SOL    HW125439   0.843   0.843   4.997  1.3993 -2.6711 -1.0539
 4601SOL    HW225440   0.978   0.866   5.051 -1.8642 -1.2495  1.5201
 4602SOL     OW25441   0.433   3.772   2.372  0.1976 -0.7836 -0.0970
 4602SOL    HW125442   0.417   3.699   2.312 -0.0777  0.4263 -1.4917
 4602SOL    HW225443   0.350   3.756   2.418  0.0354  0.3841  0.0257
 4603SOL     OW25444   2.884   0.874  14.568  0.2970  0.2092  0.0834
 4603SOL    HW125445   2.906   0.965  14.590 -0.4274  0.0580  1.4937
 4603SOL    HW225446   2.888   0.835  14.655  0.7529 -0.1475 -0.1024
 4604SOL     OW25447   0.789   4.735  16.862 -0.2084  0.4850 -0.3137
 4604SOL    HW125448   0.842   0.043  16.926  0.4027 -2.6048  1.4163
 4604SOL    HW225449   0.838   0.017  16.782 -0.4511 -1.6062 -0.9971
 4605SOL     OW25450   0.317   1.296   5.337 -0.6113  0.2335  0.8940
 4605SOL    HW125451   0.253   1.280   5.407 -0.8378 -1.3780  0.3168
 4605SOL    HW225452   0.262   1.357   5.288  0.1123 -0.5765 -0.9316
 4606SOL     OW25453   4.707   3.482   3.356 -0.0356  0.0930 -0.3364
 4606SOL    HW125454   0.039   3.536   3.320 -0.3445  0.0823 -0.9512
 4606SOL    HW225455   4.644   3.552   3.343 -1.0020 -0.8911 -0.9529
 4607SOL     OW25456   1.813   2.204   4.198  0.2084  0.2983 -0.6287
 4607SOL    HW125457   1.877   2.144   4.236  1.7577  2.5403  0.2490
 4607SOL    HW225458   1.799   2.251   4.280  1.6192 -0.2064 -0.0949
 4608SOL     OW25459   0.612   1.576  12.675 -0.3634 -0.1545 -0.2073
 4608SOL    HW125460   0.637   1.530  12.595 -0.3734 -1.2572  0.4285
 4608SOL    HW225461   0.561   1.644  12.631 -0.6467 -0.7607 -0.8249
 4609SOL     OW25462   4.042   4.550   8.620 -0.3832 -0.5008  0.6135
 4609SOL    HW125463   4.020   4.628   8.569  2.5747 -0.0479  0.0164
 4609SOL    HW225464   3.997   4.566   8.703 -2.1765 -0.2691 -0.3909
 4610SOL     OW25465   3.143   2.365   5.371  0.4302  0.4445  0.5635
 4610SOL    HW125466   3.223   2.411   5.396  2.0306 -0.0046 -3.6635
 4610SOL    HW225467   3.131   2.405   5.284  1.8868  1.0502  0.6510
 4611SOL     OW25468   0.674   3.715   2.209  0.2393  0.4982 -0.4007
 4611SOL    HW125469   0.655   3.785   2.272  2.6168  1.9913 -1.3342
 4611SOL    HW225470   0.680   3.753   2.121  0.2008  1.0633 -0.1575
 4612SOL     OW25471   1.814   2.232  16.302 -0.0596 -0.5836 -0.1627
 4612SOL    HW125472   1.741   2.265  16.249  1.6138  0.1785 -1.9802
 4612SOL    HW225473   1.876   2.301  16.279  2.2595 -3.1935 -1.7803
 4613SOL     OW25474   1.069   0.344  14.236 -0.3089 -0.1825  0.2195
 4613SOL    HW125475   1.043   0.268  14.185 -0.2577  0.1234 -0.2567
 4613SOL    HW225476   1.147   0.361  14.184 -0.9118 -0.2528 -0.6934
 4614SOL     OW25477   0.777   0.738  14.870 -0.0714  0.1324  0.0898
 4614SOL    HW125478   0.833   0.806  14.833  1.0344 -0.7686  0.1328
 4614SOL    HW225479   0.757   0.685  14.793  0.0209 -1.6509  1.2884
 4615SOL     OW25480   0.482   2.263  11.936 -0.0402 -0.4948  0.0465
 4615SOL    HW125481   0.517   2.257  11.848  0.9387 -1.4209  0.4927
 4615SOL    HW225482   0.441   2.348  11.919 -0.4994 -0.6779  0.2397
 4616SOL     OW25483   3.115   4.189   0.001  0.7270  0.1504  0.2656
 4616SOL    HW125484   3.192   4.206  17.695  0.6269 -0.7571 -0.1539
 4616SOL    HW225485   3.155   4.174   0.087 -0.0356 -2.0543  0.2324
 4617SOL     OW25486   1.863   4.358   3.578  0.3373  0.2404  0.4359
 4617SOL    HW125487   1.932   4.317   3.526  1.2764  1.9201  0.3497
 4617SOL    HW225488   1.789   4.301   3.558 -1.1250  1.7560  1.5138
 4618SOL     OW25489   0.822   1.603   8.957  0.4649  0.4997 -0.5984
 4618SOL    HW125490   0.829   1.541   8.884  1.9738 -0.2880  0.1925
 4618SOL    HW225491   0.910   1.642   8.951 -0.3427  2.3092 -0.5546
 4619SOL     OW25492   2.626   2.948   3.559 -0.2281 -0.6505  0.6009
 4619SOL    HW125493   2.711   2.992   3.565  0.4766 -1.7361 -1.6304
 4619SOL    HW225494   2.576   3.007   3.616  0.9836  0.6969  0.2597
 4620SOL     OW25495   2.989   3.980   6.081  0.2228 -0.4482  0.0245
 4620SOL    HW125496   2.988   3.968   6.176  0.2856  0.4039  0.1284
 4620SOL    HW225497   2.904   3.941   6.062 -0.2279  0.9439 -0.8017
 4621SOL     OW25498   2.630   2.370   1.912 -0.6289  0.1347  1.1402
 4621SOL    HW125499   2.591   2.457   1.923 -0.1016  0.4326  0.6280
 4621SOL    HW225500   2.695   2.397   1.847 -0.7918  0.6820  1.2025
 4622SOL     OW25501   0.939   0.487   7.108  0.4125 -0.0125  0.1996
 4622SOL    HW125502   0.885   0.558   7.073  1.0211  0.3478 -0.0064
 4622SOL    HW225503   0.943   0.426   7.034  0.2623 -0.7917  0.8371
 4623SOL     OW25504   0.000   4.213  17.051 -0.3024 -0.0711  0.5091
 4623SOL    HW125505   0.055   4.279  17.095 -0.5832 -0.3398  1.2524
 4623SOL    HW225506   4.710   4.258  16.971 -0.6188 -2.8055 -0.9197
 4624SOL     OW25507   2.914   2.363   9.233  0.3659  0.2785  0.8245
 4624SOL    HW125508   2.944   2.314   9.309  0.8108 -2.0096 -0.8300
 4624SOL    HW225509   2.857   2.298   9.192 -0.3573  0.4178  1.6217
 4625SOL     OW25510   1.540   1.849   6.645 -0.1826 -0.2304  0.6007
 4625SOL    HW125511   1.587   1.790   6.587  0.4116  0.7809  0.0603
 4625SOL    HW225512   1.536   1.806   6.731  1.7588 -0.3941  0.6090
 4626SOL     OW25513   0.102   2.827  10.164 -0.0752 -0.0459  0.7774
 4626SOL    HW125514   0.094   2.918  10.133  0.1285 -1.1804 -2.5359
 4626SOL    HW225515   0.012   2.796  10.156  0.8469 -1.6999 -2.8377
 4627SOL     OW25516   0.415   4.450   6.769 -0.1476  0.0088  0.0957
 4627SOL    HW125517   0.448   4.371   6.812 -0.6123 -0.2134  0.0468
 4627SOL    HW225518   0.472   4.522   6.797 -1.3833  1.3885 -0.9101
 4628SOL     OW25519   3.315   3.837   5.485 -0.7406 -0.4919  0.0086
 4628SOL    HW125520   3.262   3.893   5.542 -0.0200  0.7101 -0.5119
 4628SOL    HW225521   3.247   3.801   5.428 -0.2317 -1.1522 -0.1821
 4629SOL     OW25522   0.076   2.015   8.489 -0.2468  0.3531  0.7282
 4629SOL    HW125523   0.043   2.094   8.532 -1.8816  0.2615 -0.3636
 4629SOL    HW225524   0.051   1.947   8.551  0.6909 -0.2743  0.4202
 4630SOL     OW25525   1.780   1.687   4.567  0.1181  0.0996  0.6635
 4630SOL    HW125526   1.811   1.723   4.650  2.0049 -0.8551  0.3570
 4630SOL    HW225527   1.869   1.670   4.538  0.1262  0.7619  0.2987
 4631SOL     OW25528   4.250   0.950   5.947 -0.3775 -0.2751 -0.0803
 4631SOL    HW125529   4.346   0.944   5.946 -0.4126 -0.6475 -1.0217
 4631SOL    HW225530   4.236   0.893   5.871 -0.2118 -2.0811  1.2496
 4632SOL     OW25531   0.041   1.824  16.476 -0.4013 -0.6728  0.5810
 4632SOL    HW125532   0.057   1.732  16.454 -1.8936 -0.9196  0.5079
 4632SOL    HW225533   4.691   1.831  16.513 -0.0736 -0.3351  1.2978
 4633SOL     OW25534   2.697   0.634   0.085  0.2434  0.1297 -0.4021
 4633SOL    HW125535   2.674   0.709   0.140 -1.1156  0.9687 -2.0977
 4633SOL    HW225536   2.622   0.578   0.103  0.7265 -0.0082  1.1460
 4634SOL     OW25537   3.101   4.411   4.053 -0.3633 -0.0296  0.9689
 4634SOL    HW125538   3.064   4.356   3.984  0.4138 -0.0199  0.5416
 4634SOL    HW225539   3.046   4.488   4.034 -0.2525 -0.2722 -0.3628
 4635SOL     OW25540   1.755   0.512   6.374 -0.0219  0.2447 -0.0319
 4635SOL    HW125541   1.751   0.529   6.468  0.1101  1.1321 -0.1815
 4635SOL    HW225542   1.664   0.492   6.353 -0.6735  1.9742  1.1669
 4636SOL     OW25543   4.636   2.337   1.777 -0.0508  0.2326 -0.3091
 4636SOL    HW125544   4.718   2.290   1.762 -0.4987 -0.6969  0.1175
 4636SOL    HW225545   4.580   2.261   1.762 -1.5237  1.1055  0.6783
 4637SOL     OW25546   4.574   4.091  17.500  0.2916 -0.7828 -0.2108
 4637SOL    HW125547   4.614   4.061  17.418  1.3109  0.5887 -0.2153
 4637SOL    HW225548   4.604   4.028  17.565  3.8842  0.4243 -0.6986
 4638SOL     OW25549   4.087   3.307  12.190  0.2062  0.0888 -0.4094
 4638SOL    HW125550   3.996   3.280  12.195  0.4628 -0.4552  1.3316
 4638SOL    HW225551   4.103   3.361  12.113  0.8728 -0.1526 -0.4443
 4639SOL     OW25552   3.620   4.203   2.011 -0.2696 -0.1097 -0.0676
 4639SOL    HW125553   3.710   4.209   2.041 -0.2173  0.9251 -0.4592
 4639SOL    HW225554   3.563   4.196   2.088 -0.3014  1.0738  0.0122
 4640SOL     OW25555   2.842   3.229  13.725 -0.1065 -0.2144  0.6150
 4640SOL    HW125556   2.763   3.182  13.696  0.3536 -0.2714 -0.5755
 4640SOL    HW225557   2.854   3.192  13.812  1.9384 -0.2469  0.3254
 4641SOL     OW25558   2.760   3.314   4.239 -0.8031 -0.3265 -0.2052
 4641SOL    HW125559   2.816   3.376   4.286 -0.2505  0.4652 -1.9010
 4641SOL    HW225560   2.674   3.338   4.273 -1.2210 -0.0400 -1.4475
 4642SOL     OW25561   0.106   1.937  14.964  0.8915 -0.0396 -0.4880
 4642SOL    HW125562   0.068   1.878  15.028 -1.3475  1.3343 -0.5711
 4642SOL    HW225563   0.100   1.873  14.893  3.9099 -0.6491 -0.2017
 4643SOL     OW25564   2.507   0.074   6.501  0.1380  0.7449 -0.0127
 4643SOL    HW125565   2.599   0.089   6.522  0.1642  0.0142  0.3745
 4643SOL    HW225566   2.465   0.086   6.586  1.7096  0.5925  0.7829
 4644SOL     OW25567   3.193   2.356   2.938  0.1981 -0.2413  0.3202
 4644SOL    HW125568   3.114   2.360   2.992  0.9464  0.6110  1.3400
 4644SOL    HW225569   3.193   2.428   2.875 -1.5239 -1.5872 -1.2302
 4645SOL     OW25570   1.758   1.489   6.504  0.1433 -0.2729  0.0597
 4645SOL    HW125571   1.777   1.468   6.595 -0.1255 -1.8320 -0.2399
 4645SOL    HW225572   1.834   1.449   6.463 -0.2684 -0.4449 -0.5384
 4646SOL     OW25573   3.372   2.706   4.700 -0.1458  0.6918  0.1425
 4646SOL    HW125574   3.463   2.736   4.697 -0.0380  0.3171 -0.2517
 4646SOL    HW225575   3.326   2.783   4.668 -1.8581  0.3470  1.7370
 4647SOL     OW25576   2.893   4.085  16.499 -0.0319 -0.0933 -0.3699
 4647SOL    HW125577   2.820   4.031  16.530 -0.3988  0.6758  0.1131
 4647SOL    HW225578   2.854   4.140  16.431 -1.4428  1.3992  1.6399
 4648SOL     OW25579   0.775   1.732  17.481  0.0528  0.2518 -0.4648
 4648SOL    HW125580   0.847   1.671  17.463 -0.5755 -1.3008  2.2215
 4648SOL    HW225581   0.701   1.676  17.456  0.3107  0.1882 -1.0984
 4649SOL     OW25582   2.739   1.726   6.662  0.0903 -0.4387 -0.4543
 4649SOL    HW125583   2.679   1.734   6.588  1.6484 -0.3375 -1.7048
 4649SOL    HW225584   2.785   1.653   6.620 -0.7567 -0.8576 -0.6372
 4650SOL     OW25585   1.353   4.680   7.415  0.0844  0.0749 -0.0316
 4650SOL    HW125586   1.409   4.666   7.491  0.2328 -0.0884 -0.1706
 4650SOL    HW225587   1.280   4.722   7.460  0.0720 -1.6358  1.5563
 4651SOL     OW25588   3.733   4.719   4.016 -0.0447  0.4443 -0.1759
 4651SOL    HW125589   3.740   0.049   3.949 -0.2367  1.2933  0.6664
 4651SOL    HW225590   3.676   0.026   4.079 -2.2780 -0.2179 -1.7128
 4652SOL     OW25591   3.878   0.878   6.154  0.1534 -0.2183  0.1847
 4652SOL    HW125592   3.873   0.974   6.149 -2.2126 -0.2620  1.6168
 4652SOL    HW225593   3.885   0.864   6.060 -4.1632 -1.0438 -0.0007
 4653SOL     OW25594   0.996   4.423   9.127 -0.7381 -0.2832 -0.5792
 4653SOL    HW125595   0.980   4.464   9.042 -0.0510 -0.8943 -1.0068
 4653SOL    HW225596   0.923   4.458   9.179  0.0482 -0.6810  0.7885
 4654SOL     OW25597   0.094   1.745  14.774 -0.4709 -0.1450 -0.3276
 4654SOL    HW125598   0.012   1.756  14.726 -1.8140 -1.5164  1.6338
 4654SOL    HW225599   0.110   1.651  14.770  0.4112 -0.0306  0.7440
 4655SOL     OW25600   2.110   3.421   4.028  0.2373  0.5328 -0.2163
 4655SOL    HW125601   2.149   3.416   4.115  0.9001  0.6864 -0.5031
 4655SOL    HW225602   2.114   3.516   4.017  2.1052  0.5078  0.2290
 4656SOL     OW25603   1.059   1.064   9.860  0.0511  0.1747  0.4731
 4656SOL    HW125604   1.026   1.132   9.801 -2.5794  0.1809  1.9751
 4656SOL    HW225605   0.980   1.011   9.867 -1.2935  1.7694 -2.5716
 4657SOL     OW25606   2.696   0.825   7.163  0.1500  0.1383  0.3869
 4657SOL    HW125607   2.744   0.890   7.112  1.9139 -1.7240 -0.3620
 4657SOL    HW225608   2.621   0.800   7.110  1.3702 -0.4436 -1.0785
 4658SOL     OW25609   0.356   4.560  17.090  0.4924 -0.6023  0.6001
 4658SOL    HW125610   0.415   4.611  17.034 -0.5665 -0.0567 -0.0239
 4658SOL    HW225611   0.382   4.595  17.175 -0.8691  2.4087 -0.2213
 4659SOL     OW25612   1.753   4.036   4.719  0.1718 -0.0250 -0.2243
 4659SOL    HW125613   1.741   4.054   4.626  1.1160 -2.5190 -0.8201
 4659SOL    HW225614   1.833   4.085   4.738  0.2826 -0.2222 -0.1855
 4660SOL     OW25615   1.754   1.509   2.796  0.2514  0.7127  0.1935
 4660SOL    HW125616   1.800   1.425   2.801 -0.9698  0.0764  0.7473
 4660SOL    HW225617   1.826   1.561   2.761 -0.0039  1.7034  1.1320
 4661SOL     OW25618   4.336   0.105   9.350 -0.9793  0.0069  0.2032
 4661SOL    HW125619   4.294   0.122   9.435 -0.2507 -1.2075  0.8100
 4661SOL    HW225620   4.379   0.186   9.323  0.9342 -0.8034  0.7761
 4662SOL     OW25621   0.858   2.503   1.125  0.9650 -0.1432 -0.1431
 4662SOL    HW125622   0.881   2.508   1.032  0.1962  0.5223 -0.3029
 4662SOL    HW225623   0.867   2.593   1.157 -1.5109 -0.8308  2.4308
 4663SOL     OW25624   4.419   0.198   4.520 -0.0118 -0.4743 -0.3554
 4663SOL    HW125625   4.411   0.263   4.590  1.8813 -2.0556  1.3524
 4663SOL    HW225626   4.367   0.125   4.554  0.4265 -0.0125  1.3126
 4664SOL     OW25627   0.035   1.355   8.072  0.4351  0.3938  0.3516
 4664SOL    HW125628   0.023   1.263   8.047  1.4549  0.7697 -1.4975
 4664SOL    HW225629   0.116   1.365   8.022  1.3598  0.1185  1.7954
 4665SOL     OW25630   4.124   3.768   7.132 -0.4183  0.3110 -0.4565
 4665SOL    HW125631   4.046   3.798   7.085 -1.0109 -2.3681 -1.1824
 4665SOL    HW225632   4.096   3.755   7.222  0.8491  0.3042 -0.0639
 4666SOL     OW25633   4.537   2.618   8.139  0.2252 -0.5682 -0.2276
 4666SOL    HW125634   4.625   2.581   8.144  0.5556  0.3228  0.4608
 4666SOL    HW225635   4.512   2.621   8.231 -0.3006  1.4247 -0.4278
 4667SOL     OW25636   0.312   0.979   8.696 -0.6502  0.3103 -0.2380
 4667SOL    HW125637   0.355   1.055   8.735  0.8416 -0.4532 -0.4156
 4667SOL    HW225638   0.227   0.988   8.739  0.3709  3.5568  1.0840
 4668SOL     OW25639   0.816   2.562   2.085 -0.0798  0.0481  0.0827
 4668SOL    HW125640   0.843   2.479   2.044 -0.0300 -0.7160  1.6552
 4668SOL    HW225641   0.762   2.529   2.157 -0.7874  0.9601 -0.0295
 4669SOL     OW25642   4.498   0.459   3.679 -0.3505  0.6139  0.1823
 4669SOL    HW125643   4.436   0.530   3.660 -1.4519 -0.2366  0.6635
 4669SOL    HW225644   4.562   0.461   3.607 -0.7085 -1.7360 -0.1964
 4670SOL     OW25645   3.619   2.869   8.099 -0.1540  0.1101  0.4747
 4670SOL    HW125646   3.528   2.894   8.115 -0.7857 -2.2089  0.3969
 4670SOL    HW225647   3.666   2.951   8.116  0.7293 -0.4312  0.6233
 4671SOL     OW25648   0.273   1.447  16.815 -0.1036  0.0340 -0.0456
 4671SOL    HW125649   0.254   1.354  16.821 -1.2833  0.2885  0.2287
 4671SOL    HW225650   0.361   1.448  16.855 -1.2506 -3.4611  2.5703
 4672SOL     OW25651   3.039   0.924   5.972 -0.1540 -0.1131  0.0110
 4672SOL    HW125652   2.997   0.934   6.057 -0.4699 -2.6897  0.1628
 4672SOL    HW225653   3.133   0.929   5.985 -0.1130  2.1486 -1.2755
 4673SOL     OW25654   4.357   0.435   1.151  0.4280  0.0982  0.3608
 4673SOL    HW125655   4.286   0.491   1.119  0.5230 -0.9730 -1.6765
 4673SOL    HW225656   4.326   0.424   1.241 -1.9967  1.7140 -0.2760
 4674SOL     OW25657   4.368   4.185  15.674 -0.2212  0.1520  0.2430
 4674SOL    HW125658   4.434   4.160  15.739  0.3507 -0.7478 -0.6797
 4674SOL    HW225659   4.281   4.179  15.713 -0.3199  0.6118  0.1055
 4675SOL     OW25660   2.992   4.720   8.223  0.4287 -0.1742  0.4908
 4675SOL    HW125661   3.053   4.658   8.183  0.2183  1.4680 -2.4205
 4675SOL    HW225662   2.903   4.692   8.202  0.1735  1.7719 -0.9596
 4676SOL     OW25663   1.120   4.665   6.845  0.2473 -0.2360  0.0862
 4676SOL    HW125664   1.165   4.582   6.862 -0.7309 -0.0182  3.7219
 4676SOL    HW225665   1.140   4.717   6.923  1.6011 -0.7442  0.0782
 4677SOL     OW25666   1.783   4.380   6.926  0.3944  0.5554  0.0436
 4677SOL    HW125667   1.694   4.408   6.946 -0.4943 -1.8623 -0.4705
 4677SOL    HW225668   1.817   4.365   7.014 -1.6649 -3.0847  0.2065
 4678SOL     OW25669   2.178   0.618  10.000 -0.4253  0.0136 -0.0745
 4678SOL    HW125670   2.103   0.678  10.004 -1.8224 -1.7180 -0.2636
 4678SOL    HW225671   2.245   0.679  10.030 -0.8103  1.3052 -1.8243
 4679SOL     OW25672   2.869   0.730   0.686 -0.1300 -0.6292 -0.3166
 4679SOL    HW125673   2.839   0.652   0.732 -0.1905 -0.1360  0.4874
 4679SOL    HW225674   2.963   0.733   0.705 -0.0775  0.6610 -0.7762
 4680SOL     OW25675   4.189   1.150   8.616  0.0917  0.0285 -0.9106
 4680SOL    HW125676   4.207   1.243   8.605  0.7141  0.2514  1.8653
 4680SOL    HW225677   4.115   1.159   8.676  1.7572 -1.9513  1.4629
 4681SOL     OW25678   0.621   3.872   8.179 -0.1705  0.2162  0.0385
 4681SOL    HW125679   0.574   3.863   8.096  0.0199  0.6154 -0.1125
 4681SOL    HW225680   0.653   3.783   8.186 -1.0420 -0.3488 -2.8995
 4682SOL     OW25681   4.208   3.715   4.935 -0.0826 -0.2885 -0.0173
 4682SOL    HW125682   4.226   3.690   4.844 -1.2054  0.1574 -0.3665
 4682SOL    HW225683   4.119   3.741   4.909 -0.8319 -2.3289  0.5131
 4683SOL     OW25684   3.192   0.820   4.871 -0.2987  0.2054  0.3279
 4683SOL    HW125685   3.176   0.903   4.917 -1.3304 -0.3367  0.9465
 4683SOL    HW225686   3.120   0.772   4.914 -1.0865  1.1583  0.0753
 4684SOL     OW25687   1.291   2.700   3.214 -0.0014 -0.1157 -0.3024
 4684SOL    HW125688   1.381   2.690   3.185 -0.0825  1.5420 -1.1233
 4684SOL    HW225689   1.255   2.686   3.126 -0.7028 -1.1600  0.1486
 4685SOL     OW25690   3.229   3.243  11.579  1.0164 -0.0180  0.1782
 4685SOL    HW125691   3.270   3.295  11.510 -2.4515  2.3582 -0.1193
 4685SOL    HW225692   3.244   3.295  11.659  0.2828  1.2898 -0.5322
 4686SOL     OW25693   2.372   0.194  12.489  0.4656 -0.2514 -0.3762
 4686SOL    HW125694   2.429   0.227  12.559 -0.4119  1.2324 -0.3505
 4686SOL    HW225695   2.433   0.153  12.428  0.1382 -2.5843  0.8843
 4687SOL     OW25696   1.350   3.133   8.746  0.1188  0.5816  0.1628
 4687SOL    HW125697   1.353   3.154   8.839  1.1527 -4.2026  1.2269
 4687SOL    HW225698   1.358   3.216   8.700  0.2796  0.2222 -0.4632
 4688SOL     OW25699   1.237   4.023  11.901 -0.3096  0.5604 -0.1167
 4688SOL    HW125700   1.147   3.997  11.921  0.6501 -1.4154  1.6494
 4688SOL    HW225701   1.232   4.006  11.807  1.7638  0.1237 -0.1366
 4689SOL     OW25702   3.741   3.368  15.303  0.4246 -0.4024  0.5591
 4689SOL    HW125703   3.740   3.325  15.388  0.6181 -0.0827  0.7229
 4689SOL    HW225704   3.834   3.390  15.296  0.5290 -0.3531  2.2382
 4690SOL     OW25705   2.910   1.594   3.038  0.1734 -0.0904 -0.1025
 4690SOL    HW125706   2.877   1.653   2.970 -0.5885 -0.0532  0.3022
 4690SOL    HW225707   2.988   1.646   3.054  0.7787 -0.7637 -0.8411
 4691SOL     OW25708   1.133   3.639   6.838  0.0509  0.2084  0.5444
 4691SOL    HW125709   1.073   3.686   6.896  1.8432  1.1091  1.6854
 4691SOL    HW225710   1.062   3.591   6.796 -1.2323 -1.1402  4.3082
 4692SOL     OW25711   1.374   3.450   0.022  0.1297  0.3325  0.0731
 4692SOL    HW125712   1.427   3.498  17.707  0.1556 -0.9523 -0.8564
 4692SOL    HW225713   1.288   3.479  17.742 -0.3448 -0.8603  0.2620
 4693SOL     OW25714   0.925   3.700   6.387  0.1886  0.2052 -0.3116
 4693SOL    HW125715   0.916   3.607   6.411 -1.3094  0.8048  1.3995
 4693SOL    HW225716   1.007   3.719   6.433 -1.0591 -0.2275  2.0915
 4694SOL     OW25717   4.272   1.456   5.173 -0.1660 -0.1830 -0.1153
 4694SOL    HW125718   4.264   1.368   5.136  1.4238 -0.4550  0.1800
 4694SOL    HW225719   4.362   1.449   5.202  0.2768 -0.3851 -1.5235
 4695SOL     OW25720   4.366   3.854   6.416 -0.2200  0.3062 -0.8739
 4695SOL    HW125721   4.295   3.917   6.410 -0.0173  0.4858 -1.4369
 4695SOL    HW225722   4.441   3.908   6.389 -0.0990  0.9002  0.6412
 4696SOL     OW25723   4.176   4.323   0.307  0.2632 -0.3617 -0.5271
 4696SOL    HW125724   4.259   4.286   0.277  0.9898  0.1676  0.8522
 4696SOL    HW225725   4.110   4.258   0.283  3.2948 -3.7522  0.3412
 4697SOL     OW25726   3.283   2.614   2.788 -0.2802 -0.1788  0.1507
 4697SOL    HW125727   3.243   2.676   2.727 -0.9564 -0.9749 -0.2058
 4697SOL    HW225728   3.334   2.565   2.724 -0.8308  0.7081 -0.9520
 4698SOL     OW25729   3.549   4.147   5.377  0.0777 -0.6699 -0.2355
 4698SOL    HW125730   3.516   4.197   5.302  0.5669 -0.3343 -0.2253
 4698SOL    HW225731   3.556   4.062   5.334 -2.0240 -0.9022 -0.1108
 4699SOL     OW25732   3.747   1.329   1.902  0.3033  0.3100 -0.2394
 4699SOL    HW125733   3.824   1.348   1.955  0.6916  0.6134 -0.9118
 4699SOL    HW225734   3.792   1.281   1.832 -0.8762  0.3178 -1.0086
 4700SOL     OW25735   4.658   4.620  12.593  0.2235  0.1091  0.7492
 4700SOL    HW125736   4.571   4.659  12.581 -0.9595 -3.3926 -2.0059
 4700SOL    HW225737   4.642   4.534  12.555  1.7900  0.1150  0.0687
 4701SOL     OW25738   1.259   1.083   1.062 -0.2569 -0.1264  0.2454
 4701SOL    HW125739   1.331   1.046   1.010 -1.3656  0.1472 -1.4767
 4701SOL    HW225740   1.190   1.042   1.010 -0.9358  1.3450 -0.0001
 4702SOL     OW25741   3.383   2.491   6.801 -0.0080  0.0042 -0.1251
 4702SOL    HW125742   3.463   2.534   6.832  0.1918 -0.5531  0.1216
 4702SOL    HW225743   3.322   2.524   6.866 -2.4377  1.7317 -3.2494
 4703SOL     OW25744   3.255   0.831  12.358  0.0027  0.2979  0.0351
 4703SOL    HW125745   3.195   0.899  12.326 -0.0882  0.1156 -0.1819
 4703SOL    HW225746   3.280   0.793  12.274 -2.1438 -0.1674 -0.3990
 4704SOL     OW25747   3.841   3.594   7.298  0.0119 -0.2903  0.0656
 4704SOL    HW125748   3.907   3.663   7.307 -0.3466  0.3813 -2.3763
 4704SOL    HW225749   3.784   3.641   7.359 -2.3621 -0.7189 -1.8351
 4705SOL     OW25750   0.936   2.253   7.198 -0.2810  0.1488  0.5931
 4705SOL    HW125751   0.842   2.267   7.210 -0.0862 -0.7314  3.1134
 4705SOL    HW225752   0.941   2.210   7.283 -1.3073 -0.4592  0.3402
 4706SOL     OW25753   3.034   4.075   0.988  0.3156  0.4393 -0.2994
 4706SOL    HW125754   2.940   4.058   0.983  0.4486 -0.1773 -0.7717
 4706SOL    HW225755   3.060   3.990   1.025 -0.6270 -0.2089 -1.1208
 4707SOL     OW25756   0.575   2.423   7.508 -0.8254  0.0809  0.3608
 4707SOL    HW125757   0.496   2.474   7.524 -0.7793  0.0201  0.7744
 4707SOL    HW225758   0.632   2.496   7.532 -0.8455 -0.4290  1.9205
 4708SOL     OW25759   1.961   0.967   3.267 -0.1985  0.1311  0.0175
 4708SOL    HW125760   2.046   1.003   3.241  0.2039  0.9981  2.5610
 4708SOL    HW225761   1.908   0.971   3.188  1.6889  0.3765 -1.2418
 4709SOL     OW25762   4.192   2.179   7.653  0.2498  0.6302  0.1902
 4709SOL    HW125763   4.212   2.154   7.562 -2.0537 -0.5779  0.0072
 4709SOL    HW225764   4.096   2.180   7.646  0.1800 -0.9380  0.8933
 4710SOL     OW25765   0.907   3.839   6.805 -0.0106 -0.7243  0.7803
 4710SOL    HW125766   0.969   3.877   6.867 -0.0207  1.0007 -0.2774
 4710SOL    HW225767   0.934   3.872   6.720 -2.8965  1.1966  0.6350
 4711SOL     OW25768   3.430   2.998   5.608 -0.5860  0.6150 -0.3268
 4711SOL    HW125769   3.467   3.085   5.622 -1.6357  1.3636 -2.1667
 4711SOL    HW225770   3.509   2.958   5.570 -1.0690 -0.6328  0.0006
 4712SOL     OW25771   4.731   2.433  17.220  0.8760  0.2612  0.5981
 4712SOL    HW125772   0.089   2.440  17.225  0.7459  0.8705  2.3839
 4712SOL    HW225773   4.727   2.441  17.124  1.2653  1.0452  0.6458
 4713SOL     OW25774   3.313   2.930   7.419  0.1708 -0.0078 -0.2320
 4713SOL    HW125775   3.262   2.871   7.362 -1.0988  0.5898  0.2815
 4713SOL    HW225776   3.349   2.986   7.351  1.3679  2.4591  2.4217
 4714SOL     OW25777   0.130   0.137   4.545 -0.2537  0.5010  0.4715
 4714SOL    HW125778   0.121   0.144   4.640  1.0470 -0.5036  0.6700
 4714SOL    HW225779   0.166   0.224   4.530  2.1817 -0.5401  0.3226
 4715SOL     OW25780   4.441   1.096   7.194 -0.2849 -0.6862  0.3504
 4715SOL    HW125781   4.523   1.102   7.145 -0.5358  1.1696  0.1559
 4715SOL    HW225782   4.437   1.186   7.225  1.2855 -0.6047  0.3051
 4716SOL     OW25783   0.768   3.350  13.117  0.5590  0.1116  0.1068
 4716SOL    HW125784   0.765   3.317  13.206  1.0080 -0.7000 -0.1802
 4716SOL    HW225785   0.838   3.415  13.118  0.1557  0.5322  0.7562
 4717SOL     OW25786   3.300   2.647  16.505 -0.1966  0.3419 -0.1360
 4717SOL    HW125787   3.269   2.571  16.455 -1.9392 -0.0117  1.4836
 4717SOL    HW225788   3.301   2.599  16.588  0.8884 -1.9803 -1.4872
 4718SOL     OW25789   3.950   1.481  17.223 -0.2117  0.6997  0.2027
 4718SOL    HW125790   3.891   1.555  17.236  0.0566  1.1313 -1.0040
 4718SOL    HW225791   3.888   1.414  17.193 -1.0498  1.2522  0.6972
 4719SOL     OW25792   3.096   4.715   6.268 -0.2098 -0.3513  0.4993
 4719SOL    HW125793   3.073   4.625   6.247  2.8831 -1.3967  1.5385
 4719SOL    HW225794   3.191   4.705   6.271 -0.0212  1.4445  0.4528
 4720SOL     OW25795   0.258   1.795  13.237 -0.5543 -0.0316 -0.2184
 4720SOL    HW125796   0.305   1.801  13.321 -0.4662  3.9197 -0.5469
 4720SOL    HW225797   0.186   1.734  13.253  0.1144 -0.3043  1.8043
 4721SOL     OW25798   1.183   0.833   9.847  0.3167 -0.2731 -0.5419
 4721SOL    HW125799   1.135   0.915   9.857  2.7041  0.7083  3.0504
 4721SOL    HW225800   1.181   0.815   9.753 -1.6143 -1.3949 -0.3040
 4722SOL     OW25801   0.779   1.462   3.565 -0.4330  0.0124 -0.0147
 4722SOL    HW125802   0.840   1.399   3.527  0.0497  1.4908 -1.6752
 4722SOL    HW225803   0.732   1.495   3.489  0.4982  0.5847 -0.3267
 4723SOL     OW25804   1.177   1.395  11.933 -0.0137  0.2817  0.1134
 4723SOL    HW125805   1.153   1.393  12.026  0.7428  1.1193  0.3195
 4723SOL    HW225806   1.154   1.483  11.905 -1.8128 -0.3291 -0.3653
 4724SOL     OW25807   0.087   2.362   9.230 -0.2470 -0.0369  0.3747
 4724SOL    HW125808   0.103   2.420   9.156 -0.8177 -1.7394 -1.0992
 4724SOL    HW225809   4.730   2.365   9.233 -0.2723 -0.0920 -0.4208
 4725SOL     OW25810   4.262   4.425   3.550  0.1767 -0.1722  0.0110
 4725SOL    HW125811   4.292   4.510   3.519  0.2492 -0.7220 -1.4528
 4725SOL    HW225812   4.251   4.383   3.465 -2.3533  1.9427 -0.6852
 4726SOL     OW25813   4.300   2.785   6.191  0.5265 -0.7581  0.3891
 4726SOL    HW125814   4.252   2.856   6.232 -1.0869 -1.1525 -0.8583
 4726SOL    HW225815   4.315   2.728   6.267  0.7088  0.0188  0.9280
 4727SOL     OW25816   2.073   3.659   2.600  0.1315  0.0698 -0.1556
 4727SOL    HW125817   2.016   3.734   2.617 -0.2484  0.1203 -1.6320
 4727SOL    HW225818   2.007   3.590   2.597 -0.6088  0.8134 -1.2031
 4728SOL     OW25819   2.263   3.522   2.809  0.4672  0.0471 -0.2515
 4728SOL    HW125820   2.192   3.553   2.753  0.3446 -1.2330 -0.8036
 4728SOL    HW225821   2.278   3.434   2.775 -1.0396  0.4847 -2.0546
 4729SOL     OW25822   0.987   0.832   0.704  0.3866 -0.3313  0.4574
 4729SOL    HW125823   1.035   0.913   0.685  0.2654 -0.4418 -0.3112
 4729SOL    HW225824   0.901   0.857   0.737  0.1240  0.2772 -0.6923
 4730SOL     OW25825   1.836   3.854  13.232  0.5098 -0.1683 -0.5348
 4730SOL    HW125826   1.784   3.925  13.268 -0.3404 -0.9048 -0.3158
 4730SOL    HW225827   1.911   3.856  13.292  0.8702  0.6578 -1.0150
 4731SOL     OW25828   0.622   0.710   1.703 -0.0895 -0.4509  0.1967
 4731SOL    HW125829   0.623   0.615   1.686 -2.1418 -0.7862  1.9794
 4731SOL    HW225830   0.685   0.712   1.776  1.6367  1.5774 -1.3463
 4732SOL     OW25831   0.838   0.325   5.398  0.1461 -0.2213 -0.2462
 4732SOL    HW125832   0.920   0.286   5.368  0.2647  0.2041 -0.4786
 4732SOL    HW225833   0.790   0.320   5.316 -0.2380  0.5393 -0.0710
 4733SOL     OW25834   3.478   4.578  17.356  0.0402 -0.1972 -0.3070
 4733SOL    HW125835   3.498   4.670  17.370 -1.7922 -0.5569  4.4942
 4733SOL    HW225836   3.419   4.579  17.281 -0.1124 -0.3800 -0.1895
 4734SOL     OW25837   1.653   1.032   1.589  0.1590  0.2450  0.0959
 4734SOL    HW125838   1.744   1.023   1.620  0.1234 -3.1110 -0.7300
 4734SOL    HW225839   1.672   1.058   1.499 -0.9678  0.8785  0.0532
 4735SOL     OW25840   0.289   0.571   8.091  0.4582 -0.2760 -0.4129
 4735SOL    HW125841   0.236   0.571   8.012 -1.5372 -0.8732  0.9423
 4735SOL    HW225842   0.262   0.652   8.134  1.1593 -1.6817  2.7471
 4736SOL     OW25843   2.176   0.655   6.761 -0.1487  0.3491 -0.0260
 4736SOL    HW125844   2.270   0.640   6.770  0.5256  3.1267 -2.2343
 4736SOL    HW225845   2.167   0.673   6.667 -0.0087 -0.2365 -0.1532
 4737SOL     OW25846   2.048   1.402   3.861 -0.2138  0.3984 -0.4095
 4737SOL    HW125847   1.964   1.394   3.817 -0.9788  1.5543  0.8194
 4737SOL    HW225848   2.102   1.376   3.787  1.7395  0.0588  1.1298
 4738SOL     OW25849   2.393   0.564   4.447 -0.3316  0.2349  0.2794
 4738SOL    HW125850   2.404   0.628   4.516 -2.5736  0.6937  0.1973
 4738SOL    HW225851   2.299   0.547   4.453  0.1890 -2.4226  1.1141
 4739SOL     OW25852   3.069   0.546  14.159  0.2129 -0.5092 -0.1920
 4739SOL    HW125853   3.088   0.593  14.078  1.5702 -1.2731 -0.3272
 4739SOL    HW225854   3.010   0.480  14.121  0.5070  0.1076 -1.7344
 4740SOL     OW25855   0.388   4.425   1.081 -0.0856 -0.4736 -0.8156
 4740SOL    HW125856   0.375   4.350   1.023  0.3212  0.3551 -1.9808
 4740SOL    HW225857   0.326   4.484   1.037  1.2520  1.1460 -0.5513
 4741SOL     OW25858   0.605   2.052   2.884 -0.3005 -0.2559  0.2059
 4741SOL    HW125859   0.522   2.099   2.889  0.0966  0.6337 -1.7000
 4741SOL    HW225860   0.576   1.979   2.828 -0.2361 -0.6775  0.7180
 4742SOL     OW25861   2.879   2.454  13.866  0.2361 -0.1950 -0.2269
 4742SOL    HW125862   2.861   2.515  13.795  0.0726 -0.1700 -0.1624
 4742SOL    HW225863   2.944   2.512  13.907  0.6491 -1.1438  0.4719
 4743SOL     OW25864   3.247   0.308   5.969 -0.3550  0.2276  0.4205
 4743SOL    HW125865   3.274   0.382   6.023  0.0080  0.7641 -0.5013
 4743SOL    HW225866   3.163   0.340   5.935  0.3300 -2.1217 -3.4435
 4744SOL     OW25867   2.757   2.109   2.407 -0.3092  0.3212  0.1901
 4744SOL    HW125868   2.685   2.053   2.435  0.1752 -0.7172 -0.5989
 4744SOL    HW225869   2.719   2.135   2.323  0.6872  0.2604 -0.2816
 4745SOL     OW25870   2.621   3.116   7.331  0.0826 -0.0925 -0.1726
 4745SOL    HW125871   2.656   3.190   7.381 -0.7750  0.0338  0.2502
 4745SOL    HW225872   2.544   3.162   7.297 -0.4104  1.1139  2.5872
 4746SOL     OW25873   2.644   4.216   5.908  0.1719 -0.4341  0.6210
 4746SOL    HW125874   2.701   4.258   5.972 -0.5049 -1.9014  2.1752
 4746SOL    HW225875   2.569   4.274   5.894  0.1174 -0.2793  1.5909
 4747SOL     OW25876   2.332   1.722   6.317 -0.0701 -0.5065  0.1620
 4747SOL    HW125877   2.259   1.662   6.305 -1.3339  0.6711  2.0683
 4747SOL    HW225878   2.365   1.738   6.228  2.7902 -1.5620  1.0440
 4748SOL     OW25879   3.836   1.280  17.085 -0.3982  0.6774  0.2673
 4748SOL    HW125880   3.840   1.275  16.990 -0.5809 -2.3347  0.3988
 4748SOL    HW225881   3.914   1.225  17.092 -1.1299 -0.3145  0.8007
 4749SOL     OW25882   3.645   4.707   3.336  0.1939 -0.3191 -0.1466
 4749SOL    HW125883   3.711   0.018   3.387 -0.6567  0.1982  0.4527
 4749SOL    HW225884   3.634   4.626   3.386 -0.2060  0.1824  0.5758
 4750SOL     OW25885   0.436   0.233   3.235  0.4776 -0.1022  0.3713
 4750SOL    HW125886   0.392   0.168   3.289  0.0821 -0.5838 -0.5407
 4750SOL    HW225887   0.523   0.193   3.244  0.9549  0.7206 -0.4794
 4751SOL     OW25888   0.587   2.366   8.438  0.3080 -0.0032 -0.4074
 4751SOL    HW125889   0.637   2.286   8.423  0.6038 -0.0125  0.6368
 4751SOL    HW225890   0.562   2.361   8.530 -0.1213  0.4244 -0.4956
 4752SOL     OW25891   4.094   2.708   9.367 -0.6683  0.4641 -0.6454
 4752SOL    HW125892   4.188   2.707   9.347 -0.6764 -0.6449 -0.6209
 4752SOL    HW225893   4.103   2.683   9.459 -0.5712  0.9667 -0.5176
 4753SOL     OW25894   3.757   2.317   0.640 -0.1524  0.1786 -0.7734
 4753SOL    HW125895   3.770   2.252   0.571 -1.8022 -0.9685 -0.0225
 4753SOL    HW225896   3.718   2.254   0.701  1.4689 -1.9205 -1.9215
 4754SOL     OW25897   0.700   4.119   5.452 -0.5490 -0.2199  0.4178
 4754SOL    HW125898   0.610   4.092   5.436 -0.8727  0.8600  0.4500
 4754SOL    HW225899   0.695   4.215   5.450  0.3787 -0.1404  1.6442
 4755SOL     OW25900   3.486   4.399   8.314 -0.2132  0.2485 -0.5693
 4755SOL    HW125901   3.513   4.448   8.392 -0.0458 -2.0116  0.7966
 4755SOL    HW225902   3.460   4.316   8.353  2.3352  0.4658  1.5830
 4756SOL     OW25903   2.195   1.894  13.531 -0.3768  0.4934  0.4152
 4756SOL    HW125904   2.230   1.954  13.464  1.9925  0.5439  1.6843
 4756SOL    HW225905   2.110   1.936  13.531 -1.5319 -1.8614 -0.0345
 4757SOL     OW25906   4.354   2.809   8.078  0.1874  0.0420 -0.3220
 4757SOL    HW125907   4.433   2.761   8.102 -1.0335 -1.4974  0.6114
 4757SOL    HW225908   4.304   2.736   8.041 -0.2201 -0.1802  0.6779
 4758SOL     OW25909   4.649   2.306   2.254  0.3931 -0.0841  0.2172
 4758SOL    HW125910   4.565   2.341   2.225  0.9775  1.6320  0.5759
 4758SOL    HW225911   4.647   2.214   2.230  1.4361 -0.7430  2.6426
 4759SOL     OW25912   1.565   1.997   1.234 -0.4706  0.4771  0.5992
 4759SOL    HW125913   1.622   2.034   1.166  0.9791 -3.5179 -0.3298
 4759SOL    HW225914   1.480   2.012   1.193  0.6048  0.8222 -1.5008
 4760SOL     OW25915   0.583   3.354   5.435  0.1959  0.1577 -0.3602
 4760SOL    HW125916   0.636   3.431   5.414  0.4909 -0.3233 -1.3492
 4760SOL    HW225917   0.512   3.400   5.479  1.4297  0.0517  1.7600
 4761SOL     OW25918   4.571   4.103   6.162 -0.1289 -0.2984  0.1691
 4761SOL    HW125919   4.541   4.190   6.133  1.8240  0.6878  1.0722
 4761SOL    HW225920   4.493   4.049   6.170  0.8240 -1.3270  2.3494
 4762SOL     OW25921   3.714   1.417  10.018 -0.0830 -0.4441 -0.6528
 4762SOL    HW125922   3.650   1.450  10.081  2.7022 -0.6452  2.2281
 4762SOL    HW225923   3.670   1.340   9.981 -1.4153  0.1175 -0.2665
 4763SOL     OW25924   0.747   0.311   5.140  0.1212 -0.1574 -0.5513
 4763SOL    HW125925   0.712   0.232   5.099  0.8322 -1.6849  1.8171
 4763SOL    HW225926   0.839   0.311   5.112  0.5710 -1.5669  0.9467
 4764SOL     OW25927   3.270   3.811  16.620  0.0239 -0.0797  0.3424
 4764SOL    HW125928   3.236   3.844  16.536 -2.2258 -2.5357  0.3174
 4764SOL    HW225929   3.209   3.856  16.678 -1.1473 -1.6374  0.2949
 4765SOL     OW25930   2.948   0.773  15.388 -0.6218 -0.5443  0.1301
 4765SOL    HW125931   2.899   0.823  15.323 -0.9240  0.9501  1.5065
 4765SOL    HW225932   2.968   0.688  15.349  0.7913 -0.6194  0.9972
 4766SOL     OW25933   2.482   2.088   8.294 -0.0364 -0.1525 -0.1649
 4766SOL    HW125934   2.475   2.088   8.198 -0.7175 -1.7732 -0.1263
 4766SOL    HW225935   2.479   1.994   8.311 -2.5074  0.0847  0.6275
 4767SOL     OW25936   0.438   3.668   0.316  0.1109  0.0050  0.4477
 4767SOL    HW125937   0.397   3.610   0.253 -0.6189  0.6682  0.3041
 4767SOL    HW225938   0.527   3.635   0.323  0.4419  0.7255 -0.4348
 4768SOL     OW25939   0.109   1.686   6.827  0.5105  0.3025 -0.1695
 4768SOL    HW125940   0.149   1.731   6.752  0.0257  2.1435  0.6715
 4768SOL    HW225941   0.029   1.738   6.838  1.2343  1.5475 -0.7419
 4769SOL     OW25942   0.314   1.992   4.381  0.1336  0.2058 -0.5177
 4769SOL    HW125943   0.229   1.949   4.373  1.3977 -2.1267 -1.3375
 4769SOL    HW225944   0.361   1.951   4.453 -1.8616  0.3881  0.9123
 4770SOL     OW25945   1.289   0.691   3.628 -0.0695  0.7776 -0.1494
 4770SOL    HW125946   1.351   0.755   3.664  1.1690 -0.5137  0.0321
 4770SOL    HW225947   1.218   0.751   3.605 -2.7749 -2.0028  1.1250
 4771SOL     OW25948   3.305   4.197  16.807 -0.1298 -0.1472 -0.4956
 4771SOL    HW125949   3.255   4.223  16.730 -0.6907  0.2215 -0.0019
 4771SOL    HW225950   3.342   4.279  16.841 -1.1753  0.4305 -0.7659
 4772SOL     OW25951   3.798   1.402   5.714 -0.0902 -0.4237  0.2353
 4772SOL    HW125952   3.833   1.456   5.784  0.3544 -1.5578  0.8756
 4772SOL    HW225953   3.734   1.464   5.679  0.3050  1.3344  2.6340
 4773SOL     OW25954   2.395   2.212   7.183 -0.2674 -0.0457  0.7912
 4773SOL    HW125955   2.468   2.180   7.130 -0.7007  1.4843 -0.7284
 4773SOL    HW225956   2.422   2.161   7.259  0.5457 -1.0392 -0.1744
 4774SOL     OW25957   3.111   1.797  16.283  0.2697 -0.4659  0.3213
 4774SOL    HW125958   3.110   1.809  16.378  1.6889 -0.4857  0.3315
 4774SOL    HW225959   3.149   1.710  16.276  4.0550  1.0924  1.9111
 4775SOL     OW25960   4.712   0.428   4.526 -0.2167  0.2906  0.2536
 4775SOL    HW125961   4.704   0.352   4.583  1.2254 -0.4523 -0.5316
 4775SOL    HW225962   4.694   0.388   4.441 -0.7727 -0.4307  0.7141
 4776SOL     OW25963   1.688   2.225   0.762  0.0482 -0.2564 -0.2868
 4776SOL    HW125964   1.625   2.241   0.692 -2.8496 -0.5334  2.3037
 4776SOL    HW225965   1.735   2.147   0.732 -0.8530 -1.4151  1.3244
 4777SOL     OW25966   4.515   0.986   3.714  0.7241  0.1534  0.1128
 4777SOL    HW125967   4.534   1.079   3.715 -4.8389  1.2983  1.1581
 4777SOL    HW225968   4.428   0.985   3.674  0.3013  0.1809  1.0350
 4778SOL     OW25969   3.501   1.451   8.703 -0.2949 -0.4535 -0.3299
 4778SOL    HW125970   3.580   1.461   8.756 -0.6035 -2.0639  0.4235
 4778SOL    HW225971   3.542   1.442   8.617  0.3576  0.0270 -0.0736
 4779SOL     OW25972   3.000   1.053  10.255  0.5174  0.1476  0.1272
 4779SOL    HW125973   3.047   0.986  10.205 -0.8839  0.1100 -1.1746
 4779SOL    HW225974   3.069   1.117  10.270 -0.4771  1.1654  0.3503
 4780SOL     OW25975   0.719   3.898  17.230 -0.3060  0.0812  0.0304
 4780SOL    HW125976   0.636   3.853  17.216  1.4041 -2.5655 -1.7400
 4780SOL    HW225977   0.705   3.905  17.324  0.3378  1.5206  0.0067
 4781SOL     OW25978   2.737   3.094   2.365  0.1513 -0.0734  0.3333
 4781SOL    HW125979   2.650   3.118   2.334 -0.2940 -2.5293 -0.2747
 4781SOL    HW225980   2.715   3.089   2.459 -1.3302  0.6441  0.0282
 4782SOL     OW25981   1.476   2.819  14.127 -0.1554  0.4038  0.0963
 4782SOL    HW125982   1.515   2.745  14.174 -3.6816 -1.8314 -0.4878
 4782SOL    HW225983   1.431   2.873  14.192 -1.4615 -1.1482  0.4728
 4783SOL     OW25984   1.020   1.887   3.529  0.3304 -0.1461  0.3239
 4783SOL    HW125985   0.939   1.866   3.483 -0.0951  0.4102  0.8238
 4783SOL    HW225986   1.007   1.830   3.605 -1.7597 -1.5557 -1.1061
 4784SOL     OW25987   4.464   3.413   5.007 -0.3974  0.5969  0.5538
 4784SOL    HW125988   4.523   3.390   4.935 -2.0819  1.0111 -0.9865
 4784SOL    HW225989   4.506   3.374   5.083  1.0780  0.5770 -0.2667
 4785SOL     OW25990   2.916   3.092   0.502  0.3726 -0.0112 -0.2969
 4785SOL    HW125991   2.943   3.074   0.592  0.6285  2.5088  0.1372
 4785SOL    HW225992   2.993   3.072   0.448 -0.1039 -3.9293  0.4893
 4786SOL     OW25993   0.599   3.688   3.585 -0.1250  0.5106 -0.4143
 4786SOL    HW125994   0.545   3.766   3.580 -0.9681 -0.1640 -2.0355
 4786SOL    HW225995   0.618   3.670   3.493 -2.9956 -1.3109 -0.6334
 4787SOL     OW25996   3.980   0.264   5.863  0.4288  0.3958 -0.2275
 4787SOL    HW125997   3.935   0.341   5.898 -2.1139 -0.8955 -0.6326
 4787SOL    HW225998   3.955   0.195   5.926 -1.9020 -0.3444 -1.9686
 4788SOL     OW25999   2.815   3.341  16.078 -0.7537  0.4272  0.0864
 4788SOL    HW126000   2.891   3.303  16.035 -2.2802 -0.0819 -2.1750
 4788SOL    HW226001   2.794   3.260  16.125  0.8290 -0.1319 -0.1846
 4789SOL     OW26002   2.219   0.325   3.860  0.3963 -0.1598  0.0069
 4789SOL    HW126003   2.275   0.276   3.800 -1.1036 -1.1723 -0.5567
 4789SOL    HW226004   2.278   0.391   3.898 -0.9494  1.8846 -1.4990
 4790SOL     OW26005   1.480   0.793   4.333  0.1553 -0.0311  0.3747
 4790SOL    HW126006   1.431   0.826   4.408  0.2753  1.5099 -0.2253
 4790SOL    HW226007   1.570   0.820   4.350 -0.1432  1.9423 -1.0971
 4791SOL     OW26008   4.612   0.817   9.978  0.1114 -0.1966  0.0697
 4791SOL    HW126009   4.656   0.738   9.946 -0.9522 -1.1339  0.8776
 4791SOL    HW226010   4.686   0.860  10.021  0.5084 -0.0871 -0.7336
 4792SOL     OW26011   1.369   1.001  12.441  0.1465 -0.1995 -0.8438
 4792SOL    HW126012   1.334   1.056  12.512  0.2426 -0.5894 -0.4931
 4792SOL    HW226013   1.301   1.010  12.375 -1.1494 -1.7606  0.2643
 4793SOL     OW26014   4.590   4.723  10.638 -0.1589 -0.9459 -0.1822
 4793SOL    HW126015   4.565   4.684  10.555 -1.4983 -0.6464  0.0914
 4793SOL    HW226016   4.673   0.031  10.619 -0.9680  1.2494  1.5728
 4794SOL     OW26017   0.296   3.052  17.733  0.3517 -0.0597  0.2539
 4794SOL    HW126018   0.296   2.956  17.730 -0.4698 -0.0379 -0.6640
 4794SOL    HW226019   0.265   3.082  17.647  2.5810  0.2377 -0.4455
 4795SOL     OW26020   0.698   2.316   0.540  0.0224 -0.0993 -0.6967
 4795SOL    HW126021   0.627   2.365   0.582  0.9388  0.1182  0.6146
 4795SOL    HW226022   0.756   2.310   0.616 -2.8939  0.8652  1.6002
 4796SOL     OW26023   4.354   3.914   7.842  0.1891 -0.0176 -0.7052
 4796SOL    HW126024   4.340   3.820   7.829  1.3434 -0.2095 -0.5375
 4796SOL    HW226025   4.443   3.918   7.807 -0.0254  0.2243 -1.2151
 4797SOL     OW26026   1.781   3.638   9.064 -0.0999 -0.9059  0.0615
 4797SOL    HW126027   1.826   3.555   9.083 -1.6125 -1.5710  0.7141
 4797SOL    HW226028   1.710   3.641   9.128 -1.6051 -0.0390 -1.6429
 4798SOL     OW26029   3.631   3.929   0.227 -0.0116 -0.2740 -0.0039
 4798SOL    HW126030   3.569   3.880   0.281 -0.0837 -0.4190 -0.2187
 4798SOL    HW226031   3.584   3.997   0.179 -0.7525 -0.2673  0.7422
 4799SOL     OW26032   3.209   1.021  15.259 -0.2807  0.8411 -0.2204
 4799SOL    HW126033   3.229   0.928  15.243 -0.3131  0.0063  4.7117
 4799SOL    HW226034   3.241   1.060  15.178  0.9526 -0.9259 -0.6020
 4800SOL     OW26035   4.333   1.626   3.056 -0.4095 -0.2123 -0.3379
 4800SOL    HW126036   4.246   1.665   3.062  0.0051  0.6790 -0.2127
 4800SOL    HW226037   4.300   1.537   3.070 -0.0035 -0.3499 -0.2437
 4801SOL     OW26038   0.143   2.377   0.692  0.4397  0.4694 -0.1100
 4801SOL    HW126039   0.072   2.316   0.710  1.3166 -0.0484  1.6989
 4801SOL    HW226040   0.215   2.314   0.691  2.2421  2.4477  2.8646
 4802SOL     OW26041   1.945   0.971   2.396 -0.2697 -0.5870  0.0116
 4802SOL    HW126042   1.981   1.026   2.327 -0.0265  0.5525  1.0359
 4802SOL    HW226043   1.853   0.986   2.372 -0.4805 -2.0830 -0.1112
 4803SOL     OW26044   2.784   3.088   4.424 -0.1323 -0.6125  0.1404
 4803SOL    HW126045   2.877   3.071   4.441  0.0153 -1.3616 -1.4132
 4803SOL    HW226046   2.797   3.152   4.354  2.9279  0.7856  1.9659
 4804SOL     OW26047   3.741   0.807   1.753 -0.2148  0.7588 -0.2046
 4804SOL    HW126048   3.668   0.754   1.722 -0.7141  1.5911 -0.4484
 4804SOL    HW226049   3.752   0.873   1.684  1.4550  0.1141 -0.5497
 4805SOL     OW26050   2.591   4.176   7.735  0.5321 -0.1867 -0.1039
 4805SOL    HW126051   2.618   4.140   7.819  0.8965  0.4111  0.0318
 4805SOL    HW226052   2.523   4.113   7.709  2.4869 -2.1910 -0.3257
 4806SOL     OW26053   0.505   0.410   9.617  0.1891 -0.1825 -0.1505
 4806SOL    HW126054   0.474   0.337   9.671 -1.8730  0.8731  0.1082
 4806SOL    HW226055   0.596   0.387   9.598  0.2503 -0.1917  0.1579
 4807SOL     OW26056   1.279   4.688  14.813 -0.2082  0.3443  0.4532
 4807SOL    HW126057   1.281   4.699  14.718 -0.8537 -0.3657  0.3657
 4807SOL    HW226058   1.215   4.617  14.820 -0.2382  0.5743  2.3862
 4808SOL     OW26059   1.937   2.503  17.587 -0.5567  0.6399  0.2295
 4808SOL    HW126060   1.865   2.476  17.530 -0.5587 -0.8264  0.9310
 4808SOL    HW226061   1.946   2.588  17.545 -1.3700  0.3934 -0.4390
 4809SOL     OW26062   0.312   4.546   6.501 -0.4372 -0.6068 -0.3259
 4809SOL    HW126063   0.347   4.569   6.587 -1.7812 -0.0243  0.0683
 4809SOL    HW226064   0.384   4.580   6.448  1.0052 -2.2806  0.5994
 4810SOL     OW26065   2.283   0.246   8.463 -0.2779  0.8283 -0.1259
 4810SOL    HW126066   2.335   0.319   8.431  1.1170 -0.3851 -0.6234
 4810SOL    HW226067   2.353   0.199   8.507 -0.4969 -0.1049 -0.7773
 4811SOL     OW26068   2.771   2.083  17.516  0.1244 -0.5716 -0.5202
 4811SOL    HW126069   2.828   2.008  17.504  0.4598 -0.3215 -0.4806
 4811SOL    HW226070   2.693   2.041  17.552 -0.8295 -0.2160 -2.1872
 4812SOL     OW26071   0.731   3.186   3.214  0.0101  0.2953 -0.2174
 4812SOL    HW126072   0.701   3.276   3.224 -2.2096 -0.3777 -0.8398
 4812SOL    HW226073   0.741   3.192   3.119  0.3278  2.1115 -0.0729
 4813SOL     OW26074   3.049   4.063   9.893 -0.4531  0.5022 -0.0233
 4813SOL    HW126075   2.995   4.052   9.972 -0.8972 -2.0621 -0.6668
 4813SOL    HW226076   3.095   3.979   9.891 -0.0870  0.7175 -0.5795
 4814SOL     OW26077   2.072   1.600   4.875  0.2928  0.2343 -0.0075
 4814SOL    HW126078   2.138   1.562   4.933 -0.4876 -3.7769 -1.7776
 4814SOL    HW226079   2.128   1.654   4.819  0.1333  1.2390  0.7944
 4815SOL     OW26080   3.407   4.244   0.974  0.6872  0.1704 -0.3434
 4815SOL    HW126081   3.491   4.290   0.974  0.2549  1.0061  2.4673
 4815SOL    HW226082   3.425   4.168   1.029 -0.7854 -0.7798 -1.1693
 4816SOL     OW26083   1.388   1.264  15.896  0.7992  0.0450  0.2844
 4816SOL    HW126084   1.330   1.258  15.821  0.6423  0.0272  0.4069
 4816SOL    HW226085   1.457   1.205  15.866  1.8531  1.0736  0.6482
 4817SOL     OW26086   1.091   3.742   5.405  0.3786  0.2108  0.2638
 4817SOL    HW126087   1.126   3.797   5.334 -0.0725  3.7746  2.8124
 4817SOL    HW226088   1.091   3.804   5.478  0.1481 -1.2226  1.4712
 4818SOL     OW26089   0.449   3.916   0.011 -0.1067  0.4336 -0.2239
 4818SOL    HW126090   0.419   3.951  17.676  1.3404 -0.1462 -0.9910
 4818SOL    HW226091   0.544   3.904   0.004  0.1925  3.5231 -1.7635
 4819SOL     OW26092   0.062   4.334   6.456 -0.6687 -0.4522 -0.3546
 4819SOL    HW126093   0.047   4.395   6.529  0.1268  1.7576 -2.0548
 4819SOL    HW226094   0.140   4.377   6.421  0.8330 -1.7029  1.4647
 4820SOL     OW26095   4.214   0.990   3.704 -0.6416  0.4697  1.0724
 4820SOL    HW126096   4.144   0.988   3.639  1.8422 -1.2472 -1.5250
 4820SOL    HW226097   4.179   0.919   3.758 -0.3834 -1.0950 -0.8024
 4821SOL     OW26098   2.764   3.574   4.459 -0.1704  0.4159 -0.5720
 4821SOL    HW126099   2.764   3.524   4.540 -1.3063  2.6378  0.8066
 4821SOL    HW226100   2.688   3.545   4.408  2.3691 -2.3703 -2.7788
 4822SOL     OW26101   4.608   0.127   7.065  0.2592  0.2456  0.8680
 4822SOL    HW126102   4.516   0.130   7.090 -0.1847 -1.2715 -0.6014
 4822SOL    HW226103   4.630   0.220   7.058 -0.1132  0.3947  1.6132
 4823SOL     OW26104   1.674   1.093   2.042 -0.2363 -0.1101  0.0973
 4823SOL    HW126105   1.632   1.008   2.049 -0.1420 -0.3108 -1.7657
 4823SOL    HW226106   1.759   1.075   2.002 -0.1704  0.6356 -0.1066
 4824SOL     OW26107   4.084   4.724   3.292 -0.0657  0.2818  0.3723
 4824SOL    HW126108   4.029   4.678   3.229  2.6016 -1.8779 -0.3615
 4824SOL    HW226109   4.072   4.672   3.371  1.7265  0.1536  0.5561
 4825SOL     OW26110   2.687   1.051  14.983  0.0045 -0.6881 -0.6154
 4825SOL    HW126111   2.748   1.100  14.928 -0.2178 -0.5214 -0.7154
 4825SOL    HW226112   2.612   1.110  14.981  0.5278  0.0107  0.5298
 4826SOL     OW26113   4.615   4.684   6.878 -0.0582  0.0047 -0.6351
 4826SOL    HW126114   4.598   0.014   6.943  0.0559 -0.2785 -0.3084
 4826SOL    HW226115   4.710   4.694   6.878 -0.3413  2.6985 -0.6846
 4827SOL     OW26116   1.429   1.157   4.633 -0.1944  0.1094  0.4810
 4827SOL    HW126117   1.522   1.179   4.638 -0.6261  1.3287  3.2267
 4827SOL    HW226118   1.396   1.225   4.693 -0.3312 -0.5659  1.1673
 4828SOL     OW26119   0.986   4.369   6.444  0.1169  0.0853  0.5002
 4828SOL    HW126120   1.022   4.283   6.467  1.0543  0.3251 -0.0717
 4828SOL    HW226121   0.896   4.339   6.436  0.6797 -0.9295 -1.9940
 4829SOL     OW26122   2.950   2.205   2.169  0.0485 -0.0471  0.3394
 4829SOL    HW126123   3.015   2.268   2.202  2.2144 -2.0164 -0.1538
 4829SOL    HW226124   2.982   2.121   2.202 -0.0106 -0.4006 -0.5005
 4830SOL     OW26125   4.037   2.317   0.549 -0.3559  0.2518  0.0444
 4830SOL    HW126126   3.982   2.314   0.627 -0.7683  1.2460 -0.2017
 4830SOL    HW226127   3.981   2.294   0.475  1.2795  2.5173 -1.8959
 4831SOL     OW26128   1.228   0.006   9.532 -0.1026  0.4420 -0.5459
 4831SOL    HW126129   1.189   0.086   9.566 -0.0009  0.2967 -0.0943
 4831SOL    HW226130   1.287   0.051   9.471  1.6116 -0.6608  0.2836
 4832SOL     OW26131   1.000   2.832   4.560 -0.3215  0.2208 -0.4744
 4832SOL    HW126132   1.088   2.797   4.546 -1.7034 -2.7092 -2.0306
 4832SOL    HW226133   0.951   2.752   4.580  1.1706 -0.4492  0.4493
 4833SOL     OW26134   2.355   1.821   7.612 -0.4842 -0.2791 -0.1854
 4833SOL    HW126135   2.306   1.746   7.580 -0.0687 -1.2395  1.4313
 4833SOL    HW226136   2.283   1.879   7.634  1.6689  1.6839  1.7424
 4834SOL     OW26137   1.291   2.956   8.491  0.6265  0.2621 -0.2773
 4834SOL    HW126138   1.288   2.940   8.397  0.4115 -0.2150 -0.1876
 4834SOL    HW226139   1.242   2.881   8.524  2.6868 -0.6165  0.7951
 4835SOL     OW26140   3.256   3.280   5.875 -0.1034 -0.0622  0.0883
 4835SOL    HW126141   3.277   3.287   5.968  0.5207  2.3212 -0.2273
 4835SOL    HW226142   3.294   3.195   5.851  1.2592 -0.4720  3.7616
 4836SOL     OW26143   4.097   3.397   2.810 -1.0543 -0.6973  0.3929
 4836SOL    HW126144   4.033   3.460   2.779  1.9363  1.0696 -2.1155
 4836SOL    HW226145   4.154   3.463   2.849 -1.2365 -0.2801 -0.0616
 4837SOL     OW26146   4.654   2.746   6.622  0.1204  0.4050  0.3374
 4837SOL    HW126147   4.678   2.662   6.660 -0.3636  0.5964  1.0729
 4837SOL    HW226148   4.698   2.749   6.537  0.4658 -1.1491  0.4686
 4838SOL     OW26149   1.877   3.180   8.194  0.4752 -0.2287  0.6788
 4838SOL    HW126150   1.892   3.274   8.198  0.6564 -0.1789 -1.2158
 4838SOL    HW226151   1.895   3.170   8.100  0.7937  3.9699  0.3085
 4839SOL     OW26152   1.811   2.804  13.131 -0.2766 -0.0474 -0.1086
 4839SOL    HW126153   1.792   2.712  13.151  1.5584 -0.4370 -0.1703
 4839SOL    HW226154   1.890   2.818  13.182  0.5481  1.9458 -1.9760
 4840SOL     OW26155   4.615   1.456   8.639  0.0417  0.3085  0.6034
 4840SOL    HW126156   4.521   1.465   8.657 -0.1325  0.8761 -0.6297
 4840SOL    HW226157   4.649   1.426   8.724 -0.5687 -2.2000 -0.0333
 4841SOL     OW26158   3.862   3.475   7.652  0.4496  0.0125  0.2985
 4841SOL    HW126159   3.833   3.520   7.572  0.6273  2.4006  1.5842
 4841SOL    HW226160   3.828   3.535   7.718  1.2120  2.7478 -1.8112
 4842SOL     OW26161   2.009   2.943   9.391 -0.0601 -0.0751  0.1452
 4842SOL    HW126162   2.046   2.992   9.318 -1.7730  1.2704  0.1611
 4842SOL    HW226163   1.918   2.933   9.361  0.0622 -0.0185 -0.2416
 4843SOL     OW26164   3.182   3.509   3.640  0.4235  0.7543 -0.2002
 4843SOL    HW126165   3.244   3.546   3.703  2.6680  0.1762 -2.0541
 4843SOL    HW226166   3.143   3.447   3.701  1.1900  0.2034 -0.2759
 4844SOL     OW26167   2.194   3.192  13.960 -0.2531 -0.0110  0.1590
 4844SOL    HW126168   2.267   3.133  13.942  1.2715  1.7374  0.5865
 4844SOL    HW226169   2.229   3.245  14.031 -1.3799  0.3371  0.4498
 4845SOL     OW26170   3.138   4.025  10.777 -0.7715 -0.2253  0.5313
 4845SOL    HW126171   3.164   3.935  10.800  2.0284  0.1205 -1.3225
 4845SOL    HW226172   3.177   4.080  10.845 -1.2695 -2.5256  2.6982
 4846SOL     OW26173   3.263   0.074  12.915 -0.1092 -0.0335 -0.5863
 4846SOL    HW126174   3.295   0.147  12.862  0.7231 -1.3729 -1.9244
 4846SOL    HW226175   3.246   0.101  13.006 -0.5829 -1.1869 -0.3365
 4847SOL     OW26176   1.717   2.206   5.988 -0.0104  0.0915  0.1144
 4847SOL    HW126177   1.743   2.168   5.904 -0.2353 -1.5822  0.7993
 4847SOL    HW226178   1.707   2.298   5.965  1.6864  0.4391  0.7587
 4848SOL     OW26179   2.910   2.929   8.596  0.3540 -0.2825  0.1669
 4848SOL    HW126180   2.878   3.018   8.604  2.1390  0.3486  0.3157
 4848SOL    HW226181   2.995   2.950   8.556  0.3989 -0.5493  0.1228
 4849SOL     OW26182   3.493   0.516   9.109 -0.3393  0.0869 -0.1348
 4849SOL    HW126183   3.483   0.484   9.199 -2.4927 -0.5450 -0.5812
 4849SOL    HW226184   3.492   0.611   9.118 -2.0869 -0.0396  1.0778
 4850SOL     OW26185   2.973   1.413  16.349 -0.2987 -0.2902  0.1599
 4850SOL    HW126186   3.050   1.469  16.340  0.9151 -1.7527  1.3069
 4850SOL    HW226187   2.981   1.365  16.267 -0.0924  2.1921 -1.2594
 4851SOL     OW26188   1.242   0.281   6.269 -0.1571  0.6272  0.1160
 4851SOL    HW126189   1.182   0.213   6.239  1.2043 -0.4566 -0.0888
 4851SOL    HW226190   1.180   0.324   6.328 -1.6724 -0.0568 -0.9673
 4852SOL     OW26191   4.203   1.935  17.664 -0.0273 -0.6680  0.4238
 4852SOL    HW126192   4.293   1.902  17.662  0.6042  1.2290 -1.9613
 4852SOL    HW226193   4.227   2.022  17.695  2.6185 -1.4244  0.5030
 4853SOL     OW26194   2.691   4.717   5.384 -0.3019 -0.4160  0.2220
 4853SOL    HW126195   2.767   4.714   5.326  1.7611 -1.1474  2.9757
 4853SOL    HW226196   2.636   0.038   5.332 -1.4461  0.4757  2.4437
 4854SOL     OW26197   1.804   1.796   4.843 -0.0285 -0.2536 -0.4579
 4854SOL    HW126198   1.720   1.753   4.860  0.2941 -1.6216 -2.2930
 4854SOL    HW226199   1.845   1.763   4.923  1.5414 -0.6128 -1.4073
 4855SOL     OW26200   3.495   4.028   9.320 -0.1366  0.1238  0.7745
 4855SOL    HW126201   3.487   4.121   9.342  0.1320  0.1132  0.9227
 4855SOL    HW226202   3.590   4.013   9.325 -0.2437 -0.7057  0.1499
 4856SOL     OW26203   4.562   1.016   8.759  0.1479 -0.0097 -0.2544
 4856SOL    HW126204   4.643   1.027   8.809 -0.8116  0.5999  1.1783
 4856SOL    HW226205   4.490   0.993   8.818 -0.2373 -1.8904 -1.4334
 4857SOL     OW26206   2.352   0.408   9.559 -0.4386  0.2620  0.4454
 4857SOL    HW126207   2.391   0.325   9.532 -1.2652  1.2908 -3.9930
 4857SOL    HW226208   2.314   0.404   9.647 -0.3045 -1.0570  0.4466
 4858SOL     OW26209   2.161   1.389  17.281  0.0150  0.0736  0.4305
 4858SOL    HW126210   2.144   1.338  17.360  1.0881 -0.8244  0.0887
 4858SOL    HW226211   2.141   1.480  17.305  3.5286  0.3802  2.2928
 4859SOL     OW26212   2.721   2.219   0.876  0.5039 -0.0478  0.3458
 4859SOL    HW126213   2.685   2.158   0.812 -1.7587  1.8382 -0.1914
 4859SOL    HW226214   2.647   2.239   0.934  1.9298 -0.5604  2.3241
 4860SOL     OW26215   4.523   0.117  13.775 -0.3948  0.3268  0.0289
 4860SOL    HW126216   4.486   0.057  13.710  0.4700  1.0148 -1.0927
 4860SOL    HW226217   4.565   0.187  13.725  0.8259 -1.0704 -0.9079
 4861SOL     OW26218   1.197   0.986   2.659  0.7465 -0.2095  0.1252
 4861SOL    HW126219   1.253   0.909   2.653  3.3039  1.7480 -0.6056
 4861SOL    HW226220   1.126   0.963   2.598  0.8626  0.9921 -0.4669
 4862SOL     OW26221   2.311   4.069   2.705  0.4909 -0.5366  0.5296
 4862SOL    HW126222   2.327   4.055   2.612  0.6554  0.8883  0.3373
 4862SOL    HW226223   2.370   4.003   2.741  1.6461  0.6813  0.8873
 4863SOL     OW26224   3.460   3.654   1.132 -0.3788  0.5325  0.2880
 4863SOL    HW126225   3.419   3.568   1.143  1.2546 -0.2064  0.6393
 4863SOL    HW226226   3.439   3.665   1.039  4.1046 -1.9038 -1.0114
 4864SOL     OW26227   3.776   3.626   7.860  0.2955  0.3265 -0.0831
 4864SOL    HW126228   3.803   3.673   7.939 -0.1386  1.2476 -0.4872
 4864SOL    HW226229   3.711   3.566   7.895  1.3579 -0.0145  1.3097
 4865SOL     OW26230   0.456   3.198   2.673 -0.3166 -0.7195  0.2831
 4865SOL    HW126231   0.396   3.155   2.734 -1.0819 -0.9013 -0.6030
 4865SOL    HW226232   0.426   3.165   2.589  2.6435 -1.2821 -0.5655
 4866SOL     OW26233   3.720   4.300   8.752 -0.5105 -0.5045  0.3082
 4866SOL    HW126234   3.726   4.240   8.677 -1.0352  0.3814 -0.4337
 4866SOL    HW226235   3.658   4.366   8.721 -0.2249 -0.3953 -0.0393
 4867SOL     OW26236   0.563   2.366   3.430  0.1223  0.2708  0.5480
 4867SOL    HW126237   0.549   2.297   3.365 -1.3730  0.0586  1.0942
 4867SOL    HW226238   0.659   2.370   3.433  0.1431 -0.0487  0.3486
 4868SOL     OW26239   0.907   3.168  14.430  0.3457 -0.2348  0.5052
 4868SOL    HW126240   0.986   3.127  14.464  1.3605  1.2388 -0.0487
 4868SOL    HW226241   0.924   3.165  14.336 -1.8859 -0.7020  0.1204
 4869SOL     OW26242   2.501   4.639   4.997 -0.2775 -0.1017 -0.7303
 4869SOL    HW126243   2.456   4.684   5.068  0.1535 -0.4541 -0.2370
 4869SOL    HW226244   2.483   4.547   5.015  3.8969 -0.7670  0.0475
 4870SOL     OW26245   0.384   0.212   1.463  0.0601 -0.7881 -0.2665
 4870SOL    HW126246   0.391   0.133   1.516  1.0426 -0.8642 -0.5143
 4870SOL    HW226247   0.469   0.218   1.419 -0.6221 -1.8061 -1.7233
 4871SOL     OW26248   2.504   2.481   8.276  0.0760 -0.6285 -0.6230
 4871SOL    HW126249   2.524   2.392   8.306 -0.3089  0.1470  2.0036
 4871SOL    HW226250   2.588   2.526   8.281 -0.2233 -0.2283  0.7715
 4872SOL     OW26251   1.433   4.276  16.244  0.3584 -0.3071  0.1502
 4872SOL    HW126252   1.383   4.252  16.323 -0.5480 -0.3454 -0.4335
 4872SOL    HW226253   1.460   4.367  16.259  0.1916 -0.0742 -0.9740
 4873SOL     OW26254   4.138   4.490   4.330 -0.1045 -0.3533  0.3627
 4873SOL    HW126255   4.191   4.566   4.305 -0.3973 -1.4016 -3.4841
 4873SOL    HW226256   4.099   4.467   4.245  2.0878 -1.4413 -0.3612
 4874SOL     OW26257   0.016   2.092   5.273  0.4259  0.7999  0.6538
 4874SOL    HW126258   0.032   2.008   5.315 -0.5245  0.7222  0.8761
 4874SOL    HW226259   0.100   2.108   5.230 -0.0521 -0.4683 -0.7582
 4875SOL     OW26260   3.321   0.865   5.980  0.0127  0.4943 -0.2154
 4875SOL    HW126261   3.394   0.815   6.018  0.1315  2.1939  1.8055
 4875SOL    HW226262   3.299   0.808   5.907  0.2108 -0.0532  0.1463
 4876SOL     OW26263   2.583   0.039  16.636  0.1862 -0.1976  0.5055
 4876SOL    HW126264   2.662   0.091  16.617 -0.9369  0.8991 -1.1601
 4876SOL    HW226265   2.554   0.086  16.714 -1.0446  1.6989 -1.1034
 4877SOL     OW26266   0.768   4.509  17.025 -0.3139  0.0055 -0.2085
 4877SOL    HW126267   0.767   4.587  16.969  0.4151  0.6142  0.6224
 4877SOL    HW226268   0.746   4.547  17.110 -0.0293 -1.2191  0.4073
 4878SOL     OW26269   0.160   2.197  16.247 -0.2042 -0.0755 -0.2286
 4878SOL    HW126270   0.094   2.131  16.227  0.1893 -0.1615 -1.2512
 4878SOL    HW226271   0.226   2.144  16.293 -1.4347 -1.8284 -0.4515
 4879SOL     OW26272   0.921   3.762   8.137 -0.3558 -0.4154 -0.2185
 4879SOL    HW126273   0.953   3.832   8.081 -1.2876  1.5123  1.6289
 4879SOL    HW226274   0.936   3.681   8.088  0.1735  0.6850 -1.8684
 4880SOL     OW26275   1.551   1.568   7.496 -0.4294  0.2093 -0.1175
 4880SOL    HW126276   1.568   1.500   7.562 -0.7141 -0.3454 -0.6166
 4880SOL    HW226277   1.594   1.648   7.526  1.1153  0.6044 -3.4414
 4881SOL     OW26278   0.281   4.022   8.228  0.7012  0.1380 -0.4973
 4881SOL    HW126279   0.188   3.997   8.227  0.5350  0.6919  1.2735
 4881SOL    HW226280   0.291   4.043   8.135  1.0603  0.1286 -0.4604
 4882SOL     OW26281   0.512   3.518   7.108 -0.0668 -0.4865 -0.1438
 4882SOL    HW126282   0.429   3.509   7.156  0.1734 -0.8395  0.2012
 4882SOL    HW226283   0.577   3.486   7.170 -0.6026 -0.7030  0.3109
 4883SOL     OW26284   1.586   0.613  11.618  0.3331 -0.2803 -0.3728
 4883SOL    HW126285   1.614   0.603  11.527  0.1538  0.4759 -0.5068
 4883SOL    HW226286   1.530   0.536  11.625 -2.1168  1.5558  0.1088
 4884SOL     OW26287   4.707   4.386  15.736 -0.3911 -0.4056  0.1712
 4884SOL    HW126288   4.674   4.380  15.825  1.7314  1.0181  1.0710
 4884SOL    HW226289   0.014   4.471  15.735  0.0146 -0.6320 -1.7980
 4885SOL     OW26290   2.167   2.072   3.763 -0.1867  0.0966  0.4087
 4885SOL    HW126291   2.081   2.056   3.723 -0.2268  2.9362 -0.6365
 4885SOL    HW226292   2.140   2.134   3.830  0.7776 -0.5028  1.3499
 4886SOL     OW26293   0.433   1.959   7.628  0.0488 -0.1029 -0.2373
 4886SOL    HW126294   0.435   1.945   7.723  0.2577 -1.2221 -0.4154
 4886SOL    HW226295   0.451   1.875   7.586  1.7002 -0.3956  1.0715
 4887SOL     OW26296   0.803   1.597  15.530  0.2963 -0.0055  0.5550
 4887SOL    HW126297   0.713   1.570  15.548  0.4983 -1.1421 -0.1137
 4887SOL    HW226298   0.853   1.526  15.570  0.3138  0.1320  0.7787
 4888SOL     OW26299   1.553   4.620   7.574 -0.1424  0.1806 -0.4618
 4888SOL    HW126300   1.628   4.658   7.622  0.1143  0.0655 -0.7726
 4888SOL    HW226301   1.581   4.532   7.550  0.2384 -0.1058  0.9964
 4889SOL     OW26302   3.120   0.098  13.499  0.2811  0.3953 -0.0458
 4889SOL    HW126303   3.084   0.171  13.550  1.3054 -0.1506  1.4428
 4889SOL    HW226304   3.212   0.111  13.520  0.9117  0.3534 -2.7791
 4890SOL     OW26305   4.003   4.701   6.778 -0.5483 -0.8801 -0.1824
 4890SOL    HW126306   4.049   4.633   6.728  3.5896  1.0307  1.0539
 4890SOL    HW226307   3.926   4.707   6.721  0.2213  2.4904 -0.8677
 4891SOL     OW26308   4.206   3.653   8.307 -0.2979 -0.2888  0.1379
 4891SOL    HW126309   4.166   3.714   8.244 -0.8358 -0.9109 -0.1187
 4891SOL    HW226310   4.136   3.588   8.313  0.1594 -0.7751  0.1651
 4892SOL     OW26311   2.171   3.191   9.647 -0.0087 -0.0003  0.4982
 4892SOL    HW126312   2.141   3.256   9.584  0.4140  0.5175  0.8305
 4892SOL    HW226313   2.117   3.114   9.629  3.2562 -1.6472 -2.1703
 4893SOL     OW26314   0.516   4.643  14.445  0.1542 -0.4142  0.2511
 4893SOL    HW126315   0.600   4.645  14.400 -0.7892  2.9045 -1.3803
 4893SOL    HW226316   0.456   4.638  14.370  0.0173  1.1110  0.2734
 4894SOL     OW26317   2.444   0.697   4.685  0.1060  0.4129 -0.5008
 4894SOL    HW126318   2.471   0.612   4.719  0.2510  1.0344  0.9554
 4894SOL    HW226319   2.438   0.744   4.769 -1.5365  0.1268 -0.4464
 4895SOL     OW26320   0.606   1.355  12.447  0.4910  0.5079  0.8225
 4895SOL    HW126321   0.640   1.359  12.358 -2.6447 -4.1393 -0.6044
 4895SOL    HW226322   0.659   1.278  12.468 -0.2154 -0.3002 -0.3311
 4896SOL     OW26323   1.702   4.240   4.317  0.3287 -0.0414  0.2723
 4896SOL    HW126324   1.666   4.283   4.240  1.2383  0.2941  0.0318
 4896SOL    HW226325   1.715   4.319   4.370 -1.4744 -0.3678  1.1858
 4897SOL     OW26326   3.265   2.829   2.065 -0.0182  0.1228 -0.1445
 4897SOL    HW126327   3.307   2.790   2.141  1.8433  2.4602  0.0088
 4897SOL    HW226328   3.236   2.917   2.091 -0.4339 -0.3163  0.8526
 4898SOL     OW26329   0.602   4.007  15.513 -0.0006  0.7393  0.3055
 4898SOL    HW126330   0.534   3.963  15.461 -0.9401 -0.2926  2.3924
 4898SOL    HW226331   0.642   3.934  15.560 -0.1378 -0.3979 -1.3574
 4899SOL     OW26332   1.555   1.140   3.015 -0.7610 -0.3394 -0.2172
 4899SOL    HW126333   1.637   1.157   2.969 -0.6550 -1.6267 -0.5028
 4899SOL    HW226334   1.518   1.227   3.003  0.3751 -0.1446 -2.2365
 4900SOL     OW26335   3.977   3.444   4.968  0.2071 -0.9636  0.2269
 4900SOL    HW126336   3.890   3.450   5.007  1.6000  3.3001  2.5789
 4900SOL    HW226337   3.969   3.350   4.948 -1.3491 -0.4484 -1.6434
 4901SOL     OW26338   2.304   3.593  12.500 -0.8559 -0.4555  0.7891
 4901SOL    HW126339   2.387   3.554  12.472  0.3558  1.0142  2.3079
 4901SOL    HW226340   2.343   3.667  12.548  3.1438 -0.8621 -1.8499
 4902SOL     OW26341   0.018   0.011   8.501 -0.3248  0.2186  0.1183
 4902SOL    HW126342   4.675   0.029   8.549 -0.7367 -1.6281  0.1005
 4902SOL    HW226343   4.734   0.054   8.418  1.2215 -0.9991 -0.9096
 4903SOL     OW26344   0.305   2.699   2.437 -0.0670  0.3642 -0.1482
 4903SOL    HW126345   0.388   2.657   2.415  0.8887  2.0816  0.2545
 4903SOL    HW226346   0.263   2.711   2.352 -1.0061 -0.4906  0.1869
 4904SOL     OW26347   0.338   2.121   5.919  0.4087 -0.6141  0.0460
 4904SOL    HW126348   0.311   2.186   5.854 -0.6199  0.3920  1.4948
 4904SOL    HW226349   0.409   2.074   5.875 -0.1879 -0.9372 -0.5772
 4905SOL     OW26350   3.599   0.335  16.743 -0.5630 -0.1681  0.1032
 4905SOL    HW126351   3.632   0.361  16.829 -0.4313  0.6446 -0.1877
 4905SOL    HW226352   3.592   0.417  16.694 -1.3079 -0.8574 -0.9250
 4906SOL     OW26353   2.464   0.296   6.826  0.1558 -0.2304 -0.3907
 4906SOL    HW126354   2.503   0.210   6.846  0.0379 -0.1539  0.1653
 4906SOL    HW226355   2.382   0.291   6.874 -0.9126  0.4409 -2.1639
 4907SOL     OW26356   0.036   4.399   7.529  0.0639 -0.1460  0.3080
 4907SOL    HW126357   0.034   4.442   7.615 -2.4989  0.6552 -0.1305
 4907SOL    HW226358   4.709   4.450   7.480  0.7728 -0.4373 -0.9419
 4908SOL     OW26359   3.608   2.569   8.239  0.1402 -0.2630 -0.0538
 4908SOL    HW126360   3.599   2.540   8.149 -0.2108  0.2301 -0.1781
 4908SOL    HW226361   3.535   2.631   8.238  2.6008  2.7223  2.5952
 4909SOL     OW26362   0.003   2.908   6.829 -0.4781  0.4648 -0.5010
 4909SOL    HW126363   4.700   2.827   6.798  0.7126 -0.6295  0.8163
 4909SOL    HW226364   4.657   2.949   6.851 -1.0992 -1.7290  1.2680
 4910SOL     OW26365   2.709   1.668   8.197 -0.0608  0.5066 -0.4231
 4910SOL    HW126366   2.706   1.712   8.112  2.2590  0.2707 -0.6284
 4910SOL    HW226367   2.731   1.581   8.162 -3.5814 -0.1489 -1.0094
 4911SOL     OW26368   0.735   1.372   7.649  0.0321 -0.3651  0.0609
 4911SOL    HW126369   0.819   1.366   7.604 -0.5472 -0.1616 -1.0485
 4911SOL    HW226370   0.673   1.404   7.584  1.1685 -2.2751 -1.9668
 4912SOL     OW26371   3.856   2.171   0.423 -0.5858 -0.7889 -0.3499
 4912SOL    HW126372   3.877   2.084   0.391  3.0142 -0.2137  0.4101
 4912SOL    HW226373   3.782   2.199   0.369 -0.5346  2.6991  1.3638
 4913SOL     OW26374   3.341   1.491   4.398 -0.0117  0.0779  1.0407
 4913SOL    HW126375   3.386   1.527   4.322 -1.0677  0.7399  0.7257
 4913SOL    HW226376   3.247   1.507   4.385  0.6073  1.9938 -1.1111
 4914SOL     OW26377   1.826   0.639   9.200 -0.4685 -0.6383 -0.2235
 4914SOL    HW126378   1.859   0.701   9.265 -1.4482 -1.7511  1.3311
 4914SOL    HW226379   1.839   0.554   9.242  0.1950  0.0077  0.8764
 4915SOL     OW26380   4.287   0.643   7.535  0.4865  0.5570  0.5902
 4915SOL    HW126381   4.293   0.738   7.527  1.5537  0.5621  1.3918
 4915SOL    HW226382   4.242   0.623   7.453 -1.6339 -0.6644  2.0375
 4916SOL     OW26383   1.453   0.098   2.107 -0.1506  0.1484  0.0369
 4916SOL    HW126384   1.490   0.105   2.195  0.6273  1.0309 -0.3720
 4916SOL    HW226385   1.360   0.095   2.131 -0.0210  0.2692  0.5587
 4917SOL     OW26386   2.935   0.155   4.624 -0.0775 -0.0723 -0.4222
 4917SOL    HW126387   2.921   0.243   4.657 -0.0827 -0.0715 -0.4264
 4917SOL    HW226388   2.924   0.159   4.529  0.5836  2.0197 -0.4102
 4918SOL     OW26389   0.189   1.292   5.583 -0.1464  0.8087  0.0883
 4918SOL    HW126390   0.229   1.324   5.663 -1.8972  1.7926  0.5712
 4918SOL    HW226391   0.206   1.198   5.590  0.7089  1.2670  4.1422
 4919SOL     OW26392   3.625   4.398   0.898  0.2816 -0.0571  0.1012
 4919SOL    HW126393   3.715   4.368   0.911  0.6213  0.4092 -1.1640
 4919SOL    HW226394   3.630   4.460   0.826 -0.6261 -0.1732 -0.0601
 4920SOL     OW26395   3.922   1.316   6.636  0.2395 -0.4473  0.3105
 4920SOL    HW126396   3.866   1.247   6.600 -3.2696  2.5205  0.0484
 4920SOL    HW226397   4.004   1.267   6.639  0.7920  0.4920  0.6893
 4921SOL     OW26398   1.071   0.859   8.053 -0.2605 -0.1058 -0.3253
 4921SOL    HW126399   1.042   0.943   8.089  1.8177  0.7118 -0.5732
 4921SOL    HW226400   1.146   0.844   8.111 -0.5089  0.0880  0.0481
 4922SOL     OW26401   4.356   0.858   4.265 -0.0240  0.0765 -0.7148
 4922SOL    HW126402   4.283   0.845   4.205 -0.8939 -0.0614  0.3829
 4922SOL    HW226403   4.308   0.914   4.325  3.1771  2.0329  0.0178
 4923SOL     OW26404   1.063   4.168   8.251 -0.1859 -0.5925 -0.0144
 4923SOL    HW126405   1.022   4.094   8.296  2.0821 -0.2019  2.6830
 4923SOL    HW226406   1.122   4.124   8.189 -1.1002 -1.1363 -0.4967
 4924SOL     OW26407   0.241   1.976   8.950 -0.0820 -0.1779  0.1831
 4924SOL    HW126408   0.232   2.017   9.036 -4.0375 -0.2014 -0.2211
 4924SOL    HW226409   0.335   1.960   8.949  0.4661  3.0943 -1.0174
 4925SOL     OW26410   0.524   2.764   3.579  0.0110  0.3865 -0.5689
 4925SOL    HW126411   0.552   2.754   3.670  0.4115 -2.0759 -0.9494
 4925SOL    HW226412   0.438   2.805   3.583 -1.5086 -2.6119 -2.2171
 4926SOL     OW26413   1.939   2.324   3.309  0.1748  0.2266  0.5489
 4926SOL    HW126414   1.882   2.367   3.245  0.9716  0.2706 -0.1178
 4926SOL    HW226415   1.962   2.400   3.363  1.1679  2.2774 -2.7765
 4927SOL     OW26416   4.380   0.166   7.368 -0.1772 -0.2930  0.3844
 4927SOL    HW126417   4.416   0.241   7.417  0.5759  1.4150 -2.7657
 4927SOL    HW226418   4.458   0.111   7.377  0.8153  1.4789  2.8688
 4928SOL     OW26419   0.832   1.830   0.434 -0.2939  0.5394  0.0566
 4928SOL    HW126420   0.850   1.804   0.343  0.1646  1.1067 -0.0172
 4928SOL    HW226421   0.860   1.921   0.424 -2.1156  1.2865  1.8139
 4929SOL     OW26422   0.643   0.580   5.509 -0.0914  0.0575 -0.5226
 4929SOL    HW126423   0.559   0.622   5.528  0.7189  1.9885 -1.3026
 4929SOL    HW226424   0.628   0.552   5.419  1.1702 -1.4910 -0.2491
 4930SOL     OW26425   3.849   3.098   2.596  0.3371  0.0248  0.1804
 4930SOL    HW126426   3.920   3.117   2.657 -1.1796 -2.7604  2.8068
 4930SOL    HW226427   3.791   3.168   2.626  2.5003  2.7203 -1.9663
 4931SOL     OW26428   2.601   3.607  16.794 -0.9776 -0.4778  0.0690
 4931SOL    HW126429   2.563   3.525  16.763 -2.0966 -0.1675  0.6257
 4931SOL    HW226430   2.682   3.579  16.836 -0.1646 -1.8709 -2.4303
 4932SOL     OW26431   1.375   4.029   9.227 -0.1455 -0.2020  0.1315
 4932SOL    HW126432   1.333   4.107   9.190 -0.1009 -0.2470 -0.0173
 4932SOL    HW226433   1.363   4.052   9.318 -0.0637 -3.2093  0.9144
 4933SOL     OW26434   0.599   2.519  14.869 -0.7384  0.1054 -0.1959
 4933SOL    HW126435   0.520   2.487  14.913 -1.0026 -1.7069 -2.0167
 4933SOL    HW226436   0.639   2.583  14.929  0.4416  1.3256 -2.2858
 4934SOL     OW26437   0.772   0.548   6.151  0.2804  0.6854  0.0846
 4934SOL    HW126438   0.734   0.604   6.084  0.7455  2.3578  1.2183
 4934SOL    HW226439   0.717   0.560   6.229 -0.1664  3.9328 -0.7356
 4935SOL     OW26440   2.166   0.328   2.632  0.1600 -0.1179  0.0905
 4935SOL    HW126441   2.205   0.335   2.719 -1.2873 -2.0817  0.9170
 4935SOL    HW226442   2.223   0.384   2.580  0.8132 -1.2223 -0.4018
 4936SOL     OW26443   0.495   2.151  13.684  0.1338  0.4785  0.7381
 4936SOL    HW126444   0.581   2.188  13.665  0.9983 -3.1568 -2.4254
 4936SOL    HW226445   0.436   2.215  13.645  0.6050 -0.1853 -1.0586
 4937SOL     OW26446   1.416   3.791   8.505  0.2813  0.2218  0.8312
 4937SOL    HW126447   1.397   3.882   8.482 -0.6503  0.4606  2.4620
 4937SOL    HW226448   1.430   3.809   8.598 -0.4890  0.3930  0.9189
 4938SOL     OW26449   0.604   3.050  16.904  0.3477  0.0866  0.4203
 4938SOL    HW126450   0.574   3.072  16.816 -0.8979 -0.9413  0.5954
 4938SOL    HW226451   0.697   3.047  16.884  0.2689  0.4786 -0.0101
 4939SOL     OW26452   1.159   2.800  12.304 -0.0843  0.0336  0.4008
 4939SOL    HW126453   1.083   2.767  12.256  0.0319  1.6101 -0.8471
 4939SOL    HW226454   1.117   2.886  12.315  2.2734  1.2073  0.2154
 4940SOL     OW26455   4.646   4.148  15.628  0.1134  0.3013 -0.2332
 4940SOL    HW126456   4.566   4.162  15.578  0.4235  1.6610 -0.3479
 4940SOL    HW226457   4.671   4.235  15.657  0.3939  0.3835 -0.7270
 4941SOL     OW26458   1.073   2.222   2.546  0.5069  0.0078 -0.3946
 4941SOL    HW126459   0.988   2.266   2.553 -0.5123 -2.2353  1.2136
 4941SOL    HW226460   1.031   2.136   2.550 -0.9648  0.7308 -0.3088
 4942SOL     OW26461   4.447   3.134   0.171  0.0416 -0.7084 -0.3787
 4942SOL    HW126462   4.406   3.215   0.142 -0.7142 -0.3299  1.7699
 4942SOL    HW226463   4.421   3.143   0.263  0.5119 -1.4272 -0.1737
 4943SOL     OW26464   4.022   1.930   1.613 -0.2423 -0.2123  1.0857
 4943SOL    HW126465   3.999   2.010   1.661 -0.5388  0.7170 -0.5807
 4943SOL    HW226466   4.033   1.973   1.528  0.6826 -1.5463  0.5354
 4944SOL     OW26467   1.258   2.364   7.613 -0.3074 -0.1766  0.3499
 4944SOL    HW126468   1.335   2.416   7.589  0.5104 -1.0225  1.1680
 4944SOL    HW226469   1.204   2.382   7.536 -0.5906  2.4991  1.1771
 4945SOL     OW26470   0.122   1.733   2.299 -0.0520  0.1970 -0.0283
 4945SOL    HW126471   0.177   1.659   2.324  0.2471  0.3733 -0.1714
 4945SOL    HW226472   0.157   1.761   2.214 -1.5070 -0.2775 -0.7770
 4946SOL     OW26473   3.698   3.901   1.150  0.9322 -0.1587 -0.0788
 4946SOL    HW126474   3.606   3.923   1.138  0.8201 -0.9706 -0.7399
 4946SOL    HW226475   3.697   3.893   1.245  0.3678  1.1458  0.0259
 4947SOL     OW26476   0.733   1.349   1.089 -0.1332 -0.5026  0.0059
 4947SOL    HW126477   0.752   1.404   1.013  0.7938  0.1184  0.6768
 4947SOL    HW226478   0.761   1.264   1.057  0.9453  0.1626 -0.8542
 4948SOL     OW26479   3.853   0.881   6.675  0.1454 -0.2087 -0.2472
 4948SOL    HW126480   3.765   0.846   6.686  0.4601 -1.1128 -0.6062
 4948SOL    HW226481   3.905   0.803   6.695 -0.7459 -0.6314  0.4278
 4949SOL     OW26482   1.677   1.041   6.164  0.2668 -0.0838 -0.1950
 4949SOL    HW126483   1.596   1.007   6.202 -1.1168  1.5520 -1.6895
 4949SOL    HW226484   1.680   1.127   6.207 -0.9630  1.4626 -3.2138
 4950SOL     OW26485   1.404   0.573   1.265  0.9537  0.0520 -0.9989
 4950SOL    HW126486   1.476   0.546   1.321 -0.3045 -2.3256 -0.5156
 4950SOL    HW226487   1.442   0.616   1.189 -0.2008  0.2001 -1.5075
 4951SOL     OW26488   4.606   2.437   7.514 -0.0300  0.6661  0.1414
 4951SOL    HW126489   4.601   2.359   7.459  0.5498  1.0562 -0.4614
 4951SOL    HW226490   4.523   2.480   7.495  0.3207  0.2613 -2.3384
 4952SOL     OW26491   4.427   2.106  10.689  0.6659  0.0864 -0.1799
 4952SOL    HW126492   4.394   2.022  10.655  0.1060  1.1842 -2.3547
 4952SOL    HW226493   4.520   2.086  10.677  1.0959  2.0656 -0.0799
 4953SOL     OW26494   1.463   2.061   6.878  0.1348 -0.5936 -0.7553
 4953SOL    HW126495   1.477   2.082   6.971 -2.4170  0.5929 -0.6310
 4953SOL    HW226496   1.551   2.051   6.840  0.1402  1.3094 -1.2499
 4954SOL     OW26497   1.541   2.840   1.445  0.3403 -0.0647  0.4486
 4954SOL    HW126498   1.516   2.788   1.521 -0.0775 -0.8806 -0.2419
 4954SOL    HW226499   1.466   2.899   1.435 -0.8737 -1.5705  0.7274
 4955SOL     OW26500   2.455   2.206   5.220 -0.0163  0.2942 -0.3276
 4955SOL    HW126501   2.508   2.284   5.238 -0.4158  0.2039  1.2175
 4955SOL    HW226502   2.453   2.195   5.125  0.0611 -0.9518 -0.1870
 4956SOL     OW26503   2.013   1.228  12.081 -0.2556  0.2934  0.2500
 4956SOL    HW126504   2.028   1.139  12.114  0.9108  0.4802  0.2263
 4956SOL    HW226505   2.062   1.234  11.999  0.5626  1.2799  0.7988
 4957SOL     OW26506   3.141   4.618  16.121  0.1674 -0.0868  0.4822
 4957SOL    HW126507   3.107   4.540  16.166 -1.2421 -0.5382 -1.3620
 4957SOL    HW226508   3.056   4.661  16.114  0.2976  0.1270  0.2208
 4958SOL     OW26509   3.609   0.191   5.588  0.4699  0.2966  0.0476
 4958SOL    HW126510   3.636   0.103   5.563  0.4868  0.3202 -0.0171
 4958SOL    HW226511   3.547   0.170   5.657 -1.7543  0.8336 -1.7893
 4959SOL     OW26512   4.574   3.220   8.025 -0.3865  0.7205  0.0477
 4959SOL    HW126513   4.666   3.245   8.020 -0.5670  1.3142 -0.2189
 4959SOL    HW226514   4.589   3.160   8.098  0.4391  0.1834 -0.5722
 4960SOL     OW26515   0.813   1.608   3.148  0.7816  0.2671 -0.3924
 4960SOL    HW126516   0.829   1.604   3.053  0.5721  0.8734 -0.4540
 4960SOL    HW226517   0.895   1.570   3.179  1.1383 -0.1204 -1.7760
 4961SOL     OW26518   4.652   4.479   8.349 -0.2141 -0.4284  0.0796
 4961SOL    HW126519   4.728   4.503   8.401  0.7512 -2.5778 -0.3432
 4961SOL    HW226520   4.684   4.432   8.272 -0.5858 -1.7562  0.7415
 4962SOL     OW26521   4.496   2.654  12.166 -0.5513 -0.4271  0.5005
 4962SOL    HW126522   4.496   2.579  12.106  3.3291  0.8828 -1.1631
 4962SOL    HW226523   4.483   2.721  12.098 -0.6219 -0.8503  0.0949
 4963SOL     OW26524   4.115   3.277   3.559  0.3740  0.2705 -0.0962
 4963SOL    HW126525   4.191   3.221   3.548  0.4724  0.5190 -0.6879
 4963SOL    HW226526   4.049   3.210   3.578  1.9938 -1.2759  0.0849
 4964SOL     OW26527   1.998   3.603   3.673  0.1847  0.3209  0.0975
 4964SOL    HW126528   1.959   3.665   3.734 -2.0457  0.7425 -1.7502
 4964SOL    HW226529   1.985   3.524   3.726  0.7773 -1.1844 -2.0005
 4965SOL     OW26530   1.835   0.761   3.709  0.1089 -0.7654 -0.4568
 4965SOL    HW126531   1.914   0.707   3.713 -0.3409 -1.3616  0.3106
 4965SOL    HW226532   1.804   0.747   3.619  0.5678  2.4863 -1.1047
 4966SOL     OW26533   0.275   2.044  15.352  0.3559 -0.7410  0.2240
 4966SOL    HW126534   0.278   2.139  15.363 -2.5251 -0.4665 -1.4173
 4966SOL    HW226535   0.366   2.030  15.375  0.2867  0.0056  0.9627
 4967SOL     OW26536   4.283   2.956   2.670 -0.0416  0.4255 -0.7611
 4967SOL    HW126537   4.260   3.045   2.645 -0.4110 -0.0266 -2.0018
 4967SOL    HW226538   4.292   2.981   2.762 -1.9863 -0.1430 -0.4119
 4968SOL     OW26539   2.381   3.613   8.713  1.2264  0.0666 -0.3946
 4968SOL    HW126540   2.301   3.633   8.762  0.2420  0.1764 -2.0733
 4968SOL    HW226541   2.350   3.546   8.652 -1.0321  1.9510 -1.3195
 4969SOL     OW26542   2.067   2.540   7.361  0.0401  0.0055 -0.0205
 4969SOL    HW126543   2.117   2.495   7.428 -0.5774  0.0047  0.4348
 4969SOL    HW226544   2.114   2.505   7.285  2.5302 -0.0783  1.5828
 4970SOL     OW26545   3.161   3.598   2.549  0.0687 -0.1275 -0.0137
 4970SOL    HW126546   3.181   3.679   2.504 -1.7521  0.8866  0.9923
 4970SOL    HW226547   3.244   3.553   2.533  0.9415  0.8669  1.7353
 4971SOL     OW26548   3.921   2.477   2.988  0.3879 -0.5344 -0.6497
 4971SOL    HW126549   3.913   2.495   2.894 -0.0706 -0.2078 -0.5505
 4971SOL    HW226550   3.830   2.456   3.011  0.4884 -1.2486 -0.9353
 4972SOL     OW26551   4.459   3.351   0.876  0.0919 -0.0200 -0.2221
 4972SOL    HW126552   4.419   3.434   0.902  0.0327  0.4844 -1.9392
 4972SOL    HW226553   4.379   3.312   0.842 -0.4142 -0.5143  1.5237
 4973SOL     OW26554   2.096   4.356   1.630  0.5005  0.6450 -0.3682
 4973SOL    HW126555   2.091   4.433   1.573  3.1956  0.1818 -1.1952
 4973SOL    HW226556   2.008   4.356   1.669  0.2037  0.8100 -1.0242
 4974SOL     OW26557   3.224   3.048   6.037 -0.6683  0.1764  0.0001
 4974SOL    HW126558   3.290   3.110   6.071 -1.7450  0.3277  1.8197
 4974SOL    HW226559   3.276   2.986   5.986  1.7695  1.9496  0.3393
 4975SOL     OW26560   1.805   2.744   6.475  0.2047 -0.0893 -0.3992
 4975SOL    HW126561   1.897   2.739   6.449  0.1584  0.4099 -0.6498
 4975SOL    HW226562   1.771   2.655   6.461  1.6158 -0.7320  0.1285
 4976SOL     OW26563   4.350   0.868   6.811  0.3671  0.4223  0.4107
 4976SOL    HW126564   4.407   0.941   6.837  0.3120 -0.0066  1.7253
 4976SOL    HW226565   4.287   0.911   6.754  1.0782  1.8045  0.6614
 4977SOL     OW26566   2.808   0.802   3.553 -0.7301  0.4907  0.8210
 4977SOL    HW126567   2.756   0.819   3.474  0.1652  2.4635  0.6653
 4977SOL    HW226568   2.877   0.863   3.527 -1.3163  1.1101  0.7117
 4978SOL     OW26569   3.140   3.850   8.732 -0.5520  0.2235 -0.0305
 4978SOL    HW126570   3.219   3.801   8.712 -1.4892 -1.7052  1.0083
 4978SOL    HW226571   3.120   3.837   8.825  2.3684 -1.0648  0.4119
 4979SOL     OW26572   1.904   0.432   3.609 -0.3332 -0.4826 -0.0028
 4979SOL    HW126573   1.967   0.463   3.544  0.2143 -1.1156  0.2296
 4979SOL    HW226574   1.913   0.337   3.604 -0.7537 -0.5022 -0.4945
 4980SOL     OW26575   4.247   1.194  17.135 -0.5927  0.1962  0.4708
 4980SOL    HW126576   4.166   1.174  17.088 -0.6478  1.3316  0.0871
 4980SOL    HW226577   4.242   1.289  17.131 -0.8456  0.1583 -0.1457
 4981SOL     OW26578   3.553   2.261   1.659  0.8308 -0.4218 -0.1847
 4981SOL    HW126579   3.588   2.178   1.625 -2.6140 -1.7002 -0.6205
 4981SOL    HW226580   3.553   2.319   1.583 -0.4429  0.8283  0.7729
 4982SOL     OW26581   2.708   3.248   6.395 -0.1763 -0.5425 -0.1708
 4982SOL    HW126582   2.729   3.341   6.402 -1.3113 -0.1582 -2.0055
 4982SOL    HW226583   2.704   3.236   6.490 -1.1816 -1.3374 -0.3158
 4983SOL     OW26584   4.426   0.882  12.941  0.1063 -0.0396 -0.1855
 4983SOL    HW126585   4.473   0.929  13.010 -0.1021  0.5627 -0.4547
 4983SOL    HW226586   4.350   0.842  12.983  1.8980 -1.6223  1.5543
 4984SOL     OW26587   4.303   0.423  11.866  0.6626  0.0928 -0.1020
 4984SOL    HW126588   4.334   0.410  11.776  0.0530  1.0554 -0.4494
 4984SOL    HW226589   4.308   0.330  11.888  0.6918 -0.1708 -1.2089
 4985SOL     OW26590   0.085   1.010   3.828 -0.4879 -0.4721 -0.5966
 4985SOL    HW126591   0.008   1.066   3.828 -0.1027  0.0554 -0.5855
 4985SOL    HW226592   0.073   0.955   3.906  2.0891  0.7861  0.7083
 4986SOL     OW26593   4.481   0.841   6.166 -0.1151  0.3276  0.0267
 4986SOL    HW126594   4.459   0.929   6.197  1.2570  0.1785  1.4474
 4986SOL    HW226595   4.437   0.780   6.225 -0.0246 -0.2396 -0.4925
 4987SOL     OW26596   4.600   4.015   5.871  0.0327  0.0497 -0.1815
 4987SOL    HW126597   4.600   4.069   5.950 -0.6863 -2.1683  1.3302
 4987SOL    HW226598   4.623   3.923   5.884  1.7056  0.5074  0.0598
 4988SOL     OW26599   2.047   4.130   9.516  0.1938  0.0852 -0.5597
 4988SOL    HW126600   1.994   4.134   9.437  1.3193 -1.0451 -1.3738
 4988SOL    HW226601   1.982   4.139   9.585  0.0688  0.8290 -0.7731
 4989SOL     OW26602   1.033   0.089   1.160 -0.0916 -0.6145 -0.6945
 4989SOL    HW126603   0.963   0.071   1.222 -1.5001 -1.1796 -2.4351
 4989SOL    HW226604   1.056   0.178   1.188  0.1187 -0.7219 -0.5275
 4990SOL     OW26605   2.716   4.096   8.571  0.2019  0.3287 -0.6615
 4990SOL    HW126606   2.747   4.117   8.659 -0.5199 -1.3751 -0.0070
 4990SOL    HW226607   2.763   4.015   8.553 -0.7024 -0.4355  0.4597
 4991SOL     OW26608   1.837   1.990   4.565 -0.3068  0.1136  0.2103
 4991SOL    HW126609   1.805   1.986   4.655  0.0752  0.1235  0.3480
 4991SOL    HW226610   1.764   1.937   4.532 -0.0045  0.1823 -0.5649
 4992SOL     OW26611   1.718   0.644  11.377 -0.5884 -0.0386  0.0609
 4992SOL    HW126612   1.803   0.601  11.389 -0.7380  0.5270  3.1810
 4992SOL    HW226613   1.745   0.729  11.341  0.6169 -0.2731  0.3958
 4993SOL     OW26614   0.225   2.121   7.495  0.5394 -0.1621  0.4355
 4993SOL    HW126615   0.196   2.162   7.577  0.5139 -1.5470  1.1253
 4993SOL    HW226616   0.297   2.070   7.531  0.4933 -0.1105  0.5992
 4994SOL     OW26617   2.509   1.693  11.381 -0.4092 -0.0030  0.3592
 4994SOL    HW126618   2.416   1.687  11.360 -0.0652 -0.5262 -1.0094
 4994SOL    HW226619   2.496   1.701  11.476 -1.4059  2.7655 -0.0122
 4995SOL     OW26620   0.316   0.424   7.687 -0.2203 -0.6063 -0.3800
 4995SOL    HW126621   0.232   0.412   7.732 -0.2942 -2.0061 -0.8777
 4995SOL    HW226622   0.374   0.381   7.750 -0.1383  1.2874  0.8455
 4996SOL     OW26623   2.885   4.560   5.617  0.3511  0.0233 -0.5065
 4996SOL    HW126624   2.927   4.487   5.662  0.2900  0.2149 -0.1404
 4996SOL    HW226625   2.949   4.572   5.548  1.8759  0.6943  1.0292
 4997SOL     OW26626   3.285   1.081   2.100 -0.1931  0.2180 -0.3554
 4997SOL    HW126627   3.213   1.028   2.133 -0.8995  1.2729 -0.1972
 4997SOL    HW226628   3.259   1.098   2.009  1.7068 -0.2382 -0.9950
 4998SOL     OW26629   0.894   3.815  15.809 -0.5371  0.3669 -0.1103
 4998SOL    HW126630   0.939   3.899  15.819  1.6500 -0.8134 -0.1523
 4998SOL    HW226631   0.961   3.776  15.754  1.2437 -0.4713  2.6466
 4999SOL     OW26632   3.769   2.292  10.362  0.1625 -0.0260  0.1664
 4999SOL    HW126633   3.718   2.290  10.443  1.6144  2.8691  1.1233
 4999SOL    HW226634   3.794   2.200  10.353  1.5155  0.4518 -0.9561
 5000SOL     OW26635   4.215   3.290   0.781  0.6176 -0.3448  0.0589
 5000SOL    HW126636   4.194   3.341   0.702 -0.0275 -2.3991 -1.0719
 5000SOL    HW226637   4.141   3.302   0.841  0.8570 -2.7650  0.8188
 5001SOL     OW26638   4.419   3.654   6.594 -0.0444  0.2984 -0.5560
 5001SOL    HW126639   4.389   3.714   6.525 -0.6095  1.5531  0.7773
 5001SOL    HW226640   4.443   3.722   6.657  1.1152 -1.2398  0.6517
 5002SOL     OW26641   3.609   4.480  13.857  0.6899 -0.0091 -0.4830
 5002SOL    HW126642   3.543   4.449  13.795  0.6253  1.6559 -1.2347
 5002SOL    HW226643   3.556   4.549  13.895  0.9256 -0.5287  0.7797
 5003SOL     OW26644   0.684   1.694   2.301  0.6646  0.0365 -0.0618
 5003SOL    HW126645   0.604   1.722   2.257  0.8946  1.1278  0.2116
 5003SOL    HW226646   0.751   1.724   2.240  0.1591  0.5578 -0.3582
 5004SOL     OW26647   4.476   1.092   0.133  0.9416  0.1415  0.3117
 5004SOL    HW126648   4.501   1.131   0.049  0.3560 -1.0303 -0.3925
 5004SOL    HW226649   4.381   1.094   0.138  0.9657  1.5657  0.4080
 5005SOL     OW26650   2.833   2.960   8.958 -0.3867 -1.0289  0.4947
 5005SOL    HW126651   2.812   3.008   8.878 -2.6384 -0.4742  1.3972
 5005SOL    HW226652   2.821   3.029   9.023  0.7788  0.4827 -0.9023
 5006SOL     OW26653   0.051   1.660  13.369  0.0000  0.2329  0.4245
 5006SOL    HW126654   0.043   1.743  13.417  0.4720  0.5385 -0.0158
 5006SOL    HW226655   0.025   1.595  13.434  1.8648  1.0878  2.0502
 5007SOL     OW26656   3.062   3.929  17.667  0.3746  0.4259 -0.0035
 5007SOL    HW126657   3.146   3.924  17.619  0.1137 -1.7355 -0.2428
 5007SOL    HW226658   3.068   4.016  17.706 -0.1327  0.2619  0.4372
 5008SOL     OW26659   2.407   3.201   6.349  0.9375 -0.3596  0.7051
 5008SOL    HW126660   2.498   3.187   6.324  0.6158 -0.3404 -0.4746
 5008SOL    HW226661   2.417   3.296   6.354 -0.2844 -0.2145  0.3484
 5009SOL     OW26662   2.030   4.520  15.779 -0.3501 -0.3983  0.2990
 5009SOL    HW126663   2.012   4.433  15.815 -2.3626  0.0401  0.3809
 5009SOL    HW226664   1.961   4.576  15.816  0.3044  0.3973  0.3269
 5010SOL     OW26665   0.246   0.486   6.416  0.5524  0.9418 -0.0595
 5010SOL    HW126666   0.152   0.470   6.429  0.3678  1.8926 -0.2538
 5010SOL    HW226667   0.284   0.432   6.486  0.1957 -0.1169 -0.6701
 5011SOL     OW26668   4.442   1.112   9.702  0.2726 -0.6094 -0.3253
 5011SOL    HW126669   4.347   1.112   9.689  0.1371 -1.4378  0.6821
 5011SOL    HW226670   4.436   1.048   9.772  1.3628 -1.6258 -1.1582
 5012SOL     OW26671   1.572   2.833   8.302  0.8210 -0.0798 -0.0658
 5012SOL    HW126672   1.562   2.878   8.386 -0.9178 -1.0129  0.2318
 5012SOL    HW226673   1.497   2.774   8.290 -1.9494  3.5097 -0.1529
 5013SOL     OW26674   3.524   2.357  10.194 -0.9204 -0.7679  0.3173
 5013SOL    HW126675   3.498   2.274  10.154  0.8459 -0.6722 -0.9916
 5013SOL    HW226676   3.608   2.333  10.234  0.2200  0.1721 -1.5565
 5014SOL     OW26677   3.043   1.249  14.311  0.8313 -0.2241  0.3978
 5014SOL    HW126678   3.133   1.254  14.344  1.3691 -1.8390 -0.8481
 5014SOL    HW226679   3.027   1.342  14.300  2.1795  0.2130  2.0288
 5015SOL     OW26680   3.052   2.323  16.156  0.6052 -0.5602  0.4655
 5015SOL    HW126681   3.036   2.231  16.178 -0.5897  0.0412  2.0892
 5015SOL    HW226682   2.963   2.348  16.132  1.3572  0.6196 -1.0757
 5016SOL     OW26683   2.320   3.608  14.374  0.1085  1.0768  0.6103
 5016SOL    HW126684   2.312   3.516  14.347  0.7448  1.8744 -2.2650
 5016SOL    HW226685   2.366   3.660  14.308  1.0323 -1.5664 -0.8259
 5017SOL     OW26686   2.032   1.311  16.216 -0.1043 -0.0597  0.2972
 5017SOL    HW126687   2.026   1.284  16.124  1.2130  0.7582 -0.0339
 5017SOL    HW226688   2.021   1.226  16.259 -1.4768 -0.0927 -0.1181
 5018SOL     OW26689   2.940   0.583   8.279  0.3588  0.1188  0.3399
 5018SOL    HW126690   2.970   0.493   8.264 -1.3265 -0.4211  0.2441
 5018SOL    HW226691   3.006   0.634   8.233  0.5308 -0.5184 -0.1163
 5019SOL     OW26692   1.143   3.832   7.476  0.4784 -0.1963 -0.2535
 5019SOL    HW126693   1.212   3.897   7.489  0.4700  0.0268 -1.2801
 5019SOL    HW226694   1.092   3.839   7.557  0.1629  1.6079 -0.6221
 5020SOL     OW26695   0.583   4.587  12.526  0.5773 -0.1161  0.3205
 5020SOL    HW126696   0.533   4.565  12.605  1.0129 -0.3557  0.5321
 5020SOL    HW226697   0.531   4.550  12.455  1.0830 -1.2923  0.5639
 5021SOL     OW26698   0.175   2.113  11.007  0.2755 -0.0413 -0.3739
 5021SOL    HW126699   0.119   2.075  10.939  0.1311 -2.1301  0.9276
 5021SOL    HW226700   0.114   2.169  11.055  0.3525 -0.9315  0.7512
 5022SOL     OW26701   1.966   3.108   7.169  0.3162  0.7629  0.6621
 5022SOL    HW126702   1.922   3.033   7.210  1.8230  0.5634  1.8999
 5022SOL    HW226703   2.051   3.109   7.212 -0.4887  2.1957  2.2245
 5023SOL     OW26704   1.528   0.912   5.584  0.4403  0.2821  0.2096
 5023SOL    HW126705   1.437   0.937   5.566  0.2463 -0.7729 -0.2910
 5023SOL    HW226706   1.563   1.001   5.581 -0.6815  0.7037 -0.3335
 5024SOL     OW26707   2.976   1.835   7.679  0.2404 -0.5437 -0.2858
 5024SOL    HW126708   3.035   1.801   7.746 -1.1207  0.6809  1.5199
 5024SOL    HW226709   2.892   1.819   7.721 -0.0663  0.6689 -0.4496
 5025SOL     OW26710   0.958   3.373   2.782 -0.5953 -0.3337 -0.5429
 5025SOL    HW126711   1.041   3.408   2.750 -1.0207 -0.2567 -1.5639
 5025SOL    HW226712   0.907   3.334   2.711 -0.8751 -0.1457 -0.4480
 5026SOL     OW26713   1.155   1.852   8.028 -0.1681 -0.2515 -0.0722
 5026SOL    HW126714   1.085   1.889   8.080  1.3396  2.0169  0.3575
 5026SOL    HW226715   1.211   1.800   8.086 -0.1997  3.4781  3.3104
 5027SOL     OW26716   1.151   0.699   2.906  0.4323 -0.0977 -0.2366
 5027SOL    HW126717   1.190   0.741   2.828  1.4601 -0.5533  0.0360
 5027SOL    HW226718   1.132   0.776   2.960  2.1073  0.2088 -0.0845
 5028SOL     OW26719   2.380   1.151  12.063 -0.1076  0.6856  0.5103
 5028SOL    HW126720   2.321   1.180  11.993 -0.7873 -1.0615  0.3602
 5028SOL    HW226721   2.389   1.227  12.121 -3.1566  1.0525  0.5391
 5029SOL     OW26722   4.241   1.261   7.080  0.6732  0.6754 -0.0863
 5029SOL    HW126723   4.306   1.203   7.119  1.9832  0.1649 -3.0842
 5029SOL    HW226724   4.161   1.220   7.112  1.0444 -0.9394 -1.2747
 5030SOL     OW26725   2.348   3.324   3.380  0.1096  0.2530  0.4466
 5030SOL    HW126726   2.277   3.293   3.437  0.1526  0.7556  0.7674
 5030SOL    HW226727   2.303   3.405   3.355 -0.6972 -0.4906 -0.5643
 5031SOL     OW26728   0.939   3.609  16.028  0.3696  0.6193 -0.2772
 5031SOL    HW126729   0.862   3.555  16.011 -2.1369  4.3100 -0.7770
 5031SOL    HW226730   0.897   3.691  16.002  0.9974  1.1161  0.2756
 5032SOL     OW26731   1.733   1.264   5.579 -0.5909 -0.2441 -0.4150
 5032SOL    HW126732   1.816   1.312   5.569 -1.6712  2.3062  2.9843
 5032SOL    HW226733   1.721   1.254   5.673 -1.1830 -0.6731 -0.5366
 5033SOL     OW26734   0.953   3.003  11.671  0.2734  0.1162  0.6600
 5033SOL    HW126735   0.952   3.097  11.654 -0.5618 -0.1466 -0.7767
 5033SOL    HW226736   1.045   2.983  11.658  0.3208  0.8480 -0.1487
 5034SOL     OW26737   2.781   0.349   2.486  0.0228 -0.2216  0.1359
 5034SOL    HW126738   2.835   0.363   2.408 -1.7161  0.2840 -0.9505
 5034SOL    HW226739   2.697   0.385   2.459 -0.5337 -1.4858  0.1882
 5035SOL     OW26740   3.872   2.997  14.442  0.1290  0.5436 -0.8142
 5035SOL    HW126741   3.828   2.953  14.515 -0.6866 -0.1349 -1.7128
 5035SOL    HW226742   3.919   3.074  14.474  0.7647 -0.6652  1.1887
 5036SOL     OW26743   4.510   2.512   9.215  1.2269 -0.1911  0.1466
 5036SOL    HW126744   4.525   2.425   9.178 -2.3954 -0.7407  0.0020
 5036SOL    HW226745   4.444   2.543   9.154 -0.3385  0.5280  2.1842
 5037SOL     OW26746   0.605   1.760   8.222 -0.2506 -0.3778  0.0513
 5037SOL    HW126747   0.544   1.833   8.219  1.1370  0.6941 -2.1295
 5037SOL    HW226748   0.550   1.694   8.263  0.6079  0.4679  2.5855
 5038SOL     OW26749   0.987   1.965   2.559 -0.1935  0.1552 -0.5041
 5038SOL    HW126750   1.021   1.876   2.550 -1.1509 -0.2230 -0.3662
 5038SOL    HW226751   0.903   1.944   2.600  0.3432  0.7495  0.8884
 5039SOL     OW26752   2.864   2.882   4.920  0.2967  0.0020  0.0730
 5039SOL    HW126753   2.936   2.844   4.971  0.2041 -1.6056 -1.0006
 5039SOL    HW226754   2.902   2.867   4.833  0.3489 -3.1342  0.6443
 5040SOL     OW26755   2.256   3.590   2.166 -0.3412  0.3199 -0.7819
 5040SOL    HW126756   2.292   3.679   2.170  0.0847  0.0056  2.4785
 5040SOL    HW226757   2.289   3.556   2.083 -0.3854  2.2244 -1.5808
 5041SOL     OW26758   3.606   2.761   1.636  0.0446 -0.0893  0.1501
 5041SOL    HW126759   3.662   2.779   1.711  1.1854 -0.1740 -0.6783
 5041SOL    HW226760   3.666   2.761   1.561 -0.1032 -1.0765  0.0348
 5042SOL     OW26761   0.936   4.009  17.538 -0.4124 -0.8737  0.3385
 5042SOL    HW126762   0.962   4.101  17.526 -3.3831 -0.3931 -2.4640
 5042SOL    HW226763   0.994   3.955  17.485  1.3112  1.5402 -0.2564
 5043SOL     OW26764   2.704   3.546   5.328 -0.1527 -0.0617  0.0173
 5043SOL    HW126765   2.693   3.626   5.379  0.6854  0.3193 -0.4015
 5043SOL    HW226766   2.618   3.507   5.341 -0.8356  2.6665  3.5444
 5044SOL     OW26767   1.846   1.950   8.099 -0.0353 -0.2051 -0.0843
 5044SOL    HW126768   1.831   1.888   8.171 -1.3474  1.7241  1.2959
 5044SOL    HW226769   1.834   2.026   8.156  1.5736 -0.1034  0.1085
 5045SOL     OW26770   1.407   2.317   7.291  0.3668 -0.3191  0.1807
 5045SOL    HW126771   1.410   2.410   7.314 -0.8365 -0.1737 -0.2565
 5045SOL    HW226772   1.335   2.319   7.229 -2.1398 -1.9501  3.0610
 5046SOL     OW26773   0.887   3.980   2.259  0.5689 -0.4480 -0.3928
 5046SOL    HW126774   0.859   3.896   2.294  0.5288  0.0468  0.7496
 5046SOL    HW226775   0.806   4.028   2.275  1.1014 -0.1498  1.3706
 5047SOL     OW26776   0.511   1.919   7.278  0.3968  0.2036  0.1544
 5047SOL    HW126777   0.604   1.923   7.254 -0.0040  0.1985 -1.3736
 5047SOL    HW226778   0.489   2.010   7.300 -2.8493 -0.4498 -0.5158
 5048SOL     OW26779   4.697   2.848   2.273 -0.1868  0.0197  0.1112
 5048SOL    HW126780   4.696   2.794   2.352 -0.4742 -0.5275 -0.2660
 5048SOL    HW226781   0.046   2.827   2.240  0.0926  0.5565  0.5209
 5049SOL     OW26782   0.588   1.284   5.399 -0.5946 -0.2950 -0.4901
 5049SOL    HW126783   0.494   1.291   5.389 -0.1649  2.1341 -2.7649
 5049SOL    HW226784   0.610   1.206   5.348  1.7944  1.0795 -1.5695
 5050SOL     OW26785   4.469   0.662   1.551  0.1717  0.0566  0.0141
 5050SOL    HW126786   4.524   0.678   1.474 -1.7700 -1.1238 -1.5895
 5050SOL    HW226787   4.434   0.574   1.533  1.9744 -0.6016 -0.2952
 5051SOL     OW26788   2.275   1.185  16.306  0.1571  0.0037 -0.0025
 5051SOL    HW126789   2.202   1.123  16.313  1.0243 -1.0681 -0.5497
 5051SOL    HW226790   2.256   1.238  16.383 -1.4854  0.5002 -0.7474
 5052SOL     OW26791   1.795   2.599  12.694 -0.6891  0.3728  0.5238
 5052SOL    HW126792   1.793   2.596  12.790 -0.7286 -0.3605  0.4996
 5052SOL    HW226793   1.726   2.660  12.666 -1.0629 -0.2898  0.0129
 5053SOL     OW26794   0.027   4.296   2.680 -0.2814 -1.1202 -0.1227
 5053SOL    HW126795   4.717   4.370   2.641 -1.1154 -0.8707  1.3942
 5053SOL    HW226796   0.047   4.329   2.767 -1.2247  0.8930 -0.6708
 5054SOL     OW26797   4.120   4.232   3.014  0.6065  0.4105  0.2471
 5054SOL    HW126798   4.073   4.307   2.978  0.7255  0.2341 -0.2791
 5054SOL    HW226799   4.141   4.265   3.101 -2.3120  0.7982  0.7908
 5055SOL     OW26800   4.583   4.325   6.010 -0.2682  0.0401 -0.1963
 5055SOL    HW126801   4.670   4.345   6.045 -1.2997 -0.0764  2.4097
 5055SOL    HW226802   4.547   4.413   6.007 -0.6802 -0.1248 -0.1526
 5056SOL     OW26803   2.582   3.770  17.403 -0.1588 -0.5704  0.1006
 5056SOL    HW126804   2.587   3.859  17.439  2.6142 -0.2638 -1.0880
 5056SOL    HW226805   2.672   3.740  17.418  0.7659  1.6239 -1.0710
 5057SOL     OW26806   2.319   0.223   9.047  0.0566 -0.0543  0.3749
 5057SOL    HW126807   2.370   0.303   9.034  1.5561 -0.9654  0.6928
 5057SOL    HW226808   2.366   0.163   8.989 -1.3990 -1.1224  0.3147
 5058SOL     OW26809   3.413   3.179   3.500 -0.0440  0.4376  0.0659
 5058SOL    HW126810   3.497   3.183   3.546 -0.3253 -1.3872  0.7173
 5058SOL    HW226811   3.417   3.105   3.439  3.0237  0.7283 -0.1125
 5059SOL     OW26812   2.410   3.607  17.518 -0.5463 -0.8184 -0.0483
 5059SOL    HW126813   2.466   3.659  17.460  0.5936  0.4422  2.1721
 5059SOL    HW226814   2.459   3.525  17.515 -0.3006 -0.5058 -4.1445
 5060SOL     OW26815   2.936   3.265   2.682 -0.7237 -0.3328 -0.0372
 5060SOL    HW126816   2.863   3.245   2.623 -0.7207  3.1133 -1.2011
 5060SOL    HW226817   2.929   3.360   2.679 -1.1404 -0.3401  0.7344
 5061SOL     OW26818   1.288   4.160  16.434  0.2230 -0.0849  0.4671
 5061SOL    HW126819   1.221   4.187  16.498 -0.0800  0.2262  0.0190
 5061SOL    HW226820   1.289   4.067  16.456 -0.3184 -0.5275 -1.4444
 5062SOL     OW26821   1.682   4.720   8.836  0.4041 -0.2213  0.4991
 5062SOL    HW126822   1.630   4.702   8.915  0.9892  2.6436  1.5495
 5062SOL    HW226823   1.768   4.733   8.876  0.7844 -2.1260  0.2839
 5063SOL     OW26824   1.040   0.104  14.075 -0.5268 -0.0030 -0.2548
 5063SOL    HW126825   1.083   0.025  14.108 -0.4398 -0.3975 -1.2856
 5063SOL    HW226826   0.947   0.088  14.089 -0.3350 -0.9765 -0.1172
 5064SOL     OW26827   2.411   1.286  17.225 -0.5975  0.8134  0.7609
 5064SOL    HW126828   2.425   1.306  17.318 -0.4230 -2.0228  1.3535
 5064SOL    HW226829   2.326   1.326  17.209 -0.0685  0.7753 -2.1905
 5065SOL     OW26830   3.402   1.846   8.104 -0.4741  0.0367  0.4733
 5065SOL    HW126831   3.473   1.812   8.050 -2.0845 -2.8495  0.1595
 5065SOL    HW226832   3.425   1.937   8.091  2.1873 -0.4627  1.6907
 5066SOL     OW26833   0.730   3.421   8.063 -0.1772 -0.0373 -0.2825
 5066SOL    HW126834   0.637   3.398   8.065 -0.5946  1.7018 -0.0026
 5066SOL    HW226835   0.768   3.344   8.021  0.5624  0.8711 -1.2881
 5067SOL     OW26836   1.924   1.260   2.993 -0.5174 -0.5366 -0.2973
 5067SOL    HW126837   1.882   1.230   2.913 -0.7331 -2.3018  0.4785
 5067SOL    HW226838   2.002   1.288   2.946 -0.1107  1.1640  1.3972
 5068SOL     OW26839   0.345   0.038   3.415 -0.1237  0.3910  0.1995
 5068SOL    HW126840   0.292   0.038   3.495 -0.6277 -1.1918 -0.1292
 5068SOL    HW226841   0.419   4.724   3.448 -0.0604 -0.2733 -0.9827
 5069SOL     OW26842   0.048   3.043   8.501 -0.3992 -0.4840 -0.0660
 5069SOL    HW126843   4.700   3.035   8.541 -0.7352 -3.9810 -1.4794
 5069SOL    HW226844   0.084   3.124   8.537 -1.6415  0.1237 -0.2173
 5070SOL     OW26845   0.579   4.626   4.082  0.1938  0.0133 -0.0640
 5070SOL    HW126846   0.622   4.609   4.166  1.0833 -0.5335 -0.6324
 5070SOL    HW226847   0.493   4.586   4.090  0.0412  0.1862 -0.8313
 5071SOL     OW26848   2.181   3.436   8.882  0.1567 -0.4912 -0.4921
 5071SOL    HW126849   2.098   3.460   8.841  0.3372  0.2334 -0.4403
 5071SOL    HW226850   2.150   3.412   8.969  0.2194  0.0450 -0.3207
 5072SOL     OW26851   2.881   0.576   5.590  0.3667 -0.2937 -0.1810
 5072SOL    HW126852   2.791   0.598   5.616  0.8625 -0.1476  1.4452
 5072SOL    HW226853   2.929   0.654   5.617  3.0205 -1.8984 -0.2316
 5073SOL     OW26854   1.604   4.205   2.457 -0.4550 -0.3783 -0.0929
 5073SOL    HW126855   1.694   4.238   2.451 -1.4608  2.2787 -0.8406
 5073SOL    HW226856   1.600   4.160   2.373  2.5517 -1.3904  0.3246
 5074SOL     OW26857   2.987   2.933  14.271 -0.5045  0.2771 -0.4654
 5074SOL    HW126858   2.965   2.899  14.184 -1.0126 -0.8010  0.0871
 5074SOL    HW226859   3.083   2.931  14.271 -0.4977  0.8115 -0.0445
 5075SOL     OW26860   2.150   1.043   4.709 -0.3307 -0.1266 -0.3845
 5075SOL    HW126861   2.063   1.009   4.729 -0.5285 -0.1895 -1.3583
 5075SOL    HW226862   2.158   1.131   4.744 -1.7313  0.3113 -1.1603
 5076SOL     OW26863   3.655   3.417   5.028  0.3452  0.1881 -0.2007
 5076SOL    HW126864   3.573   3.453   5.063  0.7882  1.4578 -0.4475
 5076SOL    HW226865   3.619   3.342   4.982 -0.2428  1.5168 -1.9122
 5077SOL     OW26866   0.574   2.021   6.833  0.7456 -0.3992  0.1712
 5077SOL    HW126867   0.571   2.105   6.879 -1.0583 -0.0370 -0.6233
 5077SOL    HW226868   0.563   1.960   6.907 -2.3649  0.3859  0.3234
 5078SOL     OW26869   1.027   4.210   6.107  0.1478  0.3197  0.5337
 5078SOL    HW126870   1.056   4.139   6.165  1.9121  0.9583  0.4370
 5078SOL    HW226871   1.093   4.278   6.119 -1.2315  1.2450  2.9281
 5079SOL     OW26872   0.997   2.862  15.080  0.0440  0.2508  0.0446
 5079SOL    HW126873   0.993   2.956  15.100  0.8741  0.6823 -1.7673
 5079SOL    HW226874   1.089   2.839  15.096 -1.2338 -2.3430  3.4904
 5080SOL     OW26875   2.369   1.831   8.063 -0.1045 -0.3559  0.2194
 5080SOL    HW126876   2.438   1.883   8.023 -2.0361  1.3187 -0.9674
 5080SOL    HW226877   2.298   1.896   8.070  1.5301  1.4160  0.2844
 5081SOL     OW26878   0.334   1.318   6.783  0.0913 -0.3384 -0.3081
 5081SOL    HW126879   0.246   1.354   6.771 -0.2730 -1.0383  0.3029
 5081SOL    HW226880   0.375   1.334   6.698 -0.5533 -0.4248 -0.6355
 5082SOL     OW26881   3.930   0.179   5.591 -0.1905 -0.5351  0.3923
 5082SOL    HW126882   3.986   0.115   5.633  0.5447  0.1470  0.4520
 5082SOL    HW226883   3.917   0.244   5.660  0.7137  0.0179  0.0476
 5083SOL     OW26884   3.166   1.152   9.510  0.0619  0.6987 -0.9295
 5083SOL    HW126885   3.133   1.145   9.420  0.0768 -1.5996 -0.7509
 5083SOL    HW226886   3.189   1.244   9.513 -1.2030  0.9679  0.6277
 5084SOL     OW26887   0.193   0.833   8.135  0.1168  0.6968 -0.7691
 5084SOL    HW126888   0.261   0.895   8.163 -0.8675  1.0971  0.7128
 5084SOL    HW226889   0.171   0.793   8.219  1.7809  0.3845 -0.4760
 5085SOL     OW26890   1.620   1.925   5.576  0.5211 -0.8098  0.2990
 5085SOL    HW126891   1.702   1.877   5.564  0.1460 -1.6145  0.9542
 5085SOL    HW226892   1.558   1.861   5.540 -1.1393  0.6452  0.5543
 5086SOL     OW26893   3.408   4.188   7.249 -0.0971  0.1658  0.2551
 5086SOL    HW126894   3.372   4.101   7.268  0.1258 -0.5293 -2.4082
 5086SOL    HW226895   3.445   4.221   7.330  1.8505 -0.5266 -0.3429
 5087SOL     OW26896   4.436   2.003   0.519  0.1139  0.1241 -0.1529
 5087SOL    HW126897   4.474   1.983   0.434  0.2353  0.5048 -0.1864
 5087SOL    HW226898   4.460   1.924   0.567 -0.8290 -0.1738 -0.1737
 5088SOL     OW26899   3.626   2.654  14.393 -0.0498 -0.1240  0.5550
 5088SOL    HW126900   3.719   2.640  14.413 -0.6047  0.1293  3.2464
 5088SOL    HW226901   3.582   2.579  14.434  0.2731  0.3631  1.7508
 5089SOL     OW26902   0.672   2.946  14.706 -0.2650 -0.6317 -0.3404
 5089SOL    HW126903   0.745   2.900  14.747 -0.3543 -0.2923  0.1969
 5089SOL    HW226904   0.615   2.985  14.772  0.1526 -0.7800  0.1060
 5090SOL     OW26905   0.570   0.236  11.729  0.3748 -0.1985  0.8807
 5090SOL    HW126906   0.622   0.217  11.651  0.1693  0.0805  0.6762
 5090SOL    HW226907   0.614   0.316  11.759 -0.5210  1.1656 -1.3658
 5091SOL     OW26908   1.559   2.540  13.708  1.0485  0.3826 -0.5784
 5091SOL    HW126909   1.559   2.594  13.629  1.1969 -0.2068 -0.9804
 5091SOL    HW226910   1.539   2.598  13.781 -1.5018 -1.4212  0.1622
 5092SOL     OW26911   4.557   0.644   2.224  0.0848  0.2744  0.1361
 5092SOL    HW126912   4.548   0.650   2.319  0.0723  0.5147  0.1193
 5092SOL    HW226913   4.465   0.648   2.197 -0.4979 -0.4913  2.0516
 5093SOL     OW26914   0.341   4.454  17.422  0.1103 -0.0665 -0.1443
 5093SOL    HW126915   0.275   4.503  17.471 -0.6512 -1.4044  0.1732
 5093SOL    HW226916   0.381   4.523  17.369  1.5810 -2.0171 -1.6001
 5094SOL     OW26917   0.147   3.259   8.613  0.0372  0.0017 -0.5798
 5094SOL    HW126918   0.118   3.348   8.635 -1.0978 -1.0116  2.1144
 5094SOL    HW226919   0.227   3.253   8.666  1.4173  2.3102 -2.4462
 5095SOL     OW26920   3.589   4.354   3.752 -0.1925  0.3548 -0.1511
 5095SOL    HW126921   3.659   4.393   3.804 -0.7994 -0.9386  1.6289
 5095SOL    HW226922   3.647   4.306   3.694 -0.7875 -0.5208 -0.0183
 5096SOL     OW26923   1.860   4.505  14.858 -0.1757 -0.1301  0.2141
 5096SOL    HW126924   1.845   4.429  14.915  2.5858 -0.5679  0.3443
 5096SOL    HW226925   1.854   4.587  14.906  0.5887 -1.3660  2.3912
 5097SOL     OW26926   4.424   2.794   9.103  0.2348 -0.6758 -0.2579
 5097SOL    HW126927   4.399   2.872   9.153  0.2863 -0.3874 -0.6821
 5097SOL    HW226928   4.345   2.741   9.107 -0.7291  0.8149  0.7976
 5098SOL     OW26929   4.196   2.450   2.738 -0.0463 -0.5993 -0.5695
 5098SOL    HW126930   4.183   2.537   2.699  0.0616 -0.0736  0.5648
 5098SOL    HW226931   4.202   2.474   2.830  1.5018 -1.0391 -0.5637
 5099SOL     OW26932   3.218   4.206   6.628  0.3405  0.2270  0.1410
 5099SOL    HW126933   3.130   4.244   6.631  0.3459  0.1728  1.0058
 5099SOL    HW226934   3.257   4.247   6.550 -0.3662 -0.5719 -0.6310
 5100SOL     OW26935   1.503   3.416   7.358 -0.0488  0.7078  0.7304
 5100SOL    HW126936   1.550   3.487   7.315  1.8603 -0.3518  1.0825
 5100SOL    HW226937   1.427   3.473   7.363  0.2375  1.0625  1.0180
 5101SOL     OW26938   1.048   2.728   8.101  0.0266  0.5019 -0.6372
 5101SOL    HW126939   1.040   2.635   8.079 -1.1264  0.7586 -1.2959
 5101SOL    HW226940   1.057   2.724   8.196  0.8798  3.2457 -0.6019
 5102SOL     OW26941   3.099   1.060   7.739  0.2739 -0.1291  0.0482
 5102SOL    HW126942   3.096   0.964   7.731  1.8430 -0.1834  0.1525
 5102SOL    HW226943   3.180   1.078   7.691 -0.1679  0.8340 -0.3235
 5103SOL     OW26944   0.858   0.013   5.042 -0.3550  0.1760 -0.2131
 5103SOL    HW126945   0.951   4.729   5.030 -1.5471 -3.7774 -2.0325
 5103SOL    HW226946   0.816   4.697   4.975  0.5524 -0.5511 -0.1953
 5104SOL     OW26947   1.654   1.608   6.878  0.5128  0.0860  0.6103
 5104SOL    HW126948   1.731   1.551   6.872 -0.1504 -0.7624  0.0600
 5104SOL    HW226949   1.644   1.614   6.973 -2.3556  1.8762  0.1837
 5105SOL     OW26950   4.136   2.276   1.903 -0.3904  0.0131 -0.0037
 5105SOL    HW126951   4.052   2.267   1.948  0.4207  0.5572  1.6428
 5105SOL    HW226952   4.183   2.215   1.960 -0.5600 -1.5319 -1.5316
 5106SOL     OW26953   1.655   3.608   9.316 -0.7693 -0.4776 -0.0669
 5106SOL    HW126954   1.589   3.662   9.273  0.5493  1.5807  0.5061
 5106SOL    HW226955   1.599   3.560   9.377 -2.8669 -2.0979 -3.2608
 5107SOL     OW26956   1.830   1.752  13.704  0.0903 -0.1984 -0.8109
 5107SOL    HW126957   1.808   1.707  13.623  0.9077  0.0400 -1.1623
 5107SOL    HW226958   1.864   1.831  13.663 -2.1180  0.6580 -0.9856
 5108SOL     OW26959   1.928   2.761   8.564 -0.1637 -0.4570 -1.1683
 5108SOL    HW126960   1.867   2.833   8.574  2.0676  1.5687 -2.0674
 5108SOL    HW226961   1.940   2.749   8.470  1.0685 -0.9936 -0.9546
 5109SOL     OW26962   4.079   4.487  13.274  0.7783  0.3657  0.1395
 5109SOL    HW126963   4.088   4.417  13.210  0.6941  0.0614  0.4556
 5109SOL    HW226964   4.111   4.444  13.353  0.6772  0.7268  0.3779
 5110SOL     OW26965   2.499   1.768   1.908 -0.0795  0.1134  0.4861
 5110SOL    HW126966   2.503   1.677   1.878 -1.1477 -0.2672  1.5222
 5110SOL    HW226967   2.588   1.795   1.884 -0.3896 -0.5732 -1.4801
 5111SOL     OW26968   0.996   1.997   8.393  0.2163 -0.1263 -0.4068
 5111SOL    HW126969   1.016   1.907   8.369  0.8363 -0.5007  1.5021
 5111SOL    HW226970   1.085   2.032   8.387  0.4994 -0.8585 -0.4890
 5112SOL     OW26971   1.681   2.277   4.465 -0.1006  0.1280  0.4422
 5112SOL    HW126972   1.651   2.367   4.456 -2.2731 -0.7814 -1.2936
 5112SOL    HW226973   1.738   2.286   4.541 -1.7728 -1.8007  1.9073
 5113SOL     OW26974   2.634   3.163   2.630 -0.2605  0.1723 -0.3908
 5113SOL    HW126975   2.619   3.234   2.693 -1.6861 -0.6053  0.1404
 5113SOL    HW226976   2.600   3.095   2.687  1.6752 -0.4589  0.0209
 5114SOL     OW26977   2.017   0.527   3.948  0.0981 -0.0464  0.3768
 5114SOL    HW126978   2.033   0.588   3.876 -3.3159  0.5330  0.1060
 5114SOL    HW226979   2.072   0.454   3.917 -2.6993 -0.2840 -4.0991
 5115SOL     OW26980   2.498   3.481  14.138  0.0687 -0.0276 -0.1332
 5115SOL    HW126981   2.501   3.471  14.043 -3.1121  1.2629 -0.3766
 5115SOL    HW226982   2.422   3.426  14.154 -0.0126 -0.0316 -0.5549
 5116SOL     OW26983   1.511   0.794   0.767  0.3239 -0.2835 -0.0347
 5116SOL    HW126984   1.594   0.748   0.754 -0.1977 -0.9282 -1.0343
 5116SOL    HW226985   1.471   0.791   0.680 -0.4972  1.0487  0.3054
 5117SOL     OW26986   0.527   2.621   8.428 -0.1209  0.2040  0.5965
 5117SOL    HW126987   0.559   2.531   8.439  1.9092  0.8095 -0.3065
 5117SOL    HW226988   0.613   2.661   8.422 -0.9933  1.7849 -1.2538
 5118SOL     OW26989   0.309   1.248   0.538  0.1393  0.0408  0.5655
 5118SOL    HW126990   0.404   1.236   0.539 -0.1130 -1.9686  0.8180
 5118SOL    HW226991   0.292   1.301   0.617  2.2261  1.5044  0.0628
 5119SOL     OW26992   0.857   0.771   3.581 -0.2351  0.6492  0.0356
 5119SOL    HW126993   0.788   0.818   3.534  0.6092  1.1685 -0.6783
 5119SOL    HW226994   0.864   0.817   3.664 -1.7575  0.8134  0.0753
 5120SOL     OW26995   1.950   1.259   6.345 -0.2534 -0.6388  0.5832
 5120SOL    HW126996   2.002   1.234   6.269  0.0740  0.5569  0.4195
 5120SOL    HW226997   1.863   1.267   6.308  0.6099  0.3574 -1.1896
 5121SOL     OW26998   2.003   3.431   5.735  0.0997  0.5702 -0.2406
 5121SOL    HW126999   1.995   3.359   5.672 -1.4317  2.6780 -2.4298
 5121SOL    HW227000   1.975   3.395   5.820 -0.1700  1.4038  0.0231
 5122SOL     OW27001   0.939   4.296  13.590  0.2935  0.3568  0.0164
 5122SOL    HW127002   0.986   4.213  13.585 -2.7277 -1.3867  0.7124
 5122SOL    HW227003   0.849   4.272  13.610  1.4199 -2.6887  1.3921
 5123SOL     OW27004   1.889   3.701   6.445  0.2585 -0.1491  0.0016
 5123SOL    HW127005   1.893   3.783   6.396  0.4285  0.0550  0.3530
 5123SOL    HW227006   1.798   3.678   6.431 -0.1975  1.3215  0.5351
 5124SOL     OW27007   3.740   1.328   3.247 -0.3551 -0.0247  0.2824
 5124SOL    HW127008   3.660   1.278   3.228 -1.1187  1.5263 -0.6186
 5124SOL    HW227009   3.769   1.353   3.159 -2.6781 -3.9872 -1.6156
 5125SOL     OW27010   2.981   4.322  13.944  0.5195  0.2850  0.0628
 5125SOL    HW127011   2.896   4.303  13.983  0.5326 -1.6660 -0.8683
 5125SOL    HW227012   2.986   4.416  13.961  0.3080 -0.2630  3.0448
 5126SOL     OW27013   3.445   4.312  15.624 -0.5009  0.0886 -0.0342
 5126SOL    HW127014   3.381   4.348  15.562  0.2121  0.2999 -0.6474
 5126SOL    HW227015   3.459   4.377  15.693  2.2998 -1.9584  1.3175
 5127SOL     OW27016   3.433   1.184  12.166  0.1956 -0.1801 -0.2233
 5127SOL    HW127017   3.487   1.237  12.108  0.2074  0.3809  0.3028
 5127SOL    HW227018   3.385   1.249  12.217  2.2111  1.1549 -0.0152
 5128SOL     OW27019   0.769   2.838  17.251  0.0471 -0.1794 -0.2502
 5128SOL    HW127020   0.814   2.899  17.309 -0.3650 -0.9358  0.8499
 5128SOL    HW227021   0.829   2.845  17.176 -0.7325  4.3211 -0.4144
 5129SOL     OW27022   2.116   3.925   3.617 -0.2302 -0.3360 -0.1826
 5129SOL    HW127023   2.031   3.905   3.654 -0.9811  2.4023 -0.4309
 5129SOL    HW227024   2.118   3.883   3.531  1.1083 -1.0934  0.2035
 5130SOL     OW27025   2.596   4.573   3.019  0.1519 -0.2446  0.3383
 5130SOL    HW127026   2.667   4.570   3.084  1.3346 -0.0942 -0.9461
 5130SOL    HW227027   2.600   4.484   2.985 -2.2392  0.0935 -0.8148
 5131SOL     OW27028   1.091   0.816  12.020 -0.6197  0.0209  0.4219
 5131SOL    HW127029   1.075   0.907  11.993  2.7200  1.3931  3.1154
 5131SOL    HW227030   1.014   0.794  12.073 -1.4607 -0.1589 -0.8515
 5132SOL     OW27031   0.234   2.384   5.108 -0.1759 -0.0312 -0.2077
 5132SOL    HW127032   0.309   2.368   5.051  1.3970 -1.8511  2.3217
 5132SOL    HW227033   0.199   2.467   5.077 -1.4948 -1.2326 -1.8862
 5133SOL     OW27034   0.539   0.958   7.631 -0.6550 -0.1000  0.3685
 5133SOL    HW127035   0.584   1.027   7.680 -1.1665 -0.3212  1.1547
 5133SOL    HW227036   0.541   0.892   7.700  0.7432 -0.4239  0.0263
 5134SOL     OW27037   0.681   4.578  17.267  0.1700  0.2531 -0.5741
 5134SOL    HW127038   0.701   4.654  17.322  1.9228 -0.5164 -0.1546
 5134SOL    HW227039   0.656   4.513  17.333 -0.4881 -1.7097 -2.7533
 5135SOL     OW27040   3.959   0.450  12.698 -0.5717  0.0724 -0.2272
 5135SOL    HW127041   4.048   0.419  12.685 -1.0295 -1.2730 -0.0958
 5135SOL    HW227042   3.937   0.463  12.605  1.4857  0.3965 -0.6761
 5136SOL     OW27043   3.685   3.554   3.598 -0.3214 -0.3815  0.3582
 5136SOL    HW127044   3.661   3.496   3.526  0.8718  0.1475 -0.4674
 5136SOL    HW227045   3.772   3.522   3.622 -0.9002 -1.0461  1.5538
 5137SOL     OW27046   3.970   3.222   7.418  0.1941  0.0724 -0.3468
 5137SOL    HW127047   4.048   3.263   7.457  0.2186 -2.0313  1.7689
 5137SOL    HW227048   3.954   3.150   7.478  0.4837  1.5318  1.4596
 5138SOL     OW27049   4.628   0.680   2.835 -0.4582 -0.9957 -0.0152
 5138SOL    HW127050   4.538   0.676   2.804 -0.7742  0.9406  0.6271
 5138SOL    HW227051   4.683   0.624   2.780 -1.5318 -0.1505 -1.9634
 5139SOL     OW27052   2.273   0.960   4.965  0.2608 -0.2205 -0.0253
 5139SOL    HW127053   2.212   0.963   4.892 -2.4042  0.5369  2.2414
 5139SOL    HW227054   2.298   1.052   4.969 -0.6565  0.1706 -3.2748
 5140SOL     OW27055   3.360   1.171   8.593 -0.1532 -0.4267 -0.6511
 5140SOL    HW127056   3.306   1.220   8.655  0.0853 -1.2115  0.1708
 5140SOL    HW227057   3.430   1.136   8.648 -1.3757 -0.2609  1.0108
 5141SOL     OW27058   2.338   3.355  10.081  0.3576 -0.4015  0.1546
 5141SOL    HW127059   2.280   3.315  10.016 -0.6914 -0.4230  1.1001
 5141SOL    HW227060   2.304   3.444  10.074 -1.7564 -1.2647 -0.6599
 5142SOL     OW27061   2.454   0.549  14.237 -0.1976 -0.5455  0.0609
 5142SOL    HW127062   2.374   0.533  14.188  0.7683  1.0986 -2.0832
 5142SOL    HW227063   2.502   0.615  14.186 -0.8954 -0.3704 -0.3753
 5143SOL     OW27064   0.777   1.860  14.880  0.2524  0.4653  0.4949
 5143SOL    HW127065   0.828   1.848  14.960 -0.5006 -1.9227  0.6057
 5143SOL    HW227066   0.812   1.796  14.818  0.2676  0.8616  0.0887
 5144SOL     OW27067   3.304   3.526   1.772 -0.1551  0.2867 -0.3685
 5144SOL    HW127068   3.366   3.473   1.721 -0.5810 -0.9951  0.4523
 5144SOL    HW227069   3.359   3.548   1.847 -0.1310 -0.7794 -0.0832
 5145SOL     OW27070   3.506   0.364   4.075  0.0459 -0.3808  0.0895
 5145SOL    HW127071   3.457   0.444   4.056 -0.5458 -0.2775  2.0724
 5145SOL    HW227072   3.474   0.300   4.012 -0.3435  1.2717 -1.4046
 5146SOL     OW27073   1.842   0.817   6.185 -0.6254  0.1619 -0.4017
 5146SOL    HW127074   1.793   0.899   6.191 -0.5606  0.0802  1.4708
 5146SOL    HW227075   1.846   0.795   6.279  2.6828 -2.6030 -1.2009
 5147SOL     OW27076   0.733   1.596  12.330 -0.6174  0.0234 -0.1172
 5147SOL    HW127077   0.811   1.642  12.362 -0.3489 -0.7288  0.3131
 5147SOL    HW227078   0.659   1.656  12.339  0.5032  0.9830  2.6497
 5148SOL     OW27079   3.180   3.634   4.851  0.3931  0.0334  0.4228
 5148SOL    HW127080   3.092   3.614   4.817 -0.0084  0.1247  1.4169
 5148SOL    HW227081   3.199   3.553   4.897 -0.0904 -0.4418 -0.1998
 5149SOL     OW27082   3.808   1.178  15.568  0.1227  0.0171 -0.3894
 5149SOL    HW127083   3.856   1.162  15.487 -0.4663  0.8262 -0.9010
 5149SOL    HW227084   3.884   1.182  15.626  0.0611 -0.9379 -0.2391
 5150SOL     OW27085   4.280   1.539   6.332  0.0286 -0.9137 -0.0817
 5150SOL    HW127086   4.318   1.569   6.414  0.7809 -1.1219 -0.3553
 5150SOL    HW227087   4.333   1.592   6.272 -1.8781  0.9746 -0.1025
 5151SOL     OW27088   4.691   0.389   1.626 -0.4337  0.0934 -0.2569
 5151SOL    HW127089   0.046   0.395   1.601  0.1597 -1.1042  1.7517
 5151SOL    HW227090   4.650   0.417   1.544  0.4685 -4.7120 -2.3041
 5152SOL     OW27091   3.650   4.101   6.052  0.4767  0.7758  0.2017
 5152SOL    HW127092   3.698   4.164   5.998 -0.9261  0.8424 -0.9642
 5152SOL    HW227093   3.614   4.049   5.980  0.5708 -1.2637  1.6315
 5153SOL     OW27094   0.736   0.529  16.257 -0.2009  0.0570  0.6234
 5153SOL    HW127095   0.735   0.543  16.162  0.9060 -0.0375  0.5965
 5153SOL    HW227096   0.788   0.604  16.285  1.0858 -0.2739 -0.8572
 5154SOL     OW27097   1.883   2.740   3.776  0.0352  0.3004 -0.0583
 5154SOL    HW127098   1.957   2.781   3.821 -0.0233  0.9351 -0.5381
 5154SOL    HW227099   1.875   2.793   3.697 -1.1528  1.8121  1.0784
 5155SOL     OW27100   3.638   0.003   2.448 -0.3178 -0.0230 -0.6384
 5155SOL    HW127101   3.577   4.667   2.448  1.7970 -1.7380 -3.0522
 5155SOL    HW227102   3.689   4.731   2.368  1.3460 -2.1980  0.6664
 5156SOL     OW27103   2.413   3.469   3.820 -0.6762 -0.0773  0.4748
 5156SOL    HW127104   2.451   3.518   3.892  1.3377 -0.4070 -0.3624
 5156SOL    HW227105   2.357   3.532   3.776 -0.0789 -0.6865 -1.1584
 5157SOL     OW27106   0.350   0.249  13.558 -0.0527 -0.1695 -0.1049
 5157SOL    HW127107   0.410   0.179  13.533 -1.1309 -1.0169 -0.3376
 5157SOL    HW227108   0.306   0.213  13.636  1.2041 -0.0565  0.6543
 5158SOL     OW27109   3.977   1.594   8.865 -0.1182  0.4697 -0.0762
 5158SOL    HW127110   3.951   1.670   8.813  1.8214  1.6673  0.6909
 5158SOL    HW227111   4.070   1.619   8.861 -0.0084  0.0910  0.0855
 5159SOL     OW27112   3.058   4.250  12.766 -0.1189 -0.5589 -0.3292
 5159SOL    HW127113   2.995   4.315  12.736  1.4908  0.9124 -0.4630
 5159SOL    HW227114   3.085   4.291  12.848 -0.5521 -0.3577 -0.2868
 5160SOL     OW27115   2.849   2.362   2.749  0.0354 -0.3754  0.3848
 5160SOL    HW127116   2.854   2.406   2.835 -0.3571  0.0649  0.1843
 5160SOL    HW227117   2.903   2.419   2.695  0.7546 -1.7684 -0.3540
 5161SOL     OW27118   1.821   1.111  16.988  0.3680  0.0502  0.4432
 5161SOL    HW127119   1.850   1.056  16.915  2.7746  0.2561  1.2576
 5161SOL    HW227120   1.904   1.136  17.028  0.8833  1.3091 -1.4047
 5162SOL     OW27121   1.640   4.116   2.196 -0.4342 -0.6696 -0.3482
 5162SOL    HW127122   1.584   4.160   2.132  0.9824  0.1763 -0.9997
 5162SOL    HW227123   1.590   4.035   2.196 -0.8614 -0.4029 -0.0320
 5163SOL     OW27124   0.831   1.156   4.828  0.1050  0.4555  0.0327
 5163SOL    HW127125   0.757   1.108   4.791  0.7460 -1.0981  0.7456
 5163SOL    HW227126   0.899   1.124   4.769 -0.6288 -0.0668 -0.5197
 5164SOL     OW27127   3.252   2.077  16.425  0.5169 -0.0514  0.1466
 5164SOL    HW127128   3.327   2.133  16.442 -0.3561  1.4106 -0.8149
 5164SOL    HW227129   3.285   2.049  16.339 -2.8555 -0.1627 -1.1303
 5165SOL     OW27130   2.583   3.214  15.066 -0.2114  0.2100 -0.2154
 5165SOL    HW127131   2.640   3.190  15.139 -0.3524 -0.6138 -0.3859
 5165SOL    HW227132   2.564   3.305  15.091 -0.7949 -0.2074  0.8718
 5166SOL     OW27133   1.923   2.957  12.297  0.7559 -0.2667  0.1250
 5166SOL    HW127134   2.009   2.960  12.338  1.5008 -1.9009 -1.2876
 5166SOL    HW227135   1.929   2.865  12.269  2.1969  0.3537 -1.6304
 5167SOL     OW27136   2.512   2.361   6.402 -0.1290 -0.1992 -0.0318
 5167SOL    HW127137   2.597   2.398   6.425  0.4367 -0.5485 -1.5807
 5167SOL    HW227138   2.518   2.350   6.307 -0.2448 -0.2114 -0.0380
 5168SOL     OW27139   0.681   2.721   6.900  0.3134  0.3419 -0.1973
 5168SOL    HW127140   0.721   2.721   6.987 -0.2592 -2.5816  0.0770
 5168SOL    HW227141   0.750   2.759   6.846  2.7839 -2.8507  0.7286
 5169SOL     OW27142   2.137   3.817   2.302 -0.1164 -0.4270 -0.3169
 5169SOL    HW127143   2.057   3.811   2.354 -0.3583 -0.1592 -0.6564
 5169SOL    HW227144   2.193   3.791   2.375 -0.1021  0.2331 -0.0957
 5170SOL     OW27145   0.323   3.957   4.900 -0.1502  0.4147  0.2745
 5170SOL    HW127146   0.385   4.030   4.900 -2.1830  2.1447 -0.0749
 5170SOL    HW227147   0.249   4.005   4.938  0.1212  1.6579 -0.7234
 5171SOL     OW27148   4.456   4.547   7.106 -0.0275 -0.0756 -0.2287
 5171SOL    HW127149   4.425   4.484   7.041  1.5327 -1.0553 -0.0257
 5171SOL    HW227150   4.503   4.611   7.053 -0.7869  1.3214  0.7751
 5172SOL     OW27151   1.423   0.881   3.921 -0.0888  0.1803  0.4191
 5172SOL    HW127152   1.490   0.836   3.973 -1.0258 -2.6497 -0.8239
 5172SOL    HW227153   1.450   0.855   3.833  0.7694 -0.1494  0.7791
 5173SOL     OW27154   4.139   4.727   6.006 -0.5558  0.1383 -0.1991
 5173SOL    HW127155   4.187   0.010   5.926 -0.3725  0.9806  0.1287
 5173SOL    HW227156   4.174   0.059   6.062 -0.1141  0.0565 -0.3715
 5174SOL     OW27157   4.126   1.623   7.990  0.1892 -0.7211  0.1392
 5174SOL    HW127158   4.044   1.615   7.943  0.9196 -0.1451 -1.2234
 5174SOL    HW227159   4.095   1.644   8.078 -0.8926  0.0820 -0.4479
 5175SOL     OW27160   0.813   2.558  10.036  0.0505 -0.5595  0.4098
 5175SOL    HW127161   0.758   2.485  10.010  0.6364 -0.7847 -0.1914
 5175SOL    HW227162   0.746   2.627  10.034 -0.5616 -1.1958 -0.9011
 5176SOL     OW27163   0.058   1.166  12.064  0.0699 -0.6144 -0.3260
 5176SOL    HW127164   4.731   1.233  12.041 -0.1834 -0.9370 -0.5559
 5176SOL    HW227165   0.092   1.209  12.143  1.2529 -1.1003 -0.5810
 5177SOL     OW27166   4.076   1.819   4.332 -0.7247 -0.2303  0.2670
 5177SOL    HW127167   4.023   1.847   4.258 -0.0277  0.8402  0.1816
 5177SOL    HW227168   4.036   1.739   4.366  0.3219 -1.1396 -0.6368
 5178SOL     OW27169   3.521   4.394   5.862  0.4782  0.4616 -0.4879
 5178SOL    HW127170   3.601   4.345   5.842 -0.6166 -0.0542 -3.7087
 5178SOL    HW227171   3.553   4.484   5.871 -1.2261  1.1820 -1.5784
 5179SOL     OW27172   1.371   4.250   2.577  1.0962 -0.0352 -0.1794
 5179SOL    HW127173   1.410   4.259   2.664 -1.1157  0.7092  0.7088
 5179SOL    HW227174   1.454   4.232   2.531  1.6773  1.1863  0.3829
 5180SOL     OW27175   2.288   2.935   6.116  0.2219  0.1952  0.1835
 5180SOL    HW127176   2.381   2.957   6.123  0.5919 -1.5252  0.8107
 5180SOL    HW227177   2.286   2.840   6.126  1.3899  0.2285  0.7983
 5181SOL     OW27178   4.497   0.634   6.740  0.2248 -0.6243  0.3413
 5181SOL    HW127179   4.449   0.714   6.762  1.1908 -0.4029  1.5883
 5181SOL    HW227180   4.541   0.670   6.663  2.3931 -0.6593  1.5659
 5182SOL     OW27181   0.266   0.633   6.972  0.3792 -0.0694  0.0678
 5182SOL    HW127182   0.349   0.660   7.011  0.6126 -0.5852 -0.0754
 5182SOL    HW227183   0.220   0.604   7.050 -1.5522  0.3272 -0.9263
 5183SOL     OW27184   1.896   4.664  13.258  0.1938  0.1364  0.1015
 5183SOL    HW127185   1.958   4.736  13.266  0.4160  0.1063 -1.2357
 5183SOL    HW227186   1.823   4.688  13.314  0.0965 -0.0901  0.0733
 5184SOL     OW27187   2.296   4.498  16.113  0.1576  0.0774  0.1835
 5184SOL    HW127188   2.325   4.452  16.034  0.6342  0.6855  0.0080
 5184SOL    HW227189   2.275   4.418  16.161 -0.1808  1.1607  1.8295
 5185SOL     OW27190   0.360   3.631  17.655 -0.4932 -0.5638  0.0960
 5185SOL    HW127191   0.302   3.707  17.660  0.8049  0.4363 -0.0197
 5185SOL    HW227192   0.295   3.565  17.631 -2.7361  0.5376  3.2840
 5186SOL     OW27193   2.396   3.908   7.737  0.1134  0.0916  0.6613
 5186SOL    HW127194   2.373   3.825   7.779 -0.7542  0.1865  0.3743
 5186SOL    HW227195   2.326   3.963   7.771  2.4426  3.3699  0.1009
 5187SOL     OW27196   1.570   0.717   5.009 -0.3813  0.2140 -0.2793
 5187SOL    HW127197   1.493   0.740   4.957 -0.2692 -1.5301 -1.1962
 5187SOL    HW227198   1.615   0.800   4.988  0.8266 -0.7648 -1.5871
 5188SOL     OW27199   3.481   3.495   3.243  0.1855  0.6972  0.0760
 5188SOL    HW127200   3.465   3.402   3.257 -2.2298  1.1841  0.6953
 5188SOL    HW227201   3.563   3.498   3.195  0.7328 -1.7309  0.8567
 5189SOL     OW27202   3.058   3.541   5.505  0.5924 -0.4869  0.1546
 5189SOL    HW127203   3.113   3.462   5.508 -0.1539 -1.0360 -0.6313
 5189SOL    HW227204   3.091   3.579   5.424 -0.5516 -2.6975 -1.3565
 5190SOL     OW27205   1.950   1.628  10.034  0.9058 -0.1013 -0.1524
 5190SOL    HW127206   1.916   1.717  10.045  0.1350 -0.1139 -2.3666
 5190SOL    HW227207   1.877   1.574  10.066  0.3446  0.5624 -0.3062
 5191SOL     OW27208   1.355   2.852   7.638 -0.0289 -0.1780  0.3534
 5191SOL    HW127209   1.363   2.790   7.711  1.8775  0.2109  0.4595
 5191SOL    HW227210   1.279   2.812   7.595  0.9799 -0.6870 -0.9458
 5192SOL     OW27211   2.018   4.422   7.077 -0.0543 -0.0801 -0.2938
 5192SOL    HW127212   2.111   4.446   7.068  0.3516 -1.4395  0.2139
 5192SOL    HW227213   1.965   4.484   7.027  0.0200  0.2213  0.0007
 5193SOL     OW27214   1.475   2.535   1.990 -0.4125  0.4943 -0.2678
 5193SOL    HW127215   1.536   2.555   2.060  1.1429 -4.0319 -0.2806
 5193SOL    HW227216   1.443   2.624   1.977 -1.0194  0.3316  0.1330
 5194SOL     OW27217   4.700   4.014  13.483 -0.5433  0.7573 -0.2402
 5194SOL    HW127218   0.006   4.089  13.444 -0.6224  0.5924 -0.6478
 5194SOL    HW227219   4.614   4.030  13.445 -0.3162 -0.9775 -1.5037
 5195SOL     OW27220   1.381   1.163  14.833 -0.1571  0.0849  0.1303
 5195SOL    HW127221   1.419   1.239  14.787  0.7687 -0.3458  0.1747
 5195SOL    HW227222   1.397   1.083  14.783 -0.9654 -0.3970  0.6600
 5196SOL     OW27223   4.535   0.927  10.310  0.6597 -0.3872 -0.5648
 5196SOL    HW127224   4.493   0.937  10.395  1.3503  1.4108 -0.4267
 5196SOL    HW227225   4.473   0.978  10.258  2.0242  0.4344 -1.3989
 5197SOL     OW27226   3.386   1.995   3.861 -0.0062  0.1956 -0.4343
 5197SOL    HW127227   3.406   2.087   3.879 -1.5306  0.7284 -1.4432
 5197SOL    HW227228   3.376   1.996   3.766  1.0743  0.4726 -0.5457
 5198SOL     OW27229   0.982   0.603  15.490 -0.2489  0.3807  0.1042
 5198SOL    HW127230   0.962   0.526  15.437 -0.5762 -0.0440  0.8438
 5198SOL    HW227231   1.001   0.673  15.427 -3.2817  0.7226 -0.4359
 5199SOL     OW27232   1.907   2.335   8.161 -0.3767  0.1867 -0.6244
 5199SOL    HW127233   1.988   2.288   8.145 -1.2476 -1.0067 -1.5038
 5199SOL    HW227234   1.856   2.271   8.211  1.3699 -1.6753 -1.2400
 5200SOL     OW27235   2.976   3.169   5.486  0.7734  0.1413 -0.2348
 5200SOL    HW127236   2.909   3.102   5.470  0.8698 -0.9078  3.8176
 5200SOL    HW227237   2.957   3.234   5.418  1.6390 -0.4219 -1.0178
 5201SOL     OW27238   1.207   4.169   6.533 -0.2062  0.6513 -0.3509
 5201SOL    HW127239   1.167   4.182   6.619 -1.2991  1.0210 -0.9186
 5201SOL    HW227240   1.285   4.225   6.539  1.0107 -0.9902 -0.9011
 5202SOL     OW27241   4.070   0.853   7.103  0.0535  0.4898  0.5480
 5202SOL    HW127242   4.143   0.830   7.045 -0.2252 -0.0884  0.4335
 5202SOL    HW227243   4.013   0.784   7.069  1.0192 -0.2764  0.4871
 5203SOL     OW27244   2.632   2.851   7.986 -0.2782  0.2076 -0.4301
 5203SOL    HW127245   2.693   2.924   7.980 -2.2949  1.8012 -1.4719
 5203SOL    HW227246   2.587   2.874   8.067 -2.3430  1.5864 -1.9895
 5204SOL     OW27247   2.486   2.621  13.761  0.1940  0.1244 -0.0442
 5204SOL    HW127248   2.494   2.704  13.715 -2.1284  0.3638 -0.0541
 5204SOL    HW227249   2.403   2.581  13.734  0.8005 -0.9416 -0.2958
 5205SOL     OW27250   2.544   1.504   2.518  0.5933  0.2233 -0.4399
 5205SOL    HW127251   2.625   1.541   2.483  0.4352  0.2527 -0.7733
 5205SOL    HW227252   2.483   1.481   2.448 -1.3117 -0.2522  1.3940
 5206SOL     OW27253   2.979   0.995   1.959 -0.4150  0.2321 -0.2034
 5206SOL    HW127254   2.934   0.948   2.030 -0.9452  1.5474  0.3257
 5206SOL    HW227255   2.985   0.924   1.895 -1.3601  0.4001 -0.4870
 5207SOL     OW27256   1.477   0.212   5.017  0.6051 -0.4393 -0.4277
 5207SOL    HW127257   1.405   0.196   4.956  1.7917  1.3456 -2.2889
 5207SOL    HW227258   1.513   0.296   4.988  1.4237 -0.8137 -0.4992
 5208SOL     OW27259   0.915   2.611  16.686 -0.0177  0.5136  0.2317
 5208SOL    HW127260   0.870   2.546  16.632  0.6063  0.4560 -0.2301
 5208SOL    HW227261   0.905   2.695  16.641  0.9351  2.1279  3.0010
 5209SOL     OW27262   0.700   1.535   0.894 -0.7658 -0.0928 -0.0998
 5209SOL    HW127263   0.638   1.592   0.939 -1.7381 -1.9200  0.8457
 5209SOL    HW227264   0.644   1.504   0.823  0.9577 -0.9858 -1.0666
 5210SOL     OW27265   0.914   2.183   6.511 -0.1737 -0.0843  0.3775
 5210SOL    HW127266   0.855   2.259   6.511  0.6564  0.5584  0.1634
 5210SOL    HW227267   0.948   2.189   6.600 -0.3905 -2.4850  0.6254
 5211SOL     OW27268   2.513   3.868   4.315  0.0333 -0.3781  0.1888
 5211SOL    HW127269   2.590   3.876   4.259  1.0430  0.7431  1.7030
 5211SOL    HW227270   2.446   3.905   4.258  0.5682 -1.9675 -1.4596
 5212SOL     OW27271   3.517   0.187  10.242  0.6793  0.5432  0.1485
 5212SOL    HW127272   3.459   0.254  10.277  1.0660  0.5945  0.6909
 5212SOL    HW227273   3.539   0.220  10.155  4.0109  1.8939  1.4790
 5213SOL     OW27274   3.558   0.860   8.270  0.5129 -0.0863 -0.4540
 5213SOL    HW127275   3.565   0.928   8.337 -1.7288  0.3834 -0.6982
 5213SOL    HW227276   3.637   0.876   8.218  0.1414  0.3642 -0.8756
 5214SOL     OW27277   3.491   0.376   8.791 -0.4392  0.2285  0.8528
 5214SOL    HW127278   3.476   0.459   8.836 -1.1564  0.5943 -0.0559
 5214SOL    HW227279   3.563   0.343   8.844 -1.1246 -0.8236  1.1448
 5215SOL     OW27280   0.369   1.782   6.335 -0.5589  0.3876  0.0441
 5215SOL    HW127281   0.280   1.748   6.344  0.1375 -0.8663  2.3283
 5215SOL    HW227282   0.352   1.875   6.321 -2.5585  0.1462  0.8653
 5216SOL     OW27283   2.372   4.091  14.270  0.3471 -0.1051 -0.1842
 5216SOL    HW127284   2.431   4.018  14.255 -0.6769 -0.9487 -0.1169
 5216SOL    HW227285   2.430   4.167  14.278 -1.6242  1.3529  0.2746
 5217SOL     OW27286   3.867   2.406  12.380 -0.3002  0.0941 -0.0988
 5217SOL    HW127287   3.896   2.406  12.471 -0.9936 -0.8556  0.1153
 5217SOL    HW227288   3.773   2.424  12.380 -0.2683  0.2138  2.1182
 5218SOL     OW27289   1.135   0.252   9.623 -0.2239 -0.3410  0.2929
 5218SOL    HW127290   1.120   0.291   9.537 -1.5990 -1.1996  0.1472
 5218SOL    HW227291   1.167   0.332   9.663 -0.3398  0.2894 -0.8723
 5219SOL     OW27292   1.564   1.564   3.298  0.9589 -0.3628 -0.1024
 5219SOL    HW127293   1.652   1.535   3.324  1.1022  0.3521  0.2063
 5219SOL    HW227294   1.565   1.528   3.209  2.6257  0.7432 -0.5296
 5220SOL     OW27295   1.314   2.245  14.808  0.3635  0.4780 -0.1016
 5220SOL    HW127296   1.409   2.242  14.816  0.2399 -1.8982  0.6068
 5220SOL    HW227297   1.292   2.153  14.828 -1.7840  1.2284  0.9683
 5221SOL     OW27298   0.886   0.660   9.704  0.1579  0.3161  0.0187
 5221SOL    HW127299   0.859   0.685   9.616  1.0185 -3.3143 -1.2965
 5221SOL    HW227300   0.845   0.725   9.761 -1.2814  0.0754 -0.7309
 5222SOL     OW27301   4.013   1.980   3.141 -0.0301 -0.4029  0.0452
 5222SOL    HW127302   4.030   1.892   3.108  3.1213  0.3025 -0.1792
 5222SOL    HW227303   4.098   1.997   3.182  1.0410 -0.9169 -1.9742
 5223SOL     OW27304   2.516   2.223  16.257 -0.3039 -0.0416  0.1263
 5223SOL    HW127305   2.455   2.160  16.295  0.0775 -0.4075  0.1391
 5223SOL    HW227306   2.526   2.288  16.327  1.2037 -0.2285  0.0983
 5224SOL     OW27307   2.881   2.096   2.772 -0.4644 -0.3962  0.0285
 5224SOL    HW127308   2.865   2.190   2.778 -0.0437 -0.3851  0.9567
 5224SOL    HW227309   2.941   2.091   2.698  1.7827 -2.5935  1.9645
 5225SOL     OW27310   0.424   2.587  11.621  0.1413 -0.2951  0.2533
 5225SOL    HW127311   0.495   2.522  11.619  0.7386  0.3716 -0.3912
 5225SOL    HW227312   0.410   2.602  11.714  1.0086  0.2244  0.3065
 5226SOL     OW27313   3.986   4.708   4.595  0.0330  0.2499  0.0591
 5226SOL    HW127314   4.010   0.049   4.645  0.1723 -0.1514  0.6192
 5226SOL    HW227315   4.039   4.722   4.517  0.6976  3.1444  1.0013
 5227SOL     OW27316   2.773   4.004   6.536 -0.0253  0.1834  0.3048
 5227SOL    HW127317   2.706   4.055   6.582  0.5975  0.9432  0.3833
 5227SOL    HW227318   2.820   3.976   6.614  1.2992  0.4657 -0.3773
 5228SOL     OW27319   2.352   0.390   5.646  0.5438  0.0632  0.2761
 5228SOL    HW127320   2.410   0.316   5.628  0.6884  0.2494 -0.0163
 5228SOL    HW227321   2.266   0.360   5.617  1.4354 -0.5094 -1.7772
 5229SOL     OW27322   4.465   3.827  15.060 -0.0736  0.2649  0.5076
 5229SOL    HW127323   4.463   3.837  15.155 -0.5855 -0.7917  0.6180
 5229SOL    HW227324   4.551   3.862  15.038 -1.3416  2.1639 -1.3114
 5230SOL     OW27325   3.929   1.124   8.764 -0.3235  0.7288  0.2133
 5230SOL    HW127326   3.870   1.166   8.827  0.0080 -1.9419  2.3042
 5230SOL    HW227327   3.966   1.053   8.816 -1.5313 -0.1996 -0.1948
 5231SOL     OW27328   2.974   3.293   5.781  1.1328 -0.2324 -0.2903
 5231SOL    HW127329   3.020   3.288   5.865  1.2868  1.5402 -0.2734
 5231SOL    HW227330   2.972   3.208   5.737  1.0980  0.0626 -0.8510
 5232SOL     OW27331   2.536   4.339   5.430  0.0485  0.0572 -0.3787
 5232SOL    HW127332   2.543   4.245   5.414  0.0121  0.1545 -0.9441
 5232SOL    HW227333   2.467   4.342   5.497  1.7196 -2.3033  1.4290
 5233SOL     OW27334   0.526   1.321   4.684 -0.4187  0.9226 -0.2130
 5233SOL    HW127335   0.609   1.350   4.723 -1.2525  2.0115  0.7961
 5233SOL    HW227336   0.550   1.310   4.592  1.3153 -0.4554  0.4121
 5234SOL     OW27337   1.060   0.061   6.453 -0.6212 -0.0435 -0.0639
 5234SOL    HW127338   0.988   0.123   6.465  0.3844  1.0171  0.6116
 5234SOL    HW227339   1.069   0.050   6.359 -0.9182  0.4397 -0.1511
 5235SOL     OW27340   2.897   0.443   4.647  0.3001  0.0615 -0.0207
 5235SOL    HW127341   2.881   0.487   4.563 -3.7831 -0.0016  0.7565
 5235SOL    HW227342   2.819   0.453   4.701  0.2182  1.4709 -0.3916
 5236SOL     OW27343   0.858   1.684   2.080 -0.6138  0.3643  0.3374
 5236SOL    HW127344   0.916   1.621   2.037  2.8208  3.7765  0.0202
 5236SOL    HW227345   0.779   1.664   2.030  0.2601 -1.3110 -0.3711
 5237SOL     OW27346   1.201   3.729  13.160  0.0626  0.0910 -0.2027
 5237SOL    HW127347   1.213   3.821  13.186  3.9481  0.0414 -1.7420
 5237SOL    HW227348   1.238   3.742  13.072 -2.1555  0.6998 -1.0596
 5238SOL     OW27349   3.168   1.380   8.130  0.1220 -0.3111 -0.7899
 5238SOL    HW127350   3.208   1.467   8.137  1.0126 -0.8934  1.3766
 5238SOL    HW227351   3.186   1.356   8.039  0.3973  0.2482 -0.8826
 5239SOL     OW27352   2.926   2.400   6.835  0.4638  0.6300  0.2283
 5239SOL    HW127353   2.834   2.421   6.817 -0.1692 -1.4809  0.8674
 5239SOL    HW227354   2.943   2.468   6.900  0.4185  1.4197 -0.5859
 5240SOL     OW27355   4.666   1.965   7.333 -0.7165  0.7380  0.0754
 5240SOL    HW127356   4.680   1.913   7.412 -1.6747  0.6723  0.1941
 5240SOL    HW227357   4.674   1.897   7.267 -0.2086  0.0216  0.8766
 5241SOL     OW27358   1.344   1.914   6.001 -0.1803 -0.3832 -0.4580
 5241SOL    HW127359   1.347   1.818   6.002  1.8177 -0.3462 -2.3226
 5241SOL    HW227360   1.277   1.939   6.065  0.0830  0.2972 -0.4532
 5242SOL     OW27361   4.109   2.623   6.352 -1.0029 -0.1109 -0.0999
 5242SOL    HW127362   4.076   2.555   6.294  2.0983 -1.2574 -0.5201
 5242SOL    HW227363   4.038   2.687   6.348 -0.0604  0.8250 -1.6374
 5243SOL     OW27364   4.218   2.828   1.449  0.6414  0.4163 -0.3211
 5243SOL    HW127365   4.199   2.737   1.428  2.6469 -0.0326 -0.2324
 5243SOL    HW227366   4.267   2.823   1.531 -0.7618 -0.5216  0.4545
 5244SOL     OW27367   3.558   3.162  12.281 -1.0034  0.6495 -0.3634
 5244SOL    HW127368   3.538   3.069  12.268  0.4842  0.1817  0.7632
 5244SOL    HW227369   3.523   3.174  12.369  1.2359  0.0371  0.6028
 5245SOL     OW27370   3.833   3.794  10.292  0.3028 -0.1952  0.3378
 5245SOL    HW127371   3.802   3.865  10.349  0.7261  2.5265 -2.8225
 5245SOL    HW227372   3.827   3.716  10.348 -0.7770 -0.5323 -0.2508
 5246SOL     OW27373   3.257   3.519  10.819 -0.3164 -0.1277 -0.0931
 5246SOL    HW127374   3.183   3.505  10.879 -1.1574 -1.1296 -1.3592
 5246SOL    HW227375   3.252   3.438  10.767  2.1783 -1.4414  1.6945
 5247SOL     OW27376   1.307   1.354   7.459  0.5666 -0.2422 -0.3119
 5247SOL    HW127377   1.267   1.392   7.537  0.8062 -0.3784 -0.1225
 5247SOL    HW227378   1.341   1.271   7.491  0.7622  0.7218  2.0071
 5248SOL     OW27379   2.249   4.297   7.907 -0.4303 -0.7476  0.1260
 5248SOL    HW127380   2.302   4.264   7.980  0.8924 -1.0985 -0.9963
 5248SOL    HW227381   2.231   4.218   7.857 -1.7315 -0.6472  0.4501
 5249SOL     OW27382   2.443   0.774   8.113 -0.5678 -0.0641  0.0315
 5249SOL    HW127383   2.381   0.710   8.079  1.0104 -1.7715  0.3739
 5249SOL    HW227384   2.524   0.723   8.112 -0.3933  0.1481  2.5758
 5250SOL     OW27385   1.868   4.117  12.354 -0.2090 -0.4948 -0.1313
 5250SOL    HW127386   1.941   4.129  12.294  0.3790  1.4900  0.9921
 5250SOL    HW227387   1.806   4.060  12.308 -0.4433  0.5418 -1.1043
 5251SOL     OW27388   2.588   3.489   5.767  0.3780  0.3474 -0.5160
 5251SOL    HW127389   2.667   3.477   5.713  1.2223 -0.0347  0.8244
 5251SOL    HW227390   2.622   3.507   5.854 -0.8213  1.6015 -0.3103
 5252SOL     OW27391   1.038   3.903   7.242  0.2037  0.4541 -0.0968
 5252SOL    HW127392   1.030   3.992   7.275 -1.6763 -0.1150  0.9415
 5252SOL    HW227393   1.070   3.851   7.315 -0.4746 -1.3740 -1.1017
 5253SOL     OW27394   0.536   2.750   8.766 -0.5410  0.4933  0.1418
 5253SOL    HW127395   0.514   2.662   8.797  0.3776  0.1613 -0.1564
 5253SOL    HW227396   0.512   2.818   8.828  0.7474  0.8354  0.2667
 5254SOL     OW27397   1.200   0.897  12.873  1.0475  0.2960  1.0029
 5254SOL    HW127398   1.167   0.977  12.915 -0.3282  0.4490 -0.3703
 5254SOL    HW227399   1.284   0.925  12.837  1.1724  0.2214  1.2313
 5255SOL     OW27400   3.592   0.094   4.253 -0.3362 -0.5383  0.2201
 5255SOL    HW127401   3.660   0.160   4.242 -1.6265  0.9548  1.1886
 5255SOL    HW227402   3.640   0.022   4.293  0.2403 -1.1833 -1.6374
 5256SOL     OW27403   2.367   0.269   4.111 -0.0774  0.0052 -0.2338
 5256SOL    HW127404   2.282   0.286   4.153 -0.4774 -3.2123  0.3016
 5256SOL    HW227405   2.334   0.211   4.042  0.7549 -1.6788  0.7851
 5257SOL     OW27406   0.365   0.377   6.661  0.1598 -0.2552  0.5706
 5257SOL    HW127407   0.325   0.450   6.708 -0.2265 -0.3001  0.3088
 5257SOL    HW227408   0.438   0.418   6.614 -0.3866  1.1196  0.9216
 5258SOL     OW27409   2.275   2.199  11.026  0.3098  0.2181 -0.2138
 5258SOL    HW127410   2.219   2.141  10.973 -2.1945  1.3757  1.1894
 5258SOL    HW227411   2.280   2.151  11.109 -2.0864 -0.0862 -0.2429
 5259SOL     OW27412   1.383   2.220   8.199  0.1715 -0.6626 -0.1463
 5259SOL    HW127413   1.411   2.302   8.159 -0.5898  0.4010  1.4990
 5259SOL    HW227414   1.290   2.220   8.174 -0.3514  0.5900  1.7381
 5260SOL     OW27415   2.761   1.457   7.472 -0.0245  0.9201  0.0389
 5260SOL    HW127416   2.688   1.520   7.475 -1.5432 -0.8438  0.1925
 5260SOL    HW227417   2.725   1.402   7.402 -0.3194  0.7485  0.3232
 5261SOL     OW27418   2.243   1.721   2.763  0.1121 -0.2548 -0.3605
 5261SOL    HW127419   2.294   1.724   2.682 -1.7951 -2.2826 -1.6309
 5261SOL    HW227420   2.205   1.809   2.767 -2.0870 -1.1651 -1.2326
 5262SOL     OW27421   4.351   4.412  14.260 -0.5369 -0.4447  0.7069
 5262SOL    HW127422   4.440   4.395  14.290  0.3968  2.0175 -0.6302
 5262SOL    HW227423   4.354   4.377  14.171  1.2768 -2.0250  1.3962
 5263SOL     OW27424   3.769   2.092   4.205  0.1215  0.0190 -0.6934
 5263SOL    HW127425   3.819   2.105   4.285 -2.8618 -0.6990  1.2641
 5263SOL    HW227426   3.720   2.174   4.207 -1.2145 -0.9186  3.6073
 5264SOL     OW27427   1.675   3.659   9.845  0.1658  0.1977  0.4580
 5264SOL    HW127428   1.655   3.696   9.932  1.7640 -0.8180  1.2536
 5264SOL    HW227429   1.615   3.585   9.857  2.0224 -1.4288 -0.4881
 5265SOL     OW27430   1.424   0.455   2.563  0.2079  0.3456  0.2151
 5265SOL    HW127431   1.517   0.458   2.586  0.3874 -1.3143 -0.2525
 5265SOL    HW227432   1.402   0.362   2.554  0.6112  0.2417  0.3267
 5266SOL     OW27433   1.287   0.542   1.511  0.1694 -0.4369 -0.1464
 5266SOL    HW127434   1.193   0.559   1.520 -0.1025 -0.1112 -3.6893
 5266SOL    HW227435   1.294   0.568   1.420 -3.6228  0.4310 -0.1772
 5267SOL     OW27436   1.301   2.065   8.421  0.3088  1.0712  0.3373
 5267SOL    HW127437   1.381   2.017   8.441  1.0396  1.4263 -1.7787
 5267SOL    HW227438   1.336   2.125   8.356 -0.1573  0.0457 -0.8612
 5268SOL     OW27439   1.540   3.941   4.243  0.1112  0.0238 -0.1460
 5268SOL    HW127440   1.485   3.884   4.296  0.1629  0.4953  0.4037
 5268SOL    HW227441   1.612   3.972   4.297 -0.4957 -0.1798  0.7683
 5269SOL     OW27442   3.867   2.604  16.826  0.1549 -0.5601 -0.1517
 5269SOL    HW127443   3.902   2.662  16.759 -1.2818 -1.7054 -1.8812
 5269SOL    HW227444   3.818   2.545  16.768 -2.8017  0.9830  0.7379
 5270SOL     OW27445   3.383   1.535   4.676  0.2793  0.7432  0.2119
 5270SOL    HW127446   3.430   1.553   4.595 -1.0414 -0.2259 -0.7712
 5270SOL    HW227447   3.362   1.443   4.666 -0.6088  0.8238  1.2854
 5271SOL     OW27448   4.049   3.869   3.305 -0.3631  0.0007  0.1161
 5271SOL    HW127449   4.058   3.910   3.219  1.2950  0.8398  0.6894
 5271SOL    HW227450   4.136   3.853   3.340 -0.5158 -1.1603 -0.0228
 5272SOL     OW27451   4.180   1.673   8.565  0.5593 -0.7856  0.1630
 5272SOL    HW127452   4.134   1.757   8.571  0.6309 -0.6521 -1.1101
 5272SOL    HW227453   4.267   1.698   8.594  0.5000 -0.7118  0.2799
 5273SOL     OW27454   3.912   3.450  17.418 -0.5491  0.5691 -0.5926
 5273SOL    HW127455   3.875   3.379  17.470 -0.4755  0.1841 -1.0719
 5273SOL    HW227456   3.923   3.401  17.337 -0.8417 -0.0623 -0.2537
 5274SOL     OW27457   4.681   0.605   8.112 -0.5197  0.1225  0.0347
 5274SOL    HW127458   4.720   0.587   8.198 -0.9607 -0.3506  0.1353
 5274SOL    HW227459   4.623   0.678   8.131  0.1276  0.4638  0.7080
 5275SOL     OW27460   0.979   3.550   0.850  0.0494 -0.2034  0.7774
 5275SOL    HW127461   1.034   3.472   0.837  0.7155  0.3550  0.2519
 5275SOL    HW227462   0.896   3.511   0.823 -0.4298  0.0701  1.8468
 5276SOL     OW27463   2.335   4.552   3.079 -0.0484  0.8464 -0.5097
 5276SOL    HW127464   2.430   4.553   3.067  0.1356  1.6363  1.0575
 5276SOL    HW227465   2.303   4.547   2.989  1.3185  0.0964 -0.9545
 5277SOL     OW27466   1.287   0.182  13.393  0.0347  0.2214 -0.1667
 5277SOL    HW127467   1.356   0.218  13.338 -0.2793  0.1082 -0.6318
 5277SOL    HW227468   1.211   0.230  13.361 -2.6328 -1.8578  3.0388
 5278SOL     OW27469   4.085   1.244   2.186 -0.0834  0.1906  0.1313
 5278SOL    HW127470   4.128   1.233   2.271  0.8392  0.0038 -0.3609
 5278SOL    HW227471   4.087   1.155   2.151  0.3915  0.4115 -0.3995
 5279SOL     OW27472   1.408   2.924   1.062 -0.1383 -0.5308  0.2504
 5279SOL    HW127473   1.419   2.833   1.092 -1.5820 -0.3233  1.3837
 5279SOL    HW227474   1.498   2.955   1.050 -0.9779  2.1036  0.9834
 5280SOL     OW27475   0.504   1.702   1.011 -0.4605 -0.6312 -0.0417
 5280SOL    HW127476   0.472   1.790   0.989  0.1082 -0.4135 -0.0087
 5280SOL    HW227477   0.427   1.670   1.057  0.8679 -1.2937  1.7107
 5281SOL     OW27478   1.844   1.812   6.955  0.1784  0.2344  0.0424
 5281SOL    HW127479   1.765   1.828   6.903  1.6285  4.7563 -0.7262
 5281SOL    HW227480   1.839   1.724   6.991 -0.5438  0.5932  0.8046
 5282SOL     OW27481   0.925   3.644   3.721 -0.1420 -0.2895 -0.4114
 5282SOL    HW127482   0.868   3.645   3.645  0.9975 -0.8188 -1.2790
 5282SOL    HW227483   0.994   3.587   3.687 -1.5547 -0.6442 -2.6151
 5283SOL     OW27484   2.403   1.411   2.750  0.1284 -0.1422  0.2105
 5283SOL    HW127485   2.429   1.461   2.827 -4.7104  1.2995  0.8857
 5283SOL    HW227486   2.438   1.450   2.670 -0.7629 -0.4838 -0.3481
 5284SOL     OW27487   1.780   0.278   8.695 -0.3810 -0.5734  0.0063
 5284SOL    HW127488   1.846   0.291   8.627  0.0830  0.4265  0.6380
 5284SOL    HW227489   1.716   0.218   8.657  0.1592 -0.7979 -0.5597
 5285SOL     OW27490   1.722   0.360   6.976 -0.0435 -0.2286 -0.1393
 5285SOL    HW127491   1.797   0.389   6.925 -1.1231 -1.8131 -2.5975
 5285SOL    HW227492   1.762   0.324   7.056  0.6843 -1.5260 -1.0911
 5286SOL     OW27493   0.065   1.907   0.134  0.3487 -0.1968  0.2822
 5286SOL    HW127494   0.096   1.936   0.048 -1.6207  2.6535  0.5330
 5286SOL    HW227495   4.711   1.931   0.142 -0.1381 -1.8832 -0.2014
 5287SOL     OW27496   4.012   0.016   1.847 -0.1864 -0.5084  0.3931
 5287SOL    HW127497   3.982   4.680   1.901  0.5844 -0.0732  1.4355
 5287SOL    HW227498   4.090   4.716   1.808  0.5079  1.2433  0.0733
 5288SOL     OW27499   0.344   1.268  16.121 -0.2608  0.5698  0.3876
 5288SOL    HW127500   0.428   1.266  16.074 -1.0577 -0.5197 -0.9738
 5288SOL    HW227501   0.308   1.342  16.072  0.8260 -0.5670 -2.1530
 5289SOL     OW27502   4.697   0.407   8.365 -0.8217  0.6479 -0.2220
 5289SOL    HW127503   4.709   0.346   8.292 -0.2517  2.6499 -1.8024
 5289SOL    HW227504   0.039   0.391   8.415 -0.0065  1.3229 -1.2994
 5290SOL     OW27505   1.893   0.303   3.121  0.1003 -0.5456  0.0251
 5290SOL    HW127506   1.858   0.217   3.097 -2.0850  0.3302  0.0441
 5290SOL    HW227507   1.832   0.366   3.082  2.6798  1.0176 -1.4166
 5291SOL     OW27508   0.895   2.664   5.691 -0.6576 -0.2744  0.0414
 5291SOL    HW127509   0.851   2.715   5.759 -1.8820  0.2304 -1.1353
 5291SOL    HW227510   0.832   2.592   5.690 -0.8605 -0.0681 -1.0243
 5292SOL     OW27511   3.384   2.671   3.834 -0.8619 -0.1034  0.2649
 5292SOL    HW127512   3.338   2.597   3.873 -0.1199 -1.1425 -0.8407
 5292SOL    HW227513   3.430   2.632   3.760 -0.5602  0.3948  0.1908
 5293SOL     OW27514   1.861   1.729  15.141 -0.0170  0.4021  0.2485
 5293SOL    HW127515   1.892   1.765  15.058 -1.8305  1.3599 -0.0277
 5293SOL    HW227516   1.910   1.648  15.147  0.5103  0.7956  1.2865
 5294SOL     OW27517   2.367   2.142  12.691  0.1935 -0.1874  0.0682
 5294SOL    HW127518   2.427   2.133  12.617  0.1858  2.0761 -0.2235
 5294SOL    HW227519   2.434   2.110  12.752  0.3197  0.9158  0.5043
 5295SOL     OW27520   3.547   0.607  14.318  0.7628  0.0129  0.5193
 5295SOL    HW127521   3.509   0.669  14.380  0.7061 -0.4981  1.0044
 5295SOL    HW227522   3.467   0.563  14.290  0.9505  0.4122 -0.6223
 5296SOL     OW27523   0.685   0.505  11.211 -0.3091  0.5335  0.3275
 5296SOL    HW127524   0.641   0.531  11.130 -0.9341  0.8431  0.7633
 5296SOL    HW227525   0.773   0.533  11.186 -0.2580  0.5340  0.5131
 5297SOL     OW27526   0.745   2.649  10.692 -0.5203  0.4440 -0.3237
 5297SOL    HW127527   0.748   2.725  10.749  1.7790  0.7123 -0.8234
 5297SOL    HW227528   0.675   2.603  10.740 -0.2445  0.2193 -0.1391
 5298SOL     OW27529   2.343   2.346  12.970  0.0025  0.0052  0.3826
 5298SOL    HW127530   2.273   2.403  12.937  1.3080  1.1965 -0.3122
 5298SOL    HW227531   2.421   2.366  12.918  0.3759 -2.0686  0.1448
 5299SOL     OW27532   3.641   3.092   5.291 -0.6073 -0.0312 -0.4677
 5299SOL    HW127533   3.727   3.089   5.249 -1.2528 -0.2508 -1.7556
 5299SOL    HW227534   3.662   3.060   5.379 -0.1884  0.1029 -0.5179
 5300SOL     OW27535   3.649   1.964   4.793 -0.3158 -0.2780  0.3175
 5300SOL    HW127536   3.648   1.942   4.700 -2.2573 -1.1155  0.5313
 5300SOL    HW227537   3.700   2.045   4.799  1.1920 -1.2730  0.7326
 5301SOL     OW27538   3.935   0.210   4.758 -0.4506 -0.1581 -0.4243
 5301SOL    HW127539   3.852   0.255   4.768 -0.6673 -0.9526  1.4574
 5301SOL    HW227540   3.998   0.278   4.734 -1.5343  0.7086 -0.7673
 5302SOL     OW27541   4.586   1.635  16.980  0.4767 -0.5454  0.0111
 5302SOL    HW127542   4.543   1.596  16.904  0.0989 -1.0954  0.5108
 5302SOL    HW227543   4.658   1.674  16.930  0.4671 -0.7135 -0.1356
 5303SOL     OW27544   3.349   3.895   5.096 -0.7359 -0.1398  0.0787
 5303SOL    HW127545   3.418   3.950   5.133  1.2268 -1.8373 -1.0213
 5303SOL    HW227546   3.278   3.950   5.128  0.6863  0.5770  2.0468
 5304SOL     OW27547   4.438   4.639   2.551 -0.5497 -0.2659  0.3083
 5304SOL    HW127548   4.393   4.627   2.468  0.6229  1.8268 -0.6246
 5304SOL    HW227549   4.381   4.701   2.596 -1.7096 -0.4479 -0.9301
 5305SOL     OW27550   3.813   3.943   3.476 -0.1545 -1.1889 -0.3558
 5305SOL    HW127551   3.829   3.948   3.570 -0.8935 -0.0611 -0.2979
 5305SOL    HW227552   3.890   3.982   3.434  0.5399 -0.3746  1.6467
 5306SOL     OW27553   4.385   2.002   6.931  0.1681  0.2237  0.6056
 5306SOL    HW127554   4.304   2.049   6.912  1.0540  2.1097  1.5147
 5306SOL    HW227555   4.351   1.913   6.923  2.0228 -0.4212  0.0027
 5307SOL     OW27556   1.151   0.572  13.212 -0.0333 -0.0135  0.5249
 5307SOL    HW127557   1.089   0.641  13.235 -0.2122  0.6857 -2.0509
 5307SOL    HW227558   1.174   0.611  13.127  0.5230  0.4799  0.8969
 5308SOL     OW27559   3.096   1.040  12.241 -0.9591 -0.2735 -0.3860
 5308SOL    HW127560   3.127   1.011  12.155  1.4022  1.4779 -0.0956
 5308SOL    HW227561   3.001   1.030  12.241 -0.9187 -0.6428  0.5144
 5309SOL     OW27562   0.415   1.974   8.188 -0.0212 -0.0825 -0.4659
 5309SOL    HW127563   0.405   2.023   8.269 -0.9975 -2.9766  1.1771
 5309SOL    HW227564   0.343   1.912   8.178 -0.9430  0.9384 -0.1135
 5310SOL     OW27565   1.057   4.121   9.003  0.2191  0.3137  0.4385
 5310SOL    HW127566   1.111   4.121   9.083  0.6005  2.7696  0.1878
 5310SOL    HW227567   1.100   4.180   8.941  0.6320 -0.9704 -0.5019
 5311SOL     OW27568   2.534   2.222   1.302 -0.0059  0.1046  0.2268
 5311SOL    HW127569   2.535   2.271   1.220 -0.0745  0.0414  0.1889
 5311SOL    HW227570   2.550   2.289   1.369 -2.0811  1.3579 -0.5801
 5312SOL     OW27571   1.023   0.044   3.841  0.3808 -0.3029 -0.4036
 5312SOL    HW127572   0.931   0.022   3.852 -0.6048  4.3250  0.3030
 5312SOL    HW227573   1.066   4.707   3.883 -0.9705 -0.9622 -0.1989
 5313SOL     OW27574   2.592   1.769   5.849  0.1842 -0.3939 -0.4855
 5313SOL    HW127575   2.525   1.837   5.858  1.4967  0.9919 -1.3384
 5313SOL    HW227576   2.659   1.826   5.813 -0.0050 -0.1630 -0.4679
 5314SOL     OW27577   2.477   0.483  12.826 -0.7611  0.0457  0.3913
 5314SOL    HW127578   2.416   0.485  12.752  0.2331 -0.8607 -0.4670
 5314SOL    HW227579   2.528   0.408  12.793 -1.8630 -1.7279  2.7233
 5315SOL     OW27580   2.717   0.496   2.979 -0.6502  0.1417 -0.1955
 5315SOL    HW127581   2.656   0.435   3.021  0.2884 -0.7061 -0.0625
 5315SOL    HW227582   2.795   0.441   2.980  0.9457  2.3673 -0.9120
 5316SOL     OW27583   0.456   2.797  10.495  0.2499 -0.3110  0.1660
 5316SOL    HW127584   0.458   2.850  10.575  2.3158 -1.2445  0.7309
 5316SOL    HW227585   0.544   2.760  10.492  0.8010  1.0272 -0.1685
 5317SOL     OW27586   0.953   0.719   4.112  0.1203 -0.0585 -0.2142
 5317SOL    HW127587   1.040   0.722   4.153  0.4327  0.1197 -0.8837
 5317SOL    HW227588   0.961   0.633   4.069 -3.9551 -0.4707 -0.1462
 5318SOL     OW27589   4.140   3.007   7.184 -0.1696 -0.1648  0.2605
 5318SOL    HW127590   4.147   3.098   7.212 -0.9113  0.0740 -0.3310
 5318SOL    HW227591   4.125   2.953   7.261  0.2341 -0.1721  0.3356
 5319SOL     OW27592   0.862   2.673   3.016  0.1426  0.1255 -0.2066
 5319SOL    HW127593   0.840   2.620   3.093  0.7216 -0.9718 -0.7920
 5319SOL    HW227594   0.836   2.761   3.043 -0.2841 -0.5258  1.5551
 5320SOL     OW27595   2.338   1.011   6.646 -0.4464  0.0668 -0.1077
 5320SOL    HW127596   2.295   0.995   6.731 -0.7194  1.8906  0.1045
 5320SOL    HW227597   2.268   1.019   6.582  0.6457  1.6999 -1.0727
 5321SOL     OW27598   0.472   1.484   1.532 -0.1034  0.3369  0.8053
 5321SOL    HW127599   0.516   1.467   1.448 -1.0645  1.9289 -0.0181
 5321SOL    HW227600   0.530   1.431   1.587  1.4144  3.2283  1.9754
 5322SOL     OW27601   2.805   1.636   8.584  0.0501  0.5532  0.1181
 5322SOL    HW127602   2.822   1.586   8.504 -1.7416 -1.9461  1.2912
 5322SOL    HW227603   2.794   1.566   8.647  1.5669  0.0310 -0.1960
 5323SOL     OW27604   0.643   0.962   5.119 -0.0758  0.3492 -0.1514
 5323SOL    HW127605   0.732   0.996   5.114 -0.1165  0.2331 -1.6471
 5323SOL    HW227606   0.636   0.911   5.039  0.6436  0.0049  0.0055
 5324SOL     OW27607   2.390   4.462   2.224  0.6277  0.7155  0.3167
 5324SOL    HW127608   2.427   4.489   2.308  1.8328 -0.4449  0.1362
 5324SOL    HW227609   2.420   4.372   2.215 -1.0840  0.2841 -1.1781
 5325SOL     OW27610   1.824   4.183   2.758  0.4624 -0.2319  0.0919
 5325SOL    HW127611   1.853   4.174   2.848  2.0950  0.6732 -0.3225
 5325SOL    HW227612   1.743   4.233   2.763  1.1943  0.9818 -0.0344
 5326SOL     OW27613   1.919   1.354   8.336  0.1695 -0.2726  0.3610
 5326SOL    HW127614   1.910   1.364   8.430 -0.7376 -1.4798  0.3974
 5326SOL    HW227615   1.948   1.444   8.319 -0.5311  0.2161  1.7741
 5327SOL     OW27616   3.306   4.169   3.569 -0.0389  0.1393 -0.1848
 5327SOL    HW127617   3.293   4.111   3.645  2.4275  0.0125  0.1296
 5327SOL    HW227618   3.398   4.192   3.576  0.1508 -0.7101  0.1670
 5328SOL     OW27619   1.134   3.207   7.558 -0.0078  0.3415  0.5257
 5328SOL    HW127620   1.156   3.172   7.472 -0.3964 -0.2012  0.6515
 5328SOL    HW227621   1.155   3.141   7.625  2.0322  2.0702  1.6067
 5329SOL     OW27622   1.438   0.903   3.360 -0.6331  0.0159 -0.6361
 5329SOL    HW127623   1.392   0.967   3.306 -1.8617 -0.3327 -0.0057
 5329SOL    HW227624   1.387   0.826   3.333 -0.0570 -0.3435 -0.6921
 5330SOL     OW27625   2.053   1.641   3.656  0.2534  0.1386 -0.0369
 5330SOL    HW127626   2.078   1.581   3.586  2.9082  1.0193  0.1252
 5330SOL    HW227627   1.963   1.656   3.629  0.0372  1.6341  1.4976
 5331SOL     OW27628   3.624   4.430   7.717  0.1406  0.1729 -0.2086
 5331SOL    HW127629   3.691   4.497   7.703 -0.0684  0.4404  0.0706
 5331SOL    HW227630   3.613   4.430   7.812 -0.2554  0.1103 -0.2516
 5332SOL     OW27631   2.419   1.365   4.528  0.3027  0.8455 -0.0251
 5332SOL    HW127632   2.331   1.353   4.493  1.8948 -0.8976 -3.4362
 5332SOL    HW227633   2.474   1.364   4.449 -0.2654 -0.0699 -0.4053
 5333SOL     OW27634   3.075   4.598   1.045 -0.5413  0.2380  0.0458
 5333SOL    HW127635   3.159   4.577   1.003  0.6699 -0.1363  2.6989
 5333SOL    HW227636   3.044   4.508   1.052 -2.0438  0.8223  0.8804
 5334SOL     OW27637   1.986   4.402   9.321  0.7113 -0.1920 -0.0557
 5334SOL    HW127638   2.068   4.451   9.312 -0.7030  2.0002 -0.9273
 5334SOL    HW227639   1.927   4.467   9.359 -0.4788 -0.1220 -2.0352
 5335SOL     OW27640   0.973   0.929   2.517 -0.2526 -0.3231 -0.1002
 5335SOL    HW127641   0.920   0.968   2.448 -1.1640 -1.0522  0.1936
 5335SOL    HW227642   0.905   0.888   2.570  1.0417 -1.3650  0.7593
 5336SOL     OW27643   2.551   2.005   8.665  0.2184  0.6169 -0.1045
 5336SOL    HW127644   2.504   1.941   8.611 -1.5470  2.1268 -0.3261
 5336SOL    HW227645   2.631   1.988   8.615 -0.1727 -0.8589 -0.2466
 5337SOL     OW27646   2.768   4.050   7.918  0.4340  0.2964 -0.1021
 5337SOL    HW127647   2.763   3.954   7.916 -0.2167  0.3610 -1.4287
 5337SOL    HW227648   2.847   4.069   7.868  1.4293 -0.3817  1.2081
 5338SOL     OW27649   0.071   2.379  13.913  0.1287 -0.0260  0.2194
 5338SOL    HW127650   0.135   2.308  13.909 -1.6877 -1.5527 -1.9829
 5338SOL    HW227651   0.072   2.404  13.821  4.1786  2.2230  0.8749
 5339SOL     OW27652   0.316   0.272   2.982  0.3940  0.0095 -0.1159
 5339SOL    HW127653   0.353   0.228   3.059  1.7281  0.8289 -0.2870
 5339SOL    HW227654   0.317   0.365   3.001 -1.6200  0.1306 -0.6222
 5340SOL     OW27655   0.259   3.232  16.733 -0.2031  0.4775 -0.1506
 5340SOL    HW127656   0.196   3.290  16.689 -1.1242 -0.4342 -0.0635
 5340SOL    HW227657   0.316   3.223  16.656 -1.3599  0.8441 -1.0599
 5341SOL     OW27658   1.076   1.270  11.659  0.0870  0.7294 -0.3342
 5341SOL    HW127659   1.105   1.180  11.643  1.0106  0.8434  0.7111
 5341SOL    HW227660   1.153   1.315  11.692  0.3366  1.3730 -1.7663
 5342SOL     OW27661   0.494   1.897   8.936  0.0264  0.2143  0.6503
 5342SOL    HW127662   0.556   1.886   8.863 -1.3967 -0.0215 -0.5089
 5342SOL    HW227663   0.510   1.813   8.979  1.4690 -0.6583 -1.5455
 5343SOL     OW27664   2.421   2.547   7.153  0.2361 -0.6320 -0.4196
 5343SOL    HW127665   2.419   2.581   7.063 -0.3473 -0.0928 -0.2026
 5343SOL    HW227666   2.350   2.483   7.150  0.7065 -1.1330 -0.8261
 5344SOL     OW27667   3.447   3.202   5.015 -0.1142 -0.1565  0.2414
 5344SOL    HW127668   3.529   3.155   5.035  0.0674  0.3727  0.7281
 5344SOL    HW227669   3.402   3.192   5.098 -4.5572 -1.4965 -2.3120
 5345SOL     OW27670   0.017   0.973  16.314 -0.2032  0.2364 -0.5983
 5345SOL    HW127671   4.678   0.968  16.257 -1.2188  1.8549  0.6263
 5345SOL    HW227672   0.043   0.881  16.320 -2.1083 -0.1141  2.7930
 5346SOL     OW27673   2.483   3.361  16.859 -0.1209  0.0901 -0.1996
 5346SOL    HW127674   2.418   3.296  16.829 -0.3827 -0.6843  2.0714
 5346SOL    HW227675   2.496   3.331  16.949  2.0573  0.6833 -0.3344
 5347SOL     OW27676   1.985   2.781   1.881 -0.7493  0.0260  0.2944
 5347SOL    HW127677   1.896   2.803   1.852 -1.5137 -2.4213  0.7885
 5347SOL    HW227678   1.970   2.754   1.972 -1.2930  1.6082  0.6767
 5348SOL     OW27679   2.343   0.879  17.396 -0.4766 -0.0054  0.3915
 5348SOL    HW127680   2.437   0.866  17.402 -0.3419 -0.4396 -2.5092
 5348SOL    HW227681   2.332   0.929  17.477 -1.6080  0.4312 -0.0327
 5349SOL     OW27682   2.102   3.279   3.566 -0.4089 -0.5819 -0.1860
 5349SOL    HW127683   2.020   3.313   3.531 -0.7810 -0.3931  0.8509
 5349SOL    HW227684   2.099   3.284   3.662 -1.6716 -2.1782 -0.1393
 5350SOL     OW27685   3.613   1.736   4.928 -0.4020  0.3633 -0.5016
 5350SOL    HW127686   3.663   1.766   5.004  0.1980  1.1470 -1.1969
 5350SOL    HW227687   3.631   1.810   4.869  1.8831  0.6441  0.5430
 5351SOL     OW27688   4.080   3.003   9.751  0.1365 -0.1527  0.5691
 5351SOL    HW127689   4.045   3.073   9.808  0.9156  1.6125 -1.1206
 5351SOL    HW227690   4.083   2.933   9.816 -0.9788 -0.1892  0.5857
 5352SOL     OW27691   1.307   2.136   2.387  0.1440 -0.4791  0.3482
 5352SOL    HW127692   1.224   2.126   2.433 -0.0449 -0.3919  0.0251
 5352SOL    HW227693   1.299   2.223   2.349  0.4767 -0.1831  0.9603
 5353SOL     OW27694   4.127   4.620   9.764 -0.1029  0.1777 -0.8005
 5353SOL    HW127695   4.136   4.666   9.847 -0.2548  1.1101 -1.2990
 5353SOL    HW227696   4.080   4.544   9.797 -0.1034  1.2702  1.7084
 5354SOL     OW27697   0.787   0.618   5.738 -0.0161 -0.5214 -0.2666
 5354SOL    HW127698   0.719   0.641   5.801  0.5937 -0.4462  0.3653
 5354SOL    HW227699   0.739   0.609   5.656 -1.5364 -1.3207  0.7080
 5355SOL     OW27700   0.202   4.310   2.428  0.0083 -0.1319 -0.0842
 5355SOL    HW127701   0.111   4.325   2.453  1.1810  1.9207  2.9468
 5355SOL    HW227702   0.245   4.329   2.511  0.0121  0.6957 -0.2767
 5356SOL     OW27703   1.923   0.719   2.459  0.4294  0.3009 -0.3051
 5356SOL    HW127704   1.949   0.809   2.440 -1.7464  0.9955 -0.0779
 5356SOL    HW227705   1.913   0.721   2.554 -1.9118  0.1092 -0.5427
 5357SOL     OW27706   0.977   3.140  15.015 -0.1706  0.6834 -0.2267
 5357SOL    HW127707   0.966   3.146  14.920 -0.3944 -0.6632 -0.2935
 5357SOL    HW227708   1.034   3.216  15.030  2.5976 -1.5122  0.3952
 5358SOL     OW27709   0.627   1.537   1.972  0.4340 -0.4353  0.1404
 5358SOL    HW127710   0.544   1.579   1.949  0.8006  0.7397  0.9240
 5358SOL    HW227711   0.634   1.475   1.899  1.3350  1.3853 -1.3356
 5359SOL     OW27712   2.494   4.025  11.023  0.5928  0.3995  0.1312
 5359SOL    HW127713   2.529   4.040  11.110 -0.2142  2.0535  0.1625
 5359SOL    HW227714   2.518   4.103  10.974  0.5087  0.3197 -0.0397
 5360SOL     OW27715   1.842   0.001   6.889 -0.1737 -0.1715  0.0820
 5360SOL    HW127716   1.858   4.717   6.798 -0.5816 -0.0778 -0.0113
 5360SOL    HW227717   1.747   0.006   6.899 -0.3107 -0.4349 -1.1030
 5361SOL     OW27718   0.547   2.768   1.489 -0.2114  0.0049 -0.3806
 5361SOL    HW127719   0.630   2.719   1.490  1.2763  2.4940 -1.5590
 5361SOL    HW227720   0.532   2.777   1.395  1.2464 -0.4946 -0.6682
 5362SOL     OW27721   1.507   3.899  16.563 -0.1250  0.1690  0.4259
 5362SOL    HW127722   1.423   3.937  16.588  0.3471  0.0674  2.1369
 5362SOL    HW227723   1.554   3.978  16.536 -0.1047  0.0562  0.1260
 5363SOL     OW27724   4.375   0.908   9.889  0.1523 -0.1412  0.0346
 5363SOL    HW127725   4.333   0.867   9.965  1.2216 -0.4037  0.4893
 5363SOL    HW227726   4.465   0.874   9.894  0.7536  1.4434 -0.0390
 5364SOL     OW27727   2.135   1.699   6.043  0.0799  0.2308  0.6959
 5364SOL    HW127728   2.215   1.752   6.050 -1.2267  2.3831 -0.7293
 5364SOL    HW227729   2.114   1.666   6.131  0.0316 -0.0362  0.5840
 5365SOL     OW27730   0.169   2.012   6.969  0.0332 -0.3101  0.4302
 5365SOL    HW127731   0.207   1.933   7.009  1.0562  0.2743  0.6084
 5365SOL    HW227732   0.245   2.056   6.931 -0.1995  0.1470  0.5008
 5366SOL     OW27733   3.942   3.635   0.541 -0.2545 -0.1008 -0.4427
 5366SOL    HW127734   3.987   3.709   0.582 -2.0779  0.0684  1.2288
 5366SOL    HW227735   4.013   3.588   0.496 -0.4629 -0.5630 -0.2893
 5367SOL     OW27736   0.881   2.755  14.837 -0.6314 -0.3025  0.5090
 5367SOL    HW127737   0.924   2.765  14.922 -1.2431  1.3207  0.6376
 5367SOL    HW227738   0.821   2.681  14.844  0.6383 -1.5592 -2.1304
 5368SOL     OW27739   1.326   0.339   1.983  0.0590  0.6302  0.4195
 5368SOL    HW127740   1.394   0.351   2.049  0.8679  3.1395 -0.9113
 5368SOL    HW227741   1.379   0.340   1.904  0.1638 -1.6477  0.4363
 5369SOL     OW27742   0.506   3.483   4.122 -0.1422 -0.4430  0.2383
 5369SOL    HW127743   0.455   3.524   4.191  0.3099 -0.0087  0.3085
 5369SOL    HW227744   0.458   3.516   4.046 -0.3129  0.2622  0.6532
 5370SOL     OW27745   2.963   0.520  13.564 -0.0821  0.5222  0.5614
 5370SOL    HW127746   2.936   0.608  13.539  1.2012  0.7752  0.0569
 5370SOL    HW227747   3.032   0.541  13.628  0.9968 -1.9264  0.1991
 5371SOL     OW27748   0.101   1.671   6.355  0.0577  0.2427  0.4361
 5371SOL    HW127749   0.065   1.583   6.368  2.5910 -1.0495 -1.2326
 5371SOL    HW227750   0.034   1.708   6.297 -0.5449  0.0880  1.0441
 5372SOL     OW27751   1.967   2.399  15.714  0.4903 -0.0930 -0.2140
 5372SOL    HW127752   1.902   2.367  15.776  1.6774  0.4103  1.2928
 5372SOL    HW227753   1.924   2.375  15.632  0.1065 -2.6933  0.7197
 5373SOL     OW27754   2.889   1.564  11.947  0.2736 -0.0052 -0.2325
 5373SOL    HW127755   2.941   1.556  11.867  0.8646 -2.3831  0.4108
 5373SOL    HW227756   2.896   1.658  11.964  2.9488 -0.0075 -1.3527
 5374SOL     OW27757   2.854   3.827   4.386  0.2465  0.1233  0.0166
 5374SOL    HW127758   2.857   3.875   4.470 -0.0906  1.0022 -0.4727
 5374SOL    HW227759   2.817   3.744   4.415 -1.7541  1.4063  1.1764
 5375SOL     OW27760   3.750   1.421   9.518 -0.1070  0.7508  0.1305
 5375SOL    HW127761   3.765   1.446   9.427  0.4913  1.3646  0.3927
 5375SOL    HW227762   3.656   1.437   9.527 -0.3573  1.0085 -2.9832
 5376SOL     OW27763   2.437   4.588   6.355 -0.4214 -0.2773 -0.3294
 5376SOL    HW127764   2.356   4.558   6.396 -0.5759  1.7434  0.8051
 5376SOL    HW227765   2.454   4.668   6.404 -0.8123 -0.5495  0.2482
 5377SOL     OW27766   1.768   0.097   4.260  0.2620  0.2039  0.2763
 5377SOL    HW127767   1.751   0.178   4.308 -0.0954  0.4666 -0.2918
 5377SOL    HW227768   1.838   0.056   4.311 -0.0721 -0.9515 -0.1991
 5378SOL     OW27769   0.549   1.721   2.573 -0.4683 -0.0740 -0.2392
 5378SOL    HW127770   0.461   1.700   2.543 -1.0707  0.1500  1.3672
 5378SOL    HW227771   0.606   1.670   2.515  0.6873 -0.5952  1.3478
 5379SOL     OW27772   3.009   0.556   7.614  0.1671 -0.2197  0.4360
 5379SOL    HW127773   3.097   0.517   7.613  0.9007  1.4742 -1.4269
 5379SOL    HW227774   2.947   0.486   7.594 -0.4840 -0.0563  1.8391
 5380SOL     OW27775   2.605   0.315   7.525 -0.3813  0.4107 -0.1244
 5380SOL    HW127776   2.600   0.308   7.430 -0.2087  0.5841 -0.1461
 5380SOL    HW227777   2.528   0.266   7.554  2.2278 -3.9558 -0.5569
 5381SOL     OW27778   0.581   1.897  17.058 -0.3552 -0.1870 -0.0682
 5381SOL    HW127779   0.539   1.981  17.071  2.2714  1.1840 -0.4176
 5381SOL    HW227780   0.507   1.837  17.067  0.8203 -1.5493  0.6374
 5382SOL     OW27781   1.613   4.408   1.572  0.4816  0.2565 -0.2945
 5382SOL    HW127782   1.567   4.382   1.652 -0.6554  1.3274 -0.6078
 5382SOL    HW227783   1.543   4.418   1.508  0.2905  2.0713  0.2209
 5383SOL     OW27784   1.704   1.210   0.951 -0.0043 -0.6881  0.9481
 5383SOL    HW127785   1.663   1.145   0.895 -2.6235  0.7782  1.1923
 5383SOL    HW227786   1.657   1.198   1.034 -0.9451 -0.2372  0.4767
 5384SOL     OW27787   4.706   0.878  12.660 -0.4400 -0.3536 -0.4271
 5384SOL    HW127788   0.046   0.908  12.613 -0.0725  0.7253  0.8660
 5384SOL    HW227789   4.731   0.889  12.752 -0.1099 -0.3018 -0.5212
 5385SOL     OW27790   1.741   2.012   1.623  0.0685  0.4402 -0.3557
 5385SOL    HW127791   1.753   2.074   1.694 -0.9525  0.0995  0.1061
 5385SOL    HW227792   1.647   2.003   1.607  0.3174 -0.4215 -1.3369
 5386SOL     OW27793   0.507   4.035   8.372  0.1217  0.4182  0.1333
 5386SOL    HW127794   0.427   4.050   8.321 -0.5641 -1.2980  0.7036
 5386SOL    HW227795   0.559   3.978   8.316  0.2326  2.1941 -1.5728
 5387SOL     OW27796   0.664   0.997   1.325  0.0939  0.0117 -0.0815
 5387SOL    HW127797   0.691   0.907   1.344 -1.5709  0.2872  3.5419
 5387SOL    HW227798   0.652   0.976   1.232  3.7235  0.4991 -0.6805
 5388SOL     OW27799   2.884   0.349  16.773 -0.4397 -0.3692 -0.2004
 5388SOL    HW127800   2.924   0.431  16.803 -3.7920  1.3576 -0.3877
 5388SOL    HW227801   2.819   0.397  16.720 -1.7106  0.0540  1.7328
 5389SOL     OW27802   4.104   0.831  14.416 -0.7968  0.1745  0.1096
 5389SOL    HW127803   4.010   0.830  14.396 -0.6441  0.8374 -0.6692
 5389SOL    HW227804   4.138   0.767  14.353  1.5794 -1.6563  3.2777
 5390SOL     OW27805   4.174   2.554   0.565 -0.6161  0.1892  0.2452
 5390SOL    HW127806   4.155   2.461   0.565  0.7537 -0.0864  0.1055
 5390SOL    HW227807   4.224   2.567   0.485  2.2921  0.8959  2.1923
 5391SOL     OW27808   3.283   4.609  13.169 -0.2178 -0.8524 -0.2788
 5391SOL    HW127809   3.194   4.640  13.152  0.3081 -0.2731 -1.9523
 5391SOL    HW227810   3.260   4.518  13.148 -0.5865 -0.6889 -0.5845
 5392SOL     OW27811   3.455   2.144   6.989 -0.0381  0.0486  0.0586
 5392SOL    HW127812   3.398   2.122   6.915 -2.3993 -0.0621  1.9492
 5392SOL    HW227813   3.466   2.064   7.040 -0.3023  0.6685  1.0671
 5393SOL     OW27814   0.593   4.277   6.590 -0.2679 -0.0716  0.2771
 5393SOL    HW127815   0.526   4.210   6.609 -0.5528  0.3008  0.5894
 5393SOL    HW227816   0.535   4.353   6.598  0.0820  0.4007 -1.8029
 5394SOL     OW27817   0.707   4.455   8.082  0.4041 -0.7305 -0.2112
 5394SOL    HW127818   0.627   4.478   8.129  0.7035 -2.6762  1.2617
 5394SOL    HW227819   0.743   4.388   8.140 -1.0653 -1.8678 -0.6250
 5395SOL     OW27820   0.060   1.280   0.982  0.5519 -0.8095 -0.6095
 5395SOL    HW127821   0.150   1.280   1.015  0.5115 -1.3142 -0.4870
 5395SOL    HW227822   0.057   1.184   0.977 -0.9651 -0.6618 -2.6608
 5396SOL     OW27823   4.322   3.680   6.208 -0.1924  0.3867  0.7240
 5396SOL    HW127824   4.326   3.735   6.286  0.6324  3.8251 -1.7273
 5396SOL    HW227825   4.376   3.604   6.229  0.4307  0.8504  0.8139
 5397SOL     OW27826   0.379   1.596  16.615  0.1779  0.3340  0.8143
 5397SOL    HW127827   0.448   1.579  16.679 -0.7808 -2.2851  1.1547
 5397SOL    HW227828   0.304   1.580  16.672 -0.2070  0.6184  0.3934
 5398SOL     OW27829   3.056   1.981  13.509 -0.3713  0.3686  0.3232
 5398SOL    HW127830   3.056   1.887  13.528  0.0763  0.3133  0.0648
 5398SOL    HW227831   3.147   2.012  13.508 -0.6330  1.1180 -0.4293
 5399SOL     OW27832   2.212   0.741   4.317  0.0188  0.0594 -1.3176
 5399SOL    HW127833   2.225   0.835   4.330 -1.6956  0.2270 -0.9126
 5399SOL    HW227834   2.296   0.708   4.350 -0.3308  1.3665  0.8484
 5400SOL     OW27835   0.376   2.424  16.449 -0.3013  0.1516 -0.1201
 5400SOL    HW127836   0.403   2.399  16.361  2.3214  1.6101  0.2643
 5400SOL    HW227837   0.340   2.508  16.420 -1.8110 -0.7900 -0.9246
 5401SOL     OW27838   1.565   4.614   9.319  0.3953 -0.0454  0.3159
 5401SOL    HW127839   1.606   4.528   9.307 -1.9621 -1.4131  2.0330
 5401SOL    HW227840   1.636   4.663   9.360  0.2644  1.6795 -1.5292
 5402SOL     OW27841   2.400   3.886   8.932 -0.6148  0.0258 -0.3934
 5402SOL    HW127842   2.355   3.829   8.995 -1.4830 -0.8821 -1.8504
 5402SOL    HW227843   2.343   3.873   8.857 -2.3312  2.1379  0.5747
 5403SOL     OW27844   0.008   4.432   8.980  0.0190  0.1833  0.0254
 5403SOL    HW127845   4.667   4.388   9.010  0.9767 -0.8227  1.0823
 5403SOL    HW227846   0.002   4.429   8.884 -0.2557  1.6035 -0.0025
 5404SOL     OW27847   1.779   1.161   4.920  0.4082 -0.3643 -0.6957
 5404SOL    HW127848   1.738   1.238   4.881  0.1036  0.5383  1.4506
 5404SOL    HW227849   1.840   1.210   4.975  1.8942  0.1837 -2.8283
 5405SOL     OW27850   1.551   3.024   5.440 -0.1862 -0.0887  0.2613
 5405SOL    HW127851   1.594   3.000   5.358 -0.5362 -0.2094  0.1135
 5405SOL    HW227852   1.620   3.073   5.484 -0.2943  0.4908 -0.2176
 5406SOL     OW27853   0.580   2.713  16.702 -0.2939 -0.6585 -0.0378
 5406SOL    HW127854   0.658   2.729  16.755  0.9107  2.3958 -2.7463
 5406SOL    HW227855   0.517   2.680  16.767  1.0577  1.7805  2.4948
 5407SOL     OW27856   1.625   3.830  10.989 -0.5121  0.0008  0.0270
 5407SOL    HW127857   1.717   3.820  11.013 -0.4707  0.2676 -0.0258
 5407SOL    HW227858   1.635   3.896  10.921  3.7104 -0.5134  0.1722
 5408SOL     OW27859   2.838   4.152   1.822  0.2213 -0.5508  0.8516
 5408SOL    HW127860   2.853   4.246   1.833  2.6591 -0.8849  0.4211
 5408SOL    HW227861   2.917   4.138   1.769  0.6820  2.9286  0.6278
 5409SOL     OW27862   4.657   2.169   4.263 -0.3999 -0.5082  0.3009
 5409SOL    HW127863   4.609   2.176   4.345 -0.6228 -0.7522  0.1909
 5409SOL    HW227864   4.716   2.244   4.274 -3.2881  2.3676 -3.2772
 5410SOL     OW27865   2.149   1.277   8.667  0.0552  0.0289  0.0897
 5410SOL    HW127866   2.146   1.188   8.701  3.8191  0.3597  1.3416
 5410SOL    HW227867   2.225   1.268   8.610  2.3279 -0.7039  3.2103
 5411SOL     OW27868   3.071   1.608   4.953  0.4911  0.1942  0.1995
 5411SOL    HW127869   3.067   1.630   4.860 -0.6320  2.6428  0.8133
 5411SOL    HW227870   3.157   1.643   4.974  0.4207  1.6919 -2.0621
 5412SOL     OW27871   0.443   2.849   8.516  0.1459  0.8975 -0.1673
 5412SOL    HW127872   0.462   2.763   8.479 -0.4575 -0.2850  2.3101
 5412SOL    HW227873   0.449   2.825   8.608  1.2846 -1.7086 -0.9259
 5413SOL     OW27874   3.195   2.110   7.731  0.2522  0.1138 -0.2846
 5413SOL    HW127875   3.114   2.081   7.773  0.4082  0.4215  0.2315
 5413SOL    HW227876   3.177   2.075   7.644 -0.1551  0.3678 -0.3017
 5414SOL     OW27877   2.975   0.432   2.182 -0.3547 -0.0395 -0.2302
 5414SOL    HW127878   2.885   0.446   2.213 -0.0144 -3.1288  2.0989
 5414SOL    HW227879   3.014   0.518   2.165  1.5690 -1.3071 -2.0947
 5415SOL     OW27880   2.690   2.622   2.247 -0.4233  0.0131  0.1522
 5415SOL    HW127881   2.613   2.669   2.214  0.2440  1.7595  1.0370
 5415SOL    HW227882   2.672   2.528   2.247 -0.6287  0.0650 -1.7203
 5416SOL     OW27883   0.310   2.598  12.406  0.2756  0.0771 -0.1037
 5416SOL    HW127884   0.345   2.670  12.459 -1.0558  0.2253  0.5634
 5416SOL    HW227885   0.391   2.580  12.358 -0.1688  0.3570 -0.9554
 5417SOL     OW27886   3.763   0.078   1.725 -0.0245  0.5024  0.4904
 5417SOL    HW127887   3.843   0.052   1.771  0.6225 -1.8087 -1.9342
 5417SOL    HW227888   3.696   0.044   1.784 -0.1161  0.8910  0.6066
 5418SOL     OW27889   3.653   3.901   2.542 -0.1018  0.4364  0.1019
 5418SOL    HW127890   3.708   3.846   2.597  1.6137  0.7455 -1.3018
 5418SOL    HW227891   3.720   3.955   2.500 -0.3805  2.4079  2.2128
 5419SOL     OW27892   3.133   0.294  12.734 -0.2995 -0.9937 -0.1425
 5419SOL    HW127893   3.070   0.354  12.696  0.8219 -0.5487 -1.3132
 5419SOL    HW227894   3.170   0.249  12.657  0.0342 -0.7433 -0.1278
 5420SOL     OW27895   0.798   3.252   2.586  0.1335  0.0754 -0.3854
 5420SOL    HW127896   0.823   3.248   2.494 -1.2502 -0.1913 -0.7609
 5420SOL    HW227897   0.751   3.171   2.606  2.3572 -0.4305  2.6920
 5421SOL     OW27898   3.506   1.341   8.198 -0.0639  0.0866  0.0661
 5421SOL    HW127899   3.547   1.315   8.281  1.7240 -0.8953 -1.1287
 5421SOL    HW227900   3.457   1.419   8.224  1.4730  0.5660  1.5901
 5422SOL     OW27901   0.702   0.619  15.730 -0.1535 -0.1000  0.0440
 5422SOL    HW127902   0.647   0.605  15.652 -0.2929 -0.6668  0.2411
 5422SOL    HW227903   0.749   0.699  15.709  0.3558 -0.1810  0.9138
 5423SOL     OW27904   4.015   1.709   3.058 -0.0720  0.1689  0.0048
 5423SOL    HW127905   3.964   1.663   3.124 -0.0676  1.7009  1.0673
 5423SOL    HW227906   4.012   1.637   2.994  0.2390  0.4503 -0.3273
 5424SOL     OW27907   2.211   2.561   4.403 -0.3008 -0.2353 -0.5258
 5424SOL    HW127908   2.307   2.561   4.404 -0.2824 -0.8769 -3.1871
 5424SOL    HW227909   2.199   2.525   4.315  0.3362  1.7059 -1.4007
 5425SOL     OW27910   2.742   3.885   5.217  0.0752  0.0585 -0.6039
 5425SOL    HW127911   2.787   3.826   5.278 -1.5053 -0.9603 -0.4188
 5425SOL    HW227912   2.657   3.904   5.257 -0.0795  0.8125 -1.2909
 5426SOL     OW27913   1.039   0.647   1.774  0.5216 -0.2181 -0.2373
 5426SOL    HW127914   1.077   0.732   1.752  0.3189 -0.2720 -0.8191
 5426SOL    HW227915   1.006   0.619   1.689 -0.0233 -0.8275  0.1803
 5427SOL     OW27916   2.457   2.941   2.105 -0.7873 -0.5662 -0.5514
 5427SOL    HW127917   2.530   2.923   2.045  0.1618  1.4598 -0.0069
 5427SOL    HW227918   2.386   2.982   2.056 -0.0070  1.3910 -0.0671
 5428SOL     OW27919   2.168   0.702   6.484 -0.1246  0.9120  0.3986
 5428SOL    HW127920   2.144   0.717   6.393 -2.2841  0.2186  0.8458
 5428SOL    HW227921   2.100   0.754   6.528 -1.1681  0.2645 -0.4392
 5429SOL     OW27922   3.796   0.166   3.799  0.1770  0.5002  0.4758
 5429SOL    HW127923   3.803   0.256   3.831  1.0087  0.4988  0.2933
 5429SOL    HW227924   3.890   0.156   3.785  0.0974 -1.7985  1.4616
 5430SOL     OW27925   3.012   1.382  14.656  0.0139  0.7319  0.2072
 5430SOL    HW127926   3.107   1.395  14.659  0.2132 -0.3438 -1.0361
 5430SOL    HW227927   2.983   1.455  14.601 -0.1840  0.9824  0.6437
 5431SOL     OW27928   1.681   4.737   5.499 -0.2753 -0.4605 -0.8792
 5431SOL    HW127929   1.624   4.682   5.552  0.7348 -2.6010 -2.0056
 5431SOL    HW227930   1.770   4.722   5.533 -0.0346 -0.4449 -1.5026
 5432SOL     OW27931   1.502   1.546   2.360 -0.1225 -0.9788 -0.0551
 5432SOL    HW127932   1.406   1.541   2.362 -0.2261  0.7612  0.0741
 5432SOL    HW227933   1.512   1.515   2.450 -1.1999 -0.0203  0.4101
 5433SOL     OW27934   1.262   3.974  16.652  0.0547  0.0586 -0.7094
 5433SOL    HW127935   1.215   3.935  16.726  0.8111  1.0008  0.2706
 5433SOL    HW227936   1.194   4.029  16.612  0.7295 -0.4118 -2.5022
 5434SOL     OW27937   3.043   1.324  12.292  0.1773  0.4657 -0.2869
 5434SOL    HW127938   2.953   1.294  12.282  1.2965 -2.2436 -2.0764
 5434SOL    HW227939   3.088   1.241  12.276  1.9356  1.4560 -0.4966
 5435SOL     OW27940   3.229   1.675  15.843 -0.4498  0.2528 -0.2051
 5435SOL    HW127941   3.199   1.621  15.769  1.8624 -2.1061  0.5797
 5435SOL    HW227942   3.260   1.605  15.900 -0.8087 -0.2482 -0.6108
 5436SOL     OW27943   2.552   2.604   4.019  0.1755  0.7226  0.2079
 5436SOL    HW127944   2.460   2.631   4.015 -0.2519 -0.8656 -0.5464
 5436SOL    HW227945   2.571   2.607   3.926  1.8317  0.6515  0.5464
 5437SOL     OW27946   1.145   1.725   0.367 -0.4294  0.1809  0.2866
 5437SOL    HW127947   1.082   1.653   0.371  1.0360 -0.9278  3.4501
 5437SOL    HW227948   1.218   1.681   0.323 -0.5883  0.8458 -0.6530
 5438SOL     OW27949   0.363   0.974   3.826  0.7022  0.1035  0.1022
 5438SOL    HW127950   0.383   1.067   3.813  0.4423  0.2129  0.4699
 5438SOL    HW227951   0.268   0.985   3.816  0.4163  0.5440  3.2649
 5439SOL     OW27952   2.966   1.537  13.668  0.1399 -0.3046  0.1577
 5439SOL    HW127953   2.982   1.617  13.617  1.5900 -0.9996 -0.4503
 5439SOL    HW227954   2.876   1.545  13.702  0.5343 -0.1728  1.1555
 5440SOL     OW27955   4.513   3.393  17.646 -0.1562  0.7785  0.2570
 5440SOL    HW127956   4.540   3.335  17.574 -2.3756  0.7435 -0.5549
 5440SOL    HW227957   4.418   3.381  17.656 -0.1011  1.2062  1.2817
 5441SOL     OW27958   4.520   3.494   7.738  0.2704  0.3411 -0.3715
 5441SOL    HW127959   4.596   3.442   7.713  0.1885 -0.6394  1.4180
 5441SOL    HW227960   4.515   3.503   7.833  0.1576  1.3859 -0.4766
 5442SOL     OW27961   2.667   2.510   6.863  0.3016  0.6064  0.1381
 5442SOL    HW127962   2.618   2.581   6.906 -0.7811  0.7008 -1.2344
 5442SOL    HW227963   2.598   2.490   6.800 -0.3127 -1.3661  1.4299
 5443SOL     OW27964   1.117   4.095  17.317  0.4317  0.1680 -1.2199
 5443SOL    HW127965   1.124   4.189  17.335 -2.0247  0.0792  0.2030
 5443SOL    HW227966   1.112   4.092  17.221 -1.7190  0.1240 -1.0978
 5444SOL     OW27967   1.168   2.804   4.308 -0.1809  0.3029  0.0680
 5444SOL    HW127968   1.144   2.887   4.266 -0.4703 -1.4530 -3.2720
 5444SOL    HW227969   1.094   2.800   4.369 -0.6893  2.3697 -0.4080
 5445SOL     OW27970   1.622   3.355   8.368 -0.1919  0.2021  0.5658
 5445SOL    HW127971   1.667   3.336   8.286 -1.0196 -1.6284  0.5460
 5445SOL    HW227972   1.682   3.396   8.430 -0.1751 -0.2858  0.8660
 5446SOL     OW27973   1.262   4.447   5.686  0.3610 -0.5804  0.0117
 5446SOL    HW127974   1.295   4.361   5.712 -1.0952 -1.1699 -0.0612
 5446SOL    HW227975   1.217   4.420   5.606  1.4897 -0.3765 -0.6891
 5447SOL     OW27976   4.151   4.558  14.041  0.1696 -0.5580  0.2355
 5447SOL    HW127977   4.084   4.626  14.035  2.8660  2.0740 -0.6616
 5447SOL    HW227978   4.207   4.594  13.971  1.1994  0.0755  1.3844
 5448SOL     OW27979   4.680   1.986  16.852  0.4234 -0.2644  0.5181
 5448SOL    HW127980   0.006   1.915  16.857  1.1136  0.2364 -1.3194
 5448SOL    HW227981   4.731   2.056  16.811 -0.5629  0.3952  0.4003
 5449SOL     OW27982   3.540   3.862  10.495  0.2341  0.6374 -0.3572
 5449SOL    HW127983   3.471   3.861  10.429  2.4250 -2.0775 -2.5930
 5449SOL    HW227984   3.609   3.891  10.436 -1.7846  2.5313 -1.8079
 5450SOL     OW27985   4.287   3.716   4.682 -0.0455  0.3229 -0.1060
 5450SOL    HW127986   4.365   3.661   4.674 -0.0842  0.4675 -1.4698
 5450SOL    HW227987   4.271   3.744   4.592 -0.8403  0.5917  0.1155
 5451SOL     OW27988   0.845   3.189   2.017 -0.2141 -0.2662  0.2617
 5451SOL    HW127989   0.877   3.148   1.937 -1.4862  1.1391 -0.9767
 5451SOL    HW227990   0.751   3.191   1.998 -0.7017  0.5770  2.7235
 5452SOL     OW27991   2.247   2.495  14.917 -0.4371  0.0992  0.0639
 5452SOL    HW127992   2.332   2.528  14.889 -0.2392  0.4781  1.0854
 5452SOL    HW227993   2.264   2.459  15.005 -1.8284  2.2487  1.2170
 5453SOL     OW27994   3.914   3.209   5.774  0.1630  0.5283  0.2517
 5453SOL    HW127995   3.969   3.143   5.816 -1.8000 -1.5220 -0.3931
 5453SOL    HW227996   3.920   3.277   5.842 -0.1296 -0.9507  1.7540
 5454SOL     OW27997   1.551   2.713   1.207 -0.1068 -0.8184 -0.3232
 5454SOL    HW127998   1.586   2.630   1.240  1.9773  0.6878  1.2599
 5454SOL    HW227999   1.554   2.774   1.281 -0.6302 -0.5104 -0.5568
 5455SOL     OW28000   3.254   4.480  17.609  0.5298 -0.2325 -0.5280
 5455SOL    HW128001   3.266   4.386  17.598  3.3922  0.1457 -0.7902
 5455SOL    HW228002   3.335   4.508  17.652  0.3177  0.3179 -0.4853
 5456SOL     OW28003   2.860   3.694   8.258  0.5378 -0.3101 -0.4550
 5456SOL    HW128004   2.890   3.604   8.269  0.6995 -0.3175 -0.9775
 5456SOL    HW228005   2.769   3.674   8.282 -0.2139  2.1721 -1.2872
 5457SOL     OW28006   1.003   4.602  14.775  0.3531  0.2894 -0.5507
 5457SOL    HW128007   1.029   4.546  14.848  3.4730 -0.9556 -2.6114
 5457SOL    HW228008   0.910   4.579  14.783  0.7042 -1.3446 -1.1445
 5458SOL     OW28009   4.394   2.375   2.191 -0.1371 -0.0597  0.1165
 5458SOL    HW128010   4.351   2.303   2.146 -2.8218  1.0190  0.9084
 5458SOL    HW228011   4.404   2.448   2.130 -0.8378  0.3012  0.4306
 5459SOL     OW28012   1.454   0.550  11.105  0.0777 -0.1533 -0.6768
 5459SOL    HW128013   1.393   0.498  11.052 -0.3834 -0.9455  0.6407
 5459SOL    HW228014   1.539   0.516  11.078  0.1250 -1.0816  0.6957
 5460SOL     OW28015   1.385   3.246   8.310  0.1683  0.2582 -0.1597
 5460SOL    HW128016   1.463   3.292   8.339 -0.2833  1.0197 -0.1394
 5460SOL    HW228017   1.360   3.298   8.233 -1.2228  0.9528  0.7459
 5461SOL     OW28018   3.205   0.719   3.283  0.4704  0.0157  0.2036
 5461SOL    HW128019   3.251   0.677   3.355  2.4327  0.9883 -0.4595
 5461SOL    HW228020   3.146   0.650   3.254  0.2131  0.5040 -0.4428
 5462SOL     OW28021   0.610   3.386   2.757 -0.4260  0.0928  0.1408
 5462SOL    HW128022   0.550   3.316   2.730 -0.7958  0.4236  0.0942
 5462SOL    HW228023   0.685   3.367   2.701  0.6500  0.7214  1.3758
 5463SOL     OW28024   0.307   2.080   2.366 -0.2099  0.0013 -0.0819
 5463SOL    HW128025   0.251   2.006   2.387  0.9344 -1.1617 -1.1024
 5463SOL    HW228026   0.304   2.124   2.450  0.1737 -1.3793  0.6526
 5464SOL     OW28027   3.216   3.347   3.412  0.1101  0.4903 -0.1925
 5464SOL    HW128028   3.287   3.290   3.439  0.9409  0.9789 -1.3106
 5464SOL    HW228029   3.217   3.410   3.484 -2.1932 -0.2947  0.5151
 5465SOL     OW28030   2.495   0.698  11.144  0.3422  0.2689  0.1524
 5465SOL    HW128031   2.575   0.692  11.196  0.2754 -0.1790  0.2016
 5465SOL    HW228032   2.429   0.664  11.205 -1.9237  1.1087 -1.8137
 5466SOL     OW28033   4.354   3.398  14.707 -0.3204 -0.6397  0.1086
 5466SOL    HW128034   4.357   3.481  14.658  1.1524 -1.2079 -0.7693
 5466SOL    HW228035   4.389   3.344  14.636 -1.9823 -0.1184 -1.1091
 5467SOL     OW28036   0.526   0.175  17.266  0.1052  0.4244  0.4964
 5467SOL    HW128037   0.541   0.238  17.337 -1.3484  0.6406  0.6083
 5467SOL    HW228038   0.579   0.213  17.196 -1.2125  1.4497  0.0619
 5468SOL     OW28039   1.717   3.069  13.177 -0.3811  0.1529  0.5811
 5468SOL    HW128040   1.743   2.978  13.163  0.9061  0.8026 -1.3024
 5468SOL    HW228041   1.797   3.123  13.183  0.7559 -1.4143 -0.3592
 5469SOL     OW28042   4.546   2.827   2.617  0.5885  0.6661 -1.2934
 5469SOL    HW128043   4.587   2.913   2.621 -1.4907  1.5778  0.6480
 5469SOL    HW228044   4.453   2.847   2.627  0.8561  2.3117 -2.3013
 5470SOL     OW28045   3.151   3.727  14.663 -0.3370  0.2248 -0.3269
 5470SOL    HW128046   3.151   3.639  14.700  0.1928  0.5239  0.3836
 5470SOL    HW228047   3.242   3.755  14.666 -0.4979  0.2793  3.3150
 5471SOL     OW28048   3.830   0.804  11.660  0.6005  0.5420  0.3595
 5471SOL    HW128049   3.815   0.780  11.569 -0.2844  1.6228  0.2176
 5471SOL    HW228050   3.915   0.845  11.649  1.6621 -2.0197 -0.9149
 5472SOL     OW28051   4.068   2.678   2.114  0.7093  0.2894 -0.7282
 5472SOL    HW128052   4.078   2.665   2.019  3.2231  0.6613 -0.5138
 5472SOL    HW228053   3.978   2.709   2.127  0.5317  0.3195 -2.0055
 5473SOL     OW28054   3.754   0.012   5.258 -0.1403 -0.4344 -0.1720
 5473SOL    HW128055   3.752   0.038   5.166 -2.1317  0.1402  0.0466
 5473SOL    HW228056   3.790   0.092   5.297  0.3459 -0.4127 -0.6572
 5474SOL     OW28057   1.926   1.500   2.103  0.0324  0.1034  0.5257
 5474SOL    HW128058   1.916   1.534   2.014  0.6131  2.3887  1.3497
 5474SOL    HW228059   1.871   1.554   2.159  0.7837  1.7807 -0.3415
 5475SOL     OW28060   2.119   1.622  17.461  0.4092 -0.2380 -0.0292
 5475SOL    HW128061   2.171   1.578  17.528  0.0276 -0.5380  0.0729
 5475SOL    HW228062   2.142   1.710  17.490 -3.3776  0.2863  1.4660
 5476SOL     OW28063   1.253   0.793   8.258  0.4213  0.4896  0.1737
 5476SOL    HW128064   1.258   0.871   8.314 -0.2573 -0.2887  1.3102
 5476SOL    HW228065   1.278   0.727   8.322 -1.1982 -0.7091 -0.4378
 5477SOL     OW28066   0.565   4.405   5.778 -0.2462 -0.2869 -0.0013
 5477SOL    HW128067   0.579   4.404   5.684  0.2691  0.0320  0.0727
 5477SOL    HW228068   0.529   4.320   5.805 -0.9445 -0.1512 -0.5007
 5478SOL     OW28069   0.421   4.144   7.245 -0.1815 -0.2274 -0.0053
 5478SOL    HW128070   0.396   4.213   7.307 -3.8667 -1.9311  0.3838
 5478SOL    HW228071   0.334   4.127   7.208 -0.0157  0.5416 -0.7641
 5479SOL     OW28072   4.505   2.835   7.067  0.3531 -0.0581  0.3326
 5479SOL    HW128073   4.514   2.917   7.019  0.1180 -0.1383  0.1536
 5479SOL    HW228074   4.502   2.866   7.158  0.7967 -1.6390  0.8860
 5480SOL     OW28075   0.376   2.836  12.537  0.3596  0.0962  0.3039
 5480SOL    HW128076   0.364   2.873  12.625 -1.1951  1.1923 -0.3620
 5480SOL    HW228077   0.417   2.908  12.489  0.5026  0.0576  0.3670
 5481SOL     OW28078   2.785   2.408   6.440 -0.2142 -0.2316 -0.3972
 5481SOL    HW128079   2.851   2.458   6.392  1.2047 -0.2941  1.5015
 5481SOL    HW228080   2.842   2.375   6.509 -1.7234 -0.9333  0.5067
 5482SOL     OW28081   3.430   1.329   2.721 -0.4725  0.2461 -0.4610
 5482SOL    HW128082   3.482   1.397   2.679  2.2479 -1.4596  0.1276
 5482SOL    HW228083   3.361   1.385   2.755  0.9475  1.5838  0.2197
 5483SOL     OW28084   0.455   2.239   4.948  0.0207 -0.5856 -0.4647
 5483SOL    HW128085   0.448   2.276   4.860 -0.4513 -0.5510 -0.4094
 5483SOL    HW228086   0.548   2.250   4.968 -0.3221  2.1196 -0.3756
 5484SOL     OW28087   0.252   1.777   0.282 -0.3180 -0.0621 -0.2206
 5484SOL    HW128088   0.321   1.731   0.234  0.4310 -0.9765  1.7458
 5484SOL    HW228089   0.190   1.803   0.214 -0.6987  1.8515  0.8464
 5485SOL     OW28090   4.389   3.420   8.497  0.0068 -1.0531 -0.0983
 5485SOL    HW128091   4.397   3.367   8.418  0.8655 -2.3440  0.8605
 5485SOL    HW228092   4.454   3.490   8.486  0.2848 -1.2919  0.0383
 5486SOL     OW28093   0.093   2.057   4.933 -0.6868  0.0261  0.4334
 5486SOL    HW128094   0.011   2.007   4.936 -0.2585 -0.6674  0.3840
 5486SOL    HW228095   0.062   2.146   4.951 -2.7092 -0.8034  1.0511
 5487SOL     OW28096   0.163   1.629   7.338  0.0099 -0.3535  0.1287
 5487SOL    HW128097   0.214   1.705   7.309 -1.3570 -0.2992 -2.1221
 5487SOL    HW228098   0.157   1.650   7.431 -0.0614 -0.1404  0.0751
 5488SOL     OW28099   3.630   3.692   0.609 -0.2883  0.8135 -0.6086
 5488SOL    HW128100   3.690   3.681   0.683 -0.7118  0.3272 -0.3338
 5488SOL    HW228101   3.677   3.760   0.562 -0.5560  0.3171 -1.6159
 5489SOL     OW28102   2.319   1.854   2.439  0.0464  0.1782  0.2291
 5489SOL    HW128103   2.344   1.866   2.347  2.2137  0.8296  0.8862
 5489SOL    HW228104   2.272   1.771   2.444 -0.7935  0.6131 -0.6461
 5490SOL     OW28105   0.445   3.215  12.694  0.0792 -0.2699  0.4346
 5490SOL    HW128106   0.358   3.176  12.706  0.1373 -0.1301  1.3103
 5490SOL    HW228107   0.494   3.189  12.772 -0.1129  3.9185  1.9433
 5491SOL     OW28108   0.456   3.161   6.682  0.2201 -0.6874  0.3932
 5491SOL    HW128109   0.473   3.169   6.775 -2.4678  2.4627  0.6305
 5491SOL    HW228110   0.361   3.148   6.683  0.3468 -1.3689  2.7602
 5492SOL     OW28111   0.087   3.006   3.406  0.1089 -0.0914 -0.1452
 5492SOL    HW128112   0.047   3.071   3.349 -0.3780 -0.8490 -0.6753
 5492SOL    HW228113   0.180   3.023   3.392  0.2144 -0.8625 -0.3799
 5493SOL     OW28114   2.302   2.916   1.392 -0.0407 -0.1851 -0.2772
 5493SOL    HW128115   2.391   2.928   1.426  0.5459 -0.6502 -1.6865
 5493SOL    HW228116   2.268   2.851   1.454  0.2823 -0.6354 -0.5783
 5494SOL     OW28117   3.851   4.567   8.823  0.4173 -0.0715 -0.5460
 5494SOL    HW128118   3.810   4.629   8.883 -0.0199 -1.4960  0.6307
 5494SOL    HW228119   3.790   4.494   8.820  0.6817 -0.4378  2.5899
 5495SOL     OW28120   2.027   3.831   8.117  0.2751 -0.1842 -0.0292
 5495SOL    HW128121   2.123   3.833   8.128  0.3885 -0.6011 -0.9610
 5495SOL    HW228122   2.014   3.910   8.064  0.4033  0.2809  0.6309
 5496SOL     OW28123   4.494   1.864   4.292 -0.3713 -0.4021  0.4835
 5496SOL    HW128124   4.477   1.852   4.385 -2.6853 -0.6880 -0.0036
 5496SOL    HW228125   4.437   1.940   4.279  1.1695  0.8472  0.9086
 5497SOL     OW28126   2.957   3.074   3.345 -0.1602 -0.0759  0.3453
 5497SOL    HW128127   2.982   3.099   3.256  0.1028  0.8551  0.6775
 5497SOL    HW228128   2.941   3.162   3.381 -1.4208  0.0320 -0.4556
 5498SOL     OW28129   2.991   3.450  11.363 -0.4497  0.1691 -0.8924
 5498SOL    HW128130   2.989   3.463  11.458 -0.3283  0.9373 -0.9953
 5498SOL    HW228131   2.979   3.356  11.373  0.8796  0.2320  1.2944
 5499SOL     OW28132   3.034   0.992  14.179 -0.3070 -0.2421 -0.3061
 5499SOL    HW128133   3.034   1.071  14.233 -0.1120  0.0446 -0.7254
 5499SOL    HW228134   3.054   1.021  14.090 -1.6231  0.4350 -0.3857
 5500SOL     OW28135   1.862   4.721   7.881  0.1600  0.2912 -0.1871
 5500SOL    HW128136   1.828   0.053   7.825 -0.8039  0.4762  0.6280
 5500SOL    HW228137   1.887   4.653   7.818 -1.7436 -0.7874  0.2348
 5501SOL     OW28138   1.978   0.486   9.748  0.2332  0.0006  0.5577
 5501SOL    HW128139   1.952   0.455   9.661  0.5327 -2.3867  1.3308
 5501SOL    HW228140   2.074   0.488   9.753  0.2648 -2.4712  1.0522
 5502SOL     OW28141   1.893   4.087   6.863 -0.1624  0.3332  0.4477
 5502SOL    HW128142   1.926   4.076   6.952  1.9949 -2.2110 -0.6443
 5502SOL    HW228143   1.842   4.168   6.859 -0.9124 -0.1633 -0.0169
 5503SOL     OW28144   0.434   3.577  11.266 -0.4244 -0.1787 -0.4836
 5503SOL    HW128145   0.504   3.522  11.230  2.4650  2.1405  1.5688
 5503SOL    HW228146   0.443   3.556  11.359  0.5837 -0.5979 -0.6719
 5504SOL     OW28147   2.396   0.908   2.989 -0.2914  0.0798  0.3048
 5504SOL    HW128148   2.409   0.926   2.896  0.7146 -0.6498  0.3145
 5504SOL    HW228149   2.467   0.850   3.014 -2.0875 -0.8847  3.2429
 5505SOL     OW28150   3.313   1.525   6.425 -0.1963 -0.7373 -0.2237
 5505SOL    HW128151   3.359   1.442   6.439  2.4304  0.4822 -1.4813
 5505SOL    HW228152   3.383   1.586   6.449  0.1188 -0.5006 -1.7357
 5506SOL     OW28153   0.546   3.782   5.274  0.3533 -0.5431  0.4835
 5506SOL    HW128154   0.548   3.688   5.253 -1.0640 -0.3779 -0.3691
 5506SOL    HW228155   0.497   3.818   5.200 -1.1559 -1.4809  1.0220
 5507SOL     OW28156   1.506   4.265   5.041  0.3883 -0.0972  0.0480
 5507SOL    HW128157   1.461   4.337   5.085  0.0465 -0.5765  0.4836
 5507SOL    HW228158   1.511   4.208   5.118  0.2054  1.8006  1.4566
 5508SOL     OW28159   2.088   0.420   4.754  0.7776  0.0278 -0.0896
 5508SOL    HW128160   2.041   0.339   4.771 -0.1110 -0.0368 -2.9092
 5508SOL    HW228161   2.177   0.388   4.736  1.7023  2.3941  0.2010
 5509SOL     OW28162   4.122   0.118   1.229 -0.3498  0.1124 -0.2691
 5509SOL    HW128163   4.132   0.120   1.324  1.1118  0.6935 -0.4222
 5509SOL    HW228164   4.036   0.159   1.224 -0.1932  0.6177  1.1235
 5510SOL     OW28165   0.384   3.213   2.151 -0.3427 -0.3961  0.7431
 5510SOL    HW128166   0.457   3.194   2.210  0.6710 -2.2816 -1.1077
 5510SOL    HW228167   0.325   3.231   2.225 -2.6375  0.7187 -1.3367
 5511SOL     OW28168   0.075   1.120   0.439  0.0374  0.2571 -0.1262
 5511SOL    HW128169   0.031   1.147   0.519  1.9255  0.8381  0.7180
 5511SOL    HW228170   0.165   1.140   0.466  0.1132 -0.5373  0.2092
 5512SOL     OW28171   4.430   1.440   3.988 -0.4028  0.1067 -0.2419
 5512SOL    HW128172   4.478   1.482   4.059  0.2089 -1.6368  0.3896
 5512SOL    HW228173   4.340   1.467   4.001 -0.5469 -1.7919  2.6461
 5513SOL     OW28174   2.930   1.799  10.709  0.3033 -0.6808  0.0230
 5513SOL    HW128175   2.885   1.836  10.785 -0.1062 -1.2002  0.0389
 5513SOL    HW228176   3.019   1.831  10.724 -0.1989 -0.1942  1.8541
 5514SOL     OW28177   0.229   3.008   5.760  0.5577 -0.1240 -0.2595
 5514SOL    HW128178   0.252   3.080   5.818 -0.1761  1.3252 -1.7672
 5514SOL    HW228179   0.229   3.057   5.677  0.7518  1.0869  0.4568
 5515SOL     OW28180   0.395   1.741   1.655  0.2160 -0.1035  0.1420
 5515SOL    HW128181   0.416   1.663   1.604  0.9929  1.7864 -2.4105
 5515SOL    HW228182   0.470   1.798   1.640  1.0110 -0.7763  1.6179
 5516SOL     OW28183   2.692   3.026  12.892 -0.5019  0.5135  0.2031
 5516SOL    HW128184   2.760   3.085  12.924  0.6347 -0.3547 -0.5556
 5516SOL    HW228185   2.613   3.061  12.932 -0.9658 -2.8262  2.1952
 5517SOL     OW28186   1.778   3.152   6.274  0.1422  0.6196  0.1231
 5517SOL    HW128187   1.770   3.217   6.344 -2.3592 -0.7176  1.0690
 5517SOL    HW228188   1.728   3.081   6.312 -0.2721  0.1273 -1.3220
 5518SOL     OW28189   1.060   3.902   2.659  0.5596  0.2221 -0.3801
 5518SOL    HW128190   1.015   3.982   2.631  1.1987  1.0258  0.8734
 5518SOL    HW228191   1.012   3.840   2.603 -1.6589  0.7256  0.9494
 5519SOL     OW28192   2.492   3.493   6.312  0.1297  0.4211 -0.2076
 5519SOL    HW128193   2.546   3.550   6.257  0.2493  0.1514 -0.3709
 5519SOL    HW228194   2.423   3.545   6.353 -1.0877 -0.1055 -1.5963
 5520SOL     OW28195   0.531   3.564   6.682 -0.0021  0.1367  0.0488
 5520SOL    HW128196   0.560   3.537   6.769 -0.1128 -0.4347 -0.0901
 5520SOL    HW228197   0.442   3.530   6.679 -0.5609  1.4485  2.1269
 5521SOL     OW28198   4.652   0.226   0.813  0.3922 -0.6268 -0.3579
 5521SOL    HW128199   4.594   0.297   0.841  1.0186  0.0907 -0.8879
 5521SOL    HW228200   4.701   0.211   0.894  4.1851  2.1257 -2.1765
 5522SOL     OW28201   0.005   2.190   0.365  0.0144  0.5544  0.4498
 5522SOL    HW128202   4.678   2.261   0.362  0.9106  1.4029  1.0208
 5522SOL    HW228203   4.715   2.150   0.283 -1.9190 -0.6020  1.6643
 5523SOL     OW28204   2.294   0.532   2.456  0.2099  0.2565  0.1300
 5523SOL    HW128205   2.279   0.616   2.500 -4.6308 -0.6682  0.2917
 5523SOL    HW228206   2.219   0.528   2.396 -0.2406 -2.3700  0.8689
 5524SOL     OW28207   2.434   4.490   3.597 -0.1385  0.0765  0.0776
 5524SOL    HW128208   2.485   4.413   3.621  1.4622  0.8636 -0.8179
 5524SOL    HW228209   2.348   4.449   3.582  0.8736 -1.5874 -1.1722
 5525SOL     OW28210   0.265   0.483  10.594  0.4478  0.0158 -0.7930
 5525SOL    HW128211   0.262   0.554  10.658 -0.4169 -0.1288 -0.6650
 5525SOL    HW228212   0.326   0.524  10.533  0.6134 -4.3807 -3.5881
 5526SOL     OW28213   3.967   2.519   6.845 -0.4721  0.3410 -0.4384
 5526SOL    HW128214   3.921   2.546   6.766 -1.2716 -1.7976 -0.6844
 5526SOL    HW228215   3.977   2.611   6.872  1.9872 -0.8684  2.7738
 5527SOL     OW28216   0.013   3.014   0.473 -0.3429 -0.1390 -0.3153
 5527SOL    HW128217   0.006   2.975   0.560 -1.6538  2.4626  0.7315
 5527SOL    HW228218   4.712   2.941   0.425 -0.0893  0.3408 -1.2456
 5528SOL     OW28219   4.636   3.678   9.512  0.5775  0.4880  0.2313
 5528SOL    HW128220   4.703   3.657   9.577  0.9770 -0.1633 -0.3985
 5528SOL    HW228221   4.598   3.755   9.556  0.2901  1.1445 -1.1599
 5529SOL     OW28222   0.617   2.569   9.560  0.5301 -0.1213  0.0606
 5529SOL    HW128223   0.570   2.485   9.568  1.2693 -0.5218  0.1554
 5529SOL    HW228224   0.569   2.615   9.629  1.1333 -0.6395  0.8274
 5530SOL     OW28225   3.124   1.354   5.429  0.0210 -0.3223 -0.0456
 5530SOL    HW128226   3.082   1.270   5.446  2.0323 -1.3030  0.0672
 5530SOL    HW228227   3.101   1.401   5.510  0.6542 -1.5349  0.8312
 5531SOL     OW28228   2.470   1.571   8.669  0.3560  0.3238 -0.3906
 5531SOL    HW128229   2.527   1.571   8.746 -1.5018  0.6603  0.9824
 5531SOL    HW228230   2.508   1.496   8.622 -0.7963  0.9751 -2.3543
 5532SOL     OW28231   3.838   0.689  16.014 -0.1480  0.3448 -0.0278
 5532SOL    HW128232   3.882   0.723  15.936 -1.0324 -0.2221 -0.7780
 5532SOL    HW228233   3.762   0.646  15.974  1.8252 -1.7822 -1.5017
 5533SOL     OW28234   2.295   2.766   6.677  0.4160  0.0704  0.2680
 5533SOL    HW128235   2.234   2.827   6.635 -0.9123 -0.6491  1.1192
 5533SOL    HW228236   2.302   2.705   6.604  0.4019 -1.5963  1.6586
 5534SOL     OW28237   2.039   1.415  12.484  0.5740  0.0788 -0.3442
 5534SOL    HW128238   1.976   1.345  12.501  1.5884 -1.2748 -2.1323
 5534SOL    HW228239   2.015   1.459  12.402  1.0307 -0.1070 -0.5783
 5535SOL     OW28240   4.497   1.195   6.453  1.1900 -0.4240  0.0500
 5535SOL    HW128241   4.496   1.271   6.511 -2.2014 -0.6674  0.3440
 5535SOL    HW228242   4.405   1.190   6.426  1.8843  1.1671 -2.5468
 5536SOL     OW28243   0.051   3.230   6.388  0.4933 -0.3883 -0.0504
 5536SOL    HW128244   0.078   3.139   6.391  0.6976 -0.3629 -1.1418
 5536SOL    HW228245   0.055   3.252   6.295  1.5907  1.4224  0.4232
 5537SOL     OW28246   3.801   0.812   7.663  0.2425 -0.1685  0.0118
 5537SOL    HW128247   3.739   0.857   7.607  0.9153 -0.6586 -1.1255
 5537SOL    HW228248   3.847   0.764   7.594  0.6521  1.2500 -0.6929
 5538SOL     OW28249   2.720   1.068   7.797  0.1391 -0.2805 -0.0379
 5538SOL    HW128250   2.747   1.081   7.706 -0.0518 -3.0919 -0.5034
 5538SOL    HW228251   2.703   1.161   7.815  1.4459 -0.2698  1.1232
 5539SOL     OW28252   3.007   2.553   6.325 -0.5359 -0.0395 -0.0853
 5539SOL    HW128253   3.003   2.603   6.243 -3.6181 -1.5701 -0.9093
 5539SOL    HW228254   3.039   2.620   6.385  0.1620 -0.1022 -0.3983
 5540SOL     OW28255   3.580   0.781   6.036 -0.2075  0.1298  0.1974
 5540SOL    HW128256   3.638   0.841   5.989  0.3452 -0.6712 -0.1536
 5540SOL    HW228257   3.612   0.700   5.997 -0.1314  0.4142 -0.3416
 5541SOL     OW28258   1.415   0.588   7.384  0.3826  1.1047 -0.8125
 5541SOL    HW128259   1.332   0.562   7.344  0.7291 -0.5991 -0.4361
 5541SOL    HW228260   1.474   0.544   7.322  0.7801 -0.4475  0.6621
 5542SOL     OW28261   1.869   1.387   1.817 -0.1392  0.0320  0.7465
 5542SOL    HW128262   1.928   1.402   1.743 -0.5527 -0.4747  0.3055
 5542SOL    HW228263   1.798   1.451   1.811  0.6198  0.8525  0.5913
 5543SOL     OW28264   0.871   1.688   6.444  0.9127 -0.0235  0.1819
 5543SOL    HW128265   0.798   1.718   6.497 -0.2916 -1.4708 -0.6556
 5543SOL    HW228266   0.829   1.692   6.359  1.1261  1.0505  0.1358
 5544SOL     OW28267   0.282   1.272  11.787  0.2229 -0.4932 -0.2099
 5544SOL    HW128268   0.264   1.347  11.844 -0.0826 -1.3415  0.8190
 5544SOL    HW228269   0.354   1.314  11.741  0.2017 -1.5417 -1.1946
 5545SOL     OW28270   2.952   2.746   1.689  0.5443 -0.0653 -0.1661
 5545SOL    HW128271   2.877   2.712   1.641 -0.4550  0.4216  1.0649
 5545SOL    HW228272   3.019   2.683   1.662  0.2012 -0.9497  1.0553
 5546SOL     OW28273   1.980   2.025   0.128  0.8155  0.2632 -0.3547
 5546SOL    HW128274   2.072   2.038   0.105  0.9988  0.8675  0.7392
 5546SOL    HW228275   1.945   2.108   0.096 -1.9832 -0.7645  0.0302
 5547SOL     OW28276   4.620   0.558   3.434  0.2407  0.1173 -0.1204
 5547SOL    HW128277   4.576   0.624   3.381 -0.9802  1.2814  2.3848
 5547SOL    HW228278   4.684   0.611   3.482  0.0207  1.5328 -1.3973
 5548SOL     OW28279   2.883   4.505  16.161 -0.0692  0.3483 -0.2941
 5548SOL    HW128280   2.863   4.512  16.067  0.0870  1.3681 -0.2490
 5548SOL    HW228281   2.796   4.491  16.199  0.2268  0.3890  0.3879
 5549SOL     OW28282   3.419   3.213   2.323 -0.0925 -0.1151  0.1118
 5549SOL    HW128283   3.454   3.250   2.242  1.6145 -1.0391  0.4313
 5549SOL    HW228284   3.491   3.194   2.382 -0.8602  1.1974  1.4705
 5550SOL     OW28285   2.164   2.192   6.857  0.4502 -0.1659 -0.4984
 5550SOL    HW128286   2.114   2.136   6.916 -0.7222  1.2908 -0.0903
 5550SOL    HW228287   2.157   2.141   6.777 -3.4040  1.9537 -1.5170
 5551SOL     OW28288   1.089   1.502   3.284 -0.2144 -0.3841 -0.1233
 5551SOL    HW128289   1.146   1.470   3.214 -1.1941 -0.2717 -0.9699
 5551SOL    HW228290   1.139   1.584   3.285  2.9448 -2.3109  0.4951
 5552SOL     OW28291   1.782   3.772   1.809 -0.0214 -0.3415 -0.2648
 5552SOL    HW128292   1.732   3.842   1.852  0.0759 -0.9361  0.8356
 5552SOL    HW228293   1.776   3.705   1.877 -0.6043 -0.6343 -0.6015
 5553SOL     OW28294   1.400   2.553   7.029 -0.1686 -0.0967  0.1565
 5553SOL    HW128295   1.444   2.496   6.967 -0.6532  2.5973 -2.7190
 5553SOL    HW228296   1.335   2.488   7.056 -1.2199  0.8404 -0.1119
 5554SOL     OW28297   3.460   0.217   5.360  0.6966 -0.1012 -0.1428
 5554SOL    HW128298   3.525   0.210   5.430  0.7336  1.1022 -0.0524
 5554SOL    HW228299   3.524   0.253   5.299  0.4292  0.4024 -0.1189
 5555SOL     OW28300   2.428   1.350   7.748 -0.8056  0.0223 -0.5111
 5555SOL    HW128301   2.379   1.269   7.763 -1.6686  0.5024 -0.6791
 5555SOL    HW228302   2.359   1.399   7.702 -0.7926 -0.7543 -1.3495
 5556SOL     OW28303   3.544   1.135   1.894  0.3389  0.0624 -0.1695
 5556SOL    HW128304   3.612   1.082   1.936  1.4102  0.3964 -1.4717
 5556SOL    HW228305   3.562   1.216   1.941  0.0070  0.2639 -0.3934
 5557SOL     OW28306   3.490   2.996   3.328 -0.2654 -0.1890 -0.6306
 5557SOL    HW128307   3.430   3.006   3.254 -1.6197 -0.5429  0.4180
 5557SOL    HW228308   3.498   2.901   3.337 -0.3042  0.0135  1.6707
 5558SOL     OW28309   1.183   2.931   0.561 -0.1996 -0.4912  0.6133
 5558SOL    HW128310   1.119   2.862   0.542  0.0280 -0.4454 -0.3550
 5558SOL    HW228311   1.213   2.909   0.649  1.9794 -2.7339 -0.6897
 5559SOL     OW28312   3.823   3.056  12.751 -0.0140  0.0525 -0.6585
 5559SOL    HW128313   3.873   3.068  12.671 -0.2734 -0.1945 -0.8582
 5559SOL    HW228314   3.793   3.146  12.759  0.9362  0.1303  2.2198
 5560SOL     OW28315   2.963   2.303  10.733 -0.6003 -0.5966  0.6425
 5560SOL    HW128316   2.970   2.394  10.762 -0.5305 -0.5396  0.4444
 5560SOL    HW228317   2.999   2.261  10.812  1.2986  0.9576  0.5992
 5561SOL     OW28318   3.381   2.193   8.384  0.1106  0.5016 -0.3466
 5561SOL    HW128319   3.310   2.139   8.417  1.7791 -2.7421 -2.0295
 5561SOL    HW228320   3.338   2.249   8.319 -2.7723  0.3294  1.4135
 5562SOL     OW28321   0.397   3.241  16.976  0.7181  0.6109 -0.3368
 5562SOL    HW128322   0.457   3.170  16.956  0.5012  0.8263 -1.7502
 5562SOL    HW228323   0.360   3.258  16.889 -0.9010 -1.0484  0.0323
 5563SOL     OW28324   2.952   0.098   1.068  0.5056 -0.6415  0.5146
 5563SOL    HW128325   2.992   0.013   1.052  0.0896 -0.3907 -1.7933
 5563SOL    HW228326   2.860   0.075   1.074  0.6494 -1.7288 -1.6131
 5564SOL     OW28327   3.315   1.332   6.123 -0.2845 -0.1178  0.4946
 5564SOL    HW128328   3.381   1.271   6.089  0.1918  1.4785 -1.4482
 5564SOL    HW228329   3.234   1.284   6.109  0.5139 -1.5245  0.6177
 5565SOL     OW28330   0.092   1.417   0.358  0.0949  0.0605 -0.0168
 5565SOL    HW128331   0.044   1.361   0.297  2.0938  0.5873 -2.0925
 5565SOL    HW228332   0.172   1.364   0.362 -1.4336 -2.3540 -1.5637
 5566SOL     OW28333   2.463   1.195   2.519  0.0614  0.4836 -0.0676
 5566SOL    HW128334   2.446   1.289   2.526 -0.9309  0.2187  1.1327
 5566SOL    HW228335   2.544   1.206   2.471  0.7450 -0.2797  0.9071
 5567SOL     OW28336   0.689   0.413   2.884 -0.3535 -0.1933 -0.3931
 5567SOL    HW128337   0.776   0.395   2.918 -0.4701  1.1217  0.5703
 5567SOL    HW228338   0.669   0.324   2.854  1.7631 -0.2357 -1.7057
 5568SOL     OW28339   0.851   2.840   7.372 -0.5585 -0.3067 -0.0575
 5568SOL    HW128340   0.934   2.831   7.325  0.1580  3.0383  0.5741
 5568SOL    HW228341   0.841   2.934   7.360  0.5109  0.0116  1.5030
 5569SOL     OW28342   3.936   2.247   3.163  0.2232 -1.0490  0.9148
 5569SOL    HW128343   4.010   2.260   3.102  1.4896  1.2627  2.9714
 5569SOL    HW228344   3.918   2.153   3.157 -1.8073 -0.5689 -0.5875
 5570SOL     OW28345   2.742   1.047   6.522 -0.0299  0.5836 -0.0098
 5570SOL    HW128346   2.658   1.031   6.481  0.3954 -0.3302 -0.5191
 5570SOL    HW228347   2.802   0.980   6.490 -1.2343 -0.9923  1.0551
 5571SOL     OW28348   0.940   1.111   7.630  0.1708  0.1413  0.1303
 5571SOL    HW128349   0.927   1.041   7.566  0.5115  0.0274  0.1863
 5571SOL    HW228350   0.928   1.194   7.585  2.1594  1.3494  1.8110
 5572SOL     OW28351   0.957   1.593   0.939  0.1526 -0.0307 -0.8458
 5572SOL    HW128352   0.875   1.554   0.907  0.2263 -0.2768 -0.7363
 5572SOL    HW228353   0.972   1.665   0.878  0.0385 -1.2456 -2.2978
 5573SOL     OW28354   3.294   2.487  10.594 -0.3712  0.3059  0.0859
 5573SOL    HW128355   3.205   2.520  10.609 -1.4038 -0.8779 -3.4271
 5573SOL    HW228356   3.291   2.472  10.500 -1.1893 -0.0749  0.1687
 5574SOL     OW28357   2.767   1.516   2.303  0.2910 -0.4153  0.3272
 5574SOL    HW128358   2.695   1.547   2.249  0.2029 -0.8834  0.1743
 5574SOL    HW228359   2.750   1.423   2.322  1.0480 -0.6777 -0.2503
 5575SOL     OW28360   1.592   3.409   4.389 -0.4978  0.5470 -0.2626
 5575SOL    HW128361   1.550   3.468   4.326  0.5892  2.4901  0.8047
 5575SOL    HW228362   1.531   3.407   4.462 -0.8556 -2.2540 -0.6606
 5576SOL     OW28363   2.683   0.625  15.157 -0.0197 -0.1868  0.5653
 5576SOL    HW128364   2.721   0.713  15.165 -0.3317  0.1864 -2.2517
 5576SOL    HW228365   2.652   0.613  15.247 -0.4798  2.1875  0.7284
 5577SOL     OW28366   1.455   0.414   2.210 -0.2995 -0.6025 -0.0905
 5577SOL    HW128367   1.445   0.336   2.264 -0.6210 -0.8318 -0.4732
 5577SOL    HW228368   1.512   0.462   2.269 -0.0995 -1.0742  0.0975
 5578SOL     OW28369   3.559   0.269   7.994 -0.2658 -0.3393  0.2394
 5578SOL    HW128370   3.546   0.315   8.077 -0.2385  0.7511 -0.3692
 5578SOL    HW228371   3.523   0.184   8.020  2.4702 -1.2227  1.0866
 5579SOL     OW28372   0.658   3.945   6.811  0.4923  0.1627 -0.5601
 5579SOL    HW128373   0.621   3.919   6.895 -0.3695 -1.5664 -1.4821
 5579SOL    HW228374   0.734   3.888   6.804  0.1072 -0.4417  0.1971
 5580SOL     OW28375   0.784   2.342   6.024  0.3461 -0.3557 -0.0154
 5580SOL    HW128376   0.849   2.373   5.961  1.7907 -1.7354  0.7955
 5580SOL    HW228377   0.799   2.402   6.098 -0.7765  3.0850 -2.5527
 5581SOL     OW28378   0.585   3.317   1.940 -0.0652  0.2786  0.2520
 5581SOL    HW128379   0.509   3.299   1.995 -0.3308  0.5032 -0.0468
 5581SOL    HW228380   0.623   3.390   1.989 -0.6612  3.2987 -3.8712
 5582SOL     OW28381   2.024   0.003   2.382  0.4410  0.3609 -0.1895
 5582SOL    HW128382   2.114   4.713   2.364  1.0412  1.1637  1.5391
 5582SOL    HW228383   2.029   0.098   2.373  0.7335  0.7149  3.6874
 5583SOL     OW28384   2.788   1.247   6.712  0.2664 -0.5128 -0.0598
 5583SOL    HW128385   2.871   1.219   6.753  1.6203  2.5180 -0.7174
 5583SOL    HW228386   2.775   1.176   6.649  3.5074 -0.5667 -0.6830
 5584SOL     OW28387   4.210   4.586  15.382 -0.3240  0.4991  0.8383
 5584SOL    HW128388   4.210   4.605  15.288 -0.8665  1.0379  0.9431
 5584SOL    HW228389   4.173   4.498  15.383  0.7901  0.0277  0.8560
 5585SOL     OW28390   4.208   0.576  17.292 -0.3374  0.6642  0.4233
 5585SOL    HW128391   4.211   0.647  17.227 -0.3838  0.5888  0.3394
 5585SOL    HW228392   4.200   0.627  17.372  0.3377 -2.1274  2.2355
 5586SOL     OW28393   2.152   3.119   9.199 -0.1823  0.4807  0.3035
 5586SOL    HW128394   2.098   3.130   9.120  0.5454  1.7173 -0.0325
 5586SOL    HW228395   2.241   3.124   9.165 -0.5070 -1.1589 -0.7571
 5587SOL     OW28396   2.057   1.505   7.659  0.4070  0.0044 -0.4574
 5587SOL    HW128397   2.094   1.425   7.696  0.1322  0.1680  0.1672
 5587SOL    HW228398   1.966   1.499   7.688  0.4074 -1.9261 -0.8545
 5588SOL     OW28399   4.126   1.424   5.662  0.1613  0.2995 -0.9406
 5588SOL    HW128400   4.216   1.391   5.666  0.3306  0.9124  0.1804
 5588SOL    HW228401   4.114   1.486   5.734  2.2301 -0.4619  0.0607
 5589SOL     OW28402   0.233   2.150   0.154 -0.2610 -0.3563  0.3693
 5589SOL    HW128403   0.209   2.103   0.234 -1.9762  0.1710  0.1650
 5589SOL    HW228404   0.307   2.094   0.129 -0.3649 -0.1466 -0.4177
 5590SOL     OW28405   1.999   4.069   1.429 -0.3814 -0.6856  0.4901
 5590SOL    HW128406   1.981   4.013   1.354 -0.2155 -0.6864  0.4515
 5590SOL    HW228407   1.911   4.107   1.427  0.4652  1.3204  1.3503
 5591SOL     OW28408   3.095   3.268   0.867 -0.7003 -0.5633 -0.5057
 5591SOL    HW128409   3.006   3.236   0.880 -0.8309 -0.5223 -1.2674
 5591SOL    HW228410   3.153   3.192   0.863  2.2711  1.6003  0.8666
 5592SOL     OW28411   2.243   4.706   9.433 -0.3734  0.0029 -0.5260
 5592SOL    HW128412   2.327   4.661   9.423 -0.3383  0.4235 -2.1320
 5592SOL    HW228413   2.212   4.659   9.511  0.9381 -1.7899 -1.0942
 5593SOL     OW28414   4.727   1.128  15.416  0.0155 -0.4050  0.2746
 5593SOL    HW128415   4.640   1.134  15.454  0.9333 -0.1764  2.3078
 5593SOL    HW228416   4.710   1.182  15.338 -0.3558 -1.8141 -0.6111
 5594SOL     OW28417   0.103   2.150   4.027 -0.7441  0.0511 -0.3645
 5594SOL    HW128418   0.030   2.110   4.075  1.5111 -0.4952  2.6529
 5594SOL    HW228419   0.086   2.243   4.043 -2.7356 -0.3970  0.1178
 5595SOL     OW28420   4.015   1.968   8.165  0.2246  0.0372 -0.5327
 5595SOL    HW128421   4.022   2.036   8.098  2.3418  0.7897  0.4476
 5595SOL    HW228422   3.944   1.911   8.137  1.5515 -2.0865  0.3417
 5596SOL     OW28423   2.006   4.107   8.035  0.2497 -0.4987 -0.2812
 5596SOL    HW128424   2.031   4.173   8.100  2.4281 -1.1998 -0.3937
 5596SOL    HW228425   1.927   4.144   7.997  0.7721  1.4169  0.4965
 5597SOL     OW28426   0.747   3.096   3.483  0.5832  0.4205  0.2786
 5597SOL    HW128427   0.754   3.125   3.392  2.8737  2.5211  1.1144
 5597SOL    HW228428   0.749   3.001   3.476 -2.4249  0.3456  0.3472
 5598SOL     OW28429   2.392   4.255   4.800 -0.4036  0.2199  0.2095
 5598SOL    HW128430   2.401   4.161   4.813  0.0314  0.1995 -0.2303
 5598SOL    HW228431   2.397   4.260   4.705  1.2297 -0.9831  0.2341
 5599SOL     OW28432   4.570   0.085   6.126  0.1754  0.2334  0.9178
 5599SOL    HW128433   4.539   0.165   6.084 -0.9026 -1.5661 -1.7319
 5599SOL    HW228434   4.633   0.057   6.059 -0.5108  0.6932  0.0761
 5600SOL     OW28435   1.351   1.833   7.704 -0.3292  0.5364  0.0652
 5600SOL    HW128436   1.393   1.770   7.763 -0.9130 -1.9509 -2.1553
 5600SOL    HW228437   1.257   1.823   7.721 -0.6139  2.0763 -0.5963
 5601SOL     OW28438   3.251   0.303   9.834 -0.6466 -0.0526  0.2593
 5601SOL    HW128439   3.161   0.333   9.843 -0.5006  0.0265  1.5158
 5601SOL    HW228440   3.258   0.236   9.901 -1.2900 -1.9440 -1.5799
 5602SOL     OW28441   4.227   0.515   0.707 -0.2574  0.4015  0.0515
 5602SOL    HW128442   4.213   0.481   0.619  3.5493 -1.0437 -0.0234
 5602SOL    HW228443   4.229   0.431   0.753  1.5222  0.3754 -0.0511
 5603SOL     OW28444   4.493   4.028   5.163 -0.1626 -0.2039  0.2069
 5603SOL    HW128445   4.544   4.065   5.236 -1.3649  0.1145  0.8864
 5603SOL    HW228446   4.518   4.096   5.100 -1.4407  0.2256  0.1680
 5604SOL     OW28447   3.866   1.262   8.526  0.7002  0.7695 -0.1082
 5604SOL    HW128448   3.842   1.213   8.605  1.8809 -0.7025 -0.6586
 5604SOL    HW228449   3.947   1.309   8.548  0.9277 -0.7217  2.2746
 5605SOL     OW28450   0.003   2.192   8.205  0.6426 -0.0431 -0.6341
 5605SOL    HW128451   4.659   2.223   8.243  0.2856 -1.8776  0.1027
 5605SOL    HW228452   4.724   2.099   8.193  1.7488 -0.1205 -1.6517
 5606SOL     OW28453   3.717   4.311   1.767 -0.9478  0.7082 -0.3708
 5606SOL    HW128454   3.698   4.257   1.844 -2.8151 -0.5653 -1.7436
 5606SOL    HW228455   3.633   4.301   1.722 -0.1162 -0.2077 -1.7273
 5607SOL     OW28456   2.412   0.898   7.376 -0.0062  0.0405 -0.0073
 5607SOL    HW128457   2.500   0.867   7.400  0.1070 -0.2005 -0.7494
 5607SOL    HW228458   2.434   0.986   7.344  1.7253 -0.3367  0.1328
 5608SOL     OW28459   1.803   2.910   4.516  0.2722 -0.2920 -0.4963
 5608SOL    HW128460   1.866   2.979   4.540  2.3319 -1.8344 -1.4131
 5608SOL    HW228461   1.867   2.853   4.473 -2.3024 -1.8875 -2.2290
 5609SOL     OW28462   0.108   3.371  17.022 -0.4996  0.2154  0.4837
 5609SOL    HW128463   0.119   3.416  16.938  1.7686  1.5952  1.5133
 5609SOL    HW228464   0.111   3.447  17.081  2.3664  0.3258  0.2165
 5610SOL     OW28465   3.156   3.879   7.673 -0.0764 -0.0081  0.0161
 5610SOL    HW128466   3.229   3.861   7.732 -0.9414  0.8705  1.3641
 5610SOL    HW228467   3.086   3.822   7.705 -0.8160  0.0260 -1.5564
 5611SOL     OW28468   1.265   3.015   8.209 -0.3998 -0.0859  0.3335
 5611SOL    HW128469   1.299   3.100   8.238 -1.1475 -0.0516  1.1165
 5611SOL    HW228470   1.319   2.980   8.138 -2.4365 -0.4466 -1.0367
 5612SOL     OW28471   1.613   4.149  16.579  0.1679  0.2317  0.3439
 5612SOL    HW128472   1.696   4.137  16.625 -0.0160 -0.0215  0.6100
 5612SOL    HW228473   1.639   4.227  16.530 -0.4981  0.9000  1.0543
 5613SOL     OW28474   1.974   0.195   3.883  0.2522  0.6175  0.4463
 5613SOL    HW128475   1.970   0.174   3.789  0.2757 -1.8568  1.0283
 5613SOL    HW228476   2.063   0.232   3.880  0.2761  0.5178 -0.2742
 5614SOL     OW28477   3.080   1.966   6.591  0.0128  0.4396 -0.1900
 5614SOL    HW128478   3.019   1.892   6.590  1.5910 -0.8874  0.0135
 5614SOL    HW228479   3.080   1.990   6.499 -1.1036 -1.1132 -0.5967
 5615SOL     OW28480   4.158   1.650   2.306 -0.3275  0.0174  0.3195
 5615SOL    HW128481   4.168   1.562   2.270 -0.5271  0.8810 -1.8677
 5615SOL    HW228482   4.133   1.636   2.397 -0.9769  1.0554  0.3089
 5616SOL     OW28483   1.312   1.248   5.571  0.0815 -0.4076 -0.2717
 5616SOL    HW128484   1.297   1.156   5.550  1.4043 -0.2607 -1.8603
 5616SOL    HW228485   1.225   1.281   5.594  1.8644  2.3306  2.6120
 5617SOL     OW28486   1.342   4.200  16.864 -0.4116 -0.0869 -0.1666
 5617SOL    HW128487   1.417   4.258  16.881 -0.7865 -0.1317  1.6587
 5617SOL    HW228488   1.370   4.141  16.794 -0.5676 -2.0989  1.4645
 5618SOL     OW28489   0.514   2.146   3.797 -0.4845 -0.2690  0.2871
 5618SOL    HW128490   0.579   2.166   3.731 -0.8544  0.1796  0.0600
 5618SOL    HW228491   0.432   2.122   3.753 -0.0851  0.3669 -0.7830
 5619SOL     OW28492   3.950   2.410   3.683  0.4394  0.2977 -0.0711
 5619SOL    HW128493   3.980   2.499   3.665  1.5901 -0.2380 -0.8006
 5619SOL    HW228494   3.856   2.419   3.668  0.4344  0.0115 -0.2054
 5620SOL     OW28495   1.571   3.220   2.402  0.3750  0.0823 -0.4563
 5620SOL    HW128496   1.567   3.224   2.498 -0.3887  2.1644 -0.5574
 5620SOL    HW228497   1.664   3.208   2.385  0.6440  0.0509  1.0024
 5621SOL     OW28498   1.426   3.607  10.984 -0.0481 -0.7903  0.3496
 5621SOL    HW128499   1.411   3.637  11.074 -0.6179  1.1281 -0.3968
 5621SOL    HW228500   1.489   3.666  10.942 -0.5696  0.3692  1.1890
 5622SOL     OW28501   0.371   2.712  11.376 -0.5922  0.5617  0.0034
 5622SOL    HW128502   0.281   2.738  11.355 -0.6770  0.0021 -0.3131
 5622SOL    HW228503   0.369   2.657  11.454 -0.4514  1.0999  0.3902
 5623SOL     OW28504   2.441   2.099   3.844 -0.3268  0.2028 -0.1412
 5623SOL    HW128505   2.348   2.088   3.823 -0.7004  0.5808  1.3666
 5623SOL    HW228506   2.469   2.007   3.843  1.5657  0.7898 -0.2855
 5624SOL     OW28507   3.484   3.541   2.004  0.1145  0.1081 -0.6886
 5624SOL    HW128508   3.482   3.445   1.998  3.1483  0.0133 -0.3309
 5624SOL    HW228509   3.495   3.549   2.099 -1.0000  0.8507 -0.6298
 5625SOL     OW28510   1.521   1.273   6.465  0.4678  0.4359  0.1493
 5625SOL    HW128511   1.534   1.186   6.504 -2.7633 -0.4670 -0.7765
 5625SOL    HW228512   1.524   1.325   6.545 -0.4160 -3.0610  2.4725
 5626SOL     OW28513   2.650   3.797   6.398 -0.6586  0.0406 -0.0178
 5626SOL    HW128514   2.562   3.803   6.436 -0.8366  0.9336 -0.5529
 5626SOL    HW228515   2.690   3.877   6.431  0.0384 -0.4464  0.3124
 5627SOL     OW28516   0.897   4.148   3.497 -0.1400 -0.6756 -0.1898
 5627SOL    HW128517   0.959   4.163   3.568 -2.5930 -0.4457  1.9103
 5627SOL    HW228518   0.900   4.233   3.455  0.9121 -0.2304  0.7742
 5628SOL     OW28519   1.695   1.799   6.014 -0.7431 -0.1792 -0.0561
 5628SOL    HW128520   1.723   1.794   5.922  0.7548  0.4132  0.3551
 5628SOL    HW228521   1.604   1.826   6.003 -0.3483  1.1430 -0.1396
 5629SOL     OW28522   3.056   4.683   7.536  0.4724 -0.9207  0.0676
 5629SOL    HW128523   3.035   4.623   7.608  0.6689 -2.0439 -0.8110
 5629SOL    HW228524   3.138   4.651   7.499 -0.4476 -2.9444 -0.1857
 5630SOL     OW28525   3.154   4.204   8.385  0.0972 -0.0500  0.3506
 5630SOL    HW128526   3.162   4.184   8.478 -2.8810  1.8629  1.0192
 5630SOL    HW228527   3.131   4.116   8.355 -0.0900  0.1847 -0.1976
 5631SOL     OW28528   4.181   2.455   3.027  0.2668  0.7418 -0.1355
 5631SOL    HW128529   4.088   2.465   3.005  0.3985 -1.8066 -1.8349
 5631SOL    HW228530   4.184   2.410   3.112  1.3670  1.4088  0.1788
 5632SOL     OW28531   3.453   3.142   7.818 -0.4375  0.1531 -0.2161
 5632SOL    HW128532   3.398   3.086   7.763  0.6939  0.2978 -1.4941
 5632SOL    HW228533   3.540   3.105   7.801 -0.1210  0.5474  0.5481
 5633SOL     OW28534   1.261   3.063   7.762 -0.0116 -0.2410 -0.0908
 5633SOL    HW128535   1.322   3.028   7.827 -1.7762 -1.4679  0.8992
 5633SOL    HW228536   1.287   3.003   7.692 -0.5298  0.1736 -0.6442
 5634SOL     OW28537   3.586   0.871  12.716 -0.0505  0.2076 -0.3587
 5634SOL    HW128538   3.540   0.940  12.763  0.0960 -0.5418  0.8787
 5634SOL    HW228539   3.636   0.922  12.651 -0.8206  0.2487 -0.9106
 5635SOL     OW28540   2.820   1.900   1.095 -0.0460 -0.1602  0.3702
 5635SOL    HW128541   2.732   1.935   1.110 -0.1278 -0.6695  1.0906
 5635SOL    HW228542   2.804   1.853   1.013 -0.4080 -1.0137  0.9274
 5636SOL     OW28543   4.186   1.544   0.648 -0.3134  0.0312  0.6715
 5636SOL    HW128544   4.186   1.535   0.553  2.5486  1.2421  0.5547
 5636SOL    HW228545   4.095   1.575   0.653 -0.0645  0.9384 -0.3788
 5637SOL     OW28546   1.947   3.061   4.783  0.0065 -0.5298  0.1618
 5637SOL    HW128547   1.997   3.119   4.725 -0.9968  0.3680  0.1968
 5637SOL    HW228548   1.997   2.980   4.772  1.8810  0.3640  2.1298
 5638SOL     OW28549   4.652   0.050   2.020  0.3499  0.6487  0.2536
 5638SOL    HW128550   4.610   4.702   2.009 -0.7923  1.1993  0.3283
 5638SOL    HW228551   4.688   0.036   2.108  0.8426 -1.7097 -0.3246
 5639SOL     OW28552   4.417   4.171   4.271  0.0395  0.7069  0.8225
 5639SOL    HW128553   4.479   4.244   4.273 -0.1508  0.8767  0.5770
 5639SOL    HW228554   4.357   4.183   4.344 -2.4011 -0.8027 -0.9216
 5640SOL     OW28555   2.551   3.483   4.285  0.3405  0.5162  0.0701
 5640SOL    HW128556   2.486   3.519   4.345 -0.8799 -0.8920 -0.3982
 5640SOL    HW228557   2.521   3.393   4.282  0.1431  0.6232 -1.0609
 5641SOL     OW28558   2.800   0.046  10.426 -0.2530  0.0246  0.4817
 5641SOL    HW128559   2.723   0.097  10.452  0.8162  2.4209 -1.0628
 5641SOL    HW228560   2.761   4.696  10.422  0.7928 -0.5206  2.6827
 5642SOL     OW28561   1.753   2.923   2.160 -0.0704  0.1126 -0.3622
 5642SOL    HW128562   1.807   2.847   2.184 -0.2169 -0.1233 -0.7745
 5642SOL    HW228563   1.812   2.973   2.104  0.6034 -0.4093 -0.1242
 5643SOL     OW28564   4.519   1.014  11.578 -0.1434  0.2252  0.5326
 5643SOL    HW128565   4.478   0.928  11.564  0.5561 -0.2850  1.6386
 5643SOL    HW228566   4.484   1.070  11.509 -1.0401 -0.6503  0.2643
 5644SOL     OW28567   3.173   2.465  15.590 -0.4307  0.1206 -0.6722
 5644SOL    HW128568   3.082   2.476  15.565 -0.2395  0.7512 -1.1067
 5644SOL    HW228569   3.214   2.541  15.547  1.6711 -0.6862 -0.1126
 5645SOL     OW28570   2.821   4.177   2.386  0.4038  0.0347  0.5585
 5645SOL    HW128571   2.840   4.133   2.469  3.4582 -0.2875 -0.2881
 5645SOL    HW228572   2.727   4.188   2.397  0.3083 -0.2715  0.0551
 5646SOL     OW28573   4.038   3.169   2.257  0.3471 -0.2709 -0.2644
 5646SOL    HW128574   4.123   3.211   2.275 -0.7153  1.0494  1.7636
 5646SOL    HW228575   4.064   3.089   2.212 -0.0512 -1.6471  1.9170
 5647SOL     OW28576   3.725   4.446  17.615  0.0101  1.0169  0.2185
 5647SOL    HW128577   3.730   4.463  17.521 -1.3369 -1.5358 -0.3053
 5647SOL    HW228578   3.636   4.473  17.635 -0.0180  0.5740  0.6912
 5648SOL     OW28579   2.170   1.801   9.708 -0.3215 -0.5466  0.4952
 5648SOL    HW128580   2.177   1.801   9.804 -1.4601 -1.3199  0.5857
 5648SOL    HW228581   2.099   1.736   9.704 -1.4605  0.4855  3.9416
 5649SOL     OW28582   2.546   2.574   7.955 -0.4925  0.7295  0.3785
 5649SOL    HW128583   2.568   2.665   7.974 -1.5857  1.4321 -1.7184
 5649SOL    HW228584   2.474   2.560   8.017 -0.2188 -2.0213  0.0913
 5650SOL     OW28585   4.666   3.567  13.765  0.5487 -0.0251  0.0361
 5650SOL    HW128586   4.576   3.598  13.771 -0.1567 -1.6650 -2.0264
 5650SOL    HW228587   4.697   3.563  13.855 -1.3898  0.1472  0.6990
 5651SOL     OW28588   0.996   4.386   3.333  0.5022  0.2525 -0.1271
 5651SOL    HW128589   0.932   4.449   3.301  1.4275  0.7660 -0.9525
 5651SOL    HW228590   1.033   4.443   3.400 -0.0586  2.3306 -1.5753
 5652SOL     OW28591   1.639   2.571   2.205  0.0033  0.0867 -0.7442
 5652SOL    HW128592   1.628   2.575   2.300  0.5039  0.6731 -0.7137
 5652SOL    HW228593   1.732   2.551   2.199  0.1029 -0.4155  2.7900
 5653SOL     OW28594   4.192   1.480  10.741  0.1904 -0.0389 -0.1284
 5653SOL    HW128595   4.130   1.512  10.676  1.3254  0.5657 -0.9154
 5653SOL    HW228596   4.247   1.554  10.767 -2.4695  1.6576  0.6673
 5654SOL     OW28597   3.088   3.300  16.051 -0.1328 -0.2308 -0.2262
 5654SOL    HW128598   3.134   3.221  16.022 -1.3958 -1.0048 -0.1290
 5654SOL    HW228599   3.094   3.292  16.146  1.3149 -0.7560 -0.3617
 5655SOL     OW28600   0.177   1.601  16.315 -0.5618  0.0194 -0.6046
 5655SOL    HW128601   0.211   1.516  16.287 -0.9546 -0.1546 -0.5592
 5655SOL    HW228602   0.194   1.638  16.228 -0.4991  1.2741 -0.0568
 5656SOL     OW28603   3.474   4.733   8.808  0.1648  0.1987 -0.0894
 5656SOL    HW128604   3.503   0.026   8.894 -0.5249  0.1600  0.1539
 5656SOL    HW228605   3.424   0.073   8.781  0.9573  1.2603  1.4732
 5657SOL     OW28606   1.189   1.927  12.327  0.4783 -1.0147  0.1268
 5657SOL    HW128607   1.210   1.888  12.412  0.5787  1.5328  1.2502
 5657SOL    HW228608   1.272   1.968  12.303  0.0177 -0.6318 -0.8328
 5658SOL     OW28609   3.979   1.022  15.898 -0.2159 -0.3416 -0.3626
 5658SOL    HW128610   4.054   1.071  15.865 -0.3844 -0.7802 -1.4067
 5658SOL    HW228611   4.003   1.013  15.990 -0.2463  1.0711 -0.2253
 5659SOL     OW28612   0.012   2.705   2.514 -0.3675 -0.1807 -0.1420
 5659SOL    HW128613   4.666   2.735   2.549 -0.9218  0.4405 -1.9861
 5659SOL    HW228614   0.072   2.731   2.584  0.3184 -2.5991  0.1636
 5660SOL     OW28615   4.695   2.145   4.642  0.1446  0.1905  0.4801
 5660SOL    HW128616   0.037   2.194   4.625  1.0057 -1.2118  0.4677
 5660SOL    HW228617   4.729   2.063   4.679  1.0853 -0.0964 -1.0401
 5661SOL     OW28618   1.844   3.097   3.360 -0.3064 -0.8971 -0.5873
 5661SOL    HW128619   1.939   3.092   3.353 -0.1741 -0.1332  0.7443
 5661SOL    HW228620   1.837   3.183   3.401  0.6776 -0.7688 -0.7086
 5662SOL     OW28621   2.514   4.633   5.557  0.2324 -0.3474  0.5061
 5662SOL    HW128622   2.598   4.669   5.528  0.2157  0.7884  1.8821
 5662SOL    HW228623   2.519   4.555   5.502  1.6110  1.0735 -1.3888
 5663SOL     OW28624   1.709   2.103   0.263  0.4407 -0.7040 -0.0456
 5663SOL    HW128625   1.720   2.135   0.174  0.3079 -0.4791  0.0190
 5663SOL    HW228626   1.614   2.117   0.265  1.1173  3.9634 -1.0027
 5664SOL     OW28627   1.606   4.666   8.569  0.1142 -0.2425  0.3757
 5664SOL    HW128628   1.656   4.721   8.509 -1.1894  0.5362  0.0024
 5664SOL    HW228629   1.623   4.693   8.660 -0.1712 -0.4168  0.4809
 5665SOL     OW28630   3.994   2.347   2.510  0.5989 -0.0369 -0.1202
 5665SOL    HW128631   4.050   2.408   2.558  0.0104 -1.0107  1.8035
 5665SOL    HW228632   3.983   2.281   2.579 -2.8536 -1.0378 -1.6210
 5666SOL     OW28633   2.221   3.093  16.065  0.6447  0.6390  0.2420
 5666SOL    HW128634   2.310   3.112  16.035  0.3546  0.5938 -0.6581
 5666SOL    HW228635   2.226   3.127  16.154 -0.6067  3.1595 -0.6285
 5667SOL     OW28636   1.162   3.305   0.884 -0.5877 -0.0424 -0.4133
 5667SOL    HW128637   1.180   3.273   0.796 -1.3528 -1.7387  0.0354
 5667SOL    HW228638   1.246   3.350   0.890 -1.6787  2.1504 -1.8068
 5668SOL     OW28639   1.658   1.068  12.866 -0.2070  0.1649 -0.0109
 5668SOL    HW128640   1.567   1.064  12.897  0.5206  0.2287  2.1759
 5668SOL    HW228641   1.669   0.989  12.813  2.5727 -0.4582  1.4667
 5669SOL     OW28642   2.843   2.666   4.674 -0.2565  0.1836  0.4355
 5669SOL    HW128643   2.928   2.632   4.645 -0.1120  1.5164 -0.6533
 5669SOL    HW228644   2.789   2.588   4.658  2.2462 -0.9369 -2.5853
 5670SOL     OW28645   1.688   2.883   3.440  0.1067 -0.2717  0.1141
 5670SOL    HW128646   1.643   2.881   3.525 -0.9742  0.8561 -0.4383
 5670SOL    HW228647   1.708   2.976   3.434 -1.5140  0.2807  3.0466
 5671SOL     OW28648   0.890   0.621   9.380  0.1396  0.1461  0.2624
 5671SOL    HW128649   0.818   0.644   9.321  0.7049  0.0752 -0.4372
 5671SOL    HW228650   0.963   0.643   9.323  0.4626 -2.3995 -0.2855
 5672SOL     OW28651   3.858   3.830   6.059  0.0734  0.0813 -0.2141
 5672SOL    HW128652   3.931   3.860   6.113 -1.6429 -0.2937  2.3159
 5672SOL    HW228653   3.782   3.830   6.117  1.9431 -0.8424  2.2133
 5673SOL     OW28654   4.237   2.606   9.055 -0.3691  0.2933  0.3189
 5673SOL    HW128655   4.192   2.582   8.974  0.2534 -0.3449  0.1644
 5673SOL    HW228656   4.219   2.519   9.091 -1.3056 -0.1026 -1.0807
 5674SOL     OW28657   2.333   2.622   6.457  0.2121 -0.0326  0.2252
 5674SOL    HW128658   2.335   2.651   6.366 -2.6333  0.2152  0.2421
 5674SOL    HW228659   2.343   2.528   6.441  0.5990 -0.2039  1.4919
 5675SOL     OW28660   3.765   3.284   8.018 -0.9201  0.0326  0.2163
 5675SOL    HW128661   3.784   3.283   7.925 -2.3954 -1.0654 -0.0773
 5675SOL    HW228662   3.714   3.365   8.013 -0.4799  0.2423 -0.8074
 5676SOL     OW28663   1.690   3.793  14.011 -0.2941 -0.5485  0.0471
 5676SOL    HW128664   1.697   3.853  14.085 -0.1250  1.2206 -1.4047
 5676SOL    HW228665   1.694   3.852  13.936  0.2267 -0.2023  0.3418
 5677SOL     OW28666   4.457   3.247  10.964  0.5316 -0.3645 -0.4168
 5677SOL    HW128667   4.546   3.273  10.943  0.3444 -0.2711 -1.0890
 5677SOL    HW228668   4.454   3.151  10.961 -0.4376 -0.3514  0.0863
 5678SOL     OW28669   4.471   0.338   5.365  0.2368  0.0931  0.4248
 5678SOL    HW128670   4.443   0.341   5.456  0.6427 -0.5232  0.5685
 5678SOL    HW228671   4.528   0.262   5.353  0.1061 -0.1861  1.6252
 5679SOL     OW28672   2.067   4.587  17.521 -0.0939  0.1330 -0.4872
 5679SOL    HW128673   2.120   4.598  17.442 -1.1182  0.4947 -1.1314
 5679SOL    HW228674   2.038   4.495  17.517 -0.4584  0.1413  2.2881
 5680SOL     OW28675   3.738   1.223   7.794  0.0598 -0.1689 -0.0432
 5680SOL    HW128676   3.733   1.138   7.837 -1.4286  1.7334  3.5489
 5680SOL    HW228677   3.807   1.202   7.732 -0.7684 -1.7130 -0.4304
 5681SOL     OW28678   0.555   2.013  13.984  0.0575 -0.0075 -0.1710
 5681SOL    HW128679   0.536   2.101  14.016 -1.2832 -0.4064  0.1403
 5681SOL    HW228680   0.642   2.026  13.947  0.5640 -0.9411  0.6926
 5682SOL     OW28681   1.234   2.154  15.073 -0.4032 -0.4439 -0.6156
 5682SOL    HW128682   1.239   2.059  15.083  0.7587 -0.0368  2.5899
 5682SOL    HW228683   1.189   2.161  14.989 -0.5837  0.8323 -0.4063
 5683SOL     OW28684   0.984   3.888   7.873  0.5567 -0.1991  0.2582
 5683SOL    HW128685   0.996   3.983   7.873  4.3474 -0.7070  1.3149
 5683SOL    HW228686   0.901   3.888   7.825  0.4925  1.3120  0.3523
 5684SOL     OW28687   1.226   4.417   2.190 -0.1294  0.1176  0.1535
 5684SOL    HW128688   1.211   4.504   2.152 -1.2084 -0.2752 -0.3124
 5684SOL    HW228689   1.281   4.429   2.268 -0.4437  1.8117  0.1062
 5685SOL     OW28690   0.567   0.640  10.761 -0.4800  0.0195  0.1504
 5685SOL    HW128691   0.585   0.602  10.675  2.9283  1.9847 -0.0191
 5685SOL    HW228692   0.614   0.723  10.753 -0.2734 -0.0562  0.5746
 5686SOL     OW28693   0.989   0.765  13.270 -0.2769 -0.4165 -0.7229
 5686SOL    HW128694   0.896   0.776  13.250  0.3557  3.3967 -1.4502
 5686SOL    HW228695   1.016   0.855  13.253 -0.5078  0.1128  1.6631
 5687SOL     OW28696   2.618   0.924   8.491 -0.0622 -0.0057 -0.3271
 5687SOL    HW128697   2.677   0.923   8.416  2.0412 -1.7036  1.3541
 5687SOL    HW228698   2.547   0.863   8.474  0.2972  0.0567 -2.0411
 5688SOL     OW28699   3.812   4.322   7.328 -0.2913  0.6077  0.1814
 5688SOL    HW128700   3.842   4.357   7.412  2.1911 -1.7208  0.2641
 5688SOL    HW228701   3.867   4.369   7.266 -1.0810  1.1398 -0.1183
 5689SOL     OW28702   0.546   2.675  11.183 -0.2940  0.0666  0.5881
 5689SOL    HW128703   0.492   2.696  11.259 -1.2230  0.0886 -0.0753
 5689SOL    HW228704   0.515   2.739  11.119  0.2659 -0.6813 -0.4288
 5690SOL     OW28705   3.368   4.310   7.866  0.1276 -0.6951  0.3312
 5690SOL    HW128706   3.350   4.396   7.827  2.2747 -0.3545  0.0851
 5690SOL    HW228707   3.441   4.321   7.926 -0.3001  2.8283  0.2162
 5691SOL     OW28708   1.953   1.407   6.765 -0.7107 -0.4279  0.3410
 5691SOL    HW128709   1.913   1.379   6.847 -1.5860  1.2929  0.4954
 5691SOL    HW228710   1.932   1.327   6.717  0.4822 -0.8177  0.4642
 5692SOL     OW28711   1.796   3.525   8.488 -0.2655 -0.1007 -0.5868
 5692SOL    HW128712   1.784   3.590   8.557 -2.3184  0.1481 -1.1822
 5692SOL    HW228713   1.810   3.583   8.413  0.1962  0.7592  0.1655
 5693SOL     OW28714   4.144   2.597   5.422 -0.3214  0.5409  0.5124
 5693SOL    HW128715   4.234   2.582   5.394 -0.9806  1.3216 -2.0567
 5693SOL    HW228716   4.094   2.520   5.394  0.8766 -0.3744  0.9095
 5694SOL     OW28717   3.397   2.321  15.587  0.2096 -0.1585  0.9218
 5694SOL    HW128718   3.364   2.231  15.584  0.2712 -0.2483  2.9661
 5694SOL    HW228719   3.313   2.362  15.608 -0.3755 -0.2574 -1.2437
 5695SOL     OW28720   0.962   1.939  17.523  0.1747 -0.3705  0.0031
 5695SOL    HW128721   0.901   1.866  17.536  1.1704 -1.4732 -1.4137
 5695SOL    HW228722   0.900   2.010  17.534 -0.7210 -1.2506  0.7121
 5696SOL     OW28723   3.810   0.732  16.300 -0.6082 -0.2646  0.1967
 5696SOL    HW128724   3.829   0.710  16.209 -1.2715  0.5750 -0.1462
 5696SOL    HW228725   3.723   0.695  16.315 -0.6440  0.7460  2.4875
 5697SOL     OW28726   2.447   3.504   5.410 -0.2941 -0.2540  0.1723
 5697SOL    HW128727   2.420   3.553   5.487 -0.0404 -0.3087  0.2957
 5697SOL    HW228728   2.476   3.419   5.444 -1.3944 -0.7015 -0.0153
 5698SOL     OW28729   3.104   2.117  12.409  0.0511  0.1723 -0.4716
 5698SOL    HW128730   3.125   2.028  12.383 -2.0530 -0.6977  0.8445
 5698SOL    HW228731   3.071   2.109  12.499  0.5665  0.7095 -0.2303
 5699SOL     OW28732   2.895   0.715   9.215  0.0040 -0.1572  0.1743
 5699SOL    HW128733   2.978   0.667   9.210  0.6118  0.6771  2.5636
 5699SOL    HW228734   2.857   0.677   9.135 -2.5722 -0.9241  1.7802
 5700SOL     OW28735   0.122   2.705   6.432 -0.1090 -0.0444 -0.0139
 5700SOL    HW128736   0.036   2.674   6.404  0.4178 -1.5126 -0.0020
 5700SOL    HW228737   0.178   2.645   6.384  0.3024 -0.6306  1.2033
 5701SOL     OW28738   4.251   0.767   5.718 -0.0498  0.2659 -0.2628
 5701SOL    HW128739   4.250   0.845   5.664  1.4017  1.3566  1.3018
 5701SOL    HW228740   4.329   0.723   5.683 -0.0511  1.4204 -1.6946
 5702SOL     OW28741   0.931   1.775   7.505 -0.8199  0.0195  0.3103
 5702SOL    HW128742   0.888   1.859   7.484  0.5730  1.0367  1.5233
 5702SOL    HW228743   0.962   1.782   7.595  0.9075  0.8376 -0.3502
 5703SOL     OW28744   3.807   0.994   3.406  0.1015 -0.3915  0.2321
 5703SOL    HW128745   3.726   0.992   3.457 -0.0331 -3.7427 -0.1215
 5703SOL    HW228746   3.791   1.072   3.353 -1.3527 -0.4634  0.5760
 5704SOL     OW28747   1.003   1.871   4.768  0.0087 -0.0638  0.7044
 5704SOL    HW128748   0.943   1.804   4.799  0.7801 -1.5365 -0.9851
 5704SOL    HW228749   0.944   1.919   4.710  1.1363  0.3328 -0.1220
 5705SOL     OW28750   3.495   0.566   5.243  0.0300  0.1359 -0.0291
 5705SOL    HW128751   3.497   0.648   5.193 -2.5913  0.4412  0.3824
 5705SOL    HW228752   3.565   0.505   5.219 -1.1124 -1.0213 -0.3649
 5706SOL     OW28753   4.225   0.090   2.460 -0.2192 -0.1000 -0.4514
 5706SOL    HW128754   4.247   0.060   2.372 -2.2864  2.7414 -1.9492
 5706SOL    HW228755   4.195   0.179   2.442  2.3016  0.7716 -0.3883
 5707SOL     OW28756   4.158   4.452   3.832  0.0520  0.4001 -0.5632
 5707SOL    HW128757   4.244   4.409   3.833  0.7068  1.7287 -0.0453
 5707SOL    HW228758   4.154   4.471   3.739 -0.7044 -0.2378 -0.6628
 5708SOL     OW28759   1.338   4.717  15.258  0.4931  0.4611 -0.8624
 5708SOL    HW128760   1.368   0.032  15.331  0.9820 -1.9797  0.7010
 5708SOL    HW228761   1.244   4.721  15.276  0.5103  0.6252 -0.8116
 5709SOL     OW28762   4.615   3.274  17.385  0.2787  0.2998 -0.4853
 5709SOL    HW128763   4.607   3.237  17.298  0.8126 -0.3138 -0.2641
 5709SOL    HW228764   4.592   3.367  17.374  0.4532  0.5612  1.2952
 5710SOL     OW28765   3.041   1.438   6.651 -0.0959 -0.0171  0.4534
 5710SOL    HW128766   3.047   1.522   6.696  1.0303  0.6451 -0.9491
 5710SOL    HW228767   3.070   1.382   6.724  0.0113  0.6196  0.8999
 5711SOL     OW28768   1.165   3.020   2.222 -0.5289 -0.1618  0.1916
 5711SOL    HW128769   1.070   3.011   2.221 -0.4860 -0.6390  0.4404
 5711SOL    HW228770   1.200   2.942   2.264  0.0760 -0.0896 -0.1748
 5712SOL     OW28771   3.468   1.090   4.879 -0.4385  0.1127 -0.8045
 5712SOL    HW128772   3.520   1.152   4.828 -0.0210  0.1482 -0.3324
 5712SOL    HW228773   3.452   1.144   4.957 -3.5845 -4.1914  1.5132
 5713SOL     OW28774   1.542   2.709   5.826 -0.1818 -0.3380  0.2018
 5713SOL    HW128775   1.579   2.791   5.791 -2.0771  0.1590 -0.6669
 5713SOL    HW228776   1.455   2.738   5.851  0.4946  0.1942  1.9033
 5714SOL     OW28777   0.701   3.309   3.832  0.1428 -0.2339 -0.0963
 5714SOL    HW128778   0.622   3.264   3.802 -0.3473  1.8929 -2.0202
 5714SOL    HW228779   0.715   3.362   3.754  1.2903  1.0366  0.9811
 5715SOL     OW28780   1.805   3.267  14.796 -0.1987 -0.8636 -0.3079
 5715SOL    HW128781   1.759   3.344  14.763 -1.7419 -1.3644  0.6981
 5715SOL    HW228782   1.742   3.211  14.842 -2.6605  0.2799 -2.3439
 5716SOL     OW28783   2.151   3.881   5.663 -0.2871 -0.4022  0.1434
 5716SOL    HW128784   2.093   3.882   5.587 -0.8222  1.5317  0.5676
 5716SOL    HW228785   2.142   3.793   5.700 -0.9005 -1.4091 -2.4484
 5717SOL     OW28786   1.654   0.659   9.767  0.2990  0.1360 -0.3471
 5717SOL    HW128787   1.646   0.565   9.757  1.2066 -0.1957  2.0074
 5717SOL    HW228788   1.611   0.684   9.849 -0.7552  1.6405 -1.3469
 5718SOL     OW28789   3.100   2.246   4.079 -0.4370 -0.0667  0.2712
 5718SOL    HW128790   3.058   2.168   4.044 -1.4676  0.2714  0.7411
 5718SOL    HW228791   3.036   2.271   4.146 -1.4221  2.9686 -1.7929
 5719SOL     OW28792   2.472   3.094   3.739 -0.5439  0.3786  0.8289
 5719SOL    HW128793   2.490   3.183   3.710  0.4447 -0.0577  0.0824
 5719SOL    HW228794   2.443   3.108   3.829 -0.6335  0.1719  0.8322
 5720SOL     OW28795   2.402   2.207  17.685  0.3853 -0.3861 -0.6476
 5720SOL    HW128796   2.363   2.294  17.694 -0.4712 -0.8865  0.5243
 5720SOL    HW228797   2.400   2.187  17.592  1.6040 -0.5386 -0.6338
 5721SOL     OW28798   0.003   3.190   6.879  0.6719  0.3994  0.0849
 5721SOL    HW128799   0.025   3.201   6.787  1.5798  0.6818  0.3311
 5721SOL    HW228800   0.054   3.111   6.895  0.6476  0.3494 -0.0889
 5722SOL     OW28801   0.435   4.283   7.586  0.0679  0.1960  0.0607
 5722SOL    HW128802   0.384   4.290   7.506 -1.6668  0.9238  1.2316
 5722SOL    HW228803   0.399   4.343   7.651 -0.6650  0.2931 -0.4329
 5723SOL     OW28804   2.267   3.687  10.252  0.0665 -0.3371 -0.1821
 5723SOL    HW128805   2.327   3.750  10.212  0.8605 -0.4064  0.9058
 5723SOL    HW228806   2.270   3.637  10.170 -1.1581  2.0754 -1.6655
 5724SOL     OW28807   1.977   1.480  13.067 -0.5232  0.3506  0.0178
 5724SOL    HW128808   1.888   1.466  13.035 -0.4748  0.3407 -0.1150
 5724SOL    HW228809   1.977   1.575  13.057  0.0561  0.6098  2.5446
 5725SOL     OW28810   2.418   4.283   4.056 -0.7158 -0.7869  0.2956
 5725SOL    HW128811   2.341   4.290   3.999 -0.1618  0.6325 -0.2853
 5725SOL    HW228812   2.444   4.375   4.057 -0.6635 -0.7862 -1.3473
 5726SOL     OW28813   3.318   0.220  14.642  0.2372  0.4880  0.1611
 5726SOL    HW128814   3.405   0.243  14.676 -0.6198 -0.6626  3.1459
 5726SOL    HW228815   3.336   0.128  14.627  0.3769  0.7463 -1.2243
 5727SOL     OW28816   1.835   0.515  12.073 -0.3510  0.5401  0.0505
 5727SOL    HW128817   1.757   0.571  12.071 -0.0741  0.8282 -2.1475
 5727SOL    HW228818   1.856   0.501  12.165  0.9041 -2.5150 -0.7079
 5728SOL     OW28819   1.823   3.382   4.104  0.0535 -0.4054 -0.2502
 5728SOL    HW128820   1.774   3.460   4.132 -0.7847 -1.4051  1.0386
 5728SOL    HW228821   1.905   3.430   4.086 -0.3234  0.5509  0.5258
 5729SOL     OW28822   3.209   0.117   3.857  0.3950  0.1855  0.2521
 5729SOL    HW128823   3.147   0.106   3.929 -1.7496  1.8308 -1.3260
 5729SOL    HW228824   3.158   0.172   3.798 -1.8270  0.7356  2.6864
 5730SOL     OW28825   0.354   2.150   2.631 -0.8753  0.5463 -0.4709
 5730SOL    HW128826   0.325   2.189   2.713 -3.2712  0.8226 -1.4745
 5730SOL    HW228827   0.345   2.055   2.640  0.8555  0.2873 -1.4828
 5731SOL     OW28828   0.782   0.204  14.131 -0.5611 -0.2275 -0.4240
 5731SOL    HW128829   0.763   0.248  14.048  2.6990 -1.3541 -1.7514
 5731SOL    HW228830   0.710   0.242  14.181 -1.1244 -2.5425  0.5307
 5732SOL     OW28831   3.704   0.059   4.984  0.1935  0.2309 -0.1432
 5732SOL    HW128832   3.628   0.117   4.971 -0.4094 -0.7633 -1.1426
 5732SOL    HW228833   3.706   0.005   4.905 -2.4266 -3.0266  2.0141
 5733SOL     OW28834   3.392   1.620   6.153  0.4379 -0.1279  0.6083
 5733SOL    HW128835   3.362   1.531   6.168 -3.5944  1.3594  1.2951
 5733SOL    HW228836   3.337   1.675   6.208 -1.5553 -0.4465 -1.0842
 5734SOL     OW28837   2.712   2.707   5.701 -0.6181  0.0267  0.3147
 5734SOL    HW128838   2.692   2.644   5.632 -0.3834  0.5476 -0.2231
 5734SOL    HW228839   2.628   2.731   5.740 -0.6178 -0.1719  0.4367
 5735SOL     OW28840   3.529   4.703   6.598  0.5156  0.2344  0.1621
 5735SOL    HW128841   3.579   4.679   6.520  0.5938  0.4443  0.1464
 5735SOL    HW228842   3.592   0.024   6.640  2.3860  1.0345 -3.7455
 5736SOL     OW28843   3.498   0.257   7.046 -0.2175  0.0576  0.5686
 5736SOL    HW128844   3.534   0.173   7.074 -0.3808 -0.1440  0.1709
 5736SOL    HW228845   3.438   0.271   7.119 -1.8314  1.3359 -1.0124
 5737SOL     OW28846   0.305   0.223  10.543  0.3911  0.0456  0.2586
 5737SOL    HW128847   0.286   0.317  10.544 -0.5886 -0.1488 -0.1390
 5737SOL    HW228848   0.394   0.224  10.576  0.4273  1.8123  0.1248
 5738SOL     OW28849   0.755   0.803   8.134  0.2501  0.3964  0.0152
 5738SOL    HW128850   0.666   0.787   8.102  0.0576  0.5474  0.4762
 5738SOL    HW228851   0.758   0.899   8.128  0.8863  0.4082  0.5060
 5739SOL     OW28852   3.425   4.021   2.547 -0.0669  0.4845  0.5877
 5739SOL    HW128853   3.502   3.967   2.534  0.5308  1.1732  1.2586
 5739SOL    HW228854   3.388   3.976   2.623  1.3450  0.6646  1.3699
 5740SOL     OW28855   2.484   1.214   4.250 -0.0581 -0.3126 -0.3340
 5740SOL    HW128856   2.522   1.150   4.311 -0.7627 -1.2825 -0.9215
 5740SOL    HW228857   2.398   1.175   4.233 -0.2184 -0.3435  0.5330
 5741SOL     OW28858   0.792   1.181   2.917  0.1399 -0.3686  0.0277
 5741SOL    HW128859   0.773   1.235   2.994 -0.2125  0.7076 -0.8128
 5741SOL    HW228860   0.742   1.103   2.939 -0.1125  0.1475  1.2868
 5742SOL     OW28861   2.265   4.196   9.279 -0.4113 -0.1007 -0.1992
 5742SOL    HW128862   2.337   4.237   9.328 -1.1631  0.2161  0.6479
 5742SOL    HW228863   2.186   4.234   9.319 -0.6701  0.1740 -0.9685
 5743SOL     OW28864   1.384   4.276   4.805  0.0116  0.9560  0.0699
 5743SOL    HW128865   1.431   4.238   4.730 -1.0472  0.9399 -0.5822
 5743SOL    HW228866   1.444   4.266   4.879 -0.2709  0.9064  0.2874
 5744SOL     OW28867   2.427   4.583   6.039  0.3866 -0.6246 -0.4425
 5744SOL    HW128868   2.471   4.647   6.094 -0.5383  0.7680 -1.3108
 5744SOL    HW228869   2.449   4.612   5.950  0.3072  0.8696  0.0347
 5745SOL     OW28870   3.015   3.263   8.682  0.0855 -0.0199  0.2290
 5745SOL    HW128871   2.927   3.253   8.644  0.0088  4.0731 -0.6847
 5745SOL    HW228872   2.989   3.271   8.774  2.2400 -0.8000  0.9022
 5746SOL     OW28873   0.458   3.477   2.967 -0.0249 -0.2265 -0.2220
 5746SOL    HW128874   0.525   3.444   2.908  0.6271  1.1263 -0.2357
 5746SOL    HW228875   0.418   3.554   2.926 -1.4002  0.4352  2.3306
 5747SOL     OW28876   1.832   2.542  12.970  0.1082  0.2414  0.6259
 5747SOL    HW128877   1.762   2.479  12.987  1.1799  0.3195  5.3332
 5747SOL    HW228878   1.858   2.552  13.062  1.9516 -0.2978  0.1674
 5748SOL     OW28879   1.615   3.503   6.686  0.2158 -0.0491  0.2595
 5748SOL    HW128880   1.667   3.426   6.662  1.4514  1.8460 -3.0697
 5748SOL    HW228881   1.579   3.467   6.768  1.2375  0.1479  0.7903
 5749SOL     OW28882   2.176   1.326  16.512  0.4226 -0.9949 -0.5441
 5749SOL    HW128883   2.099   1.307  16.565  1.7249 -1.3845  1.1874
 5749SOL    HW228884   2.163   1.417  16.486  2.1692 -1.0125 -1.5101
 5750SOL     OW28885   1.565   1.092   8.079 -0.0283  0.1600 -0.1022
 5750SOL    HW128886   1.591   1.158   8.144 -0.9371 -0.3022  0.7444
 5750SOL    HW228887   1.526   1.156   8.019  0.3742  0.2443 -0.2763
 5751SOL     OW28888   0.993   3.040   0.841  0.3510 -0.3737  0.1939
 5751SOL    HW128889   0.963   3.074   0.757 -0.4576  0.7699  0.9591
 5751SOL    HW228890   0.908   3.038   0.886  0.9675  0.3458  1.3878
 5752SOL     OW28891   1.511   4.493  16.699 -0.3764  0.2768  0.2069
 5752SOL    HW128892   1.555   4.448  16.626 -0.1170  1.1398 -0.1667
 5752SOL    HW228893   1.522   4.428  16.768  0.4522 -1.4472 -1.5300
 5753SOL     OW28894   3.727   3.669   5.866  0.1678 -0.2138  0.1617
 5753SOL    HW128895   3.706   3.751   5.822  2.2265 -0.1254 -0.6675
 5753SOL    HW228896   3.764   3.699   5.949  1.8095 -3.0267  0.4505
 5754SOL     OW28897   3.302   3.575  15.074  0.7310  0.3801  0.1019
 5754SOL    HW128898   3.358   3.526  15.134 -0.6410 -0.0911  0.9901
 5754SOL    HW228899   3.346   3.659  15.091  1.8174 -0.4365  1.3844
 5755SOL     OW28900   3.015   2.398   0.264  0.0246  0.1077  0.9120
 5755SOL    HW128901   2.930   2.414   0.305 -0.4495  0.5443 -0.2357
 5755SOL    HW228902   3.066   2.461   0.315  0.1640 -0.1726  1.1152
 5756SOL     OW28903   1.415   2.968   3.035  0.3322  0.1914 -0.3637
 5756SOL    HW128904   1.456   3.019   3.104 -1.8487 -1.1886  1.9473
 5756SOL    HW228905   1.488   2.968   2.973  0.2581 -1.0910 -0.4480
 5757SOL     OW28906   1.650   1.995   7.335  0.0247 -0.1789  0.2343
 5757SOL    HW128907   1.734   1.983   7.290 -0.7937 -0.5980 -1.1449
 5757SOL    HW228908   1.628   1.909   7.369  1.5812 -0.2808  1.0037
 5758SOL     OW28909   4.261   0.318   5.853 -0.1745  0.2261  0.4110
 5758SOL    HW128910   4.177   0.326   5.898 -0.2951  0.7817  0.0857
 5758SOL    HW228911   4.285   0.410   5.864  2.6184 -0.3831 -0.6121
 5759SOL     OW28912   4.013   1.297  15.707 -0.0320  0.0708  0.1154
 5759SOL    HW128913   4.101   1.310  15.742 -0.9137  1.3071  1.8444
 5759SOL    HW228914   3.984   1.386  15.725  0.2805  0.0312  0.8125
 5760SOL     OW28915   0.406   2.982   6.491  0.4496  0.1650 -0.3913
 5760SOL    HW128916   0.344   2.968   6.564  0.3126  1.2652 -0.3022
 5760SOL    HW228917   0.450   3.058   6.528 -0.2994  0.8678 -0.9403
 5761SOL     OW28918   3.046   0.699   2.738 -0.1983 -0.5711 -0.3916
 5761SOL    HW128919   3.083   0.660   2.817 -1.7663  1.5781  1.3697
 5761SOL    HW228920   2.961   0.655   2.728 -0.0086 -0.6468 -1.7185
 5762SOL     OW28921   0.281   4.550  14.597  0.0450 -0.1222 -0.1660
 5762SOL    HW128922   0.192   4.584  14.587  0.2337 -0.0852 -1.7413
 5762SOL    HW228923   0.331   4.604  14.535 -1.6288 -1.4023 -2.6359
 5763SOL     OW28924   2.779   2.807  17.334 -0.3797 -0.3035 -0.1119
 5763SOL    HW128925   2.770   2.745  17.406 -1.3653 -0.8254 -0.6862
 5763SOL    HW228926   2.862   2.785  17.291 -0.2402 -0.4586  0.2360
 5764SOL     OW28927   2.168   2.430   2.411 -0.0646 -0.1577 -0.2580
 5764SOL    HW128928   2.215   2.347   2.418 -1.0682 -0.6318  0.9393
 5764SOL    HW228929   2.096   2.402   2.468  0.1279  0.1747  0.1497
 5765SOL     OW28930   3.905   3.429   1.937 -0.2042 -0.2826  0.4562
 5765SOL    HW128931   3.929   3.484   2.012  0.4925  0.0794 -0.0307
 5765SOL    HW228932   3.979   3.446   1.879 -0.7794 -1.5057 -0.6164
 5766SOL     OW28933   0.817   2.999   5.629 -0.1234  0.3603 -0.0681
 5766SOL    HW128934   0.836   2.951   5.709  1.1298  0.0723 -0.5513
 5766SOL    HW228935   0.747   2.952   5.585  0.0519  0.3458 -0.3256
 5767SOL     OW28936   3.302   0.601   4.056  0.1673  0.3550 -0.0238
 5767SOL    HW128937   3.305   0.664   4.128 -0.6288 -1.3149  1.4929
 5767SOL    HW228938   3.264   0.519   4.089  1.4050 -0.3875 -0.4590
 5768SOL     OW28939   4.717   1.422  11.745 -0.1907 -0.1047  0.1913
 5768SOL    HW128940   0.045   1.467  11.798  0.5797 -1.3152  0.2686
 5768SOL    HW228941   4.705   1.339  11.791  1.7165 -0.1173  0.6698
 5769SOL     OW28942   3.209   0.398   4.269  0.4096 -0.2598  0.4803
 5769SOL    HW128943   3.235   0.433   4.354  0.8799  0.5041  0.0236
 5769SOL    HW228944   3.249   0.311   4.274 -0.1539 -0.4666  1.4346
 5770SOL     OW28945   4.404   0.948   4.855 -0.1037  0.7298 -0.0499
 5770SOL    HW128946   4.406   0.937   4.950  2.4737 -1.6003 -0.3601
 5770SOL    HW228947   4.482   0.905   4.821 -1.3627  0.2714 -2.4499
 5771SOL     OW28948   3.618   3.848   4.878  0.0480  0.2377  0.1343
 5771SOL    HW128949   3.696   3.864   4.824 -0.1136  2.3809  0.5219
 5771SOL    HW228950   3.666   3.848   4.962 -0.6711 -2.4646  0.5331
 5772SOL     OW28951   3.150   3.937   8.376  0.6208 -0.2681  0.3401
 5772SOL    HW128952   3.063   3.914   8.410  0.1352  1.7686  0.4463
 5772SOL    HW228953   3.184   3.847   8.370  0.8710 -0.0695 -0.9874
 5773SOL     OW28954   3.331   4.295   4.599 -0.0176  0.5070  0.3940
 5773SOL    HW128955   3.328   4.286   4.694 -1.3380  1.4351  0.4470
 5773SOL    HW228956   3.309   4.387   4.584 -1.0804  0.1505 -0.2178
 5774SOL     OW28957   2.786   0.023   5.790 -0.2590  0.2677 -0.4031
 5774SOL    HW128958   2.795   4.714   5.873 -1.6412 -1.1389 -1.0451
 5774SOL    HW228959   2.809   4.694   5.726 -0.9560 -1.8517  1.5917
 5775SOL     OW28960   1.846   2.864  14.897 -0.1432  0.3030 -0.1995
 5775SOL    HW128961   1.918   2.809  14.929 -1.9575 -2.2263 -0.5196
 5775SOL    HW228962   1.856   2.856  14.802 -0.2072  0.6942 -0.2385
 5776SOL     OW28963   1.658   0.321   3.352  0.0472  0.0607 -0.4387
 5776SOL    HW128964   1.631   0.347   3.439 -0.3608  0.4152 -0.6709
 5776SOL    HW228965   1.673   0.400   3.300 -3.2951  1.0953  0.1971
 5777SOL     OW28966   2.346   2.883   7.631  0.9244  0.6765 -0.0706
 5777SOL    HW128967   2.333   2.941   7.556  0.0489  1.3880  0.6396
 5777SOL    HW228968   2.272   2.822   7.624  1.9233 -0.4076 -1.2146
 5778SOL     OW28969   2.688   3.887   8.330 -0.6753  0.0478  0.6789
 5778SOL    HW128970   2.632   3.837   8.390 -0.1284 -1.3182  0.0493
 5778SOL    HW228971   2.775   3.850   8.346 -0.7487 -0.1586  0.6001
 5779SOL     OW28972   0.565   3.514   1.714  0.7177  0.2583  0.3527
 5779SOL    HW128973   0.581   3.560   1.631  0.6403 -2.2280 -1.0263
 5779SOL    HW228974   0.526   3.428   1.700 -2.0902  1.7647 -1.0167
 5780SOL     OW28975   2.887   0.707  16.486 -0.4456  0.6414 -0.1206
 5780SOL    HW128976   2.841   0.677  16.408  0.1805 -1.1585  0.2042
 5780SOL    HW228977   2.891   0.803  16.478 -0.0061  0.7152  0.9529
 5781SOL     OW28978   0.128   0.264   7.975 -0.4298 -0.2032  0.2851
 5781SOL    HW128979   0.096   0.208   7.905  1.2140 -1.4359  0.5369
 5781SOL    HW228980   0.093   0.352   7.958  2.2820  0.9617  0.6717
 5782SOL     OW28981   4.406   2.608   7.422 -0.3522  0.3661 -0.1954
 5782SOL    HW128982   4.445   2.686   7.382 -2.2396  0.9732 -0.8068
 5782SOL    HW228983   4.427   2.540   7.358  0.2371 -0.5941  1.0015
 5783SOL     OW28984   0.885   1.608  13.407  0.1581 -0.4831  0.1473
 5783SOL    HW128985   0.918   1.622  13.318 -0.5787 -2.0605 -0.3607
 5783SOL    HW228986   0.871   1.696  13.442  0.4573 -0.8129  1.0831
 5784SOL     OW28987   3.543   4.230   6.589  0.1937 -0.0847  0.0754
 5784SOL    HW128988   3.551   4.285   6.667 -0.8507 -1.9073  1.4781
 5784SOL    HW228989   3.539   4.297   6.521  1.1458 -0.0868  0.0214
 5785SOL     OW28990   3.936   0.029  14.937  0.1572  0.2754 -1.0689
 5785SOL    HW128991   3.879   0.090  14.891 -1.5703  0.8204  1.7548
 5785SOL    HW228992   4.017   0.080  14.935 -0.5241  1.3676 -1.0200
 5786SOL     OW28993   1.524   3.931   5.838 -0.3890 -0.2910 -0.4436
 5786SOL    HW128994   1.506   3.893   5.924 -0.6645  0.8360 -0.0052
 5786SOL    HW228995   1.603   3.981   5.856 -0.6193 -0.7949  1.9298
 5787SOL     OW28996   1.608   2.640   7.610  0.4164  0.1355 -0.0821
 5787SOL    HW128997   1.617   2.731   7.583  0.5971  0.6117  1.5881
 5787SOL    HW228998   1.538   2.613   7.551 -0.1207 -0.6488  0.9120
 5788SOL     OW28999   4.077   1.988   5.320 -0.0315 -0.5346 -0.2371
 5788SOL    HW129000   4.173   1.985   5.326 -0.2340 -0.7400  3.0678
 5788SOL    HW229001   4.070   2.032   5.236 -0.0450  1.9425  1.0735
 5789SOL     OW29002   3.801   4.351  11.000  0.3595 -0.3151 -0.0739
 5789SOL    HW129003   3.850   4.431  11.022  0.2773  0.2522 -2.0085
 5789SOL    HW229004   3.849   4.326  10.921 -2.9067 -0.2864 -2.0424
 5790SOL     OW29005   1.792   1.843  12.396 -0.4706 -0.3645  0.1614
 5790SOL    HW129006   1.781   1.938  12.396  3.1900  0.0806 -0.0463
 5790SOL    HW229007   1.701   1.817  12.387 -1.3766  2.0730  2.0194
 5791SOL     OW29008   1.660   4.573   4.955 -0.4774  0.4073 -0.1899
 5791SOL    HW129009   1.660   4.626   5.034  1.4833  0.9839 -0.5937
 5791SOL    HW229010   1.702   4.491   4.983 -1.5397  0.1466  0.6626
 5792SOL     OW29011   1.445   4.122   4.498  0.5063 -0.2192 -0.4103
 5792SOL    HW129012   1.514   4.171   4.543 -1.3284  2.1767 -0.2063
 5792SOL    HW229013   1.440   4.165   4.413  0.3842  1.0040  0.2154
 5793SOL     OW29014   4.150   2.639  17.376  0.0696 -0.1330  0.6889
 5793SOL    HW129015   4.187   2.701  17.439 -0.6803 -0.5337  1.5245
 5793SOL    HW229016   4.224   2.579  17.367  0.4350  0.2062  1.4046
 5794SOL     OW29017   1.599   3.884   3.620 -0.6333 -0.2698  0.3523
 5794SOL    HW129018   1.611   3.804   3.672  0.3332 -1.0165 -0.9858
 5794SOL    HW229019   1.509   3.905   3.642 -1.1716 -1.6972 -0.4601
 5795SOL     OW29020   1.690   0.429   2.970  0.2455 -0.0214  0.0742
 5795SOL    HW129021   1.649   0.343   2.958  3.7227 -1.9376  2.0813
 5795SOL    HW229022   1.667   0.482   2.893 -0.4116 -0.6243 -0.1420
 5796SOL     OW29023   0.167   3.199   5.571 -0.4001  0.1309 -0.0085
 5796SOL    HW129024   0.107   3.271   5.593  1.4423  1.4800  0.6282
 5796SOL    HW229025   0.221   3.228   5.497  1.6571 -1.8401  0.7471
 5797SOL     OW29026   3.913   0.585   3.019  0.1676  0.1348 -0.2334
 5797SOL    HW129027   3.861   0.636   3.081 -2.0840 -1.8188 -0.4834
 5797SOL    HW229028   3.845   0.518   3.010 -1.1355  1.6703 -1.7960
 5798SOL     OW29029   3.014   1.979   5.703 -0.6374  0.3196 -0.3200
 5798SOL    HW129030   2.931   1.945   5.668 -1.7393  1.2776  1.4080
 5798SOL    HW229031   3.060   2.009   5.624 -0.3821 -1.8780 -0.9982
 5799SOL     OW29032   1.375   1.064   9.051 -0.0099  0.0599 -0.1925
 5799SOL    HW129033   1.352   1.096   9.138  0.4933  0.6324 -0.2679
 5799SOL    HW229034   1.353   1.135   8.992  2.8382  1.9020  0.9350
 5800SOL     OW29035   0.744   1.949   4.318  0.5182 -0.2750  0.1761
 5800SOL    HW129036   0.657   1.911   4.332  0.4837 -0.4633 -0.5491
 5800SOL    HW229037   0.797   1.870   4.302 -0.0727 -1.1038  2.3685
 5801SOL     OW29038   3.943   2.733   3.090 -0.1546  0.2397  0.0073
 5801SOL    HW129039   3.911   2.788   3.019 -2.8861 -2.3840 -0.7937
 5801SOL    HW229040   3.931   2.648   3.046  0.5806 -1.6415  3.4162
 5802SOL     OW29041   4.494   1.865  13.503 -0.0124  0.5005 -0.3647
 5802SOL    HW129042   4.414   1.846  13.455  1.5514 -1.3619 -2.2156
 5802SOL    HW229043   4.482   1.812  13.582  0.9056  0.1251 -0.4740
 5803SOL     OW29044   3.547   3.516  10.797  0.4289 -0.8738  0.3498
 5803SOL    HW129045   3.456   3.525  10.824  0.0035 -1.3976 -0.9665
 5803SOL    HW229046   3.566   3.607  10.774 -0.9645 -1.5678 -3.3967
 5804SOL     OW29047   4.331   2.524   6.476  0.9070  0.2258  0.5749
 5804SOL    HW129048   4.358   2.470   6.402 -2.1824 -1.6578  0.8386
 5804SOL    HW229049   4.251   2.568   6.446 -0.0891 -0.5624  2.0618
 5805SOL     OW29050   0.774   2.359  12.879 -0.1979 -0.3313  0.3322
 5805SOL    HW129051   0.781   2.357  12.784 -0.0579  0.8237  0.3155
 5805SOL    HW229052   0.684   2.326  12.884 -1.0970  2.0104 -0.4559
 5806SOL     OW29053   3.540   4.137  13.877  0.6545 -0.2672 -0.5352
 5806SOL    HW129054   3.623   4.176  13.903 -0.7138  2.3424 -0.1436
 5806SOL    HW229055   3.520   4.110  13.967 -1.4461  0.4884 -0.7605
 5807SOL     OW29056   3.165   3.998   5.630 -0.1990 -0.3312 -0.0578
 5807SOL    HW129057   3.130   4.072   5.579  0.8093 -0.9861 -1.7211
 5807SOL    HW229058   3.174   4.037   5.716 -0.8606 -0.5687  0.1193
 5808SOL     OW29059   3.661   2.698  12.825  0.4848 -0.0029  0.4470
 5808SOL    HW129060   3.627   2.780  12.789 -0.4477 -1.1437 -1.2909
 5808SOL    HW229061   3.677   2.654  12.741  0.2454  2.1070 -0.7096
 5809SOL     OW29062   3.479   1.305  16.069 -0.0246 -0.3572 -0.3449
 5809SOL    HW129063   3.524   1.237  16.120  0.3325 -0.1154 -0.3370
 5809SOL    HW229064   3.419   1.245  16.026 -0.1395 -0.4461 -0.0634
 5810SOL     OW29065   1.181   3.642   0.041 -0.2744 -0.6340  0.4422
 5810SOL    HW129066   1.135   3.725   0.054  0.7107  0.0637 -0.5160
 5810SOL    HW229067   1.145   3.601   0.120 -2.0253  1.2368  0.6145
 5811SOL     OW29068   3.162   4.562   5.782 -0.2230 -0.2973  0.4590
 5811SOL    HW129069   3.074   4.551   5.816  1.0235 -0.7339  3.4783
 5811SOL    HW229070   3.211   4.601   5.854 -1.4477 -0.5324  1.4126
 5812SOL     OW29071   2.234   0.843   2.153 -0.0784  0.3406  0.4095
 5812SOL    HW129072   2.321   0.856   2.189 -0.1491  0.6126  0.4851
 5812SOL    HW229073   2.249   0.755   2.120 -2.8597  0.7159 -1.8917
 5813SOL     OW29074   2.549   2.103  12.482  0.2994 -0.2853  0.3308
 5813SOL    HW129075   2.622   2.165  12.490 -0.8557  1.3416 -1.8111
 5813SOL    HW229076   2.605   2.028  12.503 -0.4539 -0.4722  1.6797
 5814SOL     OW29077   0.573   0.275  10.642 -0.2944  0.4196  0.0330
 5814SOL    HW129078   0.550   0.249  10.731  0.1075 -0.6243 -0.1715
 5814SOL    HW229079   0.644   0.212  10.627 -1.9691 -1.0670 -1.6394
 5815SOL     OW29080   4.142   4.296   7.766 -0.5885 -0.0533 -0.0266
 5815SOL    HW129081   4.099   4.252   7.839 -1.2587  2.4069  1.0489
 5815SOL    HW229082   4.107   4.385   7.771  1.8330  0.8496  0.7121
 5816SOL     OW29083   2.277   3.709   5.198 -0.1246 -0.2166  0.4863
 5816SOL    HW129084   2.222   3.641   5.236 -2.4764  2.8566  2.5387
 5816SOL    HW229085   2.234   3.730   5.115 -0.7315 -2.0831  0.3287
 5817SOL     OW29086   0.101   4.127   5.436 -0.2141  0.0446  0.1355
 5817SOL    HW129087   0.007   4.136   5.452 -0.3769 -0.1063 -0.7221
 5817SOL    HW229088   0.095   4.051   5.379  0.2936 -0.5966  0.9468
 5818SOL     OW29089   1.441   3.386   4.610 -0.2396  0.4212  0.3269
 5818SOL    HW129090   1.387   3.382   4.689  1.2808 -2.2100  1.2116
 5818SOL    HW229091   1.491   3.305   4.617 -0.5185  0.1713 -0.6058
 5819SOL     OW29092   0.111   0.384   3.306  0.3191  0.2134  0.2473
 5819SOL    HW129093   0.193   0.433   3.295  1.7871 -2.2173  0.2029
 5819SOL    HW229094   0.056   0.439   3.361 -1.5326 -1.7295  0.3389
 5820SOL     OW29095   2.222   0.215  17.704 -0.3186  0.6196  0.2417
 5820SOL    HW129096   2.185   0.288   0.004 -2.7817 -0.4773  0.0188
 5820SOL    HW229097   2.148   0.155  17.694 -0.1651  0.4011  0.4028
 5821SOL     OW29098   0.149   0.369   5.472  0.2283 -0.3186  0.5106
 5821SOL    HW129099   0.149   0.445   5.413  2.4314  1.5711  2.9503
 5821SOL    HW229100   0.162   0.303   5.404  1.4544  1.5990 -1.1094
 5822SOL     OW29101   3.496   1.057   3.949  0.0103  0.1099 -0.7312
 5822SOL    HW129102   3.426   1.119   3.965  1.9494  1.8915  0.9356
 5822SOL    HW229103   3.446   0.976   3.959  1.6913 -0.5795  2.2939
 5823SOL     OW29104   0.870   2.491   3.220  0.2917  0.1855 -0.3294
 5823SOL    HW129105   0.903   2.490   3.309 -1.2667 -1.3226  0.2305
 5823SOL    HW229106   0.945   2.442   3.186 -0.9370 -0.6323 -1.9008
 5824SOL     OW29107   0.769   3.353   0.848 -0.7622 -0.2364 -0.4824
 5824SOL    HW129108   0.674   3.356   0.859 -0.9370 -4.1886 -0.7409
 5824SOL    HW229109   0.782   3.279   0.789 -0.0445  0.6994 -1.5065
 5825SOL     OW29110   0.376   1.469   2.809 -0.1114 -0.1594 -0.1760
 5825SOL    HW129111   0.461   1.471   2.853  0.4864 -3.8283 -1.1207
 5825SOL    HW229112   0.399   1.450   2.719  0.3262  0.1974 -0.1378
 5826SOL     OW29113   1.407   0.928   2.898  0.0034  0.4046 -0.4288
 5826SOL    HW129114   1.439   1.006   2.853  0.2779  0.7381  0.3455
 5826SOL    HW229115   1.453   0.954   2.978 -1.2982  1.1648  0.0639
 5827SOL     OW29116   2.525   3.610   4.777 -0.3182  0.2768 -0.1432
 5827SOL    HW129117   2.552   3.632   4.866 -1.4345 -0.9942  0.5089
 5827SOL    HW229118   2.576   3.677   4.733 -0.0527  0.3494  0.2759
 5828SOL     OW29119   4.697   3.735  12.621  0.1055  0.3270 -0.6487
 5828SOL    HW129120   0.035   3.771  12.575 -0.2559 -2.3709 -3.3138
 5828SOL    HW229121   4.733   3.673  12.685  1.1872  3.2060  1.5362
 5829SOL     OW29122   1.163   0.645  12.942 -0.2161 -0.3728 -0.3670
 5829SOL    HW129123   1.172   0.738  12.922 -0.3608 -0.4310 -0.7106
 5829SOL    HW229124   1.231   0.614  12.881  0.7846 -0.2076  0.6739
 5830SOL     OW29125   2.962   0.009   5.213  0.3258 -0.4265  0.4513
 5830SOL    HW129126   3.038   0.058   5.184 -0.1883 -0.7893 -1.5218
 5830SOL    HW229127   2.899   0.035   5.145 -0.8052 -1.9546  0.9082
 5831SOL     OW29128   0.088   2.609   4.734 -0.2591  0.0462  0.6237
 5831SOL    HW129129   0.070   2.700   4.756 -2.0002  0.6429 -3.1130
 5831SOL    HW229130   0.012   2.588   4.680 -0.7934 -0.7490  1.6953
 5832SOL     OW29131   0.122   2.363   4.339  0.0159  0.8369 -0.2251
 5832SOL    HW129132   0.106   2.444   4.388 -2.0147  0.3367 -0.0731
 5832SOL    HW229133   0.141   2.400   4.253 -1.0992  0.3342 -0.6907
 5833SOL     OW29134   0.745   0.451   2.012 -0.0771  0.5881  0.0476
 5833SOL    HW129135   0.839   0.444   2.027 -0.0137  1.5939  0.1067
 5833SOL    HW229136   0.735   0.520   1.947  1.3562 -0.4119 -1.2103
 5834SOL     OW29137   1.622   0.754   9.476 -0.1369  0.2630  0.1138
 5834SOL    HW129138   1.704   0.791   9.443 -0.9041  2.2674  0.5185
 5834SOL    HW229139   1.608   0.778   9.568 -0.0557  1.3681 -0.1698
 5835SOL     OW29140   3.366   4.243   8.945 -0.0176 -0.0041 -0.3631
 5835SOL    HW129141   3.385   4.189   8.868 -0.0039  2.5513 -2.1383
 5835SOL    HW229142   3.368   4.329   8.905  0.2329  0.8799  1.5467
 5836SOL     OW29143   4.340   0.051   4.904  0.1250  0.2051  0.9702
 5836SOL    HW129144   4.248   0.037   4.928  1.0422 -2.9595  2.7308
 5836SOL    HW229145   4.384   0.047   4.989 -1.7572 -2.1490  1.8445
 5837SOL     OW29146   2.284   1.064   5.670  0.1272 -0.0811  0.0909
 5837SOL    HW129147   2.250   0.974   5.678  0.3586 -0.1742  0.0281
 5837SOL    HW229148   2.207   1.119   5.659 -0.0240  0.1107  2.0313
 5838SOL     OW29149   4.601   0.133   8.674  0.6235  0.3390 -0.6545
 5838SOL    HW129150   4.620   0.078   8.750  0.4727  1.7356  0.3942
 5838SOL    HW229151   4.507   0.113   8.664  0.3883  1.4611 -0.6740
 5839SOL     OW29152   0.862   0.423   3.311 -0.0007  0.7235  0.4848
 5839SOL    HW129153   0.869   0.329   3.332 -1.6441  1.0848  2.6378
 5839SOL    HW229154   0.872   0.419   3.216 -0.7375  0.6363  0.4143
 5840SOL     OW29155   1.186   1.067   5.179  0.7881  0.2387  0.0244
 5840SOL    HW129156   1.244   1.143   5.182  1.9036 -0.5502 -1.2865
 5840SOL    HW229157   1.115   1.110   5.131  0.1673 -2.7526 -1.7553
 5841SOL     OW29158   1.308   0.338  15.228  0.0103 -0.0280 -0.3725
 5841SOL    HW129159   1.391   0.292  15.239 -0.9043 -0.9827  2.8132
 5841SOL    HW229160   1.292   0.318  15.136 -1.3847  2.4815 -0.6654
 5842SOL     OW29161   2.069   4.207   3.463  0.0648  0.3439 -0.2511
 5842SOL    HW129162   2.102   4.122   3.491  0.4049  0.2259 -1.0302
 5842SOL    HW229163   2.137   4.244   3.407 -0.9476  3.5989  0.6275
 5843SOL     OW29164   0.425   2.823   9.548 -0.0455  0.0939 -0.0851
 5843SOL    HW129165   0.354   2.887   9.541 -0.6908 -0.6872 -0.7610
 5843SOL    HW229166   0.468   2.840   9.465 -0.4247 -0.9968 -0.5030
 5844SOL     OW29167   0.167   0.982   3.565 -0.0690 -0.0483  0.5911
 5844SOL    HW129168   0.155   0.998   3.659  0.4311  2.7012  0.1915
 5844SOL    HW229169   0.138   1.065   3.527 -2.5432 -1.1475  0.0861
 5845SOL     OW29170   3.217   3.680   1.483  0.1706  0.5624 -0.7938
 5845SOL    HW129171   3.170   3.606   1.524  3.1154 -0.6889  0.3149
 5845SOL    HW229172   3.296   3.632   1.459  2.0738  2.3478  1.9994
 5846SOL     OW29173   0.159   0.837   5.596 -0.0656  0.2520  0.2303
 5846SOL    HW129174   0.121   0.793   5.520 -1.5569 -0.5484  1.4284
 5846SOL    HW229175   0.215   0.906   5.560 -1.4096  0.8666 -0.6758
 5847SOL     OW29176   3.864   3.385  13.036 -0.0794  0.3413 -0.2987
 5847SOL    HW129177   3.882   3.455  13.099  2.2323 -0.4631 -0.0670
 5847SOL    HW229178   3.922   3.319  13.075 -1.0391 -0.4818 -0.2316
 5848SOL     OW29179   3.357   4.639   5.431 -0.2377  0.8151  0.3326
 5848SOL    HW129180   3.346   4.598   5.344  1.5565 -2.0086  1.4496
 5848SOL    HW229181   3.267   4.619   5.456 -0.2835  4.1868  2.7561
 5849SOL     OW29182   4.231   2.334   3.275  0.0758  0.5257 -0.1821
 5849SOL    HW129183   4.199   2.296   3.357  0.3919  0.1578 -0.2281
 5849SOL    HW229184   4.315   2.289   3.277  0.3727  1.1261  1.0010
 5850SOL     OW29185   1.005   1.489   1.413  0.0767  0.0125  0.3035
 5850SOL    HW129186   1.054   1.449   1.341 -0.1093 -0.6778  0.5609
 5850SOL    HW229187   1.077   1.519   1.468  1.5408 -0.3815 -1.3834
 5851SOL     OW29188   1.511   1.533   8.468  0.1925 -0.1958  0.1504
 5851SOL    HW129189   1.478   1.523   8.379  0.7936 -0.9862  0.0204
 5851SOL    HW229190   1.533   1.626   8.462 -2.7150  0.2819 -2.8318
 5852SOL     OW29191   0.649   4.422   9.031 -0.3568 -0.6838  0.2689
 5852SOL    HW129192   0.700   4.461   9.102  1.8520 -0.6197 -1.3193
 5852SOL    HW229193   0.702   4.343   9.019 -2.6076 -2.2157  0.6005
 5853SOL     OW29194   2.674   4.266  10.460  0.4103  0.4102  0.0590
 5853SOL    HW129195   2.756   4.222  10.484  0.2049  1.7817  3.3069
 5853SOL    HW229196   2.644   4.207  10.392 -0.8004  0.8410  0.2326
 5854SOL     OW29197   0.446   0.955   2.421  0.2150 -0.3648  0.8893
 5854SOL    HW129198   0.382   1.026   2.419  1.9331  1.1543 -1.2104
 5854SOL    HW229199   0.427   0.912   2.338  0.1907  0.4307  0.4848
 5855SOL     OW29200   0.707   1.221  17.629 -0.4705  0.0954  0.0800
 5855SOL    HW129201   0.664   1.186  17.707  0.7611 -4.5502 -1.3079
 5855SOL    HW229202   0.717   1.144  17.573 -3.7562 -0.3813  0.1346
 5856SOL     OW29203   0.573   0.597   5.929  0.1111 -0.0932  0.5890
 5856SOL    HW129204   0.576   0.676   5.982 -0.3659  0.5022 -0.2607
 5856SOL    HW229205   0.553   0.535   5.999  2.4914 -2.4030 -0.7593
 5857SOL     OW29206   2.251   4.243   6.790  0.0371 -0.6452 -0.2037
 5857SOL    HW129207   2.312   4.294   6.735 -1.0331 -1.3313 -2.0404
 5857SOL    HW229208   2.300   4.238   6.872 -1.1904  1.2630  0.6475
 5858SOL     OW29209   1.824   1.263  17.564  0.3678  0.4327 -0.2054
 5858SOL    HW129210   1.788   1.269  17.653 -1.5134 -0.8520 -0.8831
 5858SOL    HW229211   1.753   1.216  17.520  0.4058  1.7001 -1.6095
 5859SOL     OW29212   4.509   1.322   7.320  0.4956  0.2490  0.0459
 5859SOL    HW129213   4.513   1.388   7.389  1.2372  0.7357 -0.4664
 5859SOL    HW229214   4.560   1.370   7.254  0.6912 -1.2033 -0.8786
 5860SOL     OW29215   3.824   4.041   2.387 -0.1771  0.2212  0.1291
 5860SOL    HW129216   3.871   4.000   2.314  2.2672 -2.7827  3.3432
 5860SOL    HW229217   3.902   4.058   2.440 -0.2874 -1.7910  0.9593
 5861SOL     OW29218   4.391   3.988   8.137 -0.3107 -0.7683  0.3723
 5861SOL    HW129219   4.432   3.902   8.124 -1.3077 -0.6232 -3.9328
 5861SOL    HW229220   4.416   4.004   8.228 -0.9654 -0.6041  0.5213
 5862SOL     OW29221   2.791   2.761   6.668 -0.0872  0.1538 -0.4362
 5862SOL    HW129222   2.776   2.815   6.746 -0.6755 -2.8164  1.5099
 5862SOL    HW229223   2.773   2.674   6.703 -2.2214  0.2258 -1.3713
 5863SOL     OW29224   2.768   4.234   7.123  0.4135 -0.1183 -0.2036
 5863SOL    HW129225   2.807   4.302   7.068 -0.7021 -1.3381 -2.5042
 5863SOL    HW229226   2.778   4.152   7.075 -0.7070  1.8815 -3.8673
 5864SOL     OW29227   2.766   3.505   6.532 -0.2920  0.6092  0.2627
 5864SOL    HW129228   2.706   3.555   6.588  2.2436  2.3842  1.3591
 5864SOL    HW229229   2.820   3.474   6.605 -0.5165  2.2672  1.1213
 5865SOL     OW29230   0.343   4.633   2.359  0.0161  0.2207  0.0589
 5865SOL    HW129231   0.356   4.707   2.300 -2.3610  1.4783  1.1079
 5865SOL    HW229232   0.429   4.590   2.361  0.3505  0.9252  1.1761
 5866SOL     OW29233   1.391   0.430  11.655  0.2648 -0.1981  0.2962
 5866SOL    HW129234   1.393   0.344  11.613 -0.5661  0.2573 -0.6715
 5866SOL    HW229235   1.301   0.455  11.673  1.2557  2.2685  1.8529
 5867SOL     OW29236   3.480   1.403   7.574  0.0967  0.1500 -0.0838
 5867SOL    HW129237   3.571   1.402   7.544 -0.0731 -0.5900 -0.5571
 5867SOL    HW229238   3.504   1.417   7.666 -0.8572 -1.3310  0.3768
 5868SOL     OW29239   3.995   0.829   2.918  0.1336  0.2352  0.1862
 5868SOL    HW129240   4.002   0.736   2.941 -5.5375 -0.8367 -2.1937
 5868SOL    HW229241   4.042   0.875   2.987  0.0730  0.0314  0.3627
 5869SOL     OW29242   2.119   3.715  10.663 -0.8463 -0.2293  0.0668
 5869SOL    HW129243   2.034   3.725  10.707 -1.6290 -1.3351 -1.2086
 5869SOL    HW229244   2.078   3.679  10.585 -0.6782 -0.4970  0.0991
 5870SOL     OW29245   3.749   4.000  10.392  0.0990 -0.0552  0.6812
 5870SOL    HW129246   3.773   4.052  10.316 -0.5896  1.9158  1.8107
 5870SOL    HW229247   3.766   4.054  10.470  1.8077  1.3095 -0.6156
 5871SOL     OW29248   4.528   1.338   5.236  0.6051  0.4189 -0.1977
 5871SOL    HW129249   4.541   1.311   5.327 -1.5198 -0.6000 -0.1904
 5871SOL    HW229250   4.457   1.281   5.205 -0.2065  0.8659  0.8009
 5872SOL     OW29251   1.022   2.443   8.786  0.2097  0.2294 -0.3772
 5872SOL    HW129252   1.061   2.378   8.727 -1.3144 -0.1205 -0.9924
 5872SOL    HW229253   1.034   2.523   8.734  0.4771  0.0551 -0.5815
 5873SOL     OW29254   1.035   1.260   4.626  0.2310 -0.2826 -0.1618
 5873SOL    HW129255   1.072   1.347   4.640  2.0242 -1.1702  0.6679
 5873SOL    HW229256   1.036   1.255   4.531  1.9792 -1.2691 -0.0849
 5874SOL     OW29257   1.590   0.748   4.078 -0.2051 -0.5669  0.1500
 5874SOL    HW129258   1.533   0.745   4.155  1.0899  0.0969  1.1518
 5874SOL    HW229259   1.665   0.691   4.096  2.1777  2.1044 -1.2186
 5875SOL     OW29260   3.819   0.423   6.809  0.2690  0.0824 -0.2327
 5875SOL    HW129261   3.898   0.370   6.824  0.9407  0.9397 -0.7609
 5875SOL    HW229262   3.766   0.398   6.884  0.7895  0.2904  0.2053
 5876SOL     OW29263   1.125   1.608  12.339  0.2297  0.1705 -0.1296
 5876SOL    HW129264   1.112   1.703  12.347  0.2410  0.0232  1.8455
 5876SOL    HW229265   1.219   1.609  12.319  0.1656  0.8947 -0.4073
 5877SOL     OW29266   1.228   4.235   5.466  0.2044 -0.0247  0.0689
 5877SOL    HW129267   1.323   4.221   5.473  0.2954  0.4000 -0.2730
 5877SOL    HW229268   1.212   4.205   5.377 -0.6987  1.9977 -0.4548
 5878SOL     OW29269   1.946   3.248   7.940 -0.4767 -0.4261 -0.4176
 5878SOL    HW129270   1.879   3.183   7.917  0.4266 -0.9948 -1.4268
 5878SOL    HW229271   1.946   3.302   7.860  4.8636  0.7486  0.4012
 5879SOL     OW29272   1.680   0.357   6.080  0.4389 -0.1888 -0.0970
 5879SOL    HW129273   1.604   0.377   6.136 -0.2623 -0.5489 -0.9241
 5879SOL    HW229274   1.686   0.262   6.079 -0.6081 -0.2127 -3.1913
 5880SOL     OW29275   0.127   2.485   8.034 -0.1858 -0.0117 -0.0055
 5880SOL    HW129276   0.084   2.400   8.028  1.0694 -0.8131  2.7029
 5880SOL    HW229277   0.171   2.481   8.118 -1.0721 -0.5529  0.4261
 5881SOL     OW29278   0.792   4.490   2.973  0.1583 -0.3596 -0.5753
 5881SOL    HW129279   0.727   4.448   3.030  0.8989 -1.1639 -0.3238
 5881SOL    HW229280   0.748   4.496   2.889 -0.8662 -0.2142 -0.0251
 5882SOL     OW29281   3.788   2.967   8.900  0.5333  0.0739 -0.8036
 5882SOL    HW129282   3.760   2.984   8.810 -1.9596  1.7286  0.2919
 5882SOL    HW229283   3.762   2.875   8.896 -1.3560  0.5130  1.8039
 5883SOL     OW29284   1.620   3.211   2.678 -0.3074  0.1823 -0.5089
 5883SOL    HW129285   1.593   3.279   2.739 -0.7478 -0.6866  0.2450
 5883SOL    HW229286   1.714   3.210   2.697 -0.1025 -1.1799 -1.6077
 5884SOL     OW29287   3.952   1.693  10.626  0.6847 -0.1748 -0.4270
 5884SOL    HW129288   3.880   1.641  10.591 -1.0316  2.7712 -1.2976
 5884SOL    HW229289   3.929   1.780  10.593 -0.0705  0.5604  1.9596
 5885SOL     OW29290   0.239   0.094   7.445  0.0050  0.6757  0.3510
 5885SOL    HW129291   0.209   0.086   7.355  0.7608  0.6115  0.1074
 5885SOL    HW229292   0.330   0.068   7.433  0.1813  1.5868 -0.2636
 5886SOL     OW29293   3.009   2.318   4.464 -0.3550  0.4739  0.0983
 5886SOL    HW129294   2.999   2.289   4.555 -1.6267 -0.9538 -0.5079
 5886SOL    HW229295   2.978   2.244   4.412  0.8273  0.6715 -0.9087
 5887SOL     OW29296   1.564   0.412   7.232 -0.4189 -1.0840 -0.9981
 5887SOL    HW129297   1.653   0.378   7.238 -0.0554  0.0158 -0.1067
 5887SOL    HW229298   1.559   0.465   7.152 -1.7418  0.2154 -0.0719
 5888SOL     OW29299   2.495   0.844   2.297 -0.6092 -0.1831 -0.1262
 5888SOL    HW129300   2.555   0.911   2.330  0.5501 -1.1187 -0.3392
 5888SOL    HW229301   2.479   0.805   2.383 -0.7804 -1.0781 -0.5587
 5889SOL     OW29302   0.690   2.141   7.805  0.3095 -0.0058  0.3511
 5889SOL    HW129303   0.669   2.143   7.898 -0.3462 -0.2308  0.2109
 5889SOL    HW229304   0.612   2.189   7.778  0.6278 -0.9706 -2.3028
 5890SOL     OW29305   3.763   1.434   8.066 -0.2722 -0.0510 -0.0386
 5890SOL    HW129306   3.719   1.424   8.150  0.5274 -0.3648  0.3382
 5890SOL    HW229307   3.826   1.363   8.062 -0.9425 -0.6422  0.0092
 5891SOL     OW29308   0.059   2.949   3.838  0.0997 -0.1614 -0.7411
 5891SOL    HW129309   0.023   3.029   3.878 -2.7769 -0.8833 -1.9447
 5891SOL    HW229310   4.723   2.897   3.869  1.3704 -1.4076  0.2233
 5892SOL     OW29311   3.836   3.696   2.353 -0.0214 -0.0908 -0.3089
 5892SOL    HW129312   3.843   3.710   2.448  2.1746  2.1985 -0.8149
 5892SOL    HW229313   3.921   3.730   2.325  0.2978 -0.4445  0.2485
 5893SOL     OW29314   0.232   0.568   5.284 -0.1861 -0.0445  0.3082
 5893SOL    HW129315   0.281   0.501   5.237 -1.7259 -1.8622  1.2939
 5893SOL    HW229316   0.247   0.643   5.226  1.1521  0.0397  0.7657
 5894SOL     OW29317   3.325   3.412   7.002 -0.5500 -0.2566  0.5231
 5894SOL    HW129318   3.354   3.472   6.933 -2.6275 -0.7198 -0.7577
 5894SOL    HW229319   3.328   3.326   6.960  1.6281 -1.5449  3.2910
 5895SOL     OW29320   1.706   3.729   2.940 -0.2204  0.1094  0.2808
 5895SOL    HW129321   1.616   3.697   2.942 -0.1533 -0.0235  1.0582
 5895SOL    HW229322   1.747   3.656   2.986 -0.2615  0.2620  0.5636
 5896SOL     OW29323   4.254   4.297   9.707  0.2361 -0.1223  0.1052
 5896SOL    HW129324   4.210   4.374   9.745 -1.4122 -1.5932  1.1926
 5896SOL    HW229325   4.311   4.343   9.645 -0.7847  1.2724  0.1775
 5897SOL     OW29326   0.143   3.908   8.867 -0.3605  0.5881 -0.7050
 5897SOL    HW129327   0.054   3.904   8.831 -0.0483  0.1494 -1.4232
 5897SOL    HW229328   0.132   3.884   8.959  0.3862 -1.3760 -1.1340
 5898SOL     OW29329   1.613   2.827   8.682  0.0222 -0.2000 -0.4715
 5898SOL    HW129330   1.524   2.823   8.717  0.3918 -0.4940  0.4346
 5898SOL    HW229331   1.623   2.747   8.631  1.7596 -1.4362  1.7913
 5899SOL     OW29332   0.280   1.927   3.920 -0.0022 -0.0139  0.4642
 5899SOL    HW129333   0.210   1.877   3.877  1.0785 -1.0908 -0.0440
 5899SOL    HW229334   0.223   1.992   3.961  2.1972  1.5876  0.9586
 5900SOL     OW29335   2.230   3.928   3.843 -0.3473  0.8331  0.3392
 5900SOL    HW129336   2.194   3.924   3.754  1.8607  1.4863 -0.5832
 5900SOL    HW229337   2.186   3.851   3.881  1.9326  1.3531  4.0305
 5901SOL     OW29338   1.166   2.862   1.487 -0.1849  0.3328 -0.2501
 5901SOL    HW129339   1.108   2.810   1.542  1.5240 -0.3477  0.9070
 5901SOL    HW229340   1.108   2.923   1.440 -0.6014  0.5232  0.5174
 5902SOL     OW29341   4.220   0.905   9.397 -0.1594  0.1389 -0.2529
 5902SOL    HW129342   4.185   0.994   9.395  0.1538  0.2868  1.0446
 5902SOL    HW229343   4.261   0.905   9.484 -0.8909  0.5782  0.0854
 5903SOL     OW29344   3.051   2.482  10.230 -0.5184  0.4485 -0.3041
 5903SOL    HW129345   3.041   2.387  10.230  1.2109  0.2438  1.8816
 5903SOL    HW229346   3.141   2.492  10.262 -0.1923 -1.3661 -0.6628
 5904SOL     OW29347   3.335   3.208   4.742  0.3110 -0.4024  0.0843
 5904SOL    HW129348   3.255   3.170   4.778 -0.1774 -1.4176 -2.0699
 5904SOL    HW229349   3.394   3.191   4.816  1.6271  2.3270 -0.3334
 5905SOL     OW29350   2.519   0.198   3.461  0.6367 -0.0999 -0.4435
 5905SOL    HW129351   2.494   0.136   3.392  0.4283 -0.6273  0.1062
 5905SOL    HW229352   2.613   0.184   3.463  0.3798 -2.0826 -2.1899
 5906SOL     OW29353   3.908   4.510   1.956  0.0238  0.2387  0.1929
 5906SOL    HW129354   3.815   4.511   1.981 -0.1628 -2.3047 -0.3732
 5906SOL    HW229355   3.902   4.470   1.869 -1.8865  1.0975 -0.0761
 5907SOL     OW29356   1.897   1.864   1.211 -0.4817  0.1283 -0.0583
 5907SOL    HW129357   1.814   1.885   1.254  1.2391  0.9918  2.8127
 5907SOL    HW229358   1.939   1.950   1.209  0.6649 -0.3990  0.7637
 5908SOL     OW29359   2.161   3.245   7.584 -0.2886 -0.5324  0.4890
 5908SOL    HW129360   2.144   3.290   7.667  0.1799 -0.1660  0.3859
 5908SOL    HW229361   2.131   3.163   7.623  0.4405  0.4915  3.1930
 5909SOL     OW29362   2.648   1.531  16.498  0.1030 -0.8650  0.4294
 5909SOL    HW129363   2.625   1.559  16.409  1.5871  2.2059  1.0104
 5909SOL    HW229364   2.616   1.441  16.501 -0.9285 -0.4465  1.8977
 5910SOL     OW29365   1.275   1.286   9.912 -0.5792  0.4362 -0.4389
 5910SOL    HW129366   1.347   1.275   9.851  0.0822  2.4185 -0.0012
 5910SOL    HW229367   1.228   1.204   9.929 -0.3405  0.2051 -0.9178
 5911SOL     OW29368   0.446   1.747   3.273 -0.1198  0.3392  0.3498
 5911SOL    HW129369   0.362   1.712   3.242 -0.6724  0.2513  1.9367
 5911SOL    HW229370   0.460   1.827   3.224 -2.0506 -0.1157 -0.9683
 5912SOL     OW29371   1.238   1.668   0.030 -0.0189 -0.4950  0.1602
 5912SOL    HW129372   1.224   1.723  17.702  0.6935 -0.9886 -0.3274
 5912SOL    HW229373   1.325   1.703   0.050 -0.1533 -0.1442  0.1227
 5913SOL     OW29374   0.461   2.831   1.903 -0.0539 -0.0059 -0.2264
 5913SOL    HW129375   0.433   2.769   1.836 -0.0803  0.8129 -0.9688
 5913SOL    HW229376   0.387   2.891   1.903  0.3472  0.4869 -1.5944
 5914SOL     OW29377   3.645   2.435   5.666 -0.1981  0.5555 -0.6285
 5914SOL    HW129378   3.726   2.446   5.617  0.5578 -0.0083  0.4700
 5914SOL    HW229379   3.634   2.528   5.688  0.2675 -0.2185  2.9517
 5915SOL     OW29380   3.040   2.685   3.508 -0.7333  0.1914 -0.5565
 5915SOL    HW129381   2.998   2.769   3.528 -2.1671 -0.2820 -1.6263
 5915SOL    HW229382   3.005   2.676   3.420  0.5295  0.1481 -1.0369
 5916SOL     OW29383   2.206   0.287  14.301 -0.1505 -0.6441  0.0131
 5916SOL    HW129384   2.288   0.284  14.350  0.6301  0.7144 -1.1940
 5916SOL    HW229385   2.142   0.323  14.363 -0.2937 -1.6914  0.4773
 5917SOL     OW29386   3.922   0.079  10.040 -0.4051 -0.9357 -0.0497
 5917SOL    HW129387   3.949   0.047  10.126  1.9396  3.4439  0.8139
 5917SOL    HW229388   3.990   0.143  10.020 -1.5911  0.3879  0.1980
 5918SOL     OW29389   0.840   1.436   5.871 -0.0136  0.4492 -0.5307
 5918SOL    HW129390   0.795   1.451   5.788  0.1789 -1.7653 -1.0465
 5918SOL    HW229391   0.907   1.503   5.871  0.1503  0.2789  0.8611
 5919SOL     OW29392   2.216   1.843  15.040 -0.0954 -0.2045  0.0559
 5919SOL    HW129393   2.125   1.855  15.014 -0.1758 -0.1831  0.3457
 5919SOL    HW229394   2.266   1.895  14.978 -0.5418  1.3578  0.9968
 5920SOL     OW29395   1.965   4.421   4.114  0.4398 -0.0903  0.0832
 5920SOL    HW129396   1.871   4.404   4.109  0.2106  0.8090  1.4255
 5920SOL    HW229397   2.003   4.422   4.026 -0.7997 -3.2779 -0.4919
 5921SOL     OW29398   0.307   2.338   0.377 -0.4109  0.0514  0.0117
 5921SOL    HW129399   0.297   2.259   0.325  0.6529  0.4104 -0.7609
 5921SOL    HW229400   0.232   2.396   0.363 -0.3635  0.1982  0.3447
 5922SOL     OW29401   1.436   0.587   5.627  0.8557 -0.4409 -0.3335
 5922SOL    HW129402   1.498   0.560   5.694  2.9990 -0.8195 -2.4506
 5922SOL    HW229403   1.454   0.679   5.609  1.2662 -0.3150  0.7502
 5923SOL     OW29404   0.526   0.821  15.920 -0.4229 -0.0134  0.4574
 5923SOL    HW129405   0.441   0.815  15.964 -0.3946  0.9682  0.6430
 5923SOL    HW229406   0.544   0.741  15.870  1.3565  1.0497 -0.5878
 5924SOL     OW29407   3.069   1.245   6.430 -0.0399  0.2200 -0.4381
 5924SOL    HW129408   3.092   1.152   6.437  2.1833  0.8189  0.0927
 5924SOL    HW229409   3.017   1.263   6.508 -1.8840 -1.0887 -1.3682
 5925SOL     OW29410   0.716   2.911   4.932  0.1858 -0.3708  0.5071
 5925SOL    HW129411   0.739   2.822   4.960  1.7858 -0.9190 -2.5410
 5925SOL    HW229412   0.802   2.951   4.942 -0.5034  1.0920  0.4609
 5926SOL     OW29413   1.913   0.754   9.801 -0.3902  0.0742  0.3575
 5926SOL    HW129414   1.947   0.664   9.800  1.2500  0.7492 -2.7560
 5926SOL    HW229415   1.826   0.737   9.765 -0.9605  0.6379  1.4695
 5927SOL     OW29416   4.477   2.134   5.605  0.4947 -0.6137  0.6939
 5927SOL    HW129417   4.565   2.121   5.641  0.9003 -0.2900 -0.1771
 5927SOL    HW229418   4.426   2.118   5.685 -0.7567  1.0143  0.2286
 5928SOL     OW29419   3.329   2.030   6.737  0.5509 -0.1294  0.2490
 5928SOL    HW129420   3.252   2.011   6.684  0.1407  3.9984 -0.6075
 5928SOL    HW229421   3.344   2.121   6.712 -0.5792 -0.0741 -0.2189
 5929SOL     OW29422   0.195   4.273   6.921 -0.1093 -0.2775  0.4457
 5929SOL    HW129423   0.120   4.301   6.869  0.0645 -1.4099 -0.4187
 5929SOL    HW229424   0.264   4.259   6.856 -0.0146  1.8865  0.0837
 5930SOL     OW29425   2.970   0.227   9.792  0.3142  0.6813 -0.6696
 5930SOL    HW129426   2.881   0.209   9.823  0.3790  0.7952 -0.4157
 5930SOL    HW229427   2.948   0.287   9.721 -0.0576  0.8914 -0.3769
 5931SOL     OW29428   0.370   3.803   7.722  0.4907 -0.2656  0.0147
 5931SOL    HW129429   0.404   3.757   7.645 -1.5200 -0.6288 -0.6471
 5931SOL    HW229430   0.382   3.894   7.694 -0.3406 -0.1139  0.1376
 5932SOL     OW29431   3.001   2.898   7.569  0.3437 -0.0086  0.3102
 5932SOL    HW129432   2.944   2.824   7.590 -0.4772  0.1171 -1.4887
 5932SOL    HW229433   3.079   2.885   7.623  0.4457  0.1275  0.1931
 5933SOL     OW29434   3.243   1.248  11.964  0.0770 -0.1085  0.1461
 5933SOL    HW129435   3.231   1.325  12.020  4.1354  1.7929 -1.6385
 5933SOL    HW229436   3.277   1.182  12.024  0.0219  0.0861  0.3948
 5934SOL     OW29437   3.372   2.018   5.456 -0.6852  0.3769 -0.2413
 5934SOL    HW129438   3.319   1.939   5.446 -1.7804  1.0371  0.3618
 5934SOL    HW229439   3.422   2.026   5.375  2.7691  0.1211  1.8759
 5935SOL     OW29440   3.235   0.249  12.217 -0.2742  0.3389  0.2696
 5935SOL    HW129441   3.331   0.253  12.222 -0.1623 -1.7259  0.1113
 5935SOL    HW229442   3.210   0.207  12.134  2.3294 -1.9615  0.6225
 5936SOL     OW29443   4.262   1.744   7.308 -0.0779 -0.7682 -0.0708
 5936SOL    HW129444   4.287   1.835   7.299  1.0568 -0.9427  1.4394
 5936SOL    HW229445   4.338   1.718   7.360  0.8053 -0.4713 -1.2085
 5937SOL     OW29446   1.937   0.313  13.531  0.0560 -0.0598  0.0123
 5937SOL    HW129447   1.875   0.374  13.571  2.4258  1.3400  1.4720
 5937SOL    HW229448   2.024   0.348  13.549 -0.6295  1.8368 -0.4037
 5938SOL     OW29449   2.570   0.316   0.768  0.5177  0.0891 -0.0624
 5938SOL    HW129450   2.576   0.221   0.778 -2.3720 -0.0999 -0.0003
 5938SOL    HW229451   2.535   0.307   0.679  2.4346  0.5806 -0.8599
 5939SOL     OW29452   3.797   2.078   6.034  0.2147 -0.0521  0.5720
 5939SOL    HW129453   3.746   2.139   5.980  2.6222  0.9608 -0.5634
 5939SOL    HW229454   3.743   2.071   6.112 -2.6448  0.6067 -1.3591
 5940SOL     OW29455   1.988   2.310   2.587 -0.3057  0.3203  0.2888
 5940SOL    HW129456   1.937   2.369   2.641 -1.0130  2.1949 -2.4170
 5940SOL    HW229457   1.919   2.249   2.559  0.8518 -1.6882  1.7975
 5941SOL     OW29458   2.637   2.702  12.913 -0.2218  0.5596  0.3503
 5941SOL    HW129459   2.641   2.677  12.821  0.8731 -1.4452  0.9593
 5941SOL    HW229460   2.545   2.712  12.937  0.5813 -0.1474  3.7694
 5942SOL     OW29461   4.221   0.495   4.347  0.6640 -0.5408  0.2665
 5942SOL    HW129462   4.137   0.466   4.383  1.0726 -2.9971 -0.7478
 5942SOL    HW229463   4.186   0.563   4.290 -1.4017 -1.2020  0.7320
 5943SOL     OW29464   4.391   4.249   7.388  0.2722  0.1731 -0.1668
 5943SOL    HW129465   4.296   4.243   7.378  0.2703 -0.7420  0.4086
 5943SOL    HW229466   4.389   4.280   7.479 -1.1727 -0.3010 -0.0392
 5944SOL     OW29467   2.149   1.833   3.426  0.1671  0.3035  0.6051
 5944SOL    HW129468   2.060   1.796   3.422 -0.1151  0.9554  0.8160
 5944SOL    HW229469   2.133   1.917   3.468  3.0834  0.4657  1.3417
 5945SOL     OW29470   1.498   0.712  16.373 -0.4951  0.2651  0.2372
 5945SOL    HW129471   1.532   0.799  16.354 -0.6486 -0.1922 -2.1634
 5945SOL    HW229472   1.573   0.663  16.405 -0.4669  0.0353 -0.1727
 5946SOL     OW29473   4.069   1.435   9.801  0.1941 -0.0902  0.6340
 5946SOL    HW129474   4.037   1.408   9.888 -0.9030  2.4841  1.0260
 5946SOL    HW229475   4.033   1.363   9.749  0.7605  1.0995 -1.4068
 5947SOL     OW29476   4.685   1.236   0.228  0.5163 -0.1140 -0.0458
 5947SOL    HW129477   4.621   1.176   0.190 -0.3137  0.2174  0.8026
 5947SOL    HW229478   4.691   1.195   0.315 -0.8421  0.8793  0.5220
 5948SOL     OW29479   3.943   4.419   9.798 -0.0261  0.1305 -0.5718
 5948SOL    HW129480   3.904   4.401   9.712 -1.0205 -2.4258  0.4019
 5948SOL    HW229481   3.876   4.390   9.861 -0.8664 -0.9440 -1.9575
 5949SOL     OW29482   0.007   3.989   1.898 -0.3273  0.5469 -0.1578
 5949SOL    HW129483   4.684   3.930   1.854 -3.2149  2.8428  0.7323
 5949SOL    HW229484   0.085   3.933   1.889 -0.0790  1.0752 -1.2916
 5950SOL     OW29485   3.247   2.797   5.517 -0.4892 -0.6430 -0.1816
 5950SOL    HW129486   3.227   2.850   5.439 -1.3000 -0.5080  0.1229
 5950SOL    HW229487   3.167   2.767   5.559 -0.1854  1.4293  1.8688
 5951SOL     OW29488   2.438   2.872  16.193 -0.4732 -0.4866 -0.2454
 5951SOL    HW129489   2.358   2.909  16.230 -1.6876 -0.5154 -2.8389
 5951SOL    HW229490   2.487   2.871  16.275 -0.2919 -3.9462 -0.3790
 5952SOL     OW29491   2.617   1.839  12.512  0.0386 -0.1392  0.0533
 5952SOL    HW129492   2.543   1.798  12.466 -0.0998  0.3140 -0.1404
 5952SOL    HW229493   2.615   1.814  12.604  3.4235 -1.9536 -0.3943
 5953SOL     OW29494   4.559   3.753   1.871 -0.1192 -0.1550  0.3764
 5953SOL    HW129495   4.605   3.739   1.953  2.9848  1.5485 -1.0870
 5953SOL    HW229496   4.534   3.665   1.841 -0.6789 -0.0429  0.5195
 5954SOL     OW29497   4.678   2.419   6.785 -0.4307  0.5971  0.0633
 5954SOL    HW129498   4.720   2.336   6.761  0.3995  1.4768 -1.5722
 5954SOL    HW229499   4.604   2.426   6.725 -0.3419  2.4686  0.1983
 5955SOL     OW29500   3.286   0.738   8.958  0.3290 -0.3973  0.4020
 5955SOL    HW129501   3.267   0.827   8.930  2.1526  0.1151  0.8267
 5955SOL    HW229502   3.281   0.703   8.869  0.2638  0.5837  0.0198
 5956SOL     OW29503   3.300   1.803  17.123 -0.4111  0.3637  0.3401
 5956SOL    HW129504   3.287   1.854  17.043  1.1228  0.9803  0.4983
 5956SOL    HW229505   3.356   1.862  17.173  0.7088 -1.2839  1.0153
 5957SOL     OW29506   3.411   3.126   1.841  0.0040  0.5786  0.2544
 5957SOL    HW129507   3.397   3.033   1.857 -0.5148  0.6973  0.4660
 5957SOL    HW229508   3.323   3.159   1.824  0.4996  1.8204  0.0272
 5958SOL     OW29509   1.823   0.462   8.185  0.4797 -0.5372 -0.0798
 5958SOL    HW129510   1.904   0.413   8.170  0.7058  0.3444 -1.6695
 5958SOL    HW229511   1.771   0.427   8.113  0.6147  1.4129 -1.1307
 5959SOL     OW29512   0.434   3.776  13.660 -0.0481  0.3289  0.3704
 5959SOL    HW129513   0.411   3.739  13.575  0.8437 -0.2517  0.3784
 5959SOL    HW229514   0.528   3.792  13.650 -0.1484  1.1082  0.7340
 5960SOL     OW29515   1.471   3.744   8.845  0.3262  0.3593 -0.4830
 5960SOL    HW129516   1.498   3.825   8.803 -0.0851  0.5604 -0.3611
 5960SOL    HW229517   1.381   3.748   8.811 -0.2952 -0.1128  1.0875
 5961SOL     OW29518   2.211   3.572   1.681  0.3990 -0.0157 -0.6956
 5961SOL    HW129519   2.173   3.629   1.748  0.6449 -1.6912  0.8583
 5961SOL    HW229520   2.148   3.500   1.678 -0.0296  0.2568  2.0571
 5962SOL     OW29521   3.415   3.525   0.712 -0.0693 -0.1091 -0.3554
 5962SOL    HW129522   3.462   3.605   0.686  1.3869 -0.1963  2.0085
 5962SOL    HW229523   3.412   3.475   0.630  3.1355 -0.4712 -0.2752
 5963SOL     OW29524   2.845   3.939  12.443 -0.3291  0.1606 -0.0993
 5963SOL    HW129525   2.918   4.002  12.450 -1.2599  1.2953 -0.5213
 5963SOL    HW229526   2.884   3.862  12.402 -1.0631 -1.3164  2.0248
 5964SOL     OW29527   4.648   3.784   3.444  0.4447 -0.5484 -1.1207
 5964SOL    HW129528   4.666   3.840   3.520 -0.4718 -2.7902  0.7457
 5964SOL    HW229529   4.584   3.722   3.479 -0.1005  0.2137 -0.7761
 5965SOL     OW29530   1.735   2.094   3.557 -0.1011  0.4815  0.2371
 5965SOL    HW129531   1.658   2.038   3.562 -0.8731  1.5874  0.6181
 5965SOL    HW229532   1.722   2.150   3.480  0.2633  0.3725  0.0974
 5966SOL     OW29533   0.765   4.256   4.583  0.2303 -0.0878  0.0171
 5966SOL    HW129534   0.836   4.296   4.534  0.6551 -0.3848  0.3950
 5966SOL    HW229535   0.705   4.218   4.519 -0.6683 -2.0556  2.0369
 5967SOL     OW29536   2.401   4.307   5.844  0.1300  0.1557 -0.0044
 5967SOL    HW129537   2.363   4.278   5.762  2.3192 -0.3408 -0.8493
 5967SOL    HW229538   2.371   4.395   5.866 -1.5310 -0.3528 -0.2697
 5968SOL     OW29539   3.225   1.874   3.283 -0.3460 -0.0388 -0.6264
 5968SOL    HW129540   3.169   1.857   3.360  1.8775  0.6698  1.1454
 5968SOL    HW229541   3.292   1.810   3.304 -0.7487 -1.0156 -2.4014
 5969SOL     OW29542   3.427   3.848   8.797 -0.1497  0.1815 -0.2874
 5969SOL    HW129543   3.367   3.822   8.868 -0.8833 -0.0624 -0.9943
 5969SOL    HW229544   3.509   3.839   8.845 -1.9399 -0.9234  2.5518
 5970SOL     OW29545   2.239   0.383  10.157  0.1924  0.4502 -0.1095
 5970SOL    HW129546   2.198   0.460  10.117  0.6769 -1.2220 -3.8685
 5970SOL    HW229547   2.195   0.320  10.099  0.6458  1.5400 -1.6504
 5971SOL     OW29548   1.508   0.565   6.999  0.0105  0.1243 -0.2625
 5971SOL    HW129549   1.603   0.560   6.998  0.0450  0.8096 -0.2694
 5971SOL    HW229550   1.484   0.614   6.920  1.7499  1.1558 -0.1518
 5972SOL     OW29551   2.216   4.697  15.829  0.0035 -0.0669  0.3021
 5972SOL    HW129552   2.247   4.727  15.744 -0.4731 -0.2403  0.0624
 5972SOL    HW229553   2.164   4.619  15.809 -0.8827  0.9864 -1.5103
 5973SOL     OW29554   0.813   1.880   3.767  0.4983  0.4280  0.0190
 5973SOL    HW129555   0.756   1.803   3.771 -0.7193  1.2772 -1.0754
 5973SOL    HW229556   0.762   1.927   3.701  0.4258 -4.7958 -3.6086
 5974SOL     OW29557   0.231   1.505   3.969  0.1192 -0.3356  0.0848
 5974SOL    HW129558   0.153   1.525   3.918  1.5132  1.6686 -1.2562
 5974SOL    HW229559   0.217   1.570   4.037 -2.4641 -1.8211  0.9642
 5975SOL     OW29560   2.558   2.351   6.123 -0.4263  0.3700  0.0611
 5975SOL    HW129561   2.519   2.404   6.054 -3.0467 -3.0699 -1.0929
 5975SOL    HW229562   2.625   2.298   6.080 -0.5066  1.8253 -1.8295
 5976SOL     OW29563   3.525   2.384   6.285  0.5269  0.0042 -0.3143
 5976SOL    HW129564   3.487   2.297   6.280 -0.3433  0.3527  0.1730
 5976SOL    HW229565   3.490   2.413   6.201 -0.3632 -0.3816 -0.0733
 5977SOL     OW29566   3.713   4.219   5.581 -0.1404 -0.2527  0.0924
 5977SOL    HW129567   3.788   4.168   5.549 -2.8917 -2.1772 -3.3045
 5977SOL    HW229568   3.646   4.192   5.519  0.6493 -3.5086  0.6353
 5978SOL     OW29569   3.405   2.542   2.542 -0.2449  0.0425  0.6005
 5978SOL    HW129570   3.429   2.484   2.470  1.0671  0.5919  0.6028
 5978SOL    HW229571   3.465   2.614   2.522 -2.7691  2.1727  0.7761
 5979SOL     OW29572   3.800   1.244   3.980  0.3618 -0.6759 -0.3072
 5979SOL    HW129573   3.797   1.198   3.896  1.9583 -2.0493  0.3931
 5979SOL    HW229574   3.763   1.329   3.955  0.3633  0.0020  2.0390
 5980SOL     OW29575   3.951   2.230  15.494  0.0745 -0.0799 -0.0134
 5980SOL    HW129576   4.016   2.200  15.430 -0.4053  1.6065 -1.2918
 5980SOL    HW229577   4.006   2.292  15.543 -2.0207  0.6067  1.4450
 5981SOL     OW29578   4.475   2.098   1.717 -0.0250  0.4635  0.0529
 5981SOL    HW129579   4.397   2.043   1.733  0.2772  0.6806  2.3423
 5981SOL    HW229580   4.532   2.035   1.674  3.3159  1.3379  3.2224
 5982SOL     OW29581   1.367   0.029   5.182 -0.7979  0.3179  0.1342
 5982SOL    HW129582   1.370   0.033   5.277 -1.3685 -1.3187  0.2225
 5982SOL    HW229583   1.435   0.088   5.149  0.7879 -2.4356 -1.5625
 5983SOL     OW29584   3.012   4.270   3.263  0.8798  0.6799  0.4345
 5983SOL    HW129585   2.944   4.248   3.201  1.5559  0.4452 -0.2267
 5983SOL    HW229586   3.052   4.339   3.209 -0.3027  0.2422 -0.9751
 5984SOL     OW29587   3.703   0.080   8.501  0.3442  0.0119 -0.4376
 5984SOL    HW129588   3.750   0.142   8.556 -1.2829  0.5531  0.3187
 5984SOL    HW229589   3.612   0.109   8.502  0.3851  0.0615  0.9233
 5985SOL     OW29590   1.569   1.565   2.073  0.3344  0.4794 -0.2186
 5985SOL    HW129591   1.542   1.600   2.158 -0.9981 -1.4534  0.1466
 5985SOL    HW229592   1.576   1.472   2.094 -2.7286  0.5010  0.8476
 5986SOL     OW29593   1.406   3.865   5.361 -0.1060  0.9741 -0.3546
 5986SOL    HW129594   1.358   3.785   5.339 -1.1509  0.7557  2.7893
 5986SOL    HW229595   1.411   3.847   5.455 -0.2613  2.5006 -0.0546
 5987SOL     OW29596   4.250   0.898   7.438  0.1506 -0.3942 -0.6424
 5987SOL    HW129597   4.273   0.985   7.469  3.2210 -0.0885 -3.8743
 5987SOL    HW229598   4.233   0.926   7.348 -0.2142 -1.0498 -0.7777
 5988SOL     OW29599   0.051   1.766   5.941  0.0405 -0.5581  0.1879
 5988SOL    HW129600   0.023   1.690   5.889 -4.0452  1.5452 -0.7066
 5988SOL    HW229601   4.729   1.834   5.909  1.7833  0.5535 -0.6602
 5989SOL     OW29602   3.227   0.872   7.436 -0.0863 -0.2609  0.3683
 5989SOL    HW129603   3.276   0.943   7.477  2.5734 -1.7318 -0.2268
 5989SOL    HW229604   3.162   0.848   7.503 -0.8932 -1.9785 -1.0150
 5990SOL     OW29605   4.045   3.166  17.711 -0.0030  0.0434  0.1664
 5990SOL    HW129606   3.966   3.114  17.695  0.7685 -0.3693 -2.3344
 5990SOL    HW229607   4.087   3.151  17.626  1.9685 -0.2142  1.1974
 5991SOL     OW29608   0.086   4.155   7.802 -0.2618 -0.1220 -0.1281
 5991SOL    HW129609   0.043   4.111   7.875 -3.4768 -0.9211 -2.5090
 5991SOL    HW229610   0.012   4.146   7.743 -1.1532 -0.7856  1.0877
 5992SOL     OW29611   1.964   0.200   8.019  0.9044  0.6778  0.4768
 5992SOL    HW129612   1.953   0.148   7.939  2.1327  0.2826  0.5536
 5992SOL    HW229613   2.033   0.259   7.989 -0.4898  2.3736  0.6149
 5993SOL     OW29614   0.846   4.424   4.008 -0.1187 -0.1214 -0.2373
 5993SOL    HW129615   0.773   4.481   4.032 -1.7255 -1.5418 -1.7236
 5993SOL    HW229616   0.861   4.446   3.916  2.6093 -1.1708 -0.0349
 5994SOL     OW29617   3.983   1.130   3.019  0.0978 -0.3988  0.0508
 5994SOL    HW129618   3.919   1.091   2.961  0.8877 -1.7122  0.0623
 5994SOL    HW229619   3.961   1.223   3.017 -3.6350 -1.2708  1.0825
 5995SOL     OW29620   3.416   1.027  12.884  0.2232  0.1962 -0.0594
 5995SOL    HW129621   3.321   1.018  12.880  0.1955  0.2761  0.4013
 5995SOL    HW229622   3.424   1.010  12.978 -2.0625 -2.0224 -0.2890
 5996SOL     OW29623   2.819   1.700   3.346  0.3825 -0.3317  0.4543
 5996SOL    HW129624   2.915   1.698   3.337  0.4253  3.0287  0.1799
 5996SOL    HW229625   2.816   1.616   3.392 -0.3415 -0.0267  0.9587
 5997SOL     OW29626   2.203   1.673  12.003  0.1808  0.2463 -0.1647
 5997SOL    HW129627   2.123   1.715  12.033  0.6486  0.8274  0.2814
 5997SOL    HW229628   2.259   1.751  12.006 -0.7836  0.9930 -1.6649
 5998SOL     OW29629   0.117   0.871   2.833  0.3564 -0.4525  0.1593
 5998SOL    HW129630   0.052   0.801   2.824 -0.0518 -0.1592  0.7859
 5998SOL    HW229631   0.154   0.894   2.748  1.4964 -0.9204  0.5327
 5999SOL     OW29632   1.582   0.664   2.807  0.0817 -0.1815 -0.1685
 5999SOL    HW129633   1.630   0.622   2.735 -0.9581 -1.1484 -0.2961
 5999SOL    HW229634   1.625   0.750   2.808 -0.8291  0.2752 -2.0125
 6000SOL     OW29635   0.939   0.447   4.296  0.2161 -0.1903 -0.2613
 6000SOL    HW129636   0.883   0.524   4.307  1.1798  0.3121  1.1487
 6000SOL    HW229637   0.919   0.411   4.210  0.1150  0.3911 -0.4806
 6001SOL     OW29638   3.362   0.777   2.623  0.4460 -0.4871 -0.5207
 6001SOL    HW129639   3.379   0.700   2.677  0.4759 -0.5560 -0.6279
 6001SOL    HW229640   3.392   0.849   2.679 -1.1309  0.5713 -1.0409
 6002SOL     OW29641   0.360   3.596  16.784 -0.1309 -0.0273 -0.0138
 6002SOL    HW129642   0.412   3.518  16.804 -0.2257 -0.9506 -3.2969
 6002SOL    HW229643   0.405   3.661  16.838 -1.0142  0.2487  0.3944
 6003SOL     OW29644   4.565   1.323  11.042  0.0463 -0.6594 -0.2362
 6003SOL    HW129645   4.598   1.308  11.130 -1.5094 -0.0891  0.4242
 6003SOL    HW229646   4.483   1.371  11.053  1.6596  2.2822 -0.8809
 6004SOL     OW29647   1.438   2.391   2.787 -0.1916  0.3739  0.9033
 6004SOL    HW129648   1.345   2.408   2.769  0.0050 -0.2107 -0.6216
 6004SOL    HW229649   1.458   2.479   2.820 -1.5271  0.9683  0.1451
 6005SOL     OW29650   4.556   1.831   0.912 -0.3855 -0.5184  0.0513
 6005SOL    HW129651   4.626   1.814   0.849 -0.0596  1.6356 -0.1815
 6005SOL    HW229652   4.480   1.820   0.856 -2.7100  0.7541  2.9371
 6006SOL     OW29653   1.031   0.532   7.566  0.1473 -0.8816  0.0766
 6006SOL    HW129654   1.041   0.617   7.523 -0.1035 -1.8180 -1.8188
 6006SOL    HW229655   1.006   0.482   7.489  0.2236  2.5699 -2.1877
 6007SOL     OW29656   3.637   2.542  10.511 -0.0485  0.2820 -0.3589
 6007SOL    HW129657   3.692   2.492  10.450  1.6421 -0.6620  1.9332
 6007SOL    HW229658   3.599   2.610  10.456 -2.1523  0.9137  1.9113
 6008SOL     OW29659   1.608   2.316   8.545 -0.1486  0.0850  0.3522
 6008SOL    HW129660   1.641   2.400   8.514  0.2835  0.4151  1.7205
 6008SOL    HW229661   1.664   2.297   8.621 -0.5309  1.1448  0.8936
 6009SOL     OW29662   2.963   3.307   3.439  0.6534 -0.2024  0.2221
 6009SOL    HW129663   3.059   3.310   3.447  0.7383 -0.7687 -0.6088
 6009SOL    HW229664   2.947   3.391   3.483 -1.3413  0.1464 -1.1685
 6010SOL     OW29665   3.543   0.211   3.241 -0.2352 -0.0233 -0.5011
 6010SOL    HW129666   3.589   0.128   3.257  0.3987  0.6503  1.1087
 6010SOL    HW229667   3.533   0.252   3.326 -0.5434  1.1435 -1.1008
 6011SOL     OW29668   4.631   3.942   7.736  0.0275  0.0765 -0.5790
 6011SOL    HW129669   4.629   3.945   7.640 -0.0315 -0.0952 -0.5815
 6011SOL    HW229670   4.688   3.869   7.759 -0.7271 -0.2350  0.2709
 6012SOL     OW29671   4.663   2.735  11.809  0.7132  0.6313  0.4884
 6012SOL    HW129672   4.591   2.792  11.833 -0.1400 -0.4608  0.5436
 6012SOL    HW229673   0.004   2.764  11.854  0.4243  0.4726  1.0912
 6013SOL     OW29674   2.229   2.577   3.654 -0.5624 -0.2952  0.1393
 6013SOL    HW129675   2.242   2.668   3.681  1.9938 -0.8779  0.9026
 6013SOL    HW229676   2.279   2.532   3.722  0.7337  0.2840 -0.4143
 6014SOL     OW29677   0.651   3.655   4.454  0.0305  0.3090  0.2463
 6014SOL    HW129678   0.694   3.651   4.369  1.7176  0.4960  1.0822
 6014SOL    HW229679   0.586   3.723   4.434  1.3685  0.9542 -1.8405
 6015SOL     OW29680   1.929   2.980  11.578 -0.8001 -0.4167 -0.3293
 6015SOL    HW129681   1.930   3.075  11.561 -1.1693 -0.5124 -0.8947
 6015SOL    HW229682   1.872   2.977  11.655 -0.3435 -1.8248 -0.0557
 6016SOL     OW29683   4.668   4.701   4.448 -0.3406  0.3276  0.1226
 6016SOL    HW129684   4.737   0.010   4.495  0.1496  0.8173 -1.1017
 6016SOL    HW229685   4.671   4.621   4.501  2.1630 -0.4308 -1.1953
 6017SOL     OW29686   2.633   1.307   1.619 -0.1155  0.3255  0.4282
 6017SOL    HW129687   2.668   1.237   1.674  2.7960  1.3370 -0.1379
 6017SOL    HW229688   2.704   1.313   1.555 -1.0244  1.0570 -0.5153
 6018SOL     OW29689   0.672   0.765   0.785 -0.1831 -0.2549 -0.0554
 6018SOL    HW129690   0.674   0.771   0.881  0.9744 -0.3270 -0.0679
 6018SOL    HW229691   0.678   0.670   0.774 -2.2729 -0.4054  0.0561
 6019SOL     OW29692   3.158   0.548   8.078  0.3242 -0.1699  0.0106
 6019SOL    HW129693   3.123   0.636   8.092 -1.7674 -1.1550  1.0307
 6019SOL    HW229694   3.247   0.565   8.107 -0.4427  2.5013  0.8581
 6020SOL     OW29695   1.335   1.047   1.967  0.2421  0.5834  0.2095
 6020SOL    HW129696   1.372   1.077   1.884 -0.2141 -1.0904 -0.5903
 6020SOL    HW229697   1.405   0.987   1.992  0.8736  0.9852 -0.5717
 6021SOL     OW29698   3.437   0.410   7.492 -0.2722  0.0343 -0.6877
 6021SOL    HW129699   3.373   0.369   7.551  1.2768 -1.2369  0.1050
 6021SOL    HW229700   3.380   0.472   7.447  0.0250  1.4246  0.8888
 6022SOL     OW29701   2.722   2.106  15.851  0.0348 -0.4530  0.0376
 6022SOL    HW129702   2.725   2.012  15.830  0.9759 -0.0878 -1.4282
 6022SOL    HW229703   2.629   2.117  15.835 -0.0382  1.0519  1.4726
 6023SOL     OW29704   4.117   0.311   2.357 -0.3314 -0.0434  0.2111
 6023SOL    HW129705   4.053   0.274   2.296  0.3586 -2.2493  0.8400
 6023SOL    HW229706   4.062   0.355   2.422  0.1146  1.4831 -0.4489
 6024SOL     OW29707   1.095   2.755   2.658 -0.1773  0.0367 -0.4595
 6024SOL    HW129708   1.026   2.689   2.667  1.9773 -1.9107  1.6987
 6024SOL    HW229709   1.161   2.703   2.611 -1.0033 -0.3283 -1.2359
 6025SOL     OW29710   0.288   2.979  15.646  0.9433  0.4858  0.1555
 6025SOL    HW129711   0.204   3.009  15.681  2.0514  2.4535  1.1803
 6025SOL    HW229712   0.266   2.980  15.553  0.1639 -1.8355  0.3258
 6026SOL     OW29713   3.597   1.561   0.639  0.2365  0.0467  0.3072
 6026SOL    HW129714   3.588   1.521   0.553  1.8726 -0.2173  0.2629
 6026SOL    HW229715   3.604   1.483   0.694  3.0504 -1.0425 -1.6180
 6027SOL     OW29716   0.179   1.897   2.533  0.1857 -0.2990  0.1864
 6027SOL    HW129717   0.141   1.884   2.445 -2.0166 -2.0796  1.4054
 6027SOL    HW229718   0.222   1.814   2.550 -1.5391 -0.8234  1.9029
 6028SOL     OW29719   3.818   0.723   0.444 -0.3844 -0.0739  0.3820
 6028SOL    HW129720   3.743   0.740   0.501 -0.7149  0.9398 -0.3525
 6028SOL    HW229721   3.768   0.730   0.362  0.2733  2.1094  0.1876
 6029SOL     OW29722   1.375   4.079   7.013 -0.2071 -0.0567  0.0737
 6029SOL    HW129723   1.350   4.158   7.061 -1.1080 -0.4515  0.2438
 6029SOL    HW229724   1.400   4.118   6.929 -0.3697 -0.4289 -0.1441
 6030SOL     OW29725   2.706   4.298  14.013  0.2345  0.3063  0.2029
 6030SOL    HW129726   2.720   4.234  14.083  3.2718 -0.2685 -0.9361
 6030SOL    HW229727   2.642   4.351  14.061 -0.4465  0.7444 -1.2104
 6031SOL     OW29728   3.167   0.120   9.639  0.5086  1.0151 -0.4544
 6031SOL    HW129729   3.104   0.137   9.708  1.6992 -0.5862  1.0417
 6031SOL    HW229730   3.233   0.180   9.674 -0.9117  0.8184  2.5339
 6032SOL     OW29731   3.240   1.045   4.197  0.0763 -0.2090  0.1144
 6032SOL    HW129732   3.242   1.087   4.111  1.0885 -0.0860  0.1918
 6032SOL    HW229733   3.279   1.107   4.259 -1.6096 -0.6984  1.6421
 6033SOL     OW29734   4.432   0.087   8.144 -0.2890  0.0268 -0.0498
 6033SOL    HW129735   4.444   0.175   8.107 -0.5876 -0.0429 -0.3149
 6033SOL    HW229736   4.388   0.051   8.067 -1.8188  1.2410  0.2458
 6034SOL     OW29737   3.104   2.931   7.901  0.5582  0.3415  0.3436
 6034SOL    HW129738   3.184   2.935   7.850 -0.6065 -0.6133 -1.5634
 6034SOL    HW229739   3.067   2.843   7.887 -0.2445  0.6751  0.3382
 6035SOL     OW29740   4.071   0.105   9.229  0.1551  0.2910  0.0857
 6035SOL    HW129741   4.152   0.124   9.276  0.9196 -0.0517 -1.0880
 6035SOL    HW229742   4.003   0.159   9.269 -1.0581 -0.7482 -0.5554
 6036SOL     OW29743   3.435   3.409  12.721  0.4753  0.4287 -0.3672
 6036SOL    HW129744   3.435   3.321  12.683  1.2895  0.4347 -0.3851
 6036SOL    HW229745   3.424   3.457  12.639 -0.6613  0.5884 -0.1128
 6037SOL     OW29746   1.242   0.339   7.540  0.0267 -0.0823  0.2865
 6037SOL    HW129747   1.181   0.412   7.552  0.0449 -0.1976  1.0975
 6037SOL    HW229748   1.255   0.340   7.446  1.1508  0.3435  0.4455
 6038SOL     OW29749   1.660   2.484   5.968  0.1411 -0.4780  0.0486
 6038SOL    HW129750   1.671   2.551   5.901 -2.9266  0.5435  0.5802
 6038SOL    HW229751   1.578   2.518   6.003  0.7238  1.1235 -0.1318
 6039SOL     OW29752   1.339   3.439   3.404  0.1093  0.4250 -0.1099
 6039SOL    HW129753   1.259   3.466   3.359  1.1878  3.8869 -0.0113
 6039SOL    HW229754   1.318   3.348   3.424 -0.3401  0.8126  1.2375
 6040SOL     OW29755   2.151   3.604   7.996 -0.1270  0.1948  0.3954
 6040SOL    HW129756   2.068   3.641   7.967 -0.0815  0.3871  0.5122
 6040SOL    HW229757   2.215   3.634   7.931 -0.7461 -1.3918 -0.9572
 6041SOL     OW29758   2.619   2.077   7.051  0.2142 -0.0981 -0.2459
 6041SOL    HW129759   2.596   2.011   6.986 -0.2995  2.5031 -2.7044
 6041SOL    HW229760   2.666   2.144   7.001 -0.4207  0.6990  0.2358
 6042SOL     OW29761   0.128   4.628  10.346 -0.6229 -0.6505  0.1538
 6042SOL    HW129762   0.157   4.547  10.304  1.9312  1.2538 -1.7599
 6042SOL    HW229763   0.047   4.606  10.392  0.4264 -0.2881  2.1643
 6043SOL     OW29764   1.440   4.714   1.843 -0.2824 -0.1132  0.0071
 6043SOL    HW129765   1.470   0.010   1.927  0.3596  1.3688 -0.8271
 6043SOL    HW229766   1.355   0.020   1.836 -0.2199  0.3660  2.0955
 6044SOL     OW29767   2.111   2.964   5.923  0.0257 -0.6867  0.3627
 6044SOL    HW129768   2.180   2.986   5.861 -1.2758  0.5226 -0.6522
 6044SOL    HW229769   2.148   2.954   6.011 -0.5663 -2.9818  0.3654
 6045SOL     OW29770   1.494   0.264   4.228 -0.6500  0.1627  0.4200
 6045SOL    HW129771   1.516   0.300   4.142  2.7866 -1.4737  0.6005
 6045SOL    HW229772   1.539   0.327   4.284 -0.3312  1.7237 -1.6066
 6046SOL     OW29773   4.212   2.229   3.839 -0.2001 -0.0364  0.4318
 6046SOL    HW129774   4.208   2.249   3.745 -0.2696  1.8680  0.8495
 6046SOL    HW229775   4.121   2.249   3.862 -0.2459 -0.4977  0.6441
 6047SOL     OW29776   3.567   4.217  10.584  0.2276  0.3729 -0.2769
 6047SOL    HW129777   3.545   4.183  10.671 -1.7712  0.7460 -0.6347
 6047SOL    HW229778   3.660   4.199  10.576  0.0988 -0.5767  0.3809
 6048SOL     OW29779   3.393   3.856   9.144 -0.0904  0.2813  0.0904
 6048SOL    HW129780   3.361   3.806   9.219  0.9916 -2.7860 -1.4836
 6048SOL    HW229781   3.447   3.921   9.188 -2.2220  0.2687  2.7037
 6049SOL     OW29782   1.091   0.759   7.446 -0.2723  0.5475 -0.6221
 6049SOL    HW129783   1.040   0.835   7.418 -1.5079  0.1747  0.5817
 6049SOL    HW229784   1.182   0.787   7.451 -0.6458  1.8316 -1.3149
 6050SOL     OW29785   1.307   2.147   2.976 -0.6129  0.1002  0.2629
 6050SOL    HW129786   1.287   2.123   2.885  0.1164 -0.1873  0.1747
 6050SOL    HW229787   1.379   2.208   2.958  0.6317 -1.4580 -0.0608
 6051SOL     OW29788   4.575   0.977  13.201  0.3455 -0.4407  0.3360
 6051SOL    HW129789   4.652   1.024  13.230 -0.7985  2.0158 -0.6114
 6051SOL    HW229790   4.587   0.889  13.237  1.3942  0.2824  1.7395
 6052SOL     OW29791   1.591   0.719   7.543 -0.0598  0.2727 -0.6413
 6052SOL    HW129792   1.553   0.746   7.627  1.4526 -2.0689  0.8199
 6052SOL    HW229793   1.524   0.659   7.511  0.3223  0.9398 -2.6761
 6053SOL     OW29794   4.331   2.684   3.129 -0.6663  0.2372 -0.5204
 6053SOL    HW129795   4.289   2.600   3.110 -0.5561 -0.0782  0.5979
 6053SOL    HW229796   4.382   2.700   3.049 -0.6313 -2.6834 -1.0891
 6054SOL     OW29797   2.945   1.135   3.526 -0.1251  0.1385 -0.0556
 6054SOL    HW129798   2.951   1.199   3.455 -0.6458  0.9732  0.6522
 6054SOL    HW229799   2.977   1.058   3.479  1.5264  1.5012 -1.1412
 6055SOL     OW29800   0.961   0.281   3.057 -0.2300 -0.2746  1.0878
 6055SOL    HW129801   0.950   0.187   3.069  0.7934 -0.4479  0.6783
 6055SOL    HW229802   1.052   0.282   3.027 -1.3444 -0.2183 -2.2673
 6056SOL     OW29803   3.076   4.127  11.628  0.2853  0.4555  0.3805
 6056SOL    HW129804   3.113   4.215  11.627  0.9496  0.1788  0.5055
 6056SOL    HW229805   3.060   4.110  11.535  0.1366 -1.4584  0.7564
 6057SOL     OW29806   3.963   1.337   4.710  0.9691 -0.1789  0.3967
 6057SOL    HW129807   4.020   1.369   4.780  1.7918 -0.1856 -0.2750
 6057SOL    HW229808   3.978   1.406   4.645  1.5038  0.0194  0.7271
 6058SOL     OW29809   3.324   4.317   3.856 -0.4074 -0.5153  0.0475
 6058SOL    HW129810   3.266   4.392   3.870  0.6503  0.7764 -2.4878
 6058SOL    HW229811   3.398   4.349   3.806 -1.5336 -0.5792 -1.6778
 6059SOL     OW29812   3.329   1.055   3.173 -0.2943 -0.3635 -0.5009
 6059SOL    HW129813   3.244   1.077   3.136 -1.2767 -2.9399  0.1705
 6059SOL    HW229814   3.334   0.959   3.167  0.6683 -0.2367 -1.6553
 6060SOL     OW29815   2.840   2.674   1.937 -0.0411  0.3741 -0.3357
 6060SOL    HW129816   2.749   2.680   1.909 -0.3148  1.0405  0.6591
 6060SOL    HW229817   2.892   2.716   1.868 -0.9820  0.8523 -0.7565
 6061SOL     OW29818   1.380   0.060  14.000 -0.4317 -0.0680 -0.0183
 6061SOL    HW129819   1.318   0.039  14.069 -3.0785  0.6866 -2.1472
 6061SOL    HW229820   1.333   0.128  13.952 -0.0477  1.1822  1.3693
 6062SOL     OW29821   4.721   2.777   3.238 -0.0052 -0.4282 -0.2651
 6062SOL    HW129822   0.029   2.827   3.305  1.3925  0.3228 -1.7609
 6062SOL    HW229823   0.058   2.733   3.198  1.3407  1.8358 -0.2546
 6063SOL     OW29824   1.136   1.969   6.151 -0.3463  0.0030  0.4039
 6063SOL    HW129825   1.099   2.037   6.206 -0.4926 -1.4805  2.1347
 6063SOL    HW229826   1.138   1.905   6.223  1.0409 -2.3008 -1.6480
 6064SOL     OW29827   4.666   0.081   6.371  0.0267 -0.1164  0.6359
 6064SOL    HW129828   4.623   0.087   6.285  2.0240  2.2334 -0.1673
 6064SOL    HW229829   0.018   0.057   6.350 -0.1140  0.7335 -0.8831
 6065SOL     OW29830   3.947   2.700   3.627  0.3814  0.3400  0.1995
 6065SOL    HW129831   3.964   2.726   3.536  0.0163 -0.4754 -0.1097
 6065SOL    HW229832   3.888   2.766   3.664 -1.2219 -1.7941  1.4764
 6066SOL     OW29833   0.435   3.097  12.458  0.8382 -0.5090 -0.0833
 6066SOL    HW129834   0.471   3.157  12.392 -0.4445  0.8816  0.4711
 6066SOL    HW229835   0.432   3.163  12.527  0.3309 -0.5751 -0.0437
 6067SOL     OW29836   1.810   1.022   3.641  0.0592 -0.2171  0.2616
 6067SOL    HW129837   1.835   0.950   3.699  0.0046  0.5160  1.1805
 6067SOL    HW229838   1.802   0.966   3.563  1.5009  1.2933 -0.9590
 6068SOL     OW29839   2.758   4.557   8.000 -0.2095 -0.1042  0.6462
 6068SOL    HW129840   2.794   4.471   8.021  2.2692  0.7169 -0.2302
 6068SOL    HW229841   2.669   4.553   8.035  0.1488 -0.5413  1.5036
 6069SOL     OW29842   3.080   0.799   8.166  0.1758  0.1515 -0.2113
 6069SOL    HW129843   3.154   0.838   8.212  0.1784  0.1530 -0.2171
 6069SOL    HW229844   3.013   0.867   8.172 -2.5812 -2.6316  0.5293
 6070SOL     OW29845   4.426   1.405   0.683 -0.1429  0.3264 -0.4955
 6070SOL    HW129846   4.334   1.430   0.683  0.2350  1.6906 -0.0086
 6070SOL    HW229847   4.467   1.452   0.756  0.8452  0.9930 -1.4801
 6071SOL     OW29848   0.697   3.753   0.951 -0.4064  0.0918  0.3373
 6071SOL    HW129849   0.648   3.671   0.962  0.1446 -0.3468 -0.4138
 6071SOL    HW229850   0.685   3.794   1.036 -1.4016  0.7427 -0.1166
 6072SOL     OW29851   0.712   0.010   4.511 -0.4261  0.3153  0.3175
 6072SOL    HW129852   0.721   0.035   4.419 -0.8228  0.1606  0.2349
 6072SOL    HW229853   0.654   4.671   4.509 -0.3999  0.2807  0.7915
 6073SOL     OW29854   4.514   1.253   7.652 -0.3411  0.1965  0.3321
 6073SOL    HW129855   4.533   1.162   7.627  3.0669  0.5655  1.5926
 6073SOL    HW229856   4.456   1.234   7.725 -0.9941  3.6874  0.6920
 6074SOL     OW29857   3.792   0.390   6.000 -0.4198  0.1215  0.3695
 6074SOL    HW129858   3.772   0.473   6.045 -1.0958  0.7836 -1.1651
 6074SOL    HW229859   3.732   0.403   5.927  0.1465 -0.2129 -0.1587
 6075SOL     OW29860   3.501   4.316   6.136  0.2865  0.3917 -0.2583
 6075SOL    HW129861   3.484   4.374   6.062  2.2100  0.3022 -0.7765
 6075SOL    HW229862   3.533   4.235   6.097 -3.1491 -0.2140 -1.7412
 6076SOL     OW29863   2.997   4.103   7.768  0.0366 -0.6252 -0.4705
 6076SOL    HW129864   2.990   4.111   7.673  0.0676 -0.3559 -0.4509
 6076SOL    HW229865   3.076   4.051   7.781  1.3509  1.2874 -0.7900
 6077SOL     OW29866   4.480   3.279   2.179 -0.3461 -0.1789 -0.7582
 6077SOL    HW129867   4.385   3.280   2.190 -0.2651  0.7529 -0.2064
 6077SOL    HW229868   4.499   3.188   2.203 -1.0068  0.0041  0.4614
 6078SOL     OW29869   1.455   4.436   1.826  0.0197 -0.6967 -0.2144
 6078SOL    HW129870   1.368   4.445   1.866  0.2412  0.0218  0.0961
 6078SOL    HW229871   1.480   4.528   1.834 -0.6655 -0.5841  0.6757
 6079SOL     OW29872   3.211   1.581  16.591  0.1501  0.1766 -0.5461
 6079SOL    HW129873   3.116   1.580  16.606  0.1211  1.9027 -0.5566
 6079SOL    HW229874   3.222   1.675  16.606  1.5878 -0.3491  1.6869
 6080SOL     OW29875   2.816   0.857  14.296 -0.4924  0.5896  0.6276
 6080SOL    HW129876   2.856   0.825  14.377  0.7686 -2.3836 -1.1703
 6080SOL    HW229877   2.884   0.902  14.246 -0.6264  1.7499  1.4941
 6081SOL     OW29878   0.812   3.127  13.770  0.4700 -0.3508 -0.1966
 6081SOL    HW129879   0.798   3.187  13.844 -3.1898 -0.9578 -0.4013
 6081SOL    HW229880   0.897   3.154  13.735 -0.4501  1.0670 -1.3462
 6082SOL     OW29881   0.412   3.694   1.227  0.4516  0.7775  0.2189
 6082SOL    HW129882   0.476   3.763   1.206 -0.9227  1.9300 -0.1934
 6082SOL    HW229883   0.419   3.643   1.147  0.7862 -1.1589  1.4832
 6083SOL     OW29884   2.076   1.250   7.470 -0.0585 -0.0764 -0.2405
 6083SOL    HW129885   2.097   1.311   7.541  1.0647 -0.7386 -0.0020
 6083SOL    HW229886   2.146   1.188   7.491  0.0833 -0.4518 -1.8268
 6084SOL     OW29887   1.206   2.478   8.012 -0.5904 -0.2002  0.2567
 6084SOL    HW129888   1.155   2.402   8.041 -2.3734  1.1336  0.6527
 6084SOL    HW229889   1.285   2.433   7.982 -0.7157 -1.6100  2.0287
 6085SOL     OW29890   4.352   3.584   0.909  0.3954  0.2225 -0.6338
 6085SOL    HW129891   4.280   3.589   0.845 -0.2087 -1.4230 -0.0722
 6085SOL    HW229892   4.366   3.668   0.953 -0.2492 -0.7345  1.4151
 6086SOL     OW29893   3.908   0.410   2.535  0.3450  0.0923 -0.1899
 6086SOL    HW129894   3.842   0.467   2.574  1.0102  0.3225  0.6064
 6086SOL    HW229895   3.880   0.324   2.566 -0.5266  1.0615  1.7798
 6087SOL     OW29896   1.624   2.986   7.606  0.4156  0.0093 -0.0673
 6087SOL    HW129897   1.590   3.073   7.585  2.2133  0.3520 -1.5483
 6087SOL    HW229898   1.542   2.936   7.614 -0.7532  1.3506 -3.3121
 6088SOL     OW29899   1.229   0.186   3.697  0.1708  0.1744 -0.1462
 6088SOL    HW129900   1.168   0.140   3.754 -0.0755  0.1056 -0.4636
 6088SOL    HW229901   1.213   0.275   3.728  0.6499  0.1317  0.2165
 6089SOL     OW29902   1.691   1.826   8.691  0.3989 -0.3452 -0.0119
 6089SOL    HW129903   1.784   1.845   8.678  0.8762 -1.5875  1.5693
 6089SOL    HW229904   1.700   1.732   8.679 -3.1087 -0.7354  0.4041
 6090SOL     OW29905   1.619   3.084  11.312 -0.1983  0.3997  0.4126
 6090SOL    HW129906   1.682   3.151  11.338  2.2520 -0.1638 -4.0985
 6090SOL    HW229907   1.585   3.069  11.400  0.2569 -0.7551  0.3821
 6091SOL     OW29908   3.657   2.851   8.664  0.0626  0.6611  0.5487
 6091SOL    HW129909   3.566   2.828   8.683 -0.6771  3.4798  0.4506
 6091SOL    HW229910   3.681   2.780   8.604  2.0968  0.5780  1.4616
 6092SOL     OW29911   0.611   3.415   3.205  0.7336  0.5512  0.4284
 6092SOL    HW129912   0.558   3.424   3.126  1.2985  0.0215 -0.0100
 6092SOL    HW229913   0.603   3.493   3.260 -1.4730  0.7664 -0.2208
 6093SOL     OW29914   0.047   0.177  10.546  0.3543 -0.3796 -0.2848
 6093SOL    HW129915   0.137   0.199  10.570 -0.2237  3.1026 -1.3102
 6093SOL    HW229916   0.052   0.178  10.451  1.7175 -1.2131 -0.2158
 6094SOL     OW29917   0.735   4.000   8.786  0.4133  0.3402 -0.7389
 6094SOL    HW129918   0.808   3.938   8.785 -0.8363 -1.1821  0.1007
 6094SOL    HW229919   0.660   3.958   8.744  0.3126  2.0163 -2.2267
 6095SOL     OW29920   4.431   4.424  10.644  0.1145  0.7622 -0.1456
 6095SOL    HW129921   4.425   4.456  10.555  1.0987  1.6477  0.1087
 6095SOL    HW229922   4.340   4.393  10.641  0.2412  0.5726 -2.0139
 6096SOL     OW29923   4.539   3.126   2.722  0.2441  0.2412  0.6022
 6096SOL    HW129924   4.479   3.156   2.654  0.5996 -0.3021  0.0444
 6096SOL    HW229925   4.606   3.193   2.716  0.1373  0.1940 -0.9459
 6097SOL     OW29926   4.234   1.016   4.458  0.1085  0.0526  0.8734
 6097SOL    HW129927   4.211   0.992   4.547 -0.3793 -0.6255  0.5659
 6097SOL    HW229928   4.208   1.108   4.456 -0.1826 -0.0859 -2.2001
 6098SOL     OW29929   4.242   4.256   3.305 -0.2689 -0.5540 -0.0628
 6098SOL    HW129930   4.253   4.204   3.384  0.9157 -0.7701 -0.3737
 6098SOL    HW229931   4.323   4.229   3.261 -0.0460 -1.3025  0.8030
 6099SOL     OW29932   2.895   3.761   1.349  0.0254 -0.4547 -0.5731
 6099SOL    HW129933   2.857   3.673   1.346  1.1142 -1.0070  1.6254
 6099SOL    HW229934   2.913   3.779   1.441 -2.1308 -0.3279 -0.1736
 6100SOL     OW29935   1.613   1.509   6.104  0.0527 -0.2854  0.2693
 6100SOL    HW129936   1.524   1.540   6.119  0.1593  0.2515 -0.1891
 6100SOL    HW229937   1.644   1.576   6.043 -0.5172  1.1800  1.6135
 6101SOL     OW29938   4.667   2.080  16.504 -0.2048 -0.9925  0.5920
 6101SOL    HW129939   4.681   2.120  16.591 -0.4764 -0.9903  0.6339
 6101SOL    HW229940   0.012   2.032  16.497  1.1952  1.6009 -0.9466
 6102SOL     OW29941   1.361   3.484   7.043  0.0980  0.9492 -1.1491
 6102SOL    HW129942   1.450   3.519   7.052  1.1685 -1.6065 -1.8164
 6102SOL    HW229943   1.318   3.564   7.014  2.8740  2.2986 -1.5562
 6103SOL     OW29944   2.085   4.212  13.450 -0.1434 -0.1061  0.8193
 6103SOL    HW129945   2.088   4.280  13.382 -0.3547 -0.2680  0.6471
 6103SOL    HW229946   2.172   4.228  13.486 -0.6292 -1.0133  2.4139
 6104SOL     OW29947   1.378   2.633   4.787 -0.3862 -0.0468 -0.2268
 6104SOL    HW129948   1.346   2.687   4.715 -0.5976 -0.2247 -0.2666
 6104SOL    HW229949   1.361   2.700   4.852 -1.3658 -0.5417  0.0213
 6105SOL     OW29950   1.346   4.323   0.866 -0.0236 -0.1635  0.0489
 6105SOL    HW129951   1.419   4.382   0.845  0.6804 -1.3102 -0.7222
 6105SOL    HW229952   1.273   4.384   0.855  1.5726  2.1466  2.1952
 6106SOL     OW29953   0.599   4.184   0.067  0.2367 -0.0865 -0.0749
 6106SOL    HW129954   0.617   4.099   0.027 -0.2526 -0.4204  0.4182
 6106SOL    HW229955   0.518   4.159   0.110  0.2530 -0.6785 -0.3907
 6107SOL     OW29956   0.492   2.127  17.189 -0.5391  0.1463  0.0343
 6107SOL    HW129957   0.578   2.163  17.171 -0.2243 -0.6547 -0.0713
 6107SOL    HW229958   0.517   2.080  17.269 -2.4432  1.5359  1.4479
 6108SOL     OW29959   3.338   2.683   8.195  0.1185  0.0066 -0.2835
 6108SOL    HW129960   3.335   2.767   8.150  1.9219  1.3215  2.1041
 6108SOL    HW229961   3.320   2.622   8.123 -1.7016 -0.4466  0.5368
 6109SOL     OW29962   0.342   3.849  13.899 -0.3905  0.2916  0.1162
 6109SOL    HW129963   0.411   3.821  13.960 -0.0264 -0.9814 -0.8636
 6109SOL    HW229964   0.374   3.836  13.810  3.4054  3.1238  1.0551
 6110SOL     OW29965   3.983   3.815   7.402  0.1661  0.2648 -0.5667
 6110SOL    HW129966   4.024   3.812   7.488 -0.7518  1.1101 -0.1095
 6110SOL    HW229967   3.942   3.901   7.407 -0.3974 -0.0177 -0.3319
 6111SOL     OW29968   2.870   0.773   4.634  0.5598 -0.2790  0.1597
 6111SOL    HW129969   2.853   0.788   4.727  1.1026 -1.4063  0.4450
 6111SOL    HW229970   2.816   0.696   4.617 -0.8844  0.2138  2.4601
 6112SOL     OW29971   4.374   1.471   3.345  0.0650 -0.5492 -0.2230
 6112SOL    HW129972   4.359   1.389   3.298  1.3954 -0.2580 -1.1313
 6112SOL    HW229973   4.293   1.476   3.397 -1.3002  0.1081 -2.4014
 6113SOL     OW29974   3.567   3.607  12.836  0.7009  0.3093 -0.0943
 6113SOL    HW129975   3.510   3.541  12.797 -0.6869  0.9249  0.8909
 6113SOL    HW229976   3.547   3.594  12.929  1.3579  3.1598  0.4616
 6114SOL     OW29977   4.356   3.241   8.263  0.0379 -0.4462 -0.2108
 6114SOL    HW129978   4.262   3.255   8.256 -0.0339 -0.9700 -0.2912
 6114SOL    HW229979   4.368   3.186   8.186  0.2819  1.1116 -1.2884
 6115SOL     OW29980   4.716   1.096   7.106  0.1358  0.2102 -0.5436
 6115SOL    HW129981   4.715   1.121   7.014  1.0898 -3.0068 -1.4277
 6115SOL    HW229982   0.041   1.155   7.147 -0.9500  0.6650  0.4467
 6116SOL     OW29983   3.534   2.419   1.412  0.1311 -0.5537 -0.2375
 6116SOL    HW129984   3.587   2.492   1.382  1.0303 -1.2034 -0.2254
 6116SOL    HW229985   3.562   2.350   1.352 -1.3324 -0.2930 -1.2348
 6117SOL     OW29986   1.561   0.850   9.069  0.3187 -0.2994 -0.4527
 6117SOL    HW129987   1.520   0.923   9.021  1.0655 -0.3160 -1.1062
 6117SOL    HW229988   1.554   0.875   9.161 -1.9205 -1.2398 -0.3550
 6118SOL     OW29989   4.296   3.098   1.671  0.4520 -0.7345  0.5819
 6118SOL    HW129990   4.264   3.178   1.627  1.5420 -1.4947 -1.5662
 6118SOL    HW229991   4.357   3.140   1.731 -0.5029  0.8605  0.4732
 6119SOL     OW29992   0.534   1.527   7.999  0.2675  0.2735  0.4457
 6119SOL    HW129993   0.595   1.593   7.966 -1.0801  1.4981  0.3976
 6119SOL    HW229994   0.592   1.457   8.029  0.2030  0.2117  0.4254
 6120SOL     OW29995   0.234   1.319   2.982 -1.0607 -0.2468  0.6480
 6120SOL    HW129996   0.302   1.352   2.923 -1.4227  2.6056  1.8367
 6120SOL    HW229997   0.174   1.385   2.947  0.2487  1.3819  1.4917
 6121SOL     OW29998   1.382   3.663   6.324  0.7083 -0.0405 -0.1606
 6121SOL    HW129999   1.416   3.603   6.259  1.2355 -2.3808  2.2925
 6121SOL    HW230000   1.384   3.741   6.268  0.6329 -0.3642 -0.6162
 6122SOL     OW30001   2.036   4.233   7.308  0.0481  0.1367 -0.2904
 6122SOL    HW130002   2.123   4.236   7.347  0.0447  0.1726 -0.2859
 6122SOL    HW230003   2.048   4.296   7.237  0.4138  0.3922 -0.0017
 6123SOL     OW30004   1.154   2.725   7.481 -0.1514 -0.0499  0.5773
 6123SOL    HW130005   1.118   2.781   7.413  0.5336  1.0105  1.0871
 6123SOL    HW230006   1.082   2.674   7.518 -1.2018  1.4570  0.5958
 6124SOL     OW30007   3.204   0.068   3.033 -0.3348  0.4672  0.0093
 6124SOL    HW130008   3.171   0.043   2.947 -0.1267  1.8863 -0.4814
 6124SOL    HW230009   3.199   4.723   3.081 -0.1481 -0.4574 -1.5632
 6125SOL     OW30010   1.013   1.955  15.329  0.4235  0.0019 -0.2181
 6125SOL    HW130011   0.965   1.979  15.408 -0.7491  0.9414 -1.2030
 6125SOL    HW230012   1.025   2.042  15.289 -1.2819 -0.3991 -1.6144
 6126SOL     OW30013   1.707   0.051   4.005 -0.3828 -0.9769 -0.2612
 6126SOL    HW130014   1.782   0.100   3.972 -1.0486 -0.1817 -0.5783
 6126SOL    HW230015   1.711   0.068   4.099 -1.3008 -0.0513 -0.3921
 6127SOL     OW30016   1.895   2.503   4.368  0.2173 -0.6330 -0.5965
 6127SOL    HW130017   1.907   2.494   4.463  0.6679 -0.4225 -0.6333
 6127SOL    HW230018   1.944   2.585   4.355 -0.6428  0.2155  1.5369
 6128SOL     OW30019   3.169   0.357   1.751 -0.0815 -0.0603 -0.4156
 6128SOL    HW130020   3.259   0.337   1.724 -0.0567  0.3932 -0.6614
 6128SOL    HW230021   3.160   0.308   1.833 -0.7101  3.2435  1.5176
 6129SOL     OW30022   1.940   0.744  12.615 -0.4582  0.4672 -0.5574
 6129SOL    HW130023   2.026   0.714  12.586 -0.4358  0.5002 -0.5239
 6129SOL    HW230024   1.901   0.665  12.653  1.1021  0.0409  0.1668
 6130SOL     OW30025   4.379   1.164   1.573 -0.4112  0.1691  0.1168
 6130SOL    HW130026   4.425   1.208   1.501 -0.2198 -2.5381 -1.4111
 6130SOL    HW230027   4.404   1.223   1.644 -0.9016  1.5772 -0.8562
 6131SOL     OW30028   1.000   1.675   6.723  0.0982  0.4833 -0.3692
 6131SOL    HW130029   1.089   1.644   6.706 -0.0007 -0.1997  0.4103
 6131SOL    HW230030   0.955   1.650   6.642 -0.5788  2.4644 -0.5992
 6132SOL     OW30031   4.600   1.708  14.620 -0.2545 -0.0274 -0.2622
 6132SOL    HW130032   4.614   1.626  14.572  2.3010  0.3254 -0.1678
 6132SOL    HW230033   4.609   1.766  14.544  1.0237  1.6340  1.1744
 6133SOL     OW30034   0.335   1.885  13.835 -0.1148  0.2824  0.1474
 6133SOL    HW130035   0.270   1.943  13.794  0.4015  1.4285  0.9612
 6133SOL    HW230036   0.382   1.942  13.896 -2.1901  0.4079  1.6584
 6134SOL     OW30037   2.350   2.435  14.032 -0.1762 -0.3195  0.7623
 6134SOL    HW130038   2.357   2.398  14.120 -1.2066 -0.2828  0.8592
 6134SOL    HW230039   2.418   2.392  13.979 -1.0262  0.4835 -0.9659
 6135SOL     OW30040   1.328   3.877   2.720 -0.1901 -0.1037  0.5684
 6135SOL    HW130041   1.372   3.948   2.674 -2.1820 -0.0717 -1.2597
 6135SOL    HW230042   1.238   3.898   2.694 -0.0650  0.1839  0.3744
 6136SOL     OW30043   2.107   2.251   7.994 -0.3681 -0.0457 -0.0505
 6136SOL    HW130044   2.052   2.271   7.919  0.2315 -1.0220 -0.7494
 6136SOL    HW230045   2.186   2.304   7.981 -0.0103 -1.0570 -2.0959
 6137SOL     OW30046   1.923   4.089   4.161  0.2375 -0.3798  0.5559
 6137SOL    HW130047   1.866   4.156   4.197 -2.7419 -2.8178  0.3725
 6137SOL    HW230048   1.993   4.144   4.126 -0.8138 -0.8320 -2.2563
 6138SOL     OW30049   1.906   1.010   1.685  0.1011 -0.3333  0.6094
 6138SOL    HW130050   1.912   0.968   1.771 -2.0357  0.5010  1.1700
 6138SOL    HW230051   1.910   1.101   1.713  0.2769  0.2715 -1.4188
 6139SOL     OW30052   0.769   4.540   9.238 -0.1173  0.0135  0.2010
 6139SOL    HW130053   0.740   4.517   9.326 -0.6201  1.0949  0.3126
 6139SOL    HW230054   0.774   4.635   9.244 -1.5123  0.0118  1.4770
 6140SOL     OW30055   3.140   2.417   3.312 -0.0532  0.0426  0.0268
 6140SOL    HW130056   3.100   2.352   3.254  0.8805 -2.2480  1.9204
 6140SOL    HW230057   3.076   2.487   3.312  0.6500  0.6945  1.1298
 6141SOL     OW30058   2.280   0.498  14.865 -0.3062  0.2823 -0.5056
 6141SOL    HW130059   2.367   0.460  14.879  0.1497  1.7353  0.5443
 6141SOL    HW230060   2.250   0.466  14.780  0.5886 -0.3325 -0.5917
 6142SOL     OW30061   1.271   2.296   7.043 -0.2604  0.4211 -0.4729
 6142SOL    HW130062   1.331   2.278   6.971  0.6443 -1.2122  0.6776
 6142SOL    HW230063   1.216   2.217   7.049 -0.9713  0.8247 -1.6510
 6143SOL     OW30064   3.497   0.909   4.271  0.6972  0.0613  0.4650
 6143SOL    HW130065   3.460   0.861   4.345  1.6516  1.5358  1.8865
 6143SOL    HW230066   3.461   0.996   4.288  0.2879 -0.3820  1.8678
 6144SOL     OW30067   1.601   3.404   3.704  0.1617 -0.6481 -0.4970
 6144SOL    HW130068   1.535   3.347   3.742  2.5286 -1.4399  2.4059
 6144SOL    HW230069   1.558   3.458   3.637  2.2675  0.8266 -0.6564
 6145SOL     OW30070   3.812   3.257   5.520  0.3576  0.1141 -0.2879
 6145SOL    HW130071   3.717   3.266   5.528  0.2138  0.3198 -2.2375
 6145SOL    HW230072   3.842   3.229   5.606 -0.4929 -1.3007 -0.4425
 6146SOL     OW30073   0.479   3.860   4.046 -0.1941  0.0781  0.0362
 6146SOL    HW130074   0.495   3.830   3.957 -1.7987  3.2646 -1.3607
 6146SOL    HW230075   0.534   3.801   4.097 -1.2771 -0.6637  0.3595
 6147SOL     OW30076   0.326   0.687   7.254 -0.2646 -0.1865 -0.5053
 6147SOL    HW130077   0.294   0.749   7.319  3.4924 -0.1844  1.3605
 6147SOL    HW230078   0.294   0.606   7.294 -1.1806  0.3454 -0.1736
 6148SOL     OW30079   0.235   0.474   7.391 -0.1553  0.0350 -0.3401
 6148SOL    HW130080   0.290   0.415   7.339 -1.9569 -1.8491 -0.1378
 6148SOL    HW230081   0.240   0.431   7.476 -0.1733  2.4856  0.8966
 6149SOL     OW30082   1.409   0.720   1.692  0.2675  0.0631  0.4028
 6149SOL    HW130083   1.395   0.807   1.656 -2.8606 -0.1100  1.1186
 6149SOL    HW230084   1.336   0.675   1.648  0.8424  0.4905 -0.9748
 6150SOL     OW30085   1.947   1.251   7.230 -0.0797 -1.0640 -0.4753
 6150SOL    HW130086   2.032   1.256   7.273  0.2517  2.5038 -1.6082
 6150SOL    HW230087   1.882   1.274   7.297  0.7677 -1.0332  0.3344
 6151SOL     OW30088   3.392   3.456   2.483  0.3470  0.9355 -0.3148
 6151SOL    HW130089   3.379   3.379   2.427 -0.7620  1.3918 -0.6730
 6151SOL    HW230090   3.410   3.399   2.559  1.2887 -0.0042 -1.2390
 6152SOL     OW30091   0.133   3.437   8.893  0.5692 -1.1109 -0.3920
 6152SOL    HW130092   0.221   3.412   8.867  0.5351  0.3857 -1.9102
 6152SOL    HW230093   0.134   3.462   8.986  2.6682  2.1679 -1.3532
 6153SOL     OW30094   4.578   0.735   3.822 -0.3927 -0.2486  0.0588
 6153SOL    HW130095   4.548   0.820   3.789 -1.1268 -0.6263 -0.2263
 6153SOL    HW230096   4.663   0.735   3.777  0.1708  2.6642  1.0732
 6154SOL     OW30097   4.069   2.685   8.723  0.0243 -0.1236  0.0030
 6154SOL    HW130098   4.025   2.601   8.735 -1.3678  0.8382  1.5682
 6154SOL    HW230099   4.051   2.748   8.793 -1.0466  0.3004 -0.6632
 6155SOL     OW30100   0.177   2.968  16.834  0.0926  0.0972 -0.3557
 6155SOL    HW130101   0.220   3.048  16.804  0.4840  0.6117  1.5538
 6155SOL    HW230102   0.083   2.983  16.845 -0.2035 -0.7125 -1.8064
 6156SOL     OW30103   4.256   0.185  14.037 -0.5749 -0.0821  0.1321
 6156SOL    HW130104   4.211   0.109  14.072  1.8819 -0.8355  1.6799
 6156SOL    HW230105   4.233   0.188  13.945  1.4714  0.2125 -0.3720
 6157SOL     OW30106   1.104   3.323   4.703  0.4199  0.1722  0.5149
 6157SOL    HW130107   1.075   3.334   4.794 -0.0937 -0.7285  0.4587
 6157SOL    HW230108   1.097   3.228   4.703 -1.0432  0.2726  2.1839
 6158SOL     OW30109   0.774   4.617   6.489  0.4176  0.3277 -0.1882
 6158SOL    HW130110   0.851   4.576   6.451 -1.4708 -0.3820 -3.2333
 6158SOL    HW230111   0.788   4.599   6.583  0.8294  0.8707 -0.1496
 6159SOL     OW30112   3.338   0.812   6.532  1.0754  0.0696 -0.0844
 6159SOL    HW130113   3.265   0.752   6.519 -0.2247  1.7925 -0.6399
 6159SOL    HW230114   3.386   0.803   6.449  0.9707 -0.9519 -0.0376
 6160SOL     OW30115   4.675   3.833   2.743 -0.0951 -0.0986  0.6229
 6160SOL    HW130116   4.723   3.755   2.773 -0.1504 -0.7203 -0.9424
 6160SOL    HW230117   4.681   3.884   2.824  0.6594 -0.0431  0.5380
 6161SOL     OW30118   3.846   2.733   7.288  0.6506  0.0058 -0.2038
 6161SOL    HW130119   3.816   2.679   7.215 -0.6106 -1.6812  1.5242
 6161SOL    HW230120   3.815   2.670   7.353 -0.2122 -1.0537 -1.6498
 6162SOL     OW30121   4.590   4.699   8.875 -0.2318 -0.2725 -0.4342
 6162SOL    HW130122   4.663   4.641   8.894  0.8796  0.6977 -1.7275
 6162SOL    HW230123   4.513   4.643   8.886  0.4302 -1.6311 -2.6345
 6163SOL     OW30124   1.997   4.230   4.742 -0.2334 -0.0876  0.4367
 6163SOL    HW130125   2.011   4.324   4.737 -0.8721 -0.0258 -0.1941
 6163SOL    HW230126   2.062   4.211   4.809  0.2265  1.5589  0.4394
 6164SOL     OW30127   2.308   3.981   7.088 -0.0494  0.0456 -0.2525
 6164SOL    HW130128   2.276   3.891   7.102 -1.2870  0.4045 -0.8462
 6164SOL    HW230129   2.230   4.036   7.088  0.6238  0.9839 -4.1263
 6165SOL     OW30130   1.130   0.801   1.388 -0.9507 -0.7809 -0.0726
 6165SOL    HW130131   1.198   0.855   1.349  0.4176 -0.7354  2.3887
 6165SOL    HW230132   1.126   0.828   1.480  1.0880 -1.2499  0.1410
 6166SOL     OW30133   3.709   2.280   5.400  0.2488 -0.3515 -0.2628
 6166SOL    HW130134   3.731   2.189   5.417 -1.0993 -0.7365 -0.5506
 6166SOL    HW230135   3.620   2.279   5.436  0.1208  1.2797 -0.5179
 6167SOL     OW30136   1.033   1.184   4.996  0.2845  0.3959  0.2918
 6167SOL    HW130137   0.992   1.259   5.040  0.9751  0.9540 -0.0201
 6167SOL    HW230138   0.965   1.167   4.930  1.9777  0.1133 -1.3985
 6168SOL     OW30139   2.345   3.346   6.768  0.0236  0.0728 -0.6262
 6168SOL    HW130140   2.363   3.287   6.841  0.3263 -2.1134 -2.4523
 6168SOL    HW230141   2.434   3.376   6.749 -0.1104  2.0435  1.7985
 6169SOL     OW30142   2.263   1.561  12.559  0.1187  0.5170  0.0325
 6169SOL    HW130143   2.327   1.498  12.591 -0.3067  0.5113  0.8559
 6169SOL    HW230144   2.187   1.506  12.538  0.0902  0.3008  0.7161
 6170SOL     OW30145   1.594   2.553   0.500 -0.0711  0.4847 -0.2696
 6170SOL    HW130146   1.610   2.647   0.499 -0.7798  0.6102  0.0220
 6170SOL    HW230147   1.499   2.554   0.502 -0.1250 -1.9522 -1.9103
 6171SOL     OW30148   2.509   2.440  17.239 -0.5853 -0.3053 -0.0200
 6171SOL    HW130149   2.520   2.366  17.298  0.1215  1.1022  1.6295
 6171SOL    HW230150   2.599   2.473  17.233 -0.6471 -0.0753  0.2833
 6172SOL     OW30151   4.291   0.903   3.043 -0.7608  0.1441  0.4276
 6172SOL    HW130152   4.384   0.922   3.053 -0.8514  0.8925 -0.1404
 6172SOL    HW230153   4.291   0.808   3.044  0.8194  0.1590  1.8904
 6173SOL     OW30154   4.289   3.082   8.058  0.0628  0.4269  0.1663
 6173SOL    HW130155   4.324   2.993   8.051  0.5736  0.5324  1.2247
 6173SOL    HW230156   4.202   3.063   8.024  0.0328  2.3306 -0.7975
 6174SOL     OW30157   2.989   0.841  16.096  0.1796  0.3234 -0.3903
 6174SOL    HW130158   3.041   0.914  16.131 -0.5237  0.9556 -0.6771
 6174SOL    HW230159   2.901   0.866  16.122  0.3923 -0.1353  0.8031
 6175SOL     OW30160   0.686   4.550  16.677  0.0513  0.3098  0.1347
 6175SOL    HW130161   0.696   4.553  16.582 -1.4495  2.2392  0.0325
 6175SOL    HW230162   0.762   4.600  16.707 -0.7703  2.0935 -0.7350
 6176SOL     OW30163   4.439   0.412  14.486  0.2880  0.3966  0.5362
 6176SOL    HW130164   4.520   0.361  14.483  0.9818  1.3447  2.6703
 6176SOL    HW230165   4.387   0.341  14.523  0.7988 -0.4435 -0.3643
 6177SOL     OW30166   3.330   2.219   7.240  0.3432  0.2717  0.3255
 6177SOL    HW130167   3.398   2.245   7.178 -0.5310 -1.9050 -1.5155
 6177SOL    HW230168   3.268   2.293   7.242 -0.9511 -0.8260  1.1472
 6178SOL     OW30169   1.925   3.895  10.219 -0.6228  0.2048  0.1195
 6178SOL    HW130170   1.961   3.808  10.239 -2.1813 -0.8946 -1.9776
 6178SOL    HW230171   1.888   3.886  10.132  0.5075  2.4015 -0.5906
 6179SOL     OW30172   0.356   2.343  14.635  0.2379  0.4182  0.0801
 6179SOL    HW130173   0.376   2.259  14.675  3.7297  2.0278  1.7142
 6179SOL    HW230174   0.266   2.352  14.666 -0.7834  0.4398 -2.8561
 6180SOL     OW30175   1.541   2.087  10.827 -0.0236  0.0788  0.4186
 6180SOL    HW130176   1.631   2.058  10.843  0.5887  2.1618  0.7559
 6180SOL    HW230177   1.513   2.057  10.741  1.6467 -0.9245  0.2264
 6181SOL     OW30178   3.867   0.889   5.706  0.6849 -0.1161 -0.4075
 6181SOL    HW130179   3.943   0.879   5.649  1.5813  1.3256  0.5548
 6181SOL    HW230180   3.790   0.890   5.648  0.5284 -3.2744 -0.2592
 6182SOL     OW30181   1.492   0.998  15.016  0.1132  0.4604  0.0465
 6182SOL    HW130182   1.441   0.921  14.991 -0.5833  0.2761  2.0103
 6182SOL    HW230183   1.429   1.070  15.022 -1.9632 -1.3929  0.6737
 6183SOL     OW30184   2.051   0.535   2.294 -0.1973  0.0930  0.3445
 6183SOL    HW130185   1.983   0.591   2.333 -0.2120 -0.4826  1.1353
 6183SOL    HW230186   2.084   0.585   2.219  0.2652 -0.4253  0.2013
 6184SOL     OW30187   0.447   4.348   4.682 -0.1818 -0.2620 -0.5247
 6184SOL    HW130188   0.518   4.314   4.736 -0.4928  1.2276  0.8390
 6184SOL    HW230189   0.427   4.265   4.639  1.8368 -0.9255 -0.1887
 6185SOL     OW30190   0.569   2.718   9.809 -0.3686  0.7607 -0.3288
 6185SOL    HW130191   0.631   2.740   9.879  0.3852  1.9167 -1.3713
 6185SOL    HW230192   0.572   2.797   9.755  2.0700  0.9056  0.0210
 6186SOL     OW30193   3.924   3.253   6.146 -0.3127  0.5719 -0.1502
 6186SOL    HW130194   4.004   3.302   6.168  0.2373 -0.4954  0.2286
 6186SOL    HW230195   3.891   3.307   6.075  0.5104  0.9400 -0.2495
 6187SOL     OW30196   3.962   0.496  15.476 -0.2975 -0.2559  0.1726
 6187SOL    HW130197   4.052   0.519  15.454 -1.4051  1.2453 -2.8359
 6187SOL    HW230198   3.928   0.448  15.400  1.7802 -1.5965  0.1114
 6188SOL     OW30199   2.307   4.423   7.079 -0.0223  0.7663 -0.3637
 6188SOL    HW130200   2.327   4.329   7.081  2.0947  1.1728 -2.0779
 6188SOL    HW230201   2.349   4.461   7.155  2.1839 -3.3007  0.4935
 6189SOL     OW30202   4.738   3.450   9.912 -0.3825  0.2131 -0.4481
 6189SOL    HW130203   0.064   3.492   9.855  2.4036  1.4692  3.6847
 6189SOL    HW230204   0.030   3.495   9.990 -3.0787  1.4033 -0.1082
 6190SOL     OW30205   0.072   3.163  10.772  0.3768 -0.2299 -0.2227
 6190SOL    HW130206   0.080   3.071  10.749  0.0824  0.1312 -1.7402
 6190SOL    HW230207   0.044   3.146  10.862  0.0792 -0.1339 -0.2975
 6191SOL     OW30208   1.006   3.765   2.408  0.5694 -0.0698 -0.2461
 6191SOL    HW130209   1.027   3.711   2.331  1.4515  1.3308 -0.9698
 6191SOL    HW230210   1.088   3.811   2.422  0.5639 -0.7698  2.1009
 6192SOL     OW30211   0.505   2.374   8.171 -0.2654  0.6618 -0.3845
 6192SOL    HW130212   0.420   2.412   8.195 -0.7084 -1.2074  1.0566
 6192SOL    HW230213   0.539   2.379   8.260 -2.1196  2.8220  0.1915
 6193SOL     OW30214   2.769   4.467  11.274 -0.2247 -0.1402 -0.1097
 6193SOL    HW130215   2.690   4.516  11.250  1.5098  1.8083 -1.9422
 6193SOL    HW230216   2.827   4.508  11.210 -0.9348  2.0652  0.6464
 6194SOL     OW30217   3.273   3.307  10.655 -0.1655  0.0983  0.8538
 6194SOL    HW130218   3.280   3.215  10.677 -0.6140  0.2163  1.4727
 6194SOL    HW230219   3.296   3.308  10.562 -0.8741  0.1822  0.6868
 6195SOL     OW30220   4.295   1.142   1.896 -0.1175  0.5118  0.0818
 6195SOL    HW130221   4.315   1.081   1.825  0.5895 -0.0864  0.7970
 6195SOL    HW230222   4.326   1.227   1.865 -0.7705  0.5179 -0.5529
 6196SOL     OW30223   1.044   3.063   8.065 -0.4058  0.1714  0.3321
 6196SOL    HW130224   1.125   3.065   8.115  1.1020 -1.3758 -2.0220
 6196SOL    HW230225   1.066   2.998   7.999  0.7233  0.2753  0.6120
 6197SOL     OW30226   3.017   0.699  13.304 -0.3952 -0.3071  0.0614
 6197SOL    HW130227   2.937   0.728  13.261  0.1206  0.3184 -0.4705
 6197SOL    HW230228   3.080   0.708  13.232  0.1785 -1.8835  0.3567
 6198SOL     OW30229   1.361   3.618   2.575  0.0532  0.5419 -0.1364
 6198SOL    HW130230   1.397   3.638   2.662 -1.2280  0.9832  0.3013
 6198SOL    HW230231   1.349   3.706   2.539 -1.9784  0.4197  0.2353
 6199SOL     OW30232   3.575   0.425   8.208  0.0853  0.2584 -0.3459
 6199SOL    HW130233   3.519   0.446   8.284  0.3823 -0.3206  0.0288
 6199SOL    HW230234   3.639   0.496   8.199 -0.2945  0.8478  1.5101
 6200SOL     OW30235   1.222   1.717   4.242 -0.3655  0.1658  0.4243
 6200SOL    HW130236   1.230   1.744   4.151  1.1615  2.1261  1.1405
 6200SOL    HW230237   1.228   1.622   4.242  1.4079  0.2955 -1.6963
 6201SOL     OW30238   1.821   3.280   9.866 -0.0047  0.1274 -0.0098
 6201SOL    HW130239   1.835   3.219   9.793 -0.9942  0.6132 -0.6099
 6201SOL    HW230240   1.831   3.362   9.817  1.7516  0.1241  0.3478
 6202SOL     OW30241   3.876   2.422   9.309 -0.2599  0.8069  0.8823
 6202SOL    HW130242   3.925   2.446   9.387 -2.1276 -1.6405  2.8358
 6202SOL    HW230243   3.888   2.497   9.251  0.3740 -1.0675 -1.4191
 6203SOL     OW30244   0.558   4.598   5.182  0.5504  0.0986  0.1103
 6203SOL    HW130245   0.636   4.545   5.171  0.0933 -0.2248 -1.5258
 6203SOL    HW230246   0.514   4.559   5.257 -3.2759 -0.3081 -2.3507
 6204SOL     OW30247   2.758   3.215   8.207  0.0470 -0.1993 -0.3125
 6204SOL    HW130248   2.743   3.207   8.113  0.8360  3.0443 -0.7102
 6204SOL    HW230249   2.749   3.123   8.235 -1.8207  0.0330 -0.1725
 6205SOL     OW30250   4.565   1.692   8.307 -0.5798 -0.1699  0.8086
 6205SOL    HW130251   4.517   1.622   8.263  1.8200 -2.3268  1.5841
 6205SOL    HW230252   4.578   1.759   8.240  0.9075 -0.3585  0.9160
 6206SOL     OW30253   4.159   4.015   4.752 -0.1586 -0.0630 -0.0685
 6206SOL    HW130254   4.203   3.930   4.758  1.2110  0.5292 -1.5117
 6206SOL    HW230255   4.071   3.980   4.741  0.1590 -0.7688 -0.4424
 6207SOL     OW30256   2.143   0.910  15.687  0.5061  0.0084  0.3309
 6207SOL    HW130257   2.197   0.986  15.707  0.5924 -0.6311  2.5002
 6207SOL    HW230258   2.061   0.917  15.736  0.0644  0.3205 -0.4529
 6208SOL     OW30259   4.336   3.048   2.388  0.1864  0.1726 -0.0181
 6208SOL    HW130260   4.309   3.069   2.477  0.7611 -1.4377  0.5506
 6208SOL    HW230261   4.259   2.997   2.362  1.6683 -1.8277 -0.5615
 6209SOL     OW30262   0.907   0.087   7.022 -0.1631 -0.3067 -0.1210
 6209SOL    HW130263   0.824   0.116   7.061 -0.3358  0.0287 -0.7548
 6209SOL    HW230264   0.876   0.078   6.932  2.3054 -1.1732 -0.8851
 6210SOL     OW30265   0.749   1.127   7.798  0.1172  0.0225  0.8545
 6210SOL    HW130266   0.731   1.220   7.785  0.9136 -0.0886 -1.1155
 6210SOL    HW230267   0.831   1.110   7.750 -0.7180 -1.0291 -0.1909
 6211SOL     OW30268   4.688   3.887   8.672  0.0567 -0.2479  0.2699
 6211SOL    HW130269   0.040   3.890   8.639  0.3243  1.0157  1.0934
 6211SOL    HW230270   4.656   3.825   8.607 -2.4462  0.7099  0.5631
 6212SOL     OW30271   1.814   1.766   3.559 -0.0505  0.5543  0.4845
 6212SOL    HW130272   1.752   1.812   3.616 -0.4463 -0.9914  1.2830
 6212SOL    HW230273   1.819   1.825   3.484 -0.7463 -2.0934 -1.6289
 6213SOL     OW30274   4.149   3.248  15.127  0.2567 -0.0912  0.2695
 6213SOL    HW130275   4.089   3.200  15.071  0.2774 -1.5432  1.4925
 6213SOL    HW230276   4.234   3.238  15.085  0.3355  1.3315  0.0865
 6214SOL     OW30277   3.199   2.736   8.445 -0.3808 -0.2843  0.3571
 6214SOL    HW130278   3.253   2.733   8.366  0.7187 -2.6879  1.1773
 6214SOL    HW230279   3.206   2.830   8.459 -2.4833 -0.1269  0.2962
 6215SOL     OW30280   0.973   1.668   9.279 -0.4635  0.3263 -0.0814
 6215SOL    HW130281   0.938   1.594   9.229 -1.2827  1.0413 -0.5723
 6215SOL    HW230282   1.049   1.681   9.222 -0.2986 -2.2649 -0.4730
 6216SOL     OW30283   1.844   2.602   3.001  0.4361  0.5359 -0.5445
 6216SOL    HW130284   1.933   2.572   2.986  0.5539 -0.2455  1.7480
 6216SOL    HW230285   1.852   2.682   2.949 -0.3838  0.1759 -1.2260
 6217SOL     OW30286   2.875   0.956  16.763 -0.3145 -0.5334  0.2027
 6217SOL    HW130287   2.905   0.945  16.673  0.1312 -0.8103  0.3811
 6217SOL    HW230288   2.933   1.023  16.798  1.6072 -1.7937 -0.5103
 6218SOL     OW30289   4.044   0.912   3.504  0.1314  0.5177  0.0119
 6218SOL    HW130290   3.987   0.959   3.444  0.4640  3.1034  1.7061
 6218SOL    HW230291   3.978   0.859   3.550  0.1331  0.9073  0.4647
 6219SOL     OW30292   0.285   3.864   5.368  0.3381 -0.3196 -0.0451
 6219SOL    HW130293   0.236   3.904   5.295  0.3605  0.5091  0.3916
 6219SOL    HW230294   0.377   3.873   5.343  0.1560  0.5128 -0.4353
 6220SOL     OW30295   1.160   0.234   8.417  0.3031  0.1851 -0.2378
 6220SOL    HW130296   1.077   0.283   8.411  0.9360  1.5278  1.7679
 6220SOL    HW230297   1.210   0.277   8.348  0.5189  0.1011 -0.1326
 6221SOL     OW30298   2.327   1.861   6.546 -0.7344  0.3540 -0.0530
 6221SOL    HW130299   2.330   1.807   6.625 -0.2695  2.9709  1.6795
 6221SOL    HW230300   2.336   1.798   6.474 -2.8720 -1.1832  1.0242
 6222SOL     OW30301   3.253   4.503  15.483  0.3060 -0.6698 -0.1223
 6222SOL    HW130302   3.175   4.510  15.538 -0.7715  2.2379 -2.0607
 6222SOL    HW230303   3.207   4.485  15.402 -3.3265  1.9317  1.3915
 6223SOL     OW30304   0.951   4.123  12.464  0.5456  0.6470  0.7604
 6223SOL    HW130305   0.991   4.209  12.473  0.3469  0.9022 -0.8381
 6223SOL    HW230306   0.869   4.131  12.514  0.6692 -0.6545  1.1722
 6224SOL     OW30307   1.549   4.368   7.463  0.8704  0.2649  0.2293
 6224SOL    HW130308   1.453   4.363   7.461  0.9404 -1.0241 -0.2209
 6224SOL    HW230309   1.573   4.288   7.511 -1.8255 -0.1835  0.8585
 6225SOL     OW30310   4.067   3.818   8.024 -0.1467 -0.0892  0.3080
 6225SOL    HW130311   4.107   3.788   7.942 -0.5778 -1.1954  0.4966
 6225SOL    HW230312   4.120   3.895   8.043  1.1684 -0.8577 -0.2372
 6226SOL     OW30313   0.144   0.979   6.690  0.2561 -0.1823 -0.3589
 6226SOL    HW130314   0.074   1.011   6.633 -0.8815  0.0737  1.1791
 6226SOL    HW230315   0.107   0.892   6.704  1.0660 -0.4249  0.2402
 6227SOL     OW30316   1.684   4.398   2.083 -0.2970 -0.4397 -0.3132
 6227SOL    HW130317   1.640   4.481   2.101 -2.0168 -1.5514  0.4977
 6227SOL    HW230318   1.773   4.434   2.083 -0.1988 -0.6514 -2.0508
 6228SOL     OW30319   3.208   0.296  16.187  0.2104 -0.4238 -0.4597
 6228SOL    HW130320   3.167   0.381  16.198  3.1557  0.9878 -0.2708
 6228SOL    HW230321   3.294   0.305  16.228 -0.8383  0.7637  1.4832
 6229SOL     OW30322   2.358   2.431   1.621  0.5249 -0.7356 -0.5247
 6229SOL    HW130323   2.297   2.360   1.603  0.5113 -1.6159  3.0232
 6229SOL    HW230324   2.315   2.479   1.691  0.0839  0.9595 -1.9540
 6230SOL     OW30325   2.703   0.007   4.623  0.2607 -0.1624 -0.6835
 6230SOL    HW130326   2.784   0.055   4.606  0.3674 -0.8778 -2.2562
 6230SOL    HW230327   2.731   4.657   4.651  0.7437 -0.2654 -1.4872
 6231SOL     OW30328   4.086   2.639   0.815  0.1043  0.4426  0.0165
 6231SOL    HW130329   4.102   2.715   0.872  1.1047  1.3633 -1.4640
 6231SOL    HW230330   4.160   2.632   0.755 -1.7093  0.6812 -2.2567
 6232SOL     OW30331   4.142   1.270   4.349 -0.0161  0.3276  0.0142
 6232SOL    HW130332   4.232   1.303   4.348  0.4667 -1.0105 -0.4726
 6232SOL    HW230333   4.117   1.302   4.262 -1.1848  1.7277  0.8721
 6233SOL     OW30334   4.347   4.525   7.647 -0.2232 -0.4485 -0.4744
 6233SOL    HW130335   4.377   4.438   7.671  0.7987 -0.2008 -0.8313
 6233SOL    HW230336   4.269   4.529   7.703 -0.8511  2.1950 -1.5069
 6234SOL     OW30337   2.242   4.700   7.883 -0.5182  0.1840  0.9014
 6234SOL    HW130338   2.303   0.009   7.826 -1.0645 -1.1128 -0.7601
 6234SOL    HW230339   2.169   4.700   7.821  0.2186 -0.3228  0.0194
 6235SOL     OW30340   3.149   1.599   9.804 -0.7734  0.2271  0.0925
 6235SOL    HW130341   3.177   1.588   9.895  0.9663 -0.5876 -0.5455
 6235SOL    HW230342   3.230   1.589   9.755 -0.9498  3.2706 -0.8025
 6236SOL     OW30343   1.995   4.358   8.772  0.3047 -0.2507  0.2635
 6236SOL    HW130344   2.082   4.397   8.769  1.1638 -2.0022  2.1971
 6236SOL    HW230345   1.948   4.423   8.719  0.3749  0.2455  0.8129
 6237SOL     OW30346   3.002   4.352   5.962 -0.0087  0.2356  0.1368
 6237SOL    HW130347   2.912   4.348   5.996  0.2417  1.4849  0.9768
 6237SOL    HW230348   3.050   4.397   6.031 -2.1792  1.2272  1.0286
 6238SOL     OW30349   1.140   1.238   2.566 -0.6950  0.0551 -0.5662
 6238SOL    HW130350   1.138   1.155   2.613 -1.4399 -0.5245 -1.6237
 6238SOL    HW230351   1.065   1.282   2.605  0.8479  1.0189  1.3567
 6239SOL     OW30352   0.283   0.789   5.130 -0.0238 -0.3528  0.2934
 6239SOL    HW130353   0.310   0.773   5.040  1.3258 -2.1409  1.0023
 6239SOL    HW230354   0.220   0.859   5.119 -1.2953 -1.3716  1.0785
 6240SOL     OW30355   2.485   3.087  16.547 -0.1153 -0.4115 -0.1616
 6240SOL    HW130356   2.569   3.093  16.501 -1.1401  2.9768 -1.5159
 6240SOL    HW230357   2.518   3.048  16.629 -0.3237 -0.8558 -0.2893
 6241SOL     OW30358   3.540   0.025   7.680 -0.0890 -0.0341 -0.5807
 6241SOL    HW130359   3.620   4.722   7.714  0.7246  2.0464  0.0055
 6241SOL    HW230360   3.498   0.038   7.765  4.0925  2.9408  1.0372
 6242SOL     OW30361   0.071   3.281   6.064 -0.9493  0.1497  0.2107
 6242SOL    HW130362   0.066   3.368   6.103  3.3428  1.4978 -2.2104
 6242SOL    HW230363   0.154   3.293   6.017  0.3320 -0.9798  2.1669
 6243SOL     OW30364   1.749   4.186   1.426 -0.1671  0.0640  0.0065
 6243SOL    HW130365   1.710   4.268   1.456 -1.0051  0.3470 -1.8502
 6243SOL    HW230366   1.668   4.134   1.419 -1.5053  2.1945 -0.2206
 6244SOL     OW30367   0.248   0.180   6.514  0.5509 -0.1703  0.0587
 6244SOL    HW130368   0.304   0.222   6.580 -0.3031  1.1085 -0.0136
 6244SOL    HW230369   0.159   0.191   6.547  1.0602  0.6924  1.1770
 6245SOL     OW30370   0.813   4.181   8.605 -0.1159  0.1600 -0.1738
 6245SOL    HW130371   0.771   4.123   8.669 -1.2117  0.4225 -0.6695
 6245SOL    HW230372   0.792   4.270   8.634  1.8655  0.4890  0.2697
 6246SOL     OW30373   0.475   3.251   4.484  0.2650  0.2874 -0.7394
 6246SOL    HW130374   0.393   3.225   4.443 -0.3772  0.7129  0.2694
 6246SOL    HW230375   0.469   3.219   4.574 -0.9996  0.2651 -0.8286
 6247SOL     OW30376   3.077   3.790   0.284 -0.5659 -0.3155  0.1563
 6247SOL    HW130377   3.008   3.792   0.351 -1.9469 -0.8065 -1.2753
 6247SOL    HW230378   3.144   3.746   0.336 -0.9738 -2.1607 -0.8919
 6248SOL     OW30379   0.824   2.767   4.332  0.4322 -0.1250  0.3980
 6248SOL    HW130380   0.836   2.691   4.276 -1.4231  0.5541 -0.9088
 6248SOL    HW230381   0.795   2.730   4.415 -0.7593 -0.6480 -0.2576
 6249SOL     OW30382   2.552   2.959   2.786  0.3056 -0.2511 -0.0593
 6249SOL    HW130383   2.532   2.894   2.718 -1.3106 -0.5107  0.6505
 6249SOL    HW230384   2.585   2.900   2.854  0.5706 -1.1062 -0.9316
 6250SOL     OW30385   1.197   2.266  17.227 -0.0508  0.3383  0.4294
 6250SOL    HW130386   1.185   2.176  17.257 -0.4264  0.1403 -0.3232
 6250SOL    HW230387   1.110   2.305  17.232  0.1444  0.6925  1.1296
 6251SOL     OW30388   2.886   1.491   1.908  0.0754 -0.3704  0.1078
 6251SOL    HW130389   2.807   1.502   1.856  1.7095  1.8880 -1.8945
 6251SOL    HW230390   2.917   1.404   1.880  0.3671 -0.2734  0.1232
 6252SOL     OW30391   2.555   4.021  15.939 -0.0595 -0.7290  0.1532
 6252SOL    HW130392   2.642   3.982  15.934  1.1453  1.9395  0.6725
 6252SOL    HW230393   2.516   4.009  15.852  0.5061 -2.6537  0.1765
 6253SOL     OW30394   0.355   3.717   5.009  0.5559 -0.3301  0.1544
 6253SOL    HW130395   0.344   3.795   4.955 -0.4328  0.0895  0.9631
 6253SOL    HW230396   0.421   3.669   4.958 -0.2958 -1.2484 -0.0696
 6254SOL     OW30397   1.074   2.254  12.556  0.3993  0.1616  0.1552
 6254SOL    HW130398   1.107   2.334  12.515  1.7203 -0.3540  0.1994
 6254SOL    HW230399   1.158   2.209  12.567  0.1549  0.7814  4.4712
 6255SOL     OW30400   3.830   4.371   9.547  0.2754 -0.0623 -0.6618
 6255SOL    HW130401   3.873   4.296   9.505  0.3005 -0.4218  0.0149
 6255SOL    HW230402   3.782   4.399   9.469  0.0209  1.3726  0.0130
 6256SOL     OW30403   0.540   0.045   9.103  0.0752 -0.1770  0.1116
 6256SOL    HW130404   0.512   4.696   9.076 -1.7490  0.2477  0.6659
 6256SOL    HW230405   0.488   0.068   9.180  0.0411  1.4384 -0.3941
 6257SOL     OW30406   4.420   4.552   5.931 -0.4999 -1.1640  0.5959
 6257SOL    HW130407   4.377   4.513   5.855  1.1931 -0.6209 -0.6114
 6257SOL    HW230408   4.389   4.642   5.922 -0.3765 -1.2671 -0.8609
 6258SOL     OW30409   2.443   3.448  13.866 -0.0889 -0.8060 -0.0867
 6258SOL    HW130410   2.451   3.353  13.858  1.6039 -0.3552 -3.8425
 6258SOL    HW230411   2.519   3.481  13.818  2.3879 -1.0259  3.7309
 6259SOL     OW30412   2.161   0.079   3.359  0.7099 -0.0939  0.1746
 6259SOL    HW130413   2.113   4.737   3.337 -1.3408  0.5571  2.3512
 6259SOL    HW230414   2.162   0.071   3.454  2.8915 -2.4364 -0.0334
 6260SOL     OW30415   3.142   3.083  11.960  0.4303 -0.5934 -0.7901
 6260SOL    HW130416   3.102   3.016  12.015 -0.6709 -0.1257 -1.0266
 6260SOL    HW230417   3.223   3.046  11.924  1.7994  2.5767 -0.9159
 6261SOL     OW30418   2.631   2.015   1.479 -0.4581  0.1592 -0.2908
 6261SOL    HW130419   2.558   1.960   1.452  1.5607 -1.7876 -1.8124
 6261SOL    HW230420   2.596   2.095   1.441 -0.0619 -0.0604 -1.1259
 6262SOL     OW30421   4.714   3.148   4.669 -0.3167 -0.1142 -0.0144
 6262SOL    HW130422   4.623   3.153   4.642 -0.6346 -0.5928  0.9765
 6262SOL    HW230423   0.014   3.125   4.584 -1.3674 -0.7801 -0.2957
 6263SOL     OW30424   1.723   1.187  11.691  0.6738 -0.1279  0.2010
 6263SOL    HW130425   1.740   1.200  11.785 -3.0787 -0.7509  0.9474
 6263SOL    HW230426   1.809   1.162  11.657  1.6011  1.0724  1.6484
 6264SOL     OW30427   0.169   1.628  14.221  0.6558  0.0185 -0.0744
 6264SOL    HW130428   0.232   1.667  14.282  1.1454 -0.7273 -0.1022
 6264SOL    HW230429   0.090   1.638  14.274  1.5290  0.4509  1.1638
 6265SOL     OW30430   2.073   4.361   2.343  0.2550 -0.0483  0.2843
 6265SOL    HW130431   2.139   4.412   2.297  0.2935  3.4046  4.1969
 6265SOL    HW230432   2.056   4.291   2.280  0.0245  0.0585  0.2296
 6266SOL     OW30433   0.687   1.366   2.492  0.7459 -0.5250 -0.0276
 6266SOL    HW130434   0.597   1.334   2.503  0.0351  1.6250  0.3973
 6266SOL    HW230435   0.690   1.392   2.400  0.4650 -0.4553 -0.0196
 6267SOL     OW30436   4.229   2.144   2.128 -0.4034  0.0354 -0.4608
 6267SOL    HW130437   4.272   2.059   2.123  2.6840  1.5655  0.3412
 6267SOL    HW230438   4.161   2.116   2.191 -0.4151 -0.8159 -0.8507
 6268SOL     OW30439   3.599   3.812  10.154 -0.8164 -0.7366 -0.4320
 6268SOL    HW130440   3.638   3.852  10.076 -1.5922 -0.6209 -0.7635
 6268SOL    HW230441   3.676   3.796  10.208  1.6010  0.2720 -3.5907
 6269SOL     OW30442   0.828   1.366   1.557 -0.5247  0.5623 -0.5435
 6269SOL    HW130443   0.835   1.272   1.536 -0.8644 -0.0292  1.9890
 6269SOL    HW230444   0.889   1.413   1.501  0.8383  0.8317  1.1763
 6270SOL     OW30445   0.865   1.159   2.399  0.1634 -0.3305  0.1086
 6270SOL    HW130446   0.845   1.246   2.367  0.5093  0.1969  1.3189
 6270SOL    HW230447   0.878   1.176   2.492 -0.3829  2.5770 -0.3464
 6271SOL     OW30448   0.973   1.508   0.298  0.4186 -0.4743  0.5794
 6271SOL    HW130449   0.923   1.504   0.216  0.0402  0.8370  0.7483
 6271SOL    HW230450   1.051   1.457   0.279  0.3295 -0.2369 -0.4495
 6272SOL     OW30451   0.105   2.087   6.146  0.3025  0.2503  0.1583
 6272SOL    HW130452   0.193   2.099   6.110  0.1659  2.4986  0.5515
 6272SOL    HW230453   0.050   2.101   6.069 -1.9498 -1.0561  1.5299
 6273SOL     OW30454   2.764   4.585  12.972  0.1129 -0.1201 -0.1669
 6273SOL    HW130455   2.699   4.577  12.903  0.8812  1.2790 -1.0550
 6273SOL    HW230456   2.721   4.634  13.042  1.8393  0.9672  0.1311
 6274SOL     OW30457   0.414   2.035   1.789 -0.5629 -0.5573 -0.2042
 6274SOL    HW130458   0.384   2.095   1.720  1.1574  0.1461 -0.3579
 6274SOL    HW230459   0.363   1.958   1.765  1.0726 -1.7660  0.1977
 6275SOL     OW30460   4.071   4.616   3.022  0.3500 -0.2187 -0.0963
 6275SOL    HW130461   4.092   4.709   3.020  0.8561 -0.3270  0.3266
 6275SOL    HW230462   3.976   4.624   3.016  0.3746 -0.6098 -1.1412
 6276SOL     OW30463   3.389   4.443   8.745 -0.3056 -0.0453 -0.6190
 6276SOL    HW130464   3.375   4.445   8.650 -2.7245  0.4328 -0.2589
 6276SOL    HW230465   3.450   4.516   8.736 -1.2220  0.8419  0.3490
 6277SOL     OW30466   2.138   1.093   0.422 -0.2401 -0.4727 -0.1258
 6277SOL    HW130467   2.225   1.073   0.388 -1.4019 -0.7724 -2.9588
 6277SOL    HW230468   2.156   1.168   0.479  1.9764  0.4460 -2.0067
 6278SOL     OW30469   1.488   2.973  12.433 -0.3889  0.4638 -0.4295
 6278SOL    HW130470   1.471   2.917  12.357 -0.3298  0.2260 -0.2658
 6278SOL    HW230471   1.438   3.047  12.399  0.6669  0.9054 -1.0218
 6279SOL     OW30472   2.990   2.064   1.890 -0.2025  0.3215  0.4515
 6279SOL    HW130473   2.926   1.992   1.898 -0.1221  0.6095  3.8339
 6279SOL    HW230474   2.930   2.123   1.936 -1.2787 -0.1318 -0.3797
 6280SOL     OW30475   3.114   2.829  16.186  0.3922  0.5319 -0.4074
 6280SOL    HW130476   3.019   2.820  16.176  0.7220 -2.6613 -0.6564
 6280SOL    HW230477   3.134   2.743  16.150 -1.0191  1.2643 -2.9270
 6281SOL     OW30478   4.255   4.104   9.037 -0.0230  0.1864  0.5646
 6281SOL    HW130479   4.183   4.142   9.086  0.0040  2.2204 -0.9760
 6281SOL    HW230480   4.228   4.125   8.947  1.3221 -1.9243 -0.3442
 6282SOL     OW30481   1.545   1.667   5.792 -0.1365  0.4128 -0.0313
 6282SOL    HW130482   1.542   1.705   5.704  1.1295  1.4269  0.3744
 6282SOL    HW230483   1.603   1.592   5.777 -1.2920  0.1790 -3.3758
 6283SOL     OW30484   2.169   2.625   8.247 -0.3246  0.0024 -0.1218
 6283SOL    HW130485   2.120   2.707   8.251 -0.1639  0.2218 -2.5486
 6283SOL    HW230486   2.192   2.630   8.154  1.0467 -0.0499  0.2104
 6284SOL     OW30487   3.311   2.966   4.626 -0.1124  0.0733 -0.5746
 6284SOL    HW130488   3.334   3.042   4.679  1.0039 -0.2110 -0.6404
 6284SOL    HW230489   3.221   2.989   4.607 -0.9153 -0.1838  3.0554
 6285SOL     OW30490   3.191   3.548   8.689 -0.8214 -0.6359 -0.1952
 6285SOL    HW130491   3.218   3.460   8.664  0.8717  0.2983 -1.7776
 6285SOL    HW230492   3.228   3.559   8.776  0.4533  1.5725 -0.9955
 6286SOL     OW30493   3.523   4.351   0.433 -0.3555 -0.0306  0.4568
 6286SOL    HW130494   3.607   4.381   0.468  0.0727 -0.5429 -0.1263
 6286SOL    HW230495   3.533   4.376   0.342  0.5752 -1.0093  0.2875
 6287SOL     OW30496   0.225   2.171   8.041 -0.2969 -0.4578  1.1952
 6287SOL    HW130497   0.166   2.197   8.112 -1.7807 -0.7917  0.0583
 6287SOL    HW230498   0.204   2.079   8.029 -0.8049  0.0121 -1.4632
 6288SOL     OW30499   2.996   2.678   6.046  0.4858 -0.1280 -0.1086
 6288SOL    HW130500   2.927   2.618   6.016  1.1049 -1.0365  0.2795
 6288SOL    HW230501   2.990   2.732   5.967  0.4989 -1.6937 -1.1737
 6289SOL     OW30502   1.482   0.971   0.951  0.1378 -0.0352  0.3789
 6289SOL    HW130503   1.493   0.892   0.898  3.3181 -0.3538  1.5018
 6289SOL    HW230504   1.467   1.031   0.878 -0.3865 -0.6483 -0.0166
 6290SOL     OW30505   2.321   1.571   5.028 -0.3996  0.3542  0.3875
 6290SOL    HW130506   2.367   1.561   5.111 -0.0243  1.2580  0.2855
 6290SOL    HW230507   2.386   1.567   4.958 -0.0514  1.1349  0.6704
 6291SOL     OW30508   2.487   3.582   2.344 -0.3420  0.2699  0.0418
 6291SOL    HW130509   2.551   3.541   2.286  0.5387  1.9480 -0.1700
 6291SOL    HW230510   2.524   3.549   2.425 -1.1072  0.3371  0.4146
 6292SOL     OW30511   0.538   2.693   1.201  0.6864 -0.0749  0.1336
 6292SOL    HW130512   0.586   2.626   1.151 -1.6983 -1.5645 -0.1935
 6292SOL    HW230513   0.452   2.688   1.159  1.5907 -3.4236 -1.3119
 6293SOL     OW30514   1.402   3.163  11.501 -0.0919 -0.0688 -0.4840
 6293SOL    HW130515   1.436   3.246  11.534  0.1450  0.1203 -1.2017
 6293SOL    HW230516   1.435   3.111  11.574  1.5227 -1.0159 -1.8871
 6294SOL     OW30517   2.283   2.108   5.898  0.0810  0.4602  1.1075
 6294SOL    HW130518   2.197   2.139   5.927  0.4985  1.2225  1.5429
 6294SOL    HW230519   2.344   2.176   5.928  2.0674 -0.7400 -0.2143
 6295SOL     OW30520   2.192   2.401   7.556 -0.4319 -0.1701 -0.4383
 6295SOL    HW130521   2.219   2.445   7.637  1.2384  0.4485 -1.3322
 6295SOL    HW230522   2.259   2.333   7.555  0.1976  0.4650 -1.6508
 6296SOL     OW30523   0.695   2.486   3.881 -0.0050 -0.0361 -0.3455
 6296SOL    HW130524   0.680   2.463   3.972  1.1339 -3.2396 -0.9837
 6296SOL    HW230525   0.608   2.478   3.843 -0.0794 -1.6435  0.2087
 6297SOL     OW30526   3.961   4.701   0.938 -0.6378  0.3693 -0.7224
 6297SOL    HW130527   4.039   4.655   0.906 -0.3610  0.8142 -0.6927
 6297SOL    HW230528   3.973   0.037   0.878  1.6828 -0.4641 -1.3115
 6298SOL     OW30529   3.222   0.087   5.615 -0.0368  0.0154 -0.0024
 6298SOL    HW130530   3.283   0.064   5.545 -1.0387 -1.2906 -0.4420
 6298SOL    HW230531   3.224   0.001   5.656  0.7163 -0.0515 -0.1827
 6299SOL     OW30532   0.734   1.884  10.484  0.1368 -0.1992  0.4628
 6299SOL    HW130533   0.823   1.884  10.450 -0.4623  2.4247 -1.1787
 6299SOL    HW230534   0.697   1.956  10.433  1.3094 -1.6448 -2.4003
 6300SOL     OW30535   1.041   1.973   3.905  0.2129 -0.1433  0.5784
 6300SOL    HW130536   1.084   1.894   3.939 -0.0179 -0.9690 -1.0158
 6300SOL    HW230537   0.973   1.934   3.850 -0.1888  0.6005  0.5527
 6301SOL     OW30538   1.541   3.297   6.828 -0.0931  0.2854  0.5907
 6301SOL    HW130539   1.457   3.275   6.867  0.6714 -1.3096  1.3667
 6301SOL    HW230540   1.553   3.228   6.763  0.5380  0.9998 -0.0415
 6302SOL     OW30541   1.771   0.844   3.429 -0.4610 -0.6841  0.0758
 6302SOL    HW130542   1.735   0.809   3.347  0.1856  0.1932 -0.5809
 6302SOL    HW230543   1.849   0.885   3.393 -1.2517  0.0178 -0.8614
 6303SOL     OW30544   1.086   2.964   6.419 -0.3804  0.1595 -0.1878
 6303SOL    HW130545   1.154   2.997   6.478 -0.7674 -1.3940  1.1242
 6303SOL    HW230546   1.008   3.019   6.433  0.6995  1.5417  0.3763
 6304SOL     OW30547   1.238   1.876   5.357  0.1541 -0.1916  0.2734
 6304SOL    HW130548   1.232   1.815   5.283 -0.4922 -0.1162  0.2667
 6304SOL    HW230549   1.185   1.947   5.322 -1.9149 -0.8526  2.0941
 6305SOL     OW30550   0.834   4.190   6.737 -0.4509  0.4559  0.1887
 6305SOL    HW130551   0.749   4.219   6.705 -0.2183  3.3895  2.2198
 6305SOL    HW230552   0.847   4.109   6.688 -0.8801  0.1005  0.6642
 6306SOL     OW30553   0.709   1.482   8.715  0.5093 -0.0919 -0.3303
 6306SOL    HW130554   0.665   1.433   8.784 -0.8843  2.8194  0.8390
 6306SOL    HW230555   0.634   1.493   8.657 -0.6551  0.4108  1.3019
 6307SOL     OW30556   2.693   3.828   1.958  0.2532  0.2280  0.0730
 6307SOL    HW130557   2.786   3.851   1.964  0.3931 -0.5184  0.8483
 6307SOL    HW230558   2.699   3.745   1.911 -0.6715 -0.4894  1.2192
 6308SOL     OW30559   1.736   2.724   5.453 -0.2762  0.0870  0.0228
 6308SOL    HW130560   1.680   2.672   5.396 -1.2010  0.0505  0.9766
 6308SOL    HW230561   1.782   2.793   5.406 -0.7184  1.6906  1.9427
 6309SOL     OW30562   1.440   2.910   3.933  0.0077 -0.3822  0.3048
 6309SOL    HW130563   1.404   2.848   3.869 -0.0763 -0.9793  0.9292
 6309SOL    HW230564   1.418   2.882   4.022 -0.7406 -1.8327 -0.3254
 6310SOL     OW30565   2.058   0.938   7.792  0.1410  0.2190  0.4418
 6310SOL    HW130566   2.078   0.872   7.726  0.6293 -0.1890  0.9920
 6310SOL    HW230567   2.149   0.954   7.819 -0.3406  1.5310  1.2537
 6311SOL     OW30568   1.172   3.944   8.148 -0.4953 -0.3458  0.9015
 6311SOL    HW130569   1.135   3.860   8.177  0.0044 -1.1628 -0.8414
 6311SOL    HW230570   1.267   3.928   8.147 -0.7734 -2.0708  2.0038
 6312SOL     OW30571   0.152   2.913  10.700 -0.0838  0.5045 -0.2665
 6312SOL    HW130572   0.152   2.889  10.607  1.8720 -1.0514  0.1278
 6312SOL    HW230573   0.243   2.898  10.723  0.0180  0.9811 -0.3591
 6313SOL     OW30574   2.465   0.468   6.616 -0.3873 -0.2557  0.3488
 6313SOL    HW130575   2.485   0.546   6.666  0.7608 -0.4380  0.1742
 6313SOL    HW230576   2.471   0.404   6.686 -4.1517 -1.0882 -0.0716
 6314SOL     OW30577   0.028   4.336  16.708 -0.2048 -0.1336 -0.3512
 6314SOL    HW130578   4.679   4.368  16.736 -0.1775  1.1834 -1.7491
 6314SOL    HW230579   0.090   4.408  16.721  1.1914 -1.7377  1.8140
 6315SOL     OW30580   2.011   2.757   4.742  0.6141 -0.2663 -0.3932
 6315SOL    HW130581   1.941   2.732   4.682  0.9795 -0.5639 -0.6920
 6315SOL    HW230582   2.030   2.675   4.789  0.9606  0.0299 -0.0085
 6316SOL     OW30583   0.290   1.517   7.916 -0.1172 -0.2505 -0.2238
 6316SOL    HW130584   0.321   1.504   7.826 -3.0577 -1.6434 -1.0423
 6316SOL    HW230585   0.378   1.521   7.954 -0.1407  0.9772 -0.3046
 6317SOL     OW30586   0.122   1.806   1.115 -0.5629 -0.2565 -0.4697
 6317SOL    HW130587   0.094   1.885   1.068 -1.7968  0.1542  0.9579
 6317SOL    HW230588   0.130   1.752   1.036  0.8529  1.2714 -1.3991
 6318SOL     OW30589   1.171   0.822   9.581  0.2204  0.2674 -0.8591
 6318SOL    HW130590   1.109   0.846   9.511 -1.5936 -1.1000  0.2833
 6318SOL    HW230591   1.226   0.771   9.522 -0.2707 -0.1940 -0.9216
 6319SOL     OW30592   3.082   2.444   9.064  0.2331 -0.5399  0.0244
 6319SOL    HW130593   3.010   2.433   9.126 -0.4584 -0.5154 -0.7683
 6319SOL    HW230594   3.097   2.353   9.039 -2.0720 -0.7633 -0.6004
 6320SOL     OW30595   0.739   1.558  16.990  0.2464 -0.5058 -0.1738
 6320SOL    HW130596   0.717   1.636  17.042 -0.0117 -1.7358  1.5846
 6320SOL    HW230597   0.712   1.499  17.061 -0.4072 -1.9219 -1.5962
 6321SOL     OW30598   4.481   4.043   4.015  0.1117  0.4118  0.1359
 6321SOL    HW130599   4.443   4.083   4.094 -1.6432  0.9444 -0.9801
 6321SOL    HW230600   4.548   3.996   4.065  0.5169  0.7822 -0.0590
 6322SOL     OW30601   0.013   3.028  12.254  0.6260  0.1722 -0.0507
 6322SOL    HW130602   0.061   2.983  12.324  0.0748 -0.2186  0.0731
 6322SOL    HW230603   4.662   3.040  12.287  1.2199 -0.1320  1.6750
 6323SOL     OW30604   2.488   3.908   2.387 -0.2688  0.0636 -0.1798
 6323SOL    HW130605   2.431   3.857   2.444  0.3071 -0.7449 -0.3333
 6323SOL    HW230606   2.463   3.867   2.305 -4.3418  0.0613  1.0401
 6324SOL     OW30607   3.075   0.087   4.108 -0.0660 -0.5133 -0.3310
 6324SOL    HW130608   3.157   0.082   4.156  0.1776 -0.0358 -0.6960
 6324SOL    HW230609   3.043   0.167   4.150  1.2047  0.4281 -1.1718
 6325SOL     OW30610   2.047   3.406   8.166 -0.1616  0.7367 -0.2452
 6325SOL    HW130611   2.057   3.338   8.099  4.6561  0.9779  0.2079
 6325SOL    HW230612   2.078   3.480   8.113  1.1868  1.2888  1.3361
 6326SOL     OW30613   4.617   1.360   5.964 -0.3242  0.1137  0.2259
 6326SOL    HW130614   4.594   1.304   6.038 -1.5000  0.2073 -0.0733
 6326SOL    HW230615   4.546   1.424   5.968  0.2323  0.7275  0.1971
 6327SOL     OW30616   2.895   0.964   6.986  0.3050  0.0215 -0.0770
 6327SOL    HW130617   2.954   0.897   6.950 -1.3200 -2.0655  1.1825
 6327SOL    HW230618   2.941   0.978   7.069  0.6752  1.2762 -0.5000
 6328SOL     OW30619   2.032   2.234   2.982 -0.5380 -0.0788 -0.0601
 6328SOL    HW130620   1.940   2.260   2.992 -0.0990  1.1920  0.6566
 6328SOL    HW230621   2.028   2.140   3.000  0.5337 -0.5475 -2.3819
 6329SOL     OW30622   4.441   3.129   6.633 -0.2545 -0.0351 -0.2769
 6329SOL    HW130623   4.466   3.090   6.717 -1.0420  1.8827  0.8410
 6329SOL    HW230624   4.376   3.192   6.664  1.1345  0.1260  2.2197
 6330SOL     OW30625   4.732   2.181   6.642  0.0011  0.4092  0.0097
 6330SOL    HW130626   4.646   2.142   6.656  0.3721 -0.5301 -0.3264
 6330SOL    HW230627   4.735   2.179   6.546 -0.8352  0.0802 -0.0078
 6331SOL     OW30628   3.787   3.760   0.060  0.3138  0.2166 -0.5256
 6331SOL    HW130629   3.819   3.697   0.124 -0.2369  0.6200  0.1445
 6331SOL    HW230630   3.756   3.825   0.123  1.0468  0.0438  0.0121
 6332SOL     OW30631   3.159   1.539   3.519 -0.2015 -0.8546  0.3890
 6332SOL    HW130632   3.233   1.598   3.508  0.5670 -1.5626  1.7829
 6332SOL    HW230633   3.155   1.535   3.615  0.6571  2.1179  0.5452
 6333SOL     OW30634   1.898   3.381   9.083 -0.4901  0.7081 -0.2827
 6333SOL    HW130635   1.856   3.347   9.162 -0.4487 -2.0383 -1.4678
 6333SOL    HW230636   1.917   3.296   9.044 -3.2741  0.0520 -0.1692
 6334SOL     OW30637   4.153   1.547  13.482 -0.4742 -0.1978 -0.0143
 6334SOL    HW130638   4.099   1.468  13.472  0.2346 -0.0843 -4.7879
 6334SOL    HW230639   4.183   1.526  13.570  3.3785 -1.9519 -1.7602
 6335SOL     OW30640   0.723   2.464  13.858 -0.1159  0.3539 -0.1684
 6335SOL    HW130641   0.807   2.421  13.840 -0.0825  0.3766 -0.0655
 6335SOL    HW230642   0.732   2.540  13.800 -0.0947  0.7659  0.3782
 6336SOL     OW30643   2.076   1.505  14.926  0.2628  0.1572 -0.6260
 6336SOL    HW130644   2.012   1.435  14.932  0.2551  0.1102 -1.3214
 6336SOL    HW230645   2.034   1.549  14.852  3.3770  1.2127 -1.7796
 6337SOL     OW30646   1.106   4.732   3.185  0.5325 -0.1700 -0.3247
 6337SOL    HW130647   1.161   0.066   3.155 -0.4738  1.0585  0.7950
 6337SOL    HW230648   1.149   4.710   3.268  1.0733 -0.1863 -0.6120
 6338SOL     OW30649   1.182   1.724   1.044 -0.1668  0.1694 -0.6010
 6338SOL    HW130650   1.249   1.713   0.977  0.0605  1.1488 -0.5292
 6338SOL    HW230651   1.120   1.658   1.012  0.0833 -0.2770 -0.1816
 6339SOL     OW30652   2.215   2.456  17.553 -0.6091  0.0686  0.0370
 6339SOL    HW130653   2.204   2.363  17.568 -1.2687  0.5760  2.7948
 6339SOL    HW230654   2.126   2.488  17.570 -0.5594 -1.1313  2.6084
 6340SOL     OW30655   2.129   1.252   3.644 -0.5219 -0.2390 -0.0574
 6340SOL    HW130656   2.213   1.252   3.599 -1.1660 -1.1687 -1.2901
 6340SOL    HW230657   2.061   1.226   3.581 -0.6051 -0.2601  0.0402
 6341SOL     OW30658   0.730   3.861   1.680 -0.0429 -0.1880 -0.8055
 6341SOL    HW130659   0.668   3.897   1.616  0.3563 -0.6252 -1.4453
 6341SOL    HW230660   0.804   3.830   1.627  0.7326 -1.5414  1.0868
 6342SOL     OW30661   0.964   1.320   3.422 -0.5465  0.0149  0.2406
 6342SOL    HW130662   1.026   1.247   3.415  1.4739  1.9065 -1.4437
 6342SOL    HW230663   1.012   1.383   3.369 -0.7679  0.0685  0.1054
 6343SOL     OW30664   3.482   3.458  15.227  0.7360  0.1793 -0.5825
 6343SOL    HW130665   3.433   3.423  15.301  0.5792  0.5790 -0.4925
 6343SOL    HW230666   3.567   3.416  15.225  0.0829 -1.1719  0.0308
 6344SOL     OW30667   2.808   0.142   3.147  0.1080  0.2624  0.6667
 6344SOL    HW130668   2.754   0.146   3.069  2.8009 -1.5688 -1.3308
 6344SOL    HW230669   2.802   0.050   3.174 -0.6302  0.0434 -0.2934
 6345SOL     OW30670   0.030   0.744  11.489  0.5888  0.5101 -0.6030
 6345SOL    HW130671   4.695   0.703  11.535  0.4647  0.6509 -0.6732
 6345SOL    HW230672   0.071   0.674  11.439 -3.6831 -2.0794 -0.4480
 6346SOL     OW30673   1.283   0.351  10.976  0.3726 -0.1170 -0.3078
 6346SOL    HW130674   1.249   0.263  10.962  1.1715 -0.9317  2.7565
 6346SOL    HW230675   1.326   0.374  10.894 -1.2547  0.6413 -0.9510
 6347SOL     OW30676   0.109   2.219   3.740  0.3988  0.3047 -0.5229
 6347SOL    HW130677   0.127   2.186   3.828 -1.3604 -0.2192 -0.3392
 6347SOL    HW230678   0.020   2.255   3.746 -0.2629 -1.5509  0.7009
 6348SOL     OW30679   3.010   2.689   7.903  0.2024  0.3117 -0.9373
 6348SOL    HW130680   3.053   2.607   7.881  2.5232  0.6555  2.2503
 6348SOL    HW230681   2.937   2.698   7.841 -0.2265  0.5663 -0.4055
 6349SOL     OW30682   1.983   2.099  14.579 -0.0620 -0.6277  0.3357
 6349SOL    HW130683   1.969   2.005  14.586 -2.1965 -0.1569  2.6976
 6349SOL    HW230684   1.978   2.128  14.670 -0.8770 -0.4782  0.2482
 6350SOL     OW30685   1.582   2.019   8.524  0.2797 -0.0790 -0.3757
 6350SOL    HW130686   1.552   2.092   8.579  0.7833 -0.2922  0.1858
 6350SOL    HW230687   1.610   1.966   8.599  0.4152 -0.4585 -0.6966
 6351SOL     OW30688   2.422   4.116  10.065 -0.2514 -0.1254 -0.2129
 6351SOL    HW130689   2.462   4.069  10.138  1.8303  1.9346 -0.0282
 6351SOL    HW230690   2.492   4.179  10.050 -0.9462  0.2181 -2.1252
 6352SOL     OW30691   0.761   1.439   4.762  0.4134 -0.0677 -0.3429
 6352SOL    HW130692   0.809   1.360   4.789  1.4301  0.3326 -0.9936
 6352SOL    HW230693   0.792   1.512   4.815  0.6525 -0.7908  0.5154
 6353SOL     OW30694   3.483   2.584   7.213 -0.0645  0.0858 -0.2127
 6353SOL    HW130695   3.561   2.554   7.166  0.6781 -1.3858  1.9368
 6353SOL    HW230696   3.510   2.582   7.305 -0.6422 -0.1012 -0.0440
 6354SOL     OW30697   4.183   0.093   9.590 -0.2790  0.1816 -0.5483
 6354SOL    HW130698   4.182   0.015   9.645 -2.1103 -0.3629 -1.3695
 6354SOL    HW230699   4.106   0.134   9.629 -0.3052 -1.8623  1.5371
 6355SOL     OW30700   1.967   1.231   9.123  0.6074 -0.0880  0.0204
 6355SOL    HW130701   1.966   1.318   9.163 -0.4143 -0.2248  0.2991
 6355SOL    HW230702   2.057   1.198   9.126  1.0906  1.2337  0.2919
 6356SOL     OW30703   2.201   1.201   1.772 -0.2776 -0.5443 -0.0663
 6356SOL    HW130704   2.265   1.240   1.831 -0.7782  1.8945 -1.1347
 6356SOL    HW230705   2.215   1.109   1.791 -0.5411 -0.8360 -1.2960
 6357SOL     OW30706   2.082   0.693   3.365 -0.1087 -0.0377 -0.0787
 6357SOL    HW130707   2.118   0.625   3.420  2.6495  0.7878 -0.8639
 6357SOL    HW230708   2.124   0.772   3.398  1.9973 -1.7128  1.2121
 6358SOL     OW30709   1.679   1.502   3.594  0.4117 -0.0318  0.0228
 6358SOL    HW130710   1.736   1.573   3.623  0.4460  0.3801 -1.0518
 6358SOL    HW230711   1.726   1.426   3.627 -0.1747  1.0341  3.2553
 6359SOL     OW30712   4.262   1.686   4.908  0.5285  0.3513 -0.2295
 6359SOL    HW130713   4.268   1.680   4.813  0.6293 -0.1323 -0.1920
 6359SOL    HW230714   4.249   1.779   4.923 -2.6334 -0.3874  1.5373
 6360SOL     OW30715   0.794   1.987   5.612 -0.0017 -0.0276 -0.1627
 6360SOL    HW130716   0.888   2.008   5.616  0.0015 -0.0320 -0.2185
 6360SOL    HW230717   0.790   1.934   5.692  0.2987 -0.0474 -0.1582
 6361SOL     OW30718   0.559   0.236  10.918  0.2916  0.5379 -0.3957
 6361SOL    HW130719   0.607   0.284  10.987 -0.2161  1.0480 -0.4035
 6361SOL    HW230720   0.466   0.239  10.940  0.0331 -1.7143 -1.2043
 6362SOL     OW30721   4.407   1.422   2.260 -0.4838 -0.5532  0.2690
 6362SOL    HW130722   4.458   1.475   2.322 -1.5665  2.2401 -1.2488
 6362SOL    HW230723   4.464   1.346   2.254 -0.6339 -0.6586  0.1904
 6363SOL     OW30724   0.060   1.509   2.597 -0.2558 -0.0984 -0.0673
 6363SOL    HW130725   0.077   1.507   2.691 -0.5006  1.2148  0.0152
 6363SOL    HW230726   4.704   1.497   2.587 -0.3661 -0.5281  1.4854
 6364SOL     OW30727   0.747   4.237  16.020  0.6205 -0.4944  0.0912
 6364SOL    HW130728   0.704   4.303  15.966 -2.0625 -3.3997 -1.3271
 6364SOL    HW230729   0.833   4.270  15.995 -0.2260  1.4814 -0.1955
 6365SOL     OW30730   0.023   0.658  12.964  0.2834 -0.0778 -0.4162
 6365SOL    HW130731   0.080   0.622  13.032 -2.6031  2.8109  3.5381
 6365SOL    HW230732   0.088   0.717  12.928  0.0945 -0.1202 -0.8339
 6366SOL     OW30733   0.566   3.636   5.676 -0.2677  0.2923 -0.3947
 6366SOL    HW130734   0.623   3.569   5.714  0.2584 -0.3551 -2.3431
 6366SOL    HW230735   0.502   3.583   5.629 -0.0628  0.7230 -1.1616
 6367SOL     OW30736   2.420   0.321   1.713 -0.1674  0.6034 -0.2796
 6367SOL    HW130737   2.401   0.234   1.678  2.5480 -0.6108  1.2266
 6367SOL    HW230738   2.484   0.347   1.647  0.5456  1.5306  0.7696
 6368SOL     OW30739   1.358   4.108  11.291 -0.0171 -0.2864 -0.0520
 6368SOL    HW130740   1.303   4.073  11.222  0.2699 -0.2540 -0.2944
 6368SOL    HW230741   1.304   4.185  11.309  0.5429  0.5143 -1.8362
 6369SOL     OW30742   3.601   4.253  17.144  0.1703  0.0098 -0.3185
 6369SOL    HW130743   3.604   4.168  17.101 -1.6935  0.4510 -1.3241
 6369SOL    HW230744   3.577   4.311  17.072 -1.6937 -1.1676 -0.6561
 6370SOL     OW30745   2.831   2.389   1.684  0.1748  0.3511 -0.1687
 6370SOL    HW130746   2.861   2.399   1.593  0.0205  1.0610 -0.1367
 6370SOL    HW230747   2.919   2.397   1.720 -0.8380  0.6144  2.2228
 6371SOL     OW30748   3.392   0.744   3.085 -0.1259 -0.1473 -0.3080
 6371SOL    HW130749   3.332   0.748   3.159  1.4417  1.6641  0.8437
 6371SOL    HW230750   3.402   0.649   3.076 -0.5304 -0.0901 -1.4474
 6372SOL     OW30751   3.597   0.918   7.958  0.0006 -0.1535  0.0143
 6372SOL    HW130752   3.668   0.940   8.018  0.7831 -0.3898 -0.8327
 6372SOL    HW230753   3.546   0.999   7.959  1.8528  0.9369  4.4628
 6373SOL     OW30754   2.815   3.424   5.619 -0.2007 -0.1864  0.0048
 6373SOL    HW130755   2.886   3.477   5.581  0.9503 -0.4771  1.7623
 6373SOL    HW230756   2.859   3.372   5.685 -2.3906 -2.2536 -0.1723
 6374SOL     OW30757   1.152   4.111  17.064  0.0031 -0.5667  0.1819
 6374SOL    HW130758   1.204   4.150  16.994 -1.1963 -1.5256 -1.2363
 6374SOL    HW230759   1.060   4.118  17.039 -0.4635  1.0473  2.2725
 6375SOL     OW30760   1.672   4.002   1.934 -0.2173 -0.0895  0.0818
 6375SOL    HW130761   1.583   3.977   1.958 -0.7975  0.8512 -1.0940
 6375SOL    HW230762   1.665   4.094   1.910  1.7901  0.0068 -0.1130
 6376SOL     OW30763   2.062   2.554   8.680  0.4805  0.5093 -0.0539
 6376SOL    HW130764   2.100   2.507   8.606 -0.0340 -1.0960  0.6767
 6376SOL    HW230765   2.014   2.624   8.636 -1.1931 -1.1061 -0.7916
 6377SOL     OW30766   1.792   3.828  17.665 -0.3578 -0.3178  0.4104
 6377SOL    HW130767   1.869   3.785  17.628 -0.9574 -2.5138  1.7442
 6377SOL    HW230768   1.820   3.861   0.001 -1.3834  0.5040  0.4338
 6378SOL     OW30769   3.300   0.091   4.729 -0.1981  0.1661 -0.1298
 6378SOL    HW130770   3.347   0.109   4.648 -1.2313 -1.4287 -1.1047
 6378SOL    HW230771   3.287   4.735   4.713  0.0473  0.4430 -1.9461
 6379SOL     OW30772   3.995   2.376   5.847 -0.7068  0.2910  0.4120
 6379SOL    HW130773   3.931   2.307   5.865 -1.6361  1.2270  0.7590
 6379SOL    HW230774   3.999   2.368   5.752  1.6241 -2.4892  0.7761
 6380SOL     OW30775   4.389   4.353   6.903 -0.0543 -0.3819 -0.3653
 6380SOL    HW130776   4.437   4.297   6.963  0.2292 -1.9633 -2.0867
 6380SOL    HW230777   4.419   4.316   6.821  0.7399 -2.8955  1.0688
 6381SOL     OW30778   3.180   2.975   3.432 -0.3773  0.3336 -0.0671
 6381SOL    HW130779   3.099   3.000   3.387 -2.0357 -2.0760  1.6101
 6381SOL    HW230780   3.218   2.909   3.374  2.1011  0.6997  1.1585
 6382SOL     OW30781   2.519   1.187   9.394 -0.3126 -0.0111  0.2074
 6382SOL    HW130782   2.600   1.162   9.437  0.1015  1.8851  0.5330
 6382SOL    HW230783   2.509   1.275   9.430 -0.2183  0.1438 -0.1497
 6383SOL     OW30784   4.545   3.564  11.004 -0.1187  0.0972  0.1471
 6383SOL    HW130785   4.504   3.479  11.023 -1.3261  0.4423 -0.9426
 6383SOL    HW230786   4.549   3.603  11.092 -1.2599 -0.1256  0.2996
 6384SOL     OW30787   1.327   1.096   0.199 -0.2306 -0.4321 -0.1767
 6384SOL    HW130788   1.235   1.077   0.183  0.0408 -0.8261 -1.2486
 6384SOL    HW230789   1.361   1.044   0.127 -0.5752  1.1923 -1.5206
 6385SOL     OW30790   3.678   3.851   2.172 -0.8346 -0.1111 -0.6524
 6385SOL    HW130791   3.678   3.930   2.225 -1.7309 -0.2799 -0.4136
 6385SOL    HW230792   3.736   3.793   2.221 -0.2100  1.2059  0.1806
 6386SOL     OW30793   4.474   1.858   4.554  0.0057  0.2844  0.1479
 6386SOL    HW130794   4.429   1.858   4.638  1.1633  1.5651  0.7537
 6386SOL    HW230795   4.563   1.833   4.579  0.4455  1.2627 -0.4517
 6387SOL     OW30796   0.632   1.194  11.600  0.2686 -0.0535  0.0857
 6387SOL    HW130797   0.553   1.249  11.592  1.2873  1.3521 -0.4212
 6387SOL    HW230798   0.622   1.156  11.513  3.4932 -2.4812  0.7794
 6388SOL     OW30799   1.569   3.502   8.796  0.6477  0.8436  0.1975
 6388SOL    HW130800   1.560   3.597   8.801  1.0892  0.7899  1.9386
 6388SOL    HW230801   1.664   3.495   8.801  0.4926  0.1345  2.0621
 6389SOL     OW30802   1.721   0.419  15.528 -0.0392  0.7559 -0.2278
 6389SOL    HW130803   1.651   0.359  15.553 -0.1310  0.4259 -1.2610
 6389SOL    HW230804   1.749   0.387  15.443 -0.8895  2.1525 -1.0375
 6390SOL     OW30805   0.890   1.265   0.719 -0.0246  0.0412  0.7061
 6390SOL    HW130806   0.854   1.340   0.673  2.0432  0.8350  0.4061
 6390SOL    HW230807   0.961   1.236   0.662  1.1704 -0.5657  2.4935
 6391SOL     OW30808   3.288   1.862   4.263  0.2810 -0.3767  0.3346
 6391SOL    HW130809   3.264   1.908   4.183 -2.5772 -2.6831 -0.1342
 6391SOL    HW230810   3.225   1.791   4.277 -0.1021  0.3039  2.1211
 6392SOL     OW30811   3.804   4.013   5.078 -0.0705 -0.3472  0.7081
 6392SOL    HW130812   3.784   4.075   5.008 -1.9082 -1.5323  0.1719
 6392SOL    HW230813   3.884   4.052   5.113  1.2665 -1.5154 -1.0334
 6393SOL     OW30814   3.552   1.046   8.727 -0.7413 -0.3538  0.0993
 6393SOL    HW130815   3.488   0.979   8.752 -2.9636  1.4605 -0.7653
 6393SOL    HW230816   3.561   1.088   8.812  1.1205 -0.7563  0.0920
 6394SOL     OW30817   4.459   3.713   8.232  0.5437 -0.4808  0.7007
 6394SOL    HW130818   4.365   3.697   8.236  0.5950 -1.3683 -1.9013
 6394SOL    HW230819   4.472   3.735   8.324 -3.3780  1.7282  0.7318
 6395SOL     OW30820   2.945   1.878  17.529 -0.1647  0.0463 -0.2064
 6395SOL    HW130821   2.949   1.826  17.609  2.1095  0.3288 -0.1193
 6395SOL    HW230822   3.039   1.895  17.516 -0.4503  1.9025  0.1967
 6396SOL     OW30823   3.487   3.536   5.755 -0.3336  0.6125  0.4812
 6396SOL    HW130824   3.443   3.616   5.785  0.1167  0.4567  1.5544
 6396SOL    HW230825   3.560   3.534   5.816 -0.0460  1.4719  0.1625
 6397SOL     OW30826   3.548   2.877  15.843  0.1684 -0.2544  0.5945
 6397SOL    HW130827   3.460   2.862  15.877  0.1930 -0.4983  0.5517
 6397SOL    HW230828   3.586   2.789  15.853  1.2158  0.4450  2.9358
 6398SOL     OW30829   2.946   3.806   8.983 -0.2923  0.3055 -0.2322
 6398SOL    HW130830   2.880   3.841   8.923  0.7303 -0.3761 -1.7474
 6398SOL    HW230831   2.917   3.839   9.068 -0.1987 -1.4595  0.4733
 6399SOL     OW30832   4.382   2.526   4.637 -0.5960 -0.4131  0.3277
 6399SOL    HW130833   4.339   2.554   4.718 -1.0390 -3.3650  1.1123
 6399SOL    HW230834   4.464   2.488   4.669 -1.0128 -1.7333 -0.1681
 6400SOL     OW30835   2.528   2.931   8.488  0.3277 -0.1513 -0.1148
 6400SOL    HW130836   2.549   2.860   8.549  1.1539 -1.8363 -2.3585
 6400SOL    HW230837   2.478   2.988   8.547 -0.0246 -0.0024 -0.5611
 6401SOL     OW30838   0.486   0.043   2.172 -0.7835 -0.2562  0.2817
 6401SOL    HW130839   0.518   0.133   2.179 -1.8688 -0.0391  2.3416
 6401SOL    HW230840   0.463   0.041   2.079 -0.8248  0.2536  0.2852
 6402SOL     OW30841   2.897   4.236   6.306 -0.8346 -0.4881 -0.2004
 6402SOL    HW130842   2.936   4.148   6.307 -0.9897 -0.5439  1.0029
 6402SOL    HW230843   2.805   4.218   6.286 -0.8094  0.1924 -0.9368
 6403SOL     OW30844   3.228   0.916   5.612  0.6267  0.5306  0.0504
 6403SOL    HW130845   3.214   0.943   5.522  1.2557 -0.5498 -0.3700
 6403SOL    HW230846   3.221   0.821   5.601  0.4071  0.3460  1.7121
 6404SOL     OW30847   3.497   1.149   2.242 -0.4784  0.1115  0.4804
 6404SOL    HW130848   3.456   1.161   2.328  0.8977  4.0247  0.6110
 6404SOL    HW230849   3.419   1.119   2.197  0.1396 -1.4193  0.4407
 6405SOL     OW30850   3.877   3.101   3.150 -0.2052  0.1627  0.2141
 6405SOL    HW130851   3.972   3.105   3.144 -0.0996 -0.1181  1.6974
 6405SOL    HW230852   3.854   3.173   3.209  0.2886  0.2579  0.2845
 6406SOL     OW30853   1.088   3.103   6.813  0.4587  0.1407 -0.1177
 6406SOL    HW130854   1.143   3.051   6.755  0.6509 -1.3707  1.4430
 6406SOL    HW230855   1.019   3.111   6.747 -0.2724 -0.3497  0.5813
 6407SOL     OW30856   2.879   0.848   1.596  0.0589  1.3180  0.0254
 6407SOL    HW130857   2.965   0.888   1.614  1.5801 -1.6381 -0.6291
 6407SOL    HW230858   2.874   0.775   1.658  0.1197  0.1269 -1.3736
 6408SOL     OW30859   1.860   3.441   6.955 -0.1296 -0.1046 -0.6204
 6408SOL    HW130860   1.789   3.399   7.005  0.4761  0.4470  0.6944
 6408SOL    HW230861   1.871   3.382   6.880  1.0757  0.6783 -1.0431
 6409SOL     OW30862   4.591   2.318   3.780  0.8460  0.3610  0.0205
 6409SOL    HW130863   4.553   2.247   3.832 -0.5133  1.0596 -0.0195
 6409SOL    HW230864   4.510   2.343   3.736  0.6672 -0.9478 -0.4014
 6410SOL     OW30865   3.010   1.400   7.108 -0.1089 -0.1018 -0.7287
 6410SOL    HW130866   3.055   1.447   7.038 -0.0526 -1.4412 -1.5936
 6410SOL    HW230867   3.032   1.451   7.185  0.6334 -2.1699  0.4294
 6411SOL     OW30868   2.569   3.917   6.797 -0.7336 -0.3377 -0.0117
 6411SOL    HW130869   2.585   3.994   6.743 -1.4972 -0.1302  0.0585
 6411SOL    HW230870   2.490   3.879   6.758 -1.1570  1.3491 -0.8019
 6412SOL     OW30871   1.156   3.750   4.148 -0.1289 -0.1746  0.6735
 6412SOL    HW130872   1.158   3.698   4.228  2.8910 -0.4172  0.4621
 6412SOL    HW230873   1.067   3.784   4.145  0.6820  1.6212 -2.7684
 6413SOL     OW30874   1.208   3.366   7.779  0.5715 -0.3807 -0.1161
 6413SOL    HW130875   1.219   3.300   7.710 -0.8655  1.1893 -1.8476
 6413SOL    HW230876   1.113   3.380   7.782  0.8415  2.0651 -2.9296
 6414SOL     OW30877   3.623   0.733   3.813  0.3373 -0.3803 -0.4674
 6414SOL    HW130878   3.567   0.660   3.789  0.2538 -0.9681  1.4760
 6414SOL    HW230879   3.555   0.798   3.833  0.7860  0.8800 -3.0532
 6415SOL     OW30880   2.198   0.805   5.660  0.5431 -0.0738  0.0653
 6415SOL    HW130881   2.104   0.820   5.670  0.7440 -0.4116  2.2766
 6415SOL    HW230882   2.204   0.732   5.721 -1.9866 -0.1940  0.1505
 6416SOL     OW30883   1.741   2.002   2.898  0.3092 -0.1697 -0.1800
 6416SOL    HW130884   1.734   2.095   2.880 -0.1461  0.2663  2.2763
 6416SOL    HW230885   1.725   1.965   2.812 -1.5744  0.4728 -0.1005
 6417SOL     OW30886   3.376   1.695   3.492  0.0592 -0.3750  0.0751
 6417SOL    HW130887   3.406   1.604   3.491 -2.7122 -1.2805 -0.0224
 6417SOL    HW230888   3.444   1.737   3.544 -0.5381 -0.2083  0.7287
 6418SOL     OW30889   0.010   0.012  12.877 -0.1301  0.0657 -0.2098
 6418SOL    HW130890   0.052   4.671  12.843  0.7998  0.0723  0.9069
 6418SOL    HW230891   4.689   0.032  12.805  0.6202  1.9814 -0.3056
 6419SOL     OW30892   2.852   4.159   5.126 -0.6306 -0.7254  0.0515
 6419SOL    HW130893   2.848   4.110   5.208 -2.2437 -2.4924 -1.0825
 6419SOL    HW230894   2.886   4.245   5.150 -0.8848  0.3219 -3.3823
 6420SOL     OW30895   3.675   3.994   7.592 -0.2429  0.5061 -0.1991
 6420SOL    HW130896   3.687   4.029   7.503  0.7507 -1.3860 -0.8280
 6420SOL    HW230897   3.768   4.002   7.616 -0.3547 -0.6215  0.6011
 6421SOL     OW30898   0.670   4.235   3.724  0.3072  0.1738  0.2742
 6421SOL    HW130899   0.711   4.155   3.689 -0.1703 -0.0543  0.2345
 6421SOL    HW230900   0.642   4.210   3.812 -1.1311  0.7819 -0.0204
 6422SOL     OW30901   3.832   1.166   6.175 -0.3465 -0.3361 -0.0841
 6422SOL    HW130902   3.768   1.237   6.177 -2.1430 -1.9436 -0.4840
 6422SOL    HW230903   3.916   1.207   6.153  0.1450  0.5596  3.3660
 6423SOL     OW30904   1.857   4.694  10.631 -0.1875 -0.2180  0.0643
 6423SOL    HW130905   1.800   4.721  10.704 -1.8854  0.3111 -1.4479
 6423SOL    HW230906   1.944   4.720  10.661 -1.4051  1.9279  1.7587
 6424SOL     OW30907   4.687   4.350  10.058  0.5787 -0.2384  0.0171
 6424SOL    HW130908   4.658   4.441  10.063 -1.0777 -0.5831 -3.3291
 6424SOL    HW230909   4.650   4.321  10.141 -2.9197  3.1896 -0.3397
 6425SOL     OW30910   1.870   1.389   5.310 -0.9162  0.3948 -0.8356
 6425SOL    HW130911   1.835   1.477   5.295  3.0082  2.2736  0.9867
 6425SOL    HW230912   1.794   1.330   5.305 -0.3306 -0.3720 -0.6836
 6426SOL     OW30913   4.433   1.035  12.688  0.7443  0.0572 -0.8931
 6426SOL    HW130914   4.394   0.976  12.753  1.0671 -0.4963 -1.2117
 6426SOL    HW230915   4.503   0.978  12.658 -1.2116 -2.3315 -0.9241
 6427SOL     OW30916   4.374   4.381   2.690 -0.0094  0.1835 -0.2994
 6427SOL    HW130917   4.354   4.444   2.759  1.4598  0.5240 -0.1914
 6427SOL    HW230918   4.389   4.445   2.621 -0.1903 -0.9478 -1.3735
 6428SOL     OW30919   2.379   1.764  12.384 -0.0911 -0.3463 -0.0435
 6428SOL    HW130920   2.294   1.807  12.396 -0.6892 -1.6117  0.3182
 6428SOL    HW230921   2.350   1.673  12.396  1.3544 -0.5745  1.6038
 6429SOL     OW30922   3.023   2.542   0.887 -0.0923  0.0021  0.6120
 6429SOL    HW130923   3.037   2.448   0.899  1.6699  0.1693 -0.1299
 6429SOL    HW230924   2.995   2.536   0.795 -1.1161 -1.6077  1.0348
 6430SOL     OW30925   2.787   0.443  15.881 -0.4919  0.1861 -0.2887
 6430SOL    HW130926   2.747   0.412  15.962 -1.5076 -0.2151 -0.9423
 6430SOL    HW230927   2.860   0.500  15.907  0.1033 -0.4569 -0.5325
 6431SOL     OW30928   0.147   2.169   1.757  0.1142  0.2538 -0.2668
 6431SOL    HW130929   0.182   2.196   1.672 -1.1745 -1.9753 -1.4842
 6431SOL    HW230930   0.155   2.075   1.744 -2.8857  0.2289 -1.6930
 6432SOL     OW30931   3.635   0.850   3.025 -0.2170 -0.6413  0.9694
 6432SOL    HW130932   3.545   0.818   3.029 -1.0964  1.5447 -1.1644
 6432SOL    HW230933   3.668   0.796   3.097  0.7595  0.2612  1.1884
 6433SOL     OW30934   3.377   2.157   6.241  0.2226 -0.0638 -0.2989
 6433SOL    HW130935   3.293   2.202   6.243  0.4242  0.3263 -0.9142
 6433SOL    HW230936   3.346   2.072   6.208  1.5956 -0.9787  0.7582
 6434SOL     OW30937   1.283   1.654   6.081 -0.0809 -0.1442 -0.3649
 6434SOL    HW130938   1.275   1.681   6.172  0.3950  0.2507 -0.4372
 6434SOL    HW230939   1.201   1.609   6.064  0.3254 -0.2070 -2.1716
 6435SOL     OW30940   0.961   2.409   8.221 -0.2006  0.2739 -0.2946
 6435SOL    HW130941   0.938   2.421   8.129 -1.4706  0.3247  0.0322
 6435SOL    HW230942   0.977   2.315   8.221 -2.8711 -0.1540  2.0833
 6436SOL     OW30943   3.041   2.954   0.692 -0.7591 -0.8708  0.4653
 6436SOL    HW130944   2.955   2.922   0.719 -0.3410 -1.4976  1.0534
 6436SOL    HW230945   3.079   2.969   0.778 -1.4861 -3.0086  1.1566
 6437SOL     OW30946   2.604   3.155  13.331 -0.3833 -0.2182  0.0866
 6437SOL    HW130947   2.596   3.251  13.335  1.4202 -0.2321  3.3477
 6437SOL    HW230948   2.592   3.133  13.423 -0.2552 -0.0173  0.1532
 6438SOL     OW30949   2.496   2.966   9.392  0.0305  0.8315 -0.3030
 6438SOL    HW130950   2.417   2.916   9.373  1.0661 -1.0671  0.4733
 6438SOL    HW230951   2.556   2.892   9.397  0.4680  1.2802  1.0779
 6439SOL     OW30952   2.855   4.261  10.893 -0.6277  0.2578 -0.4977
 6439SOL    HW130953   2.845   4.174  10.855  0.3940  0.5830 -1.5159
 6439SOL    HW230954   2.897   4.240  10.977  0.4350 -0.5552 -1.2299
 6440SOL     OW30955   4.551   2.167   3.521  0.0887 -0.1497  0.3558
 6440SOL    HW130956   4.493   2.191   3.448  0.1658 -1.5758 -0.1680
 6440SOL    HW230957   4.572   2.254   3.554 -0.0677  0.9391 -2.3381
 6441SOL     OW30958   1.305   1.706   8.196  0.9311 -0.1867  0.9002
 6441SOL    HW130959   1.347   1.620   8.195 -3.2124 -2.1450 -0.4905
 6441SOL    HW230960   1.361   1.743   8.265  1.4846 -1.1151  0.9500
 6442SOL     OW30961   4.342   3.905   2.232 -0.2993  0.1142  0.0544
 6442SOL    HW130962   4.331   4.000   2.223 -1.4519 -0.0168  0.1792
 6442SOL    HW230963   4.419   3.888   2.178 -0.1191  1.3168 -0.0727
 6443SOL     OW30964   4.586   0.633  14.248 -0.3545 -0.0093 -0.6514
 6443SOL    HW130965   4.522   0.598  14.310  1.5822 -2.0467  0.2134
 6443SOL    HW230966   4.531   0.696  14.202  0.1114 -0.6771 -2.1144
 6444SOL     OW30967   0.403   0.328   2.099  0.1224 -0.5093 -0.0615
 6444SOL    HW130968   0.382   0.269   2.027  0.0080 -0.8750  0.2725
 6444SOL    HW230969   0.364   0.408   2.065  0.9767 -0.3393 -0.6342
 6445SOL     OW30970   4.532   1.698   2.882 -0.0471 -0.1245 -0.3658
 6445SOL    HW130971   4.458   1.671   2.936 -0.6624  1.7693 -0.2566
 6445SOL    HW230972   4.486   1.725   2.803 -1.0974 -4.0110 -1.0815
 6446SOL     OW30973   3.940   1.769   5.451 -0.2488 -0.1410  0.3717
 6446SOL    HW130974   3.998   1.821   5.394 -1.2759  1.9444  1.2645
 6446SOL    HW230975   3.973   1.679   5.443 -2.3148 -0.7069 -1.9079
 6447SOL     OW30976   4.728   0.954   6.103 -0.4765  0.1982  0.4198
 6447SOL    HW130977   4.654   0.901   6.071  0.9053 -1.3389 -0.2270
 6447SOL    HW230978   0.042   0.892   6.153 -1.2722  0.8084  1.9931
 6448SOL     OW30979   1.973   0.468   6.827  0.2715 -0.2049 -0.4286
 6448SOL    HW130980   2.036   0.537   6.808  1.0882 -0.3412  1.8210
 6448SOL    HW230981   1.953   0.452   6.734  0.0336 -0.7367 -0.2881
 6449SOL     OW30982   2.107   4.002   6.698 -0.0765  0.5192 -0.3422
 6449SOL    HW130983   2.030   4.028   6.750 -0.4602 -2.9877  0.8301
 6449SOL    HW230984   2.158   4.074   6.735  1.6212 -0.2194 -1.2514
 6450SOL     OW30985   2.278   3.713   9.196  0.3326  0.0298  0.3961
 6450SOL    HW130986   2.353   3.753   9.241  0.6043  1.5785 -1.4345
 6450SOL    HW230987   2.229   3.679   9.270 -0.8079  2.3348  0.7259
 6451SOL     OW30988   4.558   3.621   7.169  0.5220  0.5468 -0.0802
 6451SOL    HW130989   4.584   3.591   7.256  0.2039 -4.3579 -1.6452
 6451SOL    HW230990   4.584   3.542   7.122  1.6802  1.0833 -0.3291
 6452SOL     OW30991   2.622   4.413   0.585  0.2341 -0.2898 -0.6129
 6452SOL    HW130992   2.529   4.401   0.603  0.1745 -0.2615 -0.8960
 6452SOL    HW230993   2.654   4.337   0.633 -0.0122  1.9787  3.1461
 6453SOL     OW30994   2.276   0.613  11.277  0.4606  0.5344  0.6915
 6453SOL    HW130995   2.195   0.655  11.248 -0.7469 -2.3006 -0.1367
 6453SOL    HW230996   2.256   0.590  11.368  1.4267 -1.1152  0.4915
 6454SOL     OW30997   4.285   3.338   1.417  0.2485  0.1398  0.0942
 6454SOL    HW130998   4.191   3.331   1.407  0.1240 -1.5277  2.5406
 6454SOL    HW230999   4.302   3.351   1.323  1.6619  1.2263  0.4911
 6455SOL     OW31000   3.247   2.206   9.176  0.2272 -0.5175 -0.0966
 6455SOL    HW131001   3.309   2.261   9.129  0.5856 -0.0895  0.8854
 6455SOL    HW231002   3.252   2.121   9.133 -0.4220  0.6792 -2.5067
 6456SOL     OW31003   3.384   3.400   4.544  0.2033 -0.0347  0.5885
 6456SOL    HW131004   3.360   3.316   4.584  0.6097 -0.9572 -1.1248
 6456SOL    HW231005   3.346   3.388   4.457 -0.1835  1.3041  0.5826
 6457SOL     OW31006   3.085   2.948   1.837  1.1951 -0.3872  0.7697
 6457SOL    HW131007   3.052   2.878   1.780  0.2287 -0.3868  1.3187
 6457SOL    HW231008   3.150   2.896   1.885  3.0421  0.0885 -1.2160
 6458SOL     OW31009   3.190   3.238   0.564 -0.2402  0.1815  0.2653
 6458SOL    HW131010   3.275   3.195   0.563  0.8776  2.4298  0.5108
 6458SOL    HW231011   3.158   3.209   0.478 -1.0857 -2.3757  1.4257
 6459SOL     OW31012   2.746   0.256  12.466  0.5299 -0.1783  0.3915
 6459SOL    HW131013   2.744   0.228  12.374  0.4533  0.2506  0.2596
 6459SOL    HW231014   2.838   0.239  12.486 -0.5315 -2.5850  3.0503
 6460SOL     OW31015   3.688   0.902   5.474  0.0690 -0.1937 -0.3133
 6460SOL    HW131016   3.682   0.998   5.475  0.9751 -0.1407 -0.3866
 6460SOL    HW231017   3.721   0.883   5.387  1.6051 -0.6361  0.3691
 6461SOL     OW31018   2.232   2.347   2.001  0.1831  0.6741 -0.0953
 6461SOL    HW131019   2.271   2.426   2.038  1.6527 -0.1325  0.0645
 6461SOL    HW231020   2.223   2.375   1.910 -1.6658  2.0774  0.5070
 6462SOL     OW31021   3.182   2.369   8.247 -0.7178 -0.0890 -0.1447
 6462SOL    HW131022   3.098   2.345   8.207 -1.6291  1.4341  0.8649
 6462SOL    HW231023   3.234   2.391   8.169  1.8990 -1.3241  1.2695
 6463SOL     OW31024   4.682   1.235   0.686 -0.1348  0.3366 -0.3566
 6463SOL    HW131025   4.726   1.247   0.770 -0.2321  0.1967 -0.2883
 6463SOL    HW231026   4.615   1.302   0.699 -0.7762 -0.3702 -0.0566
 6464SOL     OW31027   4.716   1.877   2.999  0.4302 -0.1457  0.8341
 6464SOL    HW131028   4.641   1.830   2.963  1.0811  0.0058 -0.6980
 6464SOL    HW231029   0.020   1.905   2.918 -0.6471  0.3846  0.4609
 6465SOL     OW31030   0.694   2.121   3.566 -0.0186  0.0509  0.5278
 6465SOL    HW131031   0.758   2.093   3.500 -2.1422 -0.6602 -1.1975
 6465SOL    HW231032   0.741   2.198   3.598  1.4498 -0.9873  0.8989
 6466SOL     OW31033   2.160   1.372   4.383 -0.4926 -0.2628  0.2257
 6466SOL    HW131034   2.090   1.308   4.398  1.3458 -2.1339  0.8682
 6466SOL    HW231035   2.179   1.352   4.291 -0.0733  1.6220 -0.0836
 6467SOL     OW31036   2.225   4.156   6.060 -0.3162 -0.3087 -0.1553
 6467SOL    HW131037   2.169   4.108   5.999  0.1477 -2.1201  0.8319
 6467SOL    HW231038   2.262   4.226   6.007  1.3137 -0.0669  1.3100
 6468SOL     OW31039   0.833   3.123   7.032 -0.0358  0.0376 -0.2629
 6468SOL    HW131040   0.914   3.085   6.997  0.2991  1.9441 -1.5398
 6468SOL    HW231041   0.864   3.213   7.036 -0.1267  0.0190  0.7004
 6469SOL     OW31042   0.238   2.584  11.128 -0.0951  0.2435  0.3468
 6469SOL    HW131043   0.279   2.504  11.095 -2.0170  0.6035 -2.8478
 6469SOL    HW231044   0.292   2.613  11.202  0.2531 -1.8431  0.9252
 6470SOL     OW31045   0.767   4.109   7.690 -0.2782  0.1474  0.5784
 6470SOL    HW131046   0.784   4.019   7.660  1.7410 -0.2024  2.7489
 6470SOL    HW231047   0.852   4.149   7.673 -0.6057  1.0745  1.1529
 6471SOL     OW31048   0.683   0.698   6.366  0.3931  0.3073  0.6308
 6471SOL    HW131049   0.774   0.720   6.381  0.1035  1.6211  0.4460
 6471SOL    HW231050   0.640   0.782   6.349 -0.6075  0.2426  2.8445
 6472SOL     OW31051   0.576   3.798   7.518 -0.0008  0.1867  0.4531
 6472SOL    HW131052   0.609   3.881   7.485 -0.7115 -0.4438 -1.7932
 6472SOL    HW231053   0.603   3.738   7.449 -2.5357 -0.1566 -0.2485
 6473SOL     OW31054   0.707   4.481   1.724 -0.9538 -0.4968  0.1686
 6473SOL    HW131055   0.638   4.420   1.752 -1.7534 -0.2353 -1.2435
 6473SOL    HW231056   0.674   4.523   1.645  1.6058  0.3444 -0.4391
 6474SOL     OW31057   4.287   2.950   0.060  0.1677 -0.3048 -0.6700
 6474SOL    HW131058   4.230   3.021   0.028  0.3805  0.4588  0.6378
 6474SOL    HW231059   4.343   3.007   0.113 -0.9007  0.9003 -0.8387
 6475SOL     OW31060   3.102   2.953   6.674 -0.5507  0.9923  0.2584
 6475SOL    HW131061   3.171   3.011   6.642  0.9000 -1.1030 -0.4425
 6475SOL    HW231062   3.137   2.925   6.758  0.7734  0.8200 -0.3522
 6476SOL     OW31063   0.630   2.408   4.126  0.1529  0.0607 -0.2580
 6476SOL    HW131064   0.573   2.433   4.199 -1.9666 -0.4600 -1.7413
 6476SOL    HW231065   0.587   2.325   4.103  0.2930 -0.4216  1.2167
 6477SOL     OW31066   0.645   2.508   5.601 -0.1068  0.0222 -0.2847
 6477SOL    HW131067   0.650   2.419   5.637 -0.8552 -0.0780 -0.4142
 6477SOL    HW231068   0.568   2.547   5.641  0.2015  0.5000 -0.1629
 6478SOL     OW31069   2.823   4.477   4.633  0.6237  0.0959 -0.5452
 6478SOL    HW131070   2.793   4.418   4.702  0.6205  2.7775  1.7148
 6478SOL    HW231071   2.788   4.429   4.557  0.1356 -0.0552 -0.2217
 6479SOL     OW31072   2.135   0.157   5.654  0.3970 -0.1074 -0.0941
 6479SOL    HW131073   2.115   0.120   5.740  1.4677 -2.4973 -0.8629
 6479SOL    HW231074   2.163   0.084   5.599 -1.9032  0.4495 -2.0115
 6480SOL     OW31075   2.680   1.315   7.845 -0.3994  0.0343  0.0152
 6480SOL    HW131076   2.595   1.336   7.806 -0.2102 -0.4403 -0.6625
 6480SOL    HW231077   2.723   1.397   7.820  0.9809 -0.9110 -0.7297
 6481SOL     OW31078   2.062   2.972   8.784 -0.3227  0.6027  0.3804
 6481SOL    HW131079   2.145   2.990   8.741 -0.5194 -0.4195 -0.4304
 6481SOL    HW231080   2.013   2.959   8.703 -1.7833  2.6034  0.9292
 6482SOL     OW31081   4.255   0.092   2.125  0.3080  0.1158 -0.1817
 6482SOL    HW131082   4.161   0.108   2.133  0.3937 -0.7012  2.5984
 6482SOL    HW231083   4.276   0.148   2.050  0.6759 -0.6750 -0.6632
 6483SOL     OW31084   3.500   3.651   2.639  0.2755  0.0129  0.4552
 6483SOL    HW131085   3.493   3.739   2.603 -0.9924  0.4621  1.7882
 6483SOL    HW231086   3.491   3.606   2.554  0.6312 -1.2151  1.0680
 6484SOL     OW31087   3.903   1.399   6.924  0.5729  0.3069 -0.0238
 6484SOL    HW131088   3.840   1.341   6.967 -0.7880  1.5685 -0.3395
 6484SOL    HW231089   3.936   1.345   6.851  0.9764  0.1073  0.3062
 6485SOL     OW31090   4.114   0.736   6.443 -0.3626  0.7107 -0.1527
 6485SOL    HW131091   4.033   0.701   6.405 -0.0046 -3.0583  2.5569
 6485SOL    HW231092   4.161   0.757   6.363 -0.1718 -2.2005 -0.8042
 6486SOL     OW31093   4.473   4.173   6.672  0.7018 -0.2172 -0.3395
 6486SOL    HW131094   4.432   4.086   6.681 -1.0129  0.7391  0.9842
 6486SOL    HW231095   4.519   4.162   6.588  0.2305 -1.4204 -0.4444
 6487SOL     OW31096   0.586   2.250  11.688  0.5280  0.3323 -0.2067
 6487SOL    HW131097   0.601   2.301  11.608 -2.9036  1.9805  0.1938
 6487SOL    HW231098   0.596   2.161  11.654 -1.3062  1.0300 -2.5912
 6488SOL     OW31099   2.700   3.130  16.195 -0.0813 -0.4030  0.0387
 6488SOL    HW131100   2.682   3.117  16.288  2.1548  0.4302  0.5868
 6488SOL    HW231101   2.619   3.156  16.151  0.2766 -0.7719 -0.8290
 6489SOL     OW31102   3.249   0.221  14.358  0.0336 -0.1434 -0.1199
 6489SOL    HW131103   3.166   0.173  14.359  0.2356 -0.4742  0.9499
 6489SOL    HW231104   3.266   0.214  14.452 -0.7311  0.8875  0.0900
 6490SOL     OW31105   1.625   2.962   6.403  0.3287 -0.2411 -0.0347
 6490SOL    HW131106   1.554   2.925   6.351 -0.5405  2.0529 -0.4865
 6490SOL    HW231107   1.694   2.896   6.410 -2.7331 -3.3722  0.4921
 6491SOL     OW31108   3.507   4.109   4.966 -0.1701 -0.2756  0.3442
 6491SOL    HW131109   3.509   4.035   4.906  0.6470 -0.5986  0.7787
 6491SOL    HW231110   3.593   4.149   4.950 -0.4327  0.3624  0.5211
 6492SOL     OW31111   4.359   0.160   6.386 -0.3592  0.2415  0.3667
 6492SOL    HW131112   4.452   0.172   6.366 -0.1173  0.9586  1.9234
 6492SOL    HW231113   4.360   0.141   6.480 -1.4137 -0.2259  0.2775
 6493SOL     OW31114   1.736   1.813  17.720  0.0868  0.5204 -0.6616
 6493SOL    HW131115   1.780   1.879  17.667  0.8857 -0.3285 -1.0374
 6493SOL    HW231116   1.807   1.809   0.035 -1.1163  0.0760  0.6497
 6494SOL     OW31117   4.238   1.856   4.002 -0.3306 -0.0353 -0.2966
 6494SOL    HW131118   4.175   1.893   4.065 -0.5976  0.8898 -1.1176
 6494SOL    HW231119   4.202   1.767   3.992 -1.1588  0.3761 -0.9841
 6495SOL     OW31120   2.631   2.905  13.223  0.4965  0.3727 -0.5510
 6495SOL    HW131121   2.586   2.961  13.159  4.6498  2.6547 -1.4786
 6495SOL    HW231122   2.657   2.976  13.283 -0.5087 -1.3375  1.8897
 6496SOL     OW31123   4.240   2.889   5.743 -0.0430 -0.5346  0.1075
 6496SOL    HW131124   4.202   2.857   5.661 -0.9078 -2.6653  1.3616
 6496SOL    HW231125   4.328   2.852   5.734 -0.5896 -1.9674  0.6815
 6497SOL     OW31126   0.230   4.067  17.324  0.7661  0.3909 -0.2714
 6497SOL    HW131127   0.188   4.002  17.268 -0.2940 -0.4648  1.5247
 6497SOL    HW231128   0.233   4.140  17.262 -1.6080 -0.7864 -1.7752
 6498SOL     OW31129   0.682   2.088  14.256  0.0229 -0.4002 -0.4716
 6498SOL    HW131130   0.727   2.173  14.258 -1.1507  0.2533 -2.3217
 6498SOL    HW231131   0.756   2.028  14.241  1.5159  0.7858  2.1439
 6499SOL     OW31132   0.318   2.826   4.649 -0.2454  0.7231 -0.6245
 6499SOL    HW131133   0.259   2.773   4.704  2.9306 -2.2559 -0.0657
 6499SOL    HW231134   0.286   2.808   4.560 -1.6450 -0.4620  0.1114
 6500SOL     OW31135   0.010   0.965   5.770  0.3812  0.0285 -0.1537
 6500SOL    HW131136   0.076   0.972   5.838  0.6488 -0.2640 -0.3833
 6500SOL    HW231137   0.051   0.903   5.709 -2.0156 -0.7697 -0.9744
 6501SOL     OW31138   0.963   0.488  14.656  0.0096  0.1389  0.1751
 6501SOL    HW131139   0.870   0.505  14.670 -0.1848 -0.9293  0.2465
 6501SOL    HW231140   0.958   0.392  14.650  0.6088  0.1375 -0.2521
 6502SOL     OW31141   0.292   2.689   4.409  0.2105 -0.0361 -0.3780
 6502SOL    HW131142   0.315   2.754   4.343 -1.5901 -1.6179 -2.5469
 6502SOL    HW231143   0.341   2.608   4.398  2.6453  1.4381 -0.5028
 6503SOL     OW31144   2.748   3.098   7.964  0.4749 -0.1970  0.1313
 6503SOL    HW131145   2.837   3.104   7.929  0.6777 -1.6106  0.3723
 6503SOL    HW231146   2.697   3.127   7.889  2.4341  0.8416 -0.7975
 6504SOL     OW31147   4.599   3.158   4.093 -0.0774  0.1524  0.2195
 6504SOL    HW131148   4.603   3.181   4.000  1.2298 -0.4451  0.1154
 6504SOL    HW231149   4.682   3.111   4.107  1.0498  1.4570 -2.0515
 6505SOL     OW31150   0.011   3.120   7.258  0.2373  0.2899 -0.1765
 6505SOL    HW131151   0.059   3.069   7.194  0.8040 -0.2535  0.6835
 6505SOL    HW231152   0.089   3.170   7.283 -0.4053  1.0540  0.3130
 6506SOL     OW31153   1.464   0.949   6.298  0.3798 -0.3977  0.5034
 6506SOL    HW131154   1.412   0.965   6.377  0.2475 -2.1071  0.7702
 6506SOL    HW231155   1.429   0.863   6.274  2.7579 -1.2791  0.1989
 6507SOL     OW31156   2.010   3.159  15.839  0.0917  0.4725  0.1166
 6507SOL    HW131157   2.079   3.168  15.904  2.0997 -0.4402 -1.8480
 6507SOL    HW231158   2.032   3.227  15.775 -0.2385 -0.8415 -1.3942
 6508SOL     OW31159   1.923   0.772   5.244  0.2744 -0.1614  0.7600
 6508SOL    HW131160   1.865   0.772   5.320  0.0354  0.4258  0.5773
 6508SOL    HW231161   1.903   0.685   5.209 -0.6330  0.1068  0.5996
 6509SOL     OW31162   4.153   3.347   4.593 -0.1658  0.1064 -0.2128
 6509SOL    HW131163   4.192   3.290   4.527  1.1537  2.0723 -1.1506
 6509SOL    HW231164   4.224   3.357   4.657 -2.2406  0.4715  2.0063
 6510SOL     OW31165   2.599   1.998   1.174  0.1415  0.3507 -0.6210
 6510SOL    HW131166   2.531   2.030   1.115 -0.7998 -0.0432  0.2417
 6510SOL    HW231167   2.602   2.063   1.244  0.9993 -1.1658  0.7370
 6511SOL     OW31168   4.476   3.399  12.924 -0.3299  0.2642 -1.1853
 6511SOL    HW131169   4.542   3.401  12.994 -2.1105  3.8990  0.3841
 6511SOL    HW231170   4.506   3.325  12.871 -0.1272 -1.0747  0.8301
 6512SOL     OW31171   4.586   0.551   4.121 -0.1549 -0.6361  0.4731
 6512SOL    HW131172   4.551   0.608   4.052  1.5351 -0.9181 -0.6000
 6512SOL    HW231173   4.548   0.584   4.202 -1.8798 -0.0744 -0.5688
 6513SOL     OW31174   3.635   1.052   8.448 -0.0602 -0.6466 -0.3021
 6513SOL    HW131175   3.605   1.045   8.539  3.8330  0.2547  1.0345
 6513SOL    HW231176   3.727   1.077   8.459 -0.1924  0.4981 -1.8394
 6514SOL     OW31177   3.493   1.477   5.892  0.4413 -0.1536  0.4816
 6514SOL    HW131178   3.484   1.572   5.888 -0.5842 -0.2802 -0.4842
 6514SOL    HW231179   3.400   1.454   5.891  0.3418  0.2006  3.1572
 6515SOL     OW31180   4.423   0.351   0.390  0.1586 -0.0415  0.5233
 6515SOL    HW131181   4.467   0.298   0.457 -0.8111 -0.1400  1.0821
 6515SOL    HW231182   4.474   0.337   0.310  0.6959  0.3801  0.7960
 6516SOL     OW31183   0.925   0.986  12.977 -0.0160  0.3879 -0.2368
 6516SOL    HW131184   0.977   0.994  13.057 -0.3902 -0.0966  0.0497
 6516SOL    HW231185   0.883   0.900  12.979 -1.0124  0.8634 -0.7485
 6517SOL     OW31186   1.633   1.117   6.723 -0.0452 -0.0890  0.4990
 6517SOL    HW131187   1.727   1.102   6.732 -0.1117 -1.4460 -1.2161
 6517SOL    HW231188   1.630   1.210   6.746 -1.6886 -0.1155  0.4132
 6518SOL     OW31189   0.199   2.732   8.880  0.4842  0.4289 -0.2972
 6518SOL    HW131190   0.261   2.804   8.893  2.7096 -1.5011 -0.2740
 6518SOL    HW231191   0.129   2.748   8.944  1.7087  0.6539  0.9693
 6519SOL     OW31192   0.435   2.419   4.347 -0.1081  0.0740  0.1357
 6519SOL    HW131193   0.368   2.360   4.313  0.4037 -0.4386  0.0087
 6519SOL    HW231194   0.504   2.367   4.387 -0.0876 -0.7346 -0.9575
 6520SOL     OW31195   1.857   3.588  13.307 -0.3523  0.0814  0.1371
 6520SOL    HW131196   1.767   3.614  13.325 -0.0733  0.2515  1.2847
 6520SOL    HW231197   1.859   3.640  13.226 -1.1846  0.3291  0.2791
 6521SOL     OW31198   0.925   2.821   5.171 -0.1355  0.7088 -0.2467
 6521SOL    HW131199   0.944   2.768   5.248 -2.9736  1.8896  1.2825
 6521SOL    HW231200   0.897   2.743   5.122 -1.8220  0.6119  0.8849
 6522SOL     OW31201   3.456   0.559   2.771 -0.1828  0.1548  0.4625
 6522SOL    HW131202   3.421   0.556   2.861  0.7207 -0.5666  0.7864
 6522SOL    HW231203   3.462   0.464   2.761 -2.6534  0.1604 -1.0468
 6523SOL     OW31204   4.408   2.403   6.718 -0.4828 -0.1398 -0.2881
 6523SOL    HW131205   4.372   2.440   6.637  2.0109 -0.3650 -1.4974
 6523SOL    HW231206   4.346   2.432   6.785  1.9509 -0.3670  2.0182
 6524SOL     OW31207   2.323   1.750  12.908 -0.1253  0.3185 -0.1671
 6524SOL    HW131208   2.268   1.786  12.839 -2.0338 -1.8271  0.2094
 6524SOL    HW231209   2.275   1.772  12.988  0.2253  0.3660  0.0291
 6525SOL     OW31210   4.349   2.487   3.930  0.3722  0.6676 -0.2100
 6525SOL    HW131211   4.312   2.399   3.937 -0.9361  1.2983  0.8020
 6525SOL    HW231212   4.286   2.536   3.878  0.0538  1.1357  0.6215
 6526SOL     OW31213   1.346   3.361   4.004  0.2640 -0.2284  0.0884
 6526SOL    HW131214   1.299   3.307   4.067 -0.3474  1.3515  0.9981
 6526SOL    HW231215   1.438   3.337   4.018  0.5832  1.5112  1.0686
 6527SOL     OW31216   1.886   1.993  15.281 -0.0377 -0.4653  0.4257
 6527SOL    HW131217   1.827   1.972  15.353 -2.4072 -1.1008 -1.6754
 6527SOL    HW231218   1.885   1.911  15.232 -0.2086 -0.4844  0.4587
 6528SOL     OW31219   2.520   0.149   4.803  0.0062  0.4715 -0.2900
 6528SOL    HW131220   2.535   0.100   4.883  2.2889 -0.3963 -1.2631
 6528SOL    HW231221   2.580   0.100   4.746  0.6560  0.9505 -0.0064
 6529SOL     OW31222   3.060   3.708   6.179 -0.5802  0.2148 -0.2190
 6529SOL    HW131223   2.969   3.689   6.201 -0.0819 -1.9223  0.0158
 6529SOL    HW231224   3.059   3.795   6.140  1.9312  0.5062  0.3850
 6530SOL     OW31225   0.652   2.453   2.282  0.0665  0.8465  0.0126
 6530SOL    HW131226   0.619   2.418   2.365  0.5810 -2.8700 -1.3449
 6530SOL    HW231227   0.590   2.411   2.223 -0.7115  1.5304  0.3356
 6531SOL     OW31228   3.580   1.783   3.853 -0.0692  0.3424 -0.3567
 6531SOL    HW131229   3.626   1.818   3.930  1.7025  0.3155 -1.4177
 6531SOL    HW231230   3.497   1.830   3.862 -0.3705 -0.2084 -0.2638
 6532SOL     OW31231   1.038   0.458   2.009  0.0417 -0.5137  0.0875
 6532SOL    HW131232   1.130   0.449   2.030  0.2568  0.0809 -0.6025
 6532SOL    HW231233   1.041   0.521   1.937  2.4030 -0.4701  0.2367
 6533SOL     OW31234   0.430   2.341  14.978 -0.2865  0.3620 -0.6697
 6533SOL    HW131235   0.345   2.297  14.963 -1.5578  2.9088 -0.8702
 6533SOL    HW231236   0.467   2.287  15.048 -1.6736  1.8986  1.2526
 6534SOL     OW31237   1.670   4.393  16.469  0.3195  0.1005 -0.2859
 6534SOL    HW131238   1.757   4.366  16.440  0.9508  2.5783 -0.6613
 6534SOL    HW231239   1.651   4.458  16.401 -0.7777 -0.2004 -0.2788
 6535SOL     OW31240   2.874   0.201   2.730  0.1470  0.0123 -0.8983
 6535SOL    HW131241   2.863   0.256   2.653 -1.4233 -1.4907 -1.7577
 6535SOL    HW231242   2.786   0.163   2.730  0.4598 -0.7095  0.9076
 6536SOL     OW31243   1.679   2.634   4.835 -0.2817  0.0624 -0.4832
 6536SOL    HW131244   1.651   2.710   4.784  1.8433  0.6010 -0.8695
 6536SOL    HW231245   1.600   2.590   4.865  0.6536  0.0314  1.9024
 6537SOL     OW31246   3.924   1.504   5.084 -0.2806  0.5898 -0.4314
 6537SOL    HW131247   3.914   1.516   5.179 -1.4216  0.4485 -0.5428
 6537SOL    HW231248   3.983   1.576   5.061  0.7244 -0.3697 -0.8347
 6538SOL     OW31249   0.242   1.132   2.548 -0.2188 -0.0899  0.3381
 6538SOL    HW131250   0.168   1.165   2.598 -0.3414 -0.1147  0.1759
 6538SOL    HW231251   0.217   1.042   2.524 -1.5864  0.0546  1.2119
 6539SOL     OW31252   4.146   0.575   7.752  0.6782  0.2068 -0.4068
 6539SOL    HW131253   4.205   0.559   7.678  2.2943 -0.6105  1.0762
 6539SOL    HW231254   4.084   0.503   7.741  1.0056  0.0898 -1.4411
 6540SOL     OW31255   1.217   1.993  11.308 -0.3061  0.0338 -0.3694
 6540SOL    HW131256   1.201   2.087  11.321 -0.3491 -0.4296  2.7820
 6540SOL    HW231257   1.285   1.978  11.372 -0.3226  0.2436 -0.3035
 6541SOL     OW31258   2.625   3.188  11.049 -0.0734 -0.4825  0.4694
 6541SOL    HW131259   2.652   3.274  11.016 -0.2188 -0.3009  0.8183
 6541SOL    HW231260   2.579   3.207  11.131 -1.1519  0.8160 -0.4442
 6542SOL     OW31261   2.163   2.114  17.429 -0.5614 -0.5581  0.5545
 6542SOL    HW131262   2.138   2.169  17.503 -1.9187  0.6530 -0.7955
 6542SOL    HW231263   2.099   2.145  17.365 -2.3011 -0.8299  2.1639
 6543SOL     OW31264   1.995   2.047   3.537 -0.1316 -0.1496 -0.3685
 6543SOL    HW131265   1.996   2.106   3.461 -1.2149 -0.1664 -0.3976
 6543SOL    HW231266   1.904   2.073   3.552 -1.2131 -2.3268 -3.1048
 6544SOL     OW31267   4.231   4.117  15.406  0.4135 -0.2757  0.5671
 6544SOL    HW131268   4.188   4.102  15.490 -1.5542 -1.0152 -0.5838
 6544SOL    HW231269   4.226   4.029  15.369 -2.7940  1.0895 -2.1909
 6545SOL     OW31270   2.135   1.839   1.397 -0.2311  0.9053  0.1024
 6545SOL    HW131271   2.073   1.804   1.333 -0.3918 -0.9742  1.3008
 6545SOL    HW231272   2.072   1.879   1.458  1.4027  0.6647  1.9578
 6546SOL     OW31273   0.349   1.284   1.014  0.2273 -0.1325  0.7116
 6546SOL    HW131274   0.398   1.298   0.933 -0.1308 -2.7946  0.0380
 6546SOL    HW231275   0.399   1.211   1.052  0.1412 -2.0479 -2.8920
 6547SOL     OW31276   3.322   3.160   8.372 -0.1316 -0.0365 -0.2123
 6547SOL    HW131277   3.315   3.184   8.279 -0.2325 -1.0914 -0.4819
 6547SOL    HW231278   3.417   3.160   8.381 -0.5406  0.6657  4.0408
 6548SOL     OW31279   0.980   4.327   4.432 -0.0686 -0.2159 -0.2441
 6548SOL    HW131280   1.007   4.413   4.398  0.0536 -0.1968 -0.0980
 6548SOL    HW231281   1.063   4.303   4.473  1.4662  0.7456 -2.7731
 6549SOL     OW31282   0.419   0.780  14.845 -0.3560  0.0901  0.7445
 6549SOL    HW131283   0.377   0.713  14.899 -1.5456  0.5291  0.3535
 6549SOL    HW231284   0.407   0.739  14.759  3.3924  2.1081 -0.7640
 6550SOL     OW31285   3.617   4.436   3.392 -0.7627  0.2009 -0.6890
 6550SOL    HW131286   3.636   4.352   3.433  0.3790  0.0440 -1.5308
 6550SOL    HW231287   3.536   4.417   3.344 -1.6483  1.4932  0.2978
 6551SOL     OW31288   4.255   3.213   2.599  0.4201 -0.2453 -0.6493
 6551SOL    HW131289   4.319   3.262   2.548  1.5375  1.1840  2.0806
 6551SOL    HW231290   4.200   3.283   2.634  2.6869  0.6424  1.1861
 6552SOL     OW31291   3.532   3.588   3.955  0.1662  0.4278 -0.6074
 6552SOL    HW131292   3.593   3.569   4.026  0.3461 -0.8645 -1.1247
 6552SOL    HW231293   3.444   3.581   3.994  0.8608  0.2618  0.9379
 6553SOL     OW31294   3.705   1.003   1.136 -0.3015 -0.0961 -0.4371
 6553SOL    HW131295   3.800   1.001   1.126 -0.0663 -1.6416  2.0306
 6553SOL    HW231296   3.693   1.006   1.231  3.1132 -0.1855 -0.0123
 6554SOL     OW31297   3.968   1.242   5.517  0.7485  0.2570 -0.1666
 6554SOL    HW131298   3.999   1.305   5.582 -0.6430 -0.2904  1.0413
 6554SOL    HW231299   4.000   1.159   5.552 -1.4390  0.2093  1.7352
 6555SOL     OW31300   2.034   1.981  13.851 -0.1623  0.1588  0.1170
 6555SOL    HW131301   1.983   1.921  13.906 -1.5021  0.8053 -0.4343
 6555SOL    HW231302   1.986   2.061  13.871 -0.4512 -0.2178  0.9578
 6556SOL     OW31303   3.942   4.733   2.777 -0.3488  0.0903 -0.5183
 6556SOL    HW131304   3.977   4.658   2.730 -2.5679 -0.2560 -1.6504
 6556SOL    HW231305   3.868   4.696   2.825  0.9408 -1.6923  0.0789
 6557SOL     OW31306   2.723   0.280   5.515  0.4565  0.0831  0.3931
 6557SOL    HW131307   2.798   0.230   5.482 -1.9224 -2.3922 -1.2792
 6557SOL    HW231308   2.752   0.363   5.476 -1.1006  0.2829 -0.3465
 6558SOL     OW31309   0.360   3.086   9.231 -0.0599  1.0661  0.0544
 6558SOL    HW131310   0.436   3.029   9.237  0.8614  2.3561  0.6750
 6558SOL    HW231311   0.328   3.090   9.322 -1.5048  0.6430 -0.4248
 6559SOL     OW31312   1.420   3.036   6.138 -0.7423 -0.2684 -0.0773
 6559SOL    HW131313   1.372   2.975   6.192 -0.8088 -1.4426 -1.4511
 6559SOL    HW231314   1.436   3.105   6.202  0.7969  1.4947 -2.3378
 6560SOL     OW31315   2.483   2.571   4.709  0.3585  0.0678 -0.4309
 6560SOL    HW131316   2.545   2.631   4.749  0.8392  0.0728 -1.1832
 6560SOL    HW231317   2.497   2.492   4.762  0.1578  0.5601  0.3514
 6561SOL     OW31318   3.437   3.991   3.184 -0.4097  0.6233  0.1606
 6561SOL    HW131319   3.470   3.947   3.262 -3.6797 -1.6108  0.3137
 6561SOL    HW231320   3.345   3.991   3.211 -0.4421 -0.3346  0.0634
 6562SOL     OW31321   0.657   3.752   6.337  0.1650  0.1472 -0.2327
 6562SOL    HW131322   0.640   3.762   6.431  2.2843 -1.5262  0.3156
 6562SOL    HW231323   0.751   3.737   6.341  0.6014  2.4605 -1.6853
 6563SOL     OW31324   1.122   2.016  17.322  0.0488 -0.2411  0.7001
 6563SOL    HW131325   1.061   1.980  17.258  0.4173  0.1382  0.1375
 6563SOL    HW231326   1.075   2.000  17.404  0.2567  0.7201  1.0048
 6564SOL     OW31327   1.187   1.785   7.069  0.2569 -0.2113 -0.1885
 6564SOL    HW131328   1.198   1.745   7.156  1.3818  0.4004 -0.0574
 6564SOL    HW231329   1.263   1.838   7.048  0.0618 -0.5516 -1.7231
 6565SOL     OW31330   2.806   0.360  16.133  0.0461 -0.2170 -1.0278
 6565SOL    HW131331   2.886   0.311  16.115  0.0073 -0.8550  0.5983
 6565SOL    HW231332   2.738   0.301  16.100 -1.8348  0.2340  1.9653
 6566SOL     OW31333   0.652   3.902   2.415  0.3624  0.6304  0.2697
 6566SOL    HW131334   0.632   3.989   2.449  1.6113  0.4508  1.4405
 6566SOL    HW231335   0.566   3.859   2.406  0.9587 -0.6972  0.8482
 6567SOL     OW31336   2.984   3.124  16.458 -0.0112 -0.7652  0.2132
 6567SOL    HW131337   3.040   3.184  16.410  0.3944 -1.3222 -0.0046
 6567SOL    HW231338   3.045   3.050  16.459  1.1008  0.1542 -1.3310
 6568SOL     OW31339   4.515   3.519  12.581 -0.3349  0.1911  0.2659
 6568SOL    HW131340   4.554   3.597  12.541  1.8106  0.5927  3.0829
 6568SOL    HW231341   4.586   3.465  12.547 -0.2004 -0.1073  1.0118
 6569SOL     OW31342   0.986   3.245  14.159  0.0249 -0.4829 -0.0958
 6569SOL    HW131343   0.924   3.254  14.087  2.4201  1.9847 -1.8503
 6569SOL    HW231344   1.051   3.191  14.114  0.5090 -1.6621  2.0197
 6570SOL     OW31345   3.304   3.698   3.249 -0.1055  0.2429  0.5067
 6570SOL    HW131346   3.362   3.626   3.275 -0.6652 -0.0779  0.8668
 6570SOL    HW231347   3.297   3.675   3.156  4.1007  0.3501  0.1533
 6571SOL     OW31348   0.588   2.478   5.123 -0.0002 -0.5908  0.2770
 6571SOL    HW131349   0.499   2.512   5.108  1.6515  2.9928 -1.5376
 6571SOL    HW231350   0.605   2.482   5.217  0.7129 -1.6805  0.1887
 6572SOL     OW31351   2.686   4.055  10.813 -0.2548  0.7481  0.0082
 6572SOL    HW131352   2.698   3.966  10.845 -0.0970  1.9758  3.4017
 6572SOL    HW231353   2.609   4.036  10.760 -0.9704  0.5062  1.1254
 6573SOL     OW31354   0.336   0.046   2.812  0.1051 -0.3250  0.2643
 6573SOL    HW131355   0.345   0.126   2.863 -1.1461 -0.5815  0.8868
 6573SOL    HW231356   0.302   4.715   2.870 -2.5396  1.2131  0.5510
 6574SOL     OW31357   0.969   3.270   3.061 -0.4338  0.1548  0.0083
 6574SOL    HW131358   1.041   3.208   3.067 -0.5504  0.1526  1.4859
 6574SOL    HW231359   0.966   3.288   2.967 -0.9675 -0.6856 -0.1290
 6575SOL     OW31360   3.794   0.105   3.525  0.1325  0.1712  0.6805
 6575SOL    HW131361   3.887   0.124   3.539 -0.2672  1.7241  1.1859
 6575SOL    HW231362   3.767   0.126   3.614  0.5288 -0.7854  1.0246
 6576SOL     OW31363   1.095   2.231   0.528  0.3816 -0.0867  0.3267
 6576SOL    HW131364   1.186   2.203   0.540 -0.2226 -0.9499  2.8439
 6576SOL    HW231365   1.090   2.326   0.532  1.0490 -0.0683  0.6223
 6577SOL     OW31366   1.310   0.433   3.999 -0.2508  0.1507  0.3400
 6577SOL    HW131367   1.401   0.403   3.998 -0.9017 -1.7126 -1.7934
 6577SOL    HW231368   1.289   0.451   3.908  1.3643 -1.3972 -0.3406
 6578SOL     OW31369   1.064   1.018   3.903  0.3101  0.4417  0.0400
 6578SOL    HW131370   1.007   1.085   3.943  0.3792 -1.4212  3.2392
 6578SOL    HW231371   0.994   0.961   3.872  0.0682  0.9682 -0.3922
 6579SOL     OW31372   0.649   3.694   3.312  0.1771 -0.0115 -0.2924
 6579SOL    HW131373   0.676   3.785   3.302  2.2038 -0.4470  1.2218
 6579SOL    HW231374   0.703   3.651   3.247 -0.9904 -0.1401 -1.1760
 6580SOL     OW31375   2.333   1.778  14.778  0.0070 -0.6152  0.6772
 6580SOL    HW131376   2.386   1.793  14.856  3.7021 -1.1821 -1.7324
 6580SOL    HW231377   2.263   1.728  14.820 -1.4848  0.7117 -0.2423
 6581SOL     OW31378   3.513   1.300  10.335 -0.1138  0.4721 -0.6527
 6581SOL    HW131379   3.553   1.354  10.267  3.2731 -1.0904  0.1030
 6581SOL    HW231380   3.433   1.349  10.355 -1.2948 -1.7477  0.1653
 6582SOL     OW31381   3.122   0.256   2.005  0.7120 -0.1870  0.6779
 6582SOL    HW131382   3.058   0.253   2.077 -0.3242  0.7229 -0.2008
 6582SOL    HW231383   3.170   0.333   2.033  1.1996  0.3719 -1.6963
 6583SOL     OW31384   0.333   2.615   9.854  0.6538 -0.2888  0.5617
 6583SOL    HW131385   0.410   2.671   9.847  1.0942 -0.9548 -0.0711
 6583SOL    HW231386   0.368   2.526   9.841 -0.9646 -0.7468 -0.6641
 6584SOL     OW31387   4.562   2.465   7.024 -0.3283  0.1272 -0.2065
 6584SOL    HW131388   4.510   2.539   6.993  0.6695  0.9125 -0.0304
 6584SOL    HW231389   4.608   2.434   6.947 -2.7171 -0.3041 -1.4618
 6585SOL     OW31390   0.213   0.501   5.694 -0.2698 -0.4946 -0.2495
 6585SOL    HW131391   0.191   0.459   5.610  0.9268 -0.8972 -0.3598
 6585SOL    HW231392   0.245   0.431   5.751  0.2687  0.3111  0.4501
 6586SOL     OW31393   3.896   4.130   9.435 -0.2321 -0.2344  0.4020
 6586SOL    HW131394   3.985   4.110   9.408 -0.2314 -0.8470  0.8527
 6586SOL    HW231395   3.841   4.083   9.372  1.2129 -2.4171  0.7668
 6587SOL     OW31396   0.773   2.121  17.591  0.0521  0.2185  0.2986
 6587SOL    HW131397   0.744   2.132  17.681 -1.1040 -0.4746  0.0192
 6587SOL    HW231398   0.736   2.203  17.557 -0.6291 -0.5742 -0.9045
 6588SOL     OW31399   0.242   4.319   3.161 -0.0376 -0.1429  0.4157
 6588SOL    HW131400   0.265   4.382   3.230  0.7361 -1.2412  1.1579
 6588SOL    HW231401   0.159   4.280   3.189 -0.9460  0.5822 -1.3028
 6589SOL     OW31402   0.797   0.681   1.921  0.2683  0.3825 -0.1756
 6589SOL    HW131403   0.871   0.674   1.861 -0.3489  0.9166 -0.9973
 6589SOL    HW231404   0.839   0.739   1.985 -1.4760  1.0949  0.3395
 6590SOL     OW31405   2.743   1.716   7.934 -0.0881  0.3824 -1.5845
 6590SOL    HW131406   2.795   1.650   7.890  4.2237  2.1829  0.8459
 6590SOL    HW231407   2.702   1.759   7.858  0.1547  0.7098 -1.5304
 6591SOL     OW31408   4.389   2.010   7.238 -0.2110  0.2809 -1.0051
 6591SOL    HW131409   4.382   1.973   7.151  0.4681 -0.9820 -0.5133
 6591SOL    HW231410   4.483   2.002   7.249 -0.6235 -1.1159  1.5238
 6592SOL     OW31411   2.193   4.037   4.362 -0.2637 -0.1113 -0.3833
 6592SOL    HW131412   2.158   4.123   4.385  1.0071  0.4464 -0.5451
 6592SOL    HW231413   2.257   4.070   4.300 -0.8078  2.4643  0.4397
 6593SOL     OW31414   0.060   3.814  17.208  0.1151  0.3341 -0.6003
 6593SOL    HW131415   4.710   3.845  17.233  1.5266  2.5309  1.6361
 6593SOL    HW231416   0.049   3.794  17.115  0.5415 -0.8710 -0.3845
 6594SOL     OW31417   3.028   4.535   8.977 -0.5750  0.2297 -0.3243
 6594SOL    HW131418   3.102   4.581   8.936  0.2148 -1.2974 -0.5957
 6594SOL    HW231419   3.023   4.446   8.943  1.4849  0.4304 -1.1726
 6595SOL     OW31420   4.024   3.966  17.246 -0.1581 -0.7813  0.4259
 6595SOL    HW131421   3.984   4.042  17.289  1.3199  1.1988 -1.7017
 6595SOL    HW231422   3.980   3.960  17.161  1.1674 -0.6790 -0.2639
 6596SOL     OW31423   1.758   0.856  14.110 -0.6372  0.1558  0.3457
 6596SOL    HW131424   1.836   0.887  14.064 -0.1902  1.5807  2.0307
 6596SOL    HW231425   1.696   0.839  14.039  1.1697  1.0970 -1.4671
 6597SOL     OW31426   1.766   1.971  15.531  0.0805 -0.0375 -0.0525
 6597SOL    HW131427   1.672   1.970  15.512  0.1914  1.1822 -0.6790
 6597SOL    HW231428   1.766   1.973  15.627 -0.0196 -0.9833 -0.0382
 6598SOL     OW31429   0.458   1.899   4.140  0.4347  0.8026 -0.1657
 6598SOL    HW131430   0.417   1.950   4.209 -0.3965  1.2373 -0.9792
 6598SOL    HW231431   0.388   1.867   4.083  1.6648 -1.0333 -0.6585
 6599SOL     OW31432   2.300   3.265  11.006 -0.1204 -0.4379  0.0324
 6599SOL    HW131433   2.318   3.359  10.997 -0.2053 -0.3358  0.8728
 6599SOL    HW231434   2.336   3.239  10.922 -2.6441 -1.2131 -0.7978
 6600SOL     OW31435   0.772   2.148   6.217  0.1239  0.7689  0.2701
 6600SOL    HW131436   0.861   2.143   6.251 -0.1363  0.9837  0.9903
 6600SOL    HW231437   0.795   2.191   6.134  0.0367  0.3054  0.0063
 6601SOL     OW31438   0.753   0.655   9.158  0.5022  0.1704 -0.0662
 6601SOL    HW131439   0.680   0.648   9.096 -0.9697  0.9517  1.5731
 6601SOL    HW231440   0.817   0.607   9.107  0.6059  1.8002 -1.4881
 6602SOL     OW31441   0.644   2.449   6.816 -0.3558 -0.5650 -0.1565
 6602SOL    HW131442   0.599   2.404   6.887  0.1029  0.1789  0.5944
 6602SOL    HW231443   0.645   2.538   6.850 -0.7171 -1.3947  1.9949
 6603SOL     OW31444   0.641   0.916   8.770  0.1505  0.0729  0.2618
 6603SOL    HW131445   0.612   0.984   8.709  0.7974 -0.9070 -1.1739
 6603SOL    HW231446   0.735   0.936   8.770  0.4003 -1.1050  1.7377
 6604SOL     OW31447   1.844   2.579   7.737 -0.0974 -0.4341 -0.3590
 6604SOL    HW131448   1.761   2.574   7.691 -0.4628 -2.3727  0.5075
 6604SOL    HW231449   1.843   2.497   7.785 -1.8886 -0.4665 -0.4826
 6605SOL     OW31450   4.204   3.885  16.782 -0.1916 -0.0028  0.8003
 6605SOL    HW131451   4.251   3.802  16.794 -0.3563 -0.3306 -0.8488
 6605SOL    HW231452   4.278   3.936  16.751  0.2623 -2.1506 -1.6696
 6606SOL     OW31453   1.221   2.492  14.798  0.2271 -0.4570 -0.2748
 6606SOL    HW131454   1.143   2.495  14.853  0.7644  0.8527  0.4071
 6606SOL    HW231455   1.251   2.401  14.808  2.2211  0.0010 -2.1320
 6607SOL     OW31456   2.647   1.348   6.110  0.0594 -0.5336 -0.2939
 6607SOL    HW131457   2.668   1.439   6.132 -1.6630 -0.0677 -0.5933
 6607SOL    HW231458   2.552   1.345   6.108  0.0808 -0.3690 -1.5970
 6608SOL     OW31459   0.891   0.815   6.716 -0.5108 -0.3066 -0.0743
 6608SOL    HW131460   0.808   0.862   6.712  0.0119  0.7250  1.2060
 6608SOL    HW231461   0.936   0.854   6.791 -0.4250 -0.9838  0.2337
 6609SOL     OW31462   2.297   1.684   4.382 -0.0626  0.1605  0.3955
 6609SOL    HW131463   2.331   1.595   4.368  2.7394  1.1866  0.5705
 6609SOL    HW231464   2.268   1.711   4.295 -2.3607  1.2812  1.5130
 6610SOL     OW31465   1.802   0.303   4.446 -0.7956  0.0818 -0.3160
 6610SOL    HW131466   1.713   0.337   4.454 -0.2841  1.3090  0.1530
 6610SOL    HW231467   1.851   0.385   4.458  2.1392 -1.6872 -0.2652
 6611SOL     OW31468   3.058   4.242   5.311  0.4892 -0.1080 -0.4169
 6611SOL    HW131469   2.977   4.236   5.361  0.5716 -1.5689 -0.4655
 6611SOL    HW231470   3.111   4.279   5.381  1.0903 -0.0935 -0.8848
 6612SOL     OW31471   2.571   2.425   3.227  0.3793 -0.1141  0.1523
 6612SOL    HW131472   2.505   2.444   3.160 -0.0986  0.5071  0.8075
 6612SOL    HW231473   2.568   2.499   3.288  1.2185  0.2854 -0.2902
 6613SOL     OW31474   2.882   1.405  11.657  0.2469  0.6132  0.4151
 6613SOL    HW131475   2.896   1.376  11.567  0.2603  0.6301  0.4117
 6613SOL    HW231476   2.953   1.468  11.669  0.5359  0.6971 -1.7211
 6614SOL     OW31477   3.069   0.703   2.246 -0.1024  0.2090 -0.0318
 6614SOL    HW131478   3.107   0.715   2.334 -2.1275  0.7261  0.7668
 6614SOL    HW231479   3.134   0.676   2.181  0.8694 -0.4462  1.1992
 6615SOL     OW31480   3.199   0.935  12.005  0.2948  0.3991 -0.7561
 6615SOL    HW131481   3.154   0.895  11.931  1.3602  0.2183 -1.3068
 6615SOL    HW231482   3.283   0.889  12.006  0.2448  0.2778 -1.8412
 6616SOL     OW31483   1.780   0.040   3.367  0.5138 -0.2915 -0.2648
 6616SOL    HW131484   1.748   0.002   3.285 -0.5897 -0.5179  0.2771
 6616SOL    HW231485   1.728   0.120   3.369  2.6661  1.0994  0.1809
 6617SOL     OW31486   2.982   3.805   8.032 -0.1244 -0.3633  0.9033
 6617SOL    HW131487   2.929   3.791   8.110 -1.4651 -0.0646  0.0549
 6617SOL    HW231488   3.051   3.863   8.065  0.3164 -1.5517  2.0294
 6618SOL     OW31489   1.177   3.395   7.216  0.3774 -0.0892  0.0062
 6618SOL    HW131490   1.237   3.449   7.165 -0.1799  0.3728 -0.1557
 6618SOL    HW231491   1.202   3.423   7.304  0.5185  2.5993 -0.8903
 6619SOL     OW31492   4.338   0.609   2.778 -0.7801 -0.7793 -0.0715
 6619SOL    HW131493   4.397   0.542   2.811  0.6299  0.1133 -0.7534
 6619SOL    HW231494   4.261   0.553   2.781 -0.4941 -1.2390 -1.1542
 6620SOL     OW31495   3.077   1.848   9.772 -0.2033  0.1696 -0.3070
 6620SOL    HW131496   3.109   1.759   9.762  1.0048  0.4994  0.6266
 6620SOL    HW231497   2.988   1.831   9.803 -0.0083  1.0141  0.7124
 6621SOL     OW31498   4.626   3.202  17.037 -0.5373 -0.0020 -0.0993
 6621SOL    HW131499   4.712   3.234  17.066 -0.4497  0.9529 -1.4116
 6621SOL    HW231500   4.624   3.257  16.959 -1.4844  2.6046  1.7758
 6622SOL     OW31501   1.399   2.481   0.282  0.2250 -0.3067 -0.3911
 6622SOL    HW131502   1.385   2.541   0.209 -1.0377 -1.2958 -0.9804
 6622SOL    HW231503   1.351   2.525   0.352  0.4160  0.6154 -0.8437
 6623SOL     OW31504   0.118   1.242   9.021 -0.1444  0.2574  0.3822
 6623SOL    HW131505   0.046   1.217   9.079 -0.2768 -1.1176 -0.3639
 6623SOL    HW231506   0.196   1.204   9.061  0.5121 -1.1383 -2.2116
 6624SOL     OW31507   4.336   2.533   5.199 -0.1100 -0.1136 -0.5128
 6624SOL    HW131508   4.429   2.514   5.201 -0.3948 -1.4928 -0.8382
 6624SOL    HW231509   4.325   2.590   5.123  0.9419 -0.2942 -0.8037
 6625SOL     OW31510   2.908   1.227  16.559 -0.3163  0.4018 -0.0796
 6625SOL    HW131511   2.813   1.237  16.557 -0.3763 -0.0578  0.8652
 6625SOL    HW231512   2.937   1.291  16.494 -1.0068  0.2693 -0.5272
 6626SOL     OW31513   3.881   0.988   9.392  0.1214  0.2490 -0.2422
 6626SOL    HW131514   3.836   0.957   9.470  2.4927 -0.7566  0.7076
 6626SOL    HW231515   3.855   0.917   9.333 -2.3970  0.9577  0.0214
 6627SOL     OW31516   3.693   3.668   7.525 -0.2106 -0.5458  0.5493
 6627SOL    HW131517   3.692   3.723   7.603 -1.0270 -2.3194  1.7827
 6627SOL    HW231518   3.603   3.634   7.522 -0.3471 -0.1202 -0.3421
 6628SOL     OW31519   1.319   2.064   7.913  0.2015 -0.1195  0.2021
 6628SOL    HW131520   1.257   1.991   7.924 -1.2923  0.9048 -1.4886
 6628SOL    HW231521   1.387   2.032   7.971  0.8819  0.2008 -0.4225
 6629SOL     OW31522   4.022   3.791   5.456  0.1929 -0.5483 -0.0327
 6629SOL    HW131523   4.088   3.722   5.458  1.7717  0.9414 -0.3733
 6629SOL    HW231524   3.971   3.767   5.533 -0.3494  2.8257  0.6807
 6630SOL     OW31525   4.212   0.773  17.125 -0.3723 -0.5193 -0.6860
 6630SOL    HW131526   4.119   0.763  17.103 -1.1570  0.5545  2.2004
 6630SOL    HW231527   4.238   0.811  17.041  0.5249 -1.4596 -0.8372
 6631SOL     OW31528   3.970   4.546  11.116 -0.0254 -0.3914 -0.7238
 6631SOL    HW131529   3.969   4.641  11.110  0.0006 -0.3718 -0.4302
 6631SOL    HW231530   3.950   4.536  11.209  0.2354  0.8280 -0.5456
 6632SOL     OW31531   0.416   4.732  12.250 -0.3421 -0.3333 -0.4512
 6632SOL    HW131532   0.375   0.074  12.284  1.1109 -0.3698  1.4098
 6632SOL    HW231533   0.467   0.033  12.179  1.8616  1.9031  2.3780
 6633SOL     OW31534   1.799   3.748   4.517  0.4401 -0.6105 -0.5865
 6633SOL    HW131535   1.741   3.749   4.593  2.5745  0.9923  1.0021
 6633SOL    HW231536   1.798   3.839   4.485  4.0937  0.2245  1.7603
 6634SOL     OW31537   4.045   3.377   1.041 -0.4148 -0.2315  0.0533
 6634SOL    HW131538   3.968   3.366   0.985  0.2330 -1.6816 -0.5616
 6634SOL    HW231539   4.034   3.319   1.117 -0.3838  0.0055  0.2384
 6635SOL     OW31540   2.376   1.363   8.129 -0.0315  0.3144 -0.1167
 6635SOL    HW131541   2.453   1.420   8.138 -0.4838  1.0782 -1.0862
 6635SOL    HW231542   2.415   1.280   8.101 -1.9468 -0.7004  0.2523
 6636SOL     OW31543   3.918   2.152   4.414  0.7733 -0.6225  0.3994
 6636SOL    HW131544   3.922   2.237   4.370 -0.0371 -0.2452  1.0542
 6636SOL    HW231545   4.008   2.127   4.436  0.4262 -0.0318  2.4640
 6637SOL     OW31546   0.250   3.698   5.578 -0.1264  0.3399  0.1950
 6637SOL    HW131547   0.162   3.726   5.603 -1.1426 -0.2534 -2.7850
 6637SOL    HW231548   0.265   3.747   5.498  0.9173 -0.3058 -0.0183
 6638SOL     OW31549   1.877   3.855   3.699  0.0916 -0.3972 -0.1720
 6638SOL    HW131550   1.805   3.797   3.725  0.7884 -1.1206  0.1611
 6638SOL    HW231551   1.820   3.928   3.677 -0.4271 -1.0636 -1.0685
 6639SOL     OW31552   1.316   0.658   9.026 -0.5140 -0.1003 -0.6144
 6639SOL    HW131553   1.365   0.740   9.022 -0.0680 -0.2718  1.2645
 6639SOL    HW231554   1.377   0.605   8.974  0.2797  0.0741  0.1302
 6640SOL     OW31555   2.523   1.716  11.927  0.5664 -0.0752 -0.3135
 6640SOL    HW131556   2.464   1.761  11.987 -1.3307 -0.3305 -1.9819
 6640SOL    HW231557   2.598   1.771  11.948  1.4840 -1.6624  0.5569
 6641SOL     OW31558   4.518   1.674  10.685  0.0039 -0.0089 -0.4603
 6641SOL    HW131559   4.499   1.755  10.732 -2.7064 -0.5302 -0.6828
 6641SOL    HW231560   4.454   1.670  10.614  0.7875  1.0041 -1.2275
 6642SOL     OW31561   2.926   2.718   7.202 -0.2653  0.0589  0.0306
 6642SOL    HW131562   2.953   2.643   7.255  3.2272 -0.3158 -2.2876
 6642SOL    HW231563   2.831   2.712   7.214 -0.7288  1.3529 -2.9704
 6643SOL     OW31564   3.450   1.154   8.005  0.6510 -0.1630  0.2537
 6643SOL    HW131565   3.376   1.206   7.973  1.4817  1.6858  1.3288
 6643SOL    HW231566   3.490   1.227   8.053  1.2313  0.2784 -0.9130
 6644SOL     OW31567   4.695   3.077  17.572  0.0582  0.3810 -0.2915
 6644SOL    HW131568   4.676   3.142  17.504  0.9732  0.3419 -0.5744
 6644SOL    HW231569   0.052   3.064  17.567 -0.3636 -2.6709 -0.4661
 6645SOL     OW31570   0.214   2.783   2.676  1.0140 -0.1430  0.7116
 6645SOL    HW131571   0.257   2.732   2.745 -1.1433 -0.9755  1.4227
 6645SOL    HW231572   0.253   2.747   2.596  0.7055  1.7506 -0.2909
 6646SOL     OW31573   3.878   2.556   4.342  0.0901 -0.3872 -0.3663
 6646SOL    HW131574   3.904   2.513   4.261 -2.7723 -0.1238 -1.4146
 6646SOL    HW231575   3.888   2.649   4.320  1.0368 -0.5850 -0.8029
 6647SOL     OW31576   0.786   0.325   8.728 -0.4151  0.1055  0.3167
 6647SOL    HW131577   0.724   0.297   8.661 -2.6355  1.2101  1.9189
 6647SOL    HW231578   0.732   0.390   8.772 -0.4060 -0.4737  1.1803
 6648SOL     OW31579   0.176   0.231   4.825  0.0862 -0.1417  0.3399
 6648SOL    HW131580   0.124   0.183   4.889  1.9046 -1.4923  0.7911
 6648SOL    HW231581   0.257   0.181   4.822 -1.5863 -2.9135  1.8553
 6649SOL     OW31582   3.286   4.645   6.017  0.0082 -0.4195 -0.1039
 6649SOL    HW131583   3.293   4.618   6.108  2.6304 -2.7271 -0.9917
 6649SOL    HW231584   3.380   4.638   6.000  0.0732 -0.4663  0.2773
 6650SOL     OW31585   0.626   0.225   8.268  0.4562  0.2025 -0.2575
 6650SOL    HW131586   0.549   0.220   8.211 -1.0071 -0.5898  1.7840
 6650SOL    HW231587   0.692   0.200   8.204  0.9180 -1.4990  0.8687
 6651SOL     OW31588   3.935   2.172   1.696  0.7167  0.1923 -0.6690
 6651SOL    HW131589   3.853   2.209   1.729  0.7597 -0.1504 -0.1844
 6651SOL    HW231590   3.992   2.208   1.764 -0.9636  0.3483  0.6708
 6652SOL     OW31591   3.952   3.692   9.698 -0.1088 -0.0403  0.4896
 6652SOL    HW131592   3.918   3.695   9.608  0.9095  1.2036  0.1410
 6652SOL    HW231593   4.001   3.775   9.693  0.6834 -0.5755 -0.5467
 6653SOL     OW31594   2.141   1.807   7.310  0.3876  0.4653  0.4420
 6653SOL    HW131595   2.146   1.886   7.257 -0.1200  0.3774  0.2597
 6653SOL    HW231596   2.228   1.769   7.294 -0.9623 -0.9891 -3.4340
 6654SOL     OW31597   0.996   2.363   4.020 -0.3288 -0.1606  0.1353
 6654SOL    HW131598   1.030   2.285   4.063  0.3746 -0.7108 -1.4186
 6654SOL    HW231599   0.916   2.315   3.998  0.5473 -0.5743 -2.1622
 6655SOL     OW31600   0.831   0.265   6.510 -0.3797  0.1102  0.4004
 6655SOL    HW131601   0.752   0.261   6.456  0.5923 -0.4565 -0.9776
 6655SOL    HW231602   0.889   0.323   6.462 -1.2591 -0.6203 -1.5509
 6656SOL     OW31603   2.716   0.934   3.302 -0.4957  0.0549  0.2337
 6656SOL    HW131604   2.797   0.934   3.252 -1.0007 -1.0035 -0.5868
 6656SOL    HW231605   2.698   1.028   3.302 -1.2773 -0.0946  2.0754
 6657SOL     OW31606   3.570   1.809   0.389  0.3986 -0.3840 -0.1357
 6657SOL    HW131607   3.553   1.727   0.435 -1.4723  0.4930  0.7433
 6657SOL    HW231608   3.555   1.786   0.298 -4.3377 -0.6163  0.7151
 6658SOL     OW31609   0.200   1.994   5.555  0.3313  0.0952 -0.7986
 6658SOL    HW131610   0.209   1.900   5.571 -0.2275  0.3504  1.0959
 6658SOL    HW231611   0.229   1.994   5.464 -2.9103  1.3614 -1.8509
 6659SOL     OW31612   1.803   4.622   5.864 -0.1144  0.1898 -0.7116
 6659SOL    HW131613   1.758   4.538   5.850 -2.3082  1.3735 -0.6493
 6659SOL    HW231614   1.812   4.663   5.778 -2.2670  0.4517 -0.8197
 6660SOL     OW31615   1.532   2.229   9.833  0.0650 -0.1951 -0.2428
 6660SOL    HW131616   1.527   2.307   9.889  2.7821  1.8082 -2.7740
 6660SOL    HW231617   1.455   2.178   9.856 -0.8702  1.1388 -0.4473
 6661SOL     OW31618   2.416   4.548   7.315 -0.5738 -0.4340  0.1627
 6661SOL    HW131619   2.461   4.628   7.343  1.0221 -1.4278  0.4760
 6661SOL    HW231620   2.487   4.526   7.255 -0.6719  0.8340 -0.4196
 6662SOL     OW31621   2.918   0.375   4.188 -0.5465 -0.6074 -0.2836
 6662SOL    HW131622   2.864   0.449   4.159  1.4628  0.5270 -1.1755
 6662SOL    HW231623   3.000   0.421   4.211 -1.1838  0.8429 -0.8996
 6663SOL     OW31624   4.623   3.779   5.466 -0.2224  0.2604 -0.7410
 6663SOL    HW131625   4.671   3.773   5.384 -0.5392  1.7834 -1.0442
 6663SOL    HW231626   4.534   3.792   5.432 -0.2539  2.3045  0.1443
 6664SOL     OW31627   0.355   4.527  12.757  0.3274 -0.5300  0.2998
 6664SOL    HW131628   0.313   4.581  12.690 -0.8113 -1.3227  0.3694
 6664SOL    HW231629   0.276   4.500  12.804  0.4614 -2.1476 -0.3868
 6665SOL     OW31630   3.906   2.906   5.606  0.4707 -0.0636  0.3523
 6665SOL    HW131631   3.976   2.862   5.654  0.5055 -0.3190  0.0721
 6665SOL    HW231632   3.856   2.938   5.681  2.0516 -1.6952  2.0887
 6666SOL     OW31633   1.877   1.886   0.334 -0.2808  0.4382 -0.2729
 6666SOL    HW131634   1.930   1.933   0.269  0.2454  0.7961  0.4179
 6666SOL    HW231635   1.801   1.944   0.326  0.2018  1.2708  1.2255
 6667SOL     OW31636   2.357   1.633  15.033 -0.4612 -0.2007  0.1327
 6667SOL    HW131637   2.310   1.715  15.048 -0.5793 -0.2763  0.1738
 6667SOL    HW231638   2.291   1.571  15.002 -0.5718 -0.8679  1.7257
 6668SOL     OW31639   2.306   1.021   7.842  0.1216  0.6108 -0.1597
 6668SOL    HW131640   2.352   0.941   7.819  0.9463  1.4978 -1.5891
 6668SOL    HW231641   2.339   1.045   7.929  1.4320 -0.1036 -0.4625
 6669SOL     OW31642   2.508   3.938  11.496 -0.2877 -0.2904  0.0251
 6669SOL    HW131643   2.481   3.846  11.492 -3.0049  0.5303 -0.5508
 6669SOL    HW231644   2.542   3.955  11.584 -0.5846 -1.3477  0.3506
 6670SOL     OW31645   4.613   2.242   4.968  0.1309  0.2581 -0.3662
 6670SOL    HW131646   4.527   2.210   4.943  0.7183 -2.4249  1.0114
 6670SOL    HW231647   4.610   2.248   5.064  1.2590 -1.1002 -0.2416
 6671SOL     OW31648   1.838   2.541   6.882 -0.2315  0.1524  0.0431
 6671SOL    HW131649   1.814   2.477   6.816  3.7827  0.4655 -1.6978
 6671SOL    HW231650   1.820   2.498   6.966  0.7802 -3.5250 -1.6344
 6672SOL     OW31651   3.354   1.327   2.433  0.7101  0.0062  0.1324
 6672SOL    HW131652   3.387   1.344   2.521 -0.3406  0.1171  0.5010
 6672SOL    HW231653   3.373   1.407   2.385  2.8057 -0.9416 -0.6547
 6673SOL     OW31654   2.329   3.188   4.840  0.3236 -0.2140 -0.4905
 6673SOL    HW131655   2.409   3.230   4.871 -1.4501  1.0364  2.4128
 6673SOL    HW231656   2.371   3.108   4.808 -2.1769 -1.3679 -0.8714
 6674SOL     OW31657   2.121   1.273   5.256 -0.1246  0.3345 -0.5351
 6674SOL    HW131658   2.041   1.326   5.262 -0.1602  0.2591 -0.3116
 6674SOL    HW231659   2.091   1.182   5.255  1.7674 -0.3423  2.8901
 6675SOL     OW31660   1.296   3.187  17.586  0.0768 -0.4741 -0.0437
 6675SOL    HW131661   1.375   3.240  17.579 -0.3766  0.1802 -0.2922
 6675SOL    HW231662   1.307   3.155  17.675  0.1951  0.0936  0.1454
 6676SOL     OW31663   1.323   1.119  12.708  0.2288  0.2670 -0.1307
 6676SOL    HW131664   1.391   1.181  12.684  1.9629 -2.0736 -1.2083
 6676SOL    HW231665   1.333   1.126  12.803  2.2013  1.4183 -0.4282
 6677SOL     OW31666   1.341   1.114   3.197  0.4840 -0.1367 -0.6491
 6677SOL    HW131667   1.417   1.133   3.142 -0.2907  0.9038 -1.3885
 6677SOL    HW231668   1.356   1.171   3.272 -0.9341  0.3466 -0.7209
 6678SOL     OW31669   2.002   4.635  11.512 -0.0288  0.0095 -0.4619
 6678SOL    HW131670   1.950   4.556  11.501  0.6409 -0.5094  0.1145
 6678SOL    HW231671   2.007   4.640  11.607 -1.3566  0.1770 -0.3981
 6679SOL     OW31672   2.053   2.911   0.331 -0.7468  0.1540  0.1703
 6679SOL    HW131673   2.107   2.938   0.257 -0.6318  2.1298  0.9744
 6679SOL    HW231674   2.081   2.822   0.354 -0.7629  0.2520  0.5658
 6680SOL     OW31675   0.293   2.396   4.752  0.6629  0.3741 -0.1885
 6680SOL    HW131676   0.231   2.467   4.738 -2.2310 -2.0710  0.2276
 6680SOL    HW231677   0.253   2.318   4.714  0.9010  0.5589 -0.8035
 6681SOL     OW31678   2.297   3.926   8.192  0.2939 -0.1582  0.9571
 6681SOL    HW131679   2.386   3.933   8.157  0.5557  1.7866  1.9975
 6681SOL    HW231680   2.294   3.998   8.254 -0.8735 -0.6329  1.4602
 6682SOL     OW31681   3.865   2.443   8.002 -0.6392 -0.0291  0.3183
 6682SOL    HW131682   3.812   2.432   7.923 -0.6760  0.5256  0.2679
 6682SOL    HW231683   3.904   2.529   7.986  1.1190 -1.0408 -0.8051
 6683SOL     OW31684   2.989   0.585   8.752 -0.0756 -0.1238  0.7091
 6683SOL    HW131685   3.062   0.540   8.710 -0.4937  0.9097 -1.0738
 6683SOL    HW231686   2.963   0.639   8.679 -1.0603 -1.1785  0.2739
 6684SOL     OW31687   4.430   1.730   8.683 -0.1271 -0.1230 -0.0382
 6684SOL    HW131688   4.525   1.728   8.671 -0.1360  0.2750 -0.1967
 6684SOL    HW231689   4.426   1.687   8.768 -1.6841 -2.0044 -1.0649
 6685SOL     OW31690   3.835   3.918   9.981  0.6570 -0.2304 -0.2585
 6685SOL    HW131691   3.823   3.941   9.889  0.8773  1.5685  0.1553
 6685SOL    HW231692   3.840   4.006  10.019 -0.0792 -0.1781 -0.2761
 6686SOL     OW31693   2.059   0.427   6.037 -0.2712  0.2302  0.3714
 6686SOL    HW131694   2.117   0.351   6.037  1.6658  1.7215 -2.6210
 6686SOL    HW231695   2.004   0.398   5.964 -1.4799 -2.6162  2.4158
 6687SOL     OW31696   3.298   1.166   7.575 -0.2589  0.2250 -0.2918
 6687SOL    HW131697   3.316   1.150   7.482  0.7221 -1.6417  0.2189
 6687SOL    HW231698   3.315   1.260   7.580  1.0286 -0.0442  0.4106
 6688SOL     OW31699   2.240   3.314  11.433  0.7426 -0.2298  0.1757
 6688SOL    HW131700   2.228   3.399  11.393 -0.0209  0.1521  1.2313
 6688SOL    HW231701   2.172   3.324  11.499  1.3916  1.4252  0.5803
 6689SOL     OW31702   4.083   4.687   9.002  0.3146 -0.5515  0.3797
 6689SOL    HW131703   3.996   4.724   8.990  0.1990  0.1530  3.2756
 6689SOL    HW231704   4.102   4.731   9.085 -1.6442 -0.7716  0.9561
 6690SOL     OW31705   3.649   4.703   7.205  0.1836  0.1936  0.0114
 6690SOL    HW131706   3.593   4.734   7.276 -2.4000 -1.7212 -1.1389
 6690SOL    HW231707   3.585   4.666   7.144 -1.3236  0.3146  1.5231
 6691SOL     OW31708   0.511   0.634  15.488 -0.4855 -0.6780  0.3908
 6691SOL    HW131709   0.464   0.711  15.520 -1.6393 -0.5723 -1.5822
 6691SOL    HW231710   0.552   0.680  15.415 -0.3474  0.1612  1.0027
 6692SOL     OW31711   1.204   4.248   4.575 -0.7305 -0.0663 -0.2463
 6692SOL    HW131712   1.280   4.204   4.537 -1.1196 -0.6940 -0.2979
 6692SOL    HW231713   1.238   4.267   4.663 -0.2746  0.0185 -0.4366
 6693SOL     OW31714   3.231   1.848   6.236 -0.7073 -0.2390  0.6937
 6693SOL    HW131715   3.149   1.863   6.285 -0.7655 -0.0598  0.5442
 6693SOL    HW231716   3.227   1.902   6.157  0.4712 -2.8277 -1.1424
 6694SOL     OW31717   2.141   2.936   4.216  0.2571 -0.0942  0.4140
 6694SOL    HW131718   2.235   2.917   4.227  0.9789  2.6477 -0.8516
 6694SOL    HW231719   2.120   3.001   4.283 -1.7455 -0.7001  0.3503
 6695SOL     OW31720   0.210   3.198   9.044  0.0342  0.1567 -0.5712
 6695SOL    HW131721   0.254   3.163   9.122 -1.0150  0.5651  0.2024
 6695SOL    HW231722   0.287   3.223   8.993  1.1935  2.9842  2.5056
 6696SOL     OW31723   3.091   0.778   0.311 -0.4119 -0.2184 -0.4213
 6696SOL    HW131724   3.040   0.705   0.346  1.5868 -1.4183 -0.0092
 6696SOL    HW231725   3.014   0.809   0.263 -0.6155 -1.1773 -0.7185
 6697SOL     OW31726   0.717   1.317   9.183  0.1538 -0.9297  0.5621
 6697SOL    HW131727   0.810   1.303   9.164 -0.6548 -1.7849 -2.6467
 6697SOL    HW231728   0.715   1.372   9.262  1.9540  0.3705 -0.3043
 6698SOL     OW31729   3.435   0.200   0.689  0.3266 -0.2559 -0.2106
 6698SOL    HW131730   3.396   0.140   0.626 -0.6575  1.4416 -1.2103
 6698SOL    HW231731   3.529   0.185   0.676  0.0797 -2.6617  0.8097
 6699SOL     OW31732   1.623   2.289   2.426 -0.1397  0.3439  0.0019
 6699SOL    HW131733   1.585   2.224   2.366 -0.7454 -0.7966  1.6371
 6699SOL    HW231734   1.709   2.248   2.438  0.9962  2.1937 -1.7536
 6700SOL     OW31735   4.078   1.575   5.891  0.0669  0.2843  0.3926
 6700SOL    HW131736   4.057   1.668   5.887  0.5901  0.3029 -2.1222
 6700SOL    HW231737   4.013   1.542   5.954  0.6976 -2.1774 -0.2362
 6701SOL     OW31738   0.112   4.241   8.455 -0.9781 -0.8042  1.1576
 6701SOL    HW131739   0.192   4.210   8.499  0.7115  0.9018 -0.6953
 6701SOL    HW231740   0.042   4.223   8.517 -0.4818  0.1629  2.0019
 6702SOL     OW31741   1.420   3.152   0.829 -0.3690  0.0347  0.1814
 6702SOL    HW131742   1.475   3.230   0.824 -0.1871 -0.0813  0.3551
 6702SOL    HW231743   1.389   3.163   0.919  2.2080 -0.5663  1.1631
 6703SOL     OW31744   4.021   0.299   6.290  0.3224 -0.0252 -0.0168
 6703SOL    HW131745   4.034   0.322   6.382 -1.1276  1.3545 -0.1625
 6703SOL    HW231746   4.107   0.271   6.256  1.5735  3.3519  0.3408
 6704SOL     OW31747   1.766   0.329  11.403 -0.0760  0.3726 -0.1337
 6704SOL    HW131748   1.743   0.236  11.400  1.7091 -0.0549 -0.4084
 6704SOL    HW231749   1.735   0.363  11.487  0.8892 -0.4834  0.5773
 6705SOL     OW31750   4.735   1.985   3.592  0.1400 -0.4828 -0.2019
 6705SOL    HW131751   4.664   2.048   3.577  0.4858  0.4815  2.3601
 6705SOL    HW231752   0.059   2.020   3.528 -1.0918 -0.3822 -1.3374
 6706SOL     OW31753   2.220   2.610  12.391  0.1873  0.6485 -0.3000
 6706SOL    HW131754   2.138   2.645  12.427  0.5623  1.3189 -0.0925
 6706SOL    HW231755   2.240   2.543  12.456 -0.0435  0.0197 -0.8860
 6707SOL     OW31756   2.950   4.252  17.452 -0.1286  0.1933 -0.3005
 6707SOL    HW131757   3.039   4.249  17.487  0.5963  0.6269 -2.1294
 6707SOL    HW231758   2.902   4.312  17.509  0.6607  0.0811  0.4912
 6708SOL     OW31759   3.845   2.685  14.642 -0.5163 -0.4767 -0.0699
 6708SOL    HW131760   3.881   2.678  14.731  1.6393  0.0302 -0.8909
 6708SOL    HW231761   3.801   2.769  14.647  0.2906  0.0942 -2.7577
 6709SOL     OW31762   2.599   2.734  12.361 -0.0532  0.4301 -0.0885
 6709SOL    HW131763   2.643   2.664  12.409 -2.0642 -1.1170 -0.4797
 6709SOL    HW231764   2.539   2.764  12.429  1.4105  1.7776  0.6069
 6710SOL     OW31765   4.019   4.358  14.943 -0.0393  0.4161  0.3500
 6710SOL    HW131766   4.024   4.434  14.885  1.5639  1.3838  1.7548
 6710SOL    HW231767   3.965   4.304  14.886  0.2475  1.5140 -0.9547
 6711SOL     OW31768   4.144   1.823   2.756 -0.1995 -0.2274 -0.3314
 6711SOL    HW131769   4.137   1.915   2.779  0.1328 -0.3134  0.1171
 6711SOL    HW231770   4.074   1.790   2.813  1.0890 -3.7093 -0.7762
 6712SOL     OW31771   1.137   0.248   8.939  0.1779  0.1258  0.2280
 6712SOL    HW131772   1.192   0.203   9.002 -1.7639 -0.4846  1.4973
 6712SOL    HW231773   1.198   0.304   8.891 -2.0126 -0.2163 -3.0095
 6713SOL     OW31774   1.525   2.097   2.602  0.3422 -0.0598  0.1380
 6713SOL    HW131775   1.602   2.050   2.569  0.4078  0.1565 -0.0138
 6713SOL    HW231776   1.507   2.167   2.540  1.3921 -0.3101 -0.4583
 6714SOL     OW31777   0.626   2.419  11.483 -0.2403 -1.2033  0.4692
 6714SOL    HW131778   0.665   2.500  11.449 -0.4904 -1.3887 -0.2778
 6714SOL    HW231779   0.590   2.381  11.403  0.5071 -0.5637 -0.1718
 6715SOL     OW31780   0.751   3.200   4.473 -0.1810 -0.8189 -0.3299
 6715SOL    HW131781   0.730   3.243   4.390 -2.5381 -0.0997  0.6398
 6715SOL    HW231782   0.679   3.137   4.470 -0.8587 -0.0932  0.3127
 6716SOL     OW31783   0.714   3.013  10.593 -0.1974  0.1914 -0.3981
 6716SOL    HW131784   0.753   3.100  10.600  0.2427 -0.1801  1.8103
 6716SOL    HW231785   0.782   2.959  10.634 -1.1517 -2.3614 -2.1916
 6717SOL     OW31786   2.424   3.287   7.558  0.0174 -0.2882 -0.3735
 6717SOL    HW131787   2.329   3.279   7.547  0.1044 -0.6155 -0.8915
 6717SOL    HW231788   2.442   3.300   7.465  4.4556 -1.6179  0.3149
 6718SOL     OW31789   1.844   0.387   8.930 -0.2669 -0.0907  0.2949
 6718SOL    HW131790   1.816   0.353   8.845 -0.4271 -1.0644  0.7368
 6718SOL    HW231791   1.888   0.467   8.902  0.9482 -0.9275 -0.2075
 6719SOL     OW31792   0.352   2.718  10.116 -0.1302 -0.7031 -0.2382
 6719SOL    HW131793   0.339   2.690  10.026 -1.0071 -1.3527  0.0891
 6719SOL    HW231794   0.262   2.743  10.135 -0.2842 -2.2476  1.1391
 6720SOL     OW31795   0.833   1.116   8.921  0.4323  0.2346 -0.0945
 6720SOL    HW131796   0.840   1.179   8.849  1.6713 -0.7801 -0.8463
 6720SOL    HW231797   0.889   1.165   8.982  0.6557 -0.9509  0.6370
 6721SOL     OW31798   4.651   1.972  12.299  0.0827  0.1218  0.2984
 6721SOL    HW131799   4.702   2.051  12.283 -0.2396  0.8773  3.0394
 6721SOL    HW231800   4.569   2.006  12.334 -1.0368 -2.3117  0.1032
 6722SOL     OW31801   4.392   3.647   7.563  0.8844  0.0546 -0.4779
 6722SOL    HW131802   4.450   3.606   7.626 -1.1114  0.2289  1.4906
 6722SOL    HW231803   4.352   3.570   7.521  0.0845  0.2897 -0.1433
 6723SOL     OW31804   4.314   1.302   6.823  0.0518  0.1980 -0.1394
 6723SOL    HW131805   4.280   1.270   6.907 -0.0427 -1.1708 -0.7128
 6723SOL    HW231806   4.242   1.289   6.761 -1.5033 -0.5076  1.8039
 6724SOL     OW31807   3.496   4.131  13.605 -0.1963 -0.7479 -0.4161
 6724SOL    HW131808   3.514   4.101  13.694  0.8540 -0.0232 -0.3963
 6724SOL    HW231809   3.407   4.096  13.594 -0.5216  0.0670 -0.3798
 6725SOL     OW31810   4.520   4.208  10.758  0.1331 -0.0389 -0.0378
 6725SOL    HW131811   4.552   4.178  10.673  0.1953 -1.0916  0.3479
 6725SOL    HW231812   4.490   4.295  10.732  0.4783  0.3523  0.8658
 6726SOL     OW31813   2.591   2.099   6.399 -0.3552  0.5114 -0.4018
 6726SOL    HW131814   2.567   2.191   6.406 -2.6983 -0.1938  0.7771
 6726SOL    HW231815   2.502   2.064   6.393  0.3841 -1.0343 -2.4722
 6727SOL     OW31816   3.133   0.690   4.608 -0.3383  0.1745  0.3117
 6727SOL    HW131817   3.169   0.760   4.661  1.0532  0.5625 -1.1348
 6727SOL    HW231818   3.040   0.712   4.611 -0.0758  1.3679 -0.2917
 6728SOL     OW31819   0.081   1.793  11.026  0.2652  0.2528 -0.3424
 6728SOL    HW131820   0.026   1.857  11.069 -0.2601 -0.9935  0.8330
 6728SOL    HW231821   0.028   1.713  11.027 -1.3682  1.3509  0.1737
 6729SOL     OW31822   0.766   3.095   7.301 -0.0929  0.1022  0.4680
 6729SOL    HW131823   0.739   3.186   7.292  2.0030  0.6527 -0.1608
 6729SOL    HW231824   0.801   3.085   7.213 -0.3729 -0.1326  0.3833
 6730SOL     OW31825   1.767   0.032   8.382 -0.3704  0.1748 -0.4023
 6730SOL    HW131826   1.714   0.027   8.302 -1.5173 -2.9673  0.5681
 6730SOL    HW231827   1.856   0.048   8.350 -0.4690  2.1154  0.3087
 6731SOL     OW31828   3.891   1.609  10.290  0.4410 -0.1527  0.1407
 6731SOL    HW131829   3.970   1.585  10.337  1.0169  0.2235 -0.6394
 6731SOL    HW231830   3.927   1.630  10.204 -2.0767 -0.5440 -1.0189
 6732SOL     OW31831   3.066   3.650  11.215 -0.2143  0.6778 -0.7308
 6732SOL    HW131832   3.026   3.587  11.275 -0.1255 -0.3408 -1.7450
 6732SOL    HW231833   3.157   3.622  11.222 -0.1981  0.1080 -3.3393
 6733SOL     OW31834   0.851   2.429   3.467 -0.5933 -0.1702 -0.2290
 6733SOL    HW131835   0.889   2.381   3.540  1.5525 -0.1952 -1.3375
 6733SOL    HW231836   0.820   2.506   3.514 -0.1151 -0.4600  0.5521
 6734SOL     OW31837   2.262   2.445  17.069  0.1821 -0.2833  0.5815
 6734SOL    HW131838   2.197   2.485  17.128 -1.2797 -0.1427 -1.1369
 6734SOL    HW231839   2.341   2.439  17.123  1.1145  0.2921 -0.7408
 6735SOL     OW31840   3.483   2.521   1.754 -0.0567 -0.1836 -0.2245
 6735SOL    HW131841   3.504   2.430   1.733  2.6192  0.5380 -0.5752
 6735SOL    HW231842   3.496   2.579   1.679  0.3901  0.3900  0.2933
 6736SOL     OW31843   3.946   2.337   1.485  0.8880 -0.1884  0.4798
 6736SOL    HW131844   3.930   2.407   1.549 -0.3041 -0.1568  0.1506
 6736SOL    HW231845   3.929   2.267   1.548 -1.1808  0.8088  1.0310
 6737SOL     OW31846   1.722   4.098   5.971  0.1405 -0.0179  0.1932
 6737SOL    HW131847   1.782   4.172   5.978  1.2150 -0.6211 -2.3582
 6737SOL    HW231848   1.726   4.066   6.061  1.4794  0.6712  0.3817
 6738SOL     OW31849   4.112   4.349   1.636  0.1602  0.1155  0.4015
 6738SOL    HW131850   4.122   4.259   1.668 -1.1331 -0.0646  0.3041
 6738SOL    HW231851   4.165   4.355   1.557 -0.0867  2.8655  0.4379
 6739SOL     OW31852   3.030   4.488   0.134 -0.6930  0.0331 -0.1189
 6739SOL    HW131853   3.101   4.484   0.198 -0.4105  2.3485 -0.2809
 6739SOL    HW231854   3.058   4.417   0.077 -1.1347 -0.5972  0.4412
 6740SOL     OW31855   2.052   2.545   3.433  0.0305  0.3032  0.4820
 6740SOL    HW131856   2.103   2.547   3.514  2.6304  0.8579 -1.1694
 6740SOL    HW231857   1.991   2.618   3.446 -0.5595  0.2537 -2.0780
 6741SOL     OW31858   4.211   0.567  16.079 -0.0225  0.4082  0.2380
 6741SOL    HW131859   4.186   0.540  15.991 -1.5590 -2.1001  1.4750
 6741SOL    HW231860   4.122   0.567  16.112  0.5781 -1.5206  1.8240
 6742SOL     OW31861   3.468   1.446   3.409 -0.0459  0.3072 -0.0330
 6742SOL    HW131862   3.554   1.480   3.386  1.0663 -1.4222  1.6309
 6742SOL    HW231863   3.426   1.468   3.326 -2.6042 -0.3951  1.0587
 6743SOL     OW31864   2.456   4.064   9.764 -0.0310 -0.4982 -0.4345
 6743SOL    HW131865   2.551   4.055   9.772 -0.0717 -1.4731 -0.9863
 6743SOL    HW231866   2.441   4.083   9.857  0.2523 -1.1372 -0.2567
 6744SOL     OW31867   0.877   1.822   5.364  0.0271  0.1075  0.0986
 6744SOL    HW131868   0.840   1.867   5.440  0.4487  1.8257 -0.7082
 6744SOL    HW231869   0.936   1.761   5.408  0.4590  1.4110  1.3594
 6745SOL     OW31870   0.831   1.100  14.130 -0.6440  0.2514  0.0189
 6745SOL    HW131871   0.829   1.013  14.090 -2.7593 -0.9835  2.7315
 6745SOL    HW231872   0.738   1.111  14.151 -0.2474  2.2877  0.6738
 6746SOL     OW31873   3.704   3.633   4.608  0.1269 -0.4720  0.1312
 6746SOL    HW131874   3.790   3.596   4.628  1.1737  1.6588 -0.3304
 6746SOL    HW231875   3.703   3.592   4.521  0.1049 -2.1854  0.9518
 6747SOL     OW31876   3.342   0.020   7.915 -0.0149 -0.1405 -0.2903
 6747SOL    HW131877   3.295   4.691   7.866 -0.1660 -0.3941  0.2054
 6747SOL    HW231878   3.368   4.708   7.992 -0.4987 -0.4638 -0.3345
 6748SOL     OW31879   2.109   3.200   4.998  0.5374 -0.0806  0.8207
 6748SOL    HW131880   2.193   3.203   4.953  1.4820 -0.1113  2.5874
 6748SOL    HW231881   2.049   3.156   4.938  0.5269  1.2488 -0.1543
 6749SOL     OW31882   0.483   4.169   4.911 -0.4476  0.1401  0.4006
 6749SOL    HW131883   0.461   4.206   4.997  0.7581 -2.9516  2.0402
 6749SOL    HW231884   0.579   4.171   4.909 -0.4198 -1.9308 -0.8246
 6750SOL     OW31885   1.039   1.081  11.901 -0.5401 -0.0248  0.2638
 6750SOL    HW131886   1.085   1.060  11.819  2.3696  2.3974  1.2444
 6750SOL    HW231887   1.042   1.177  11.899 -1.1107  0.0025  0.8396
 6751SOL     OW31888   1.558   3.309  17.492  0.4588 -0.3638 -0.3338
 6751SOL    HW131889   1.537   3.241  17.427 -1.7468 -0.0791  0.0835
 6751SOL    HW231890   1.619   3.365  17.443  0.7793 -0.9800 -0.6471
 6752SOL     OW31891   1.082   3.514   9.272  0.1824  0.3856  0.0713
 6752SOL    HW131892   1.066   3.420   9.279  1.3817  0.0836 -1.3185
 6752SOL    HW231893   1.035   3.532   9.191 -1.7167  3.8761  1.9173
 6753SOL     OW31894   4.084   4.226  11.121 -0.6323  0.6811  0.5201
 6753SOL    HW131895   4.125   4.181  11.195  1.1537  1.1297 -0.2061
 6753SOL    HW231896   4.155   4.242  11.058 -0.3013 -2.3073  0.1441
 6754SOL     OW31897   3.955   3.568   4.646  0.2338  0.1722  0.1734
 6754SOL    HW131898   3.986   3.619   4.721  1.2222 -0.3277  0.1109
 6754SOL    HW231899   4.031   3.514   4.625  0.5529  0.7203 -0.0888
 6755SOL     OW31900   1.843   0.586  11.820  0.2646 -0.3096 -0.1009
 6755SOL    HW131901   1.909   0.569  11.753 -0.8025  0.6189 -1.3973
 6755SOL    HW231902   1.874   0.534  11.894 -0.6222  0.8045  1.0687
 6756SOL     OW31903   4.661   1.463  16.765 -0.3657 -0.4088  0.1674
 6756SOL    HW131904   4.715   1.390  16.794  1.5642  0.7465 -0.5301
 6756SOL    HW231905   4.699   1.487  16.681 -2.2924 -0.9371 -0.8340
 6757SOL     OW31906   4.111   2.024   3.449  0.0641 -0.1704 -0.4758
 6757SOL    HW131907   4.104   1.978   3.532  1.1188  1.1463  0.3535
 6757SOL    HW231908   4.182   2.088   3.459 -0.8774  0.7132  0.5009
 6758SOL     OW31909   2.388   3.642   7.830 -0.3904  0.1222  0.0093
 6758SOL    HW131910   2.446   3.605   7.896 -0.2155  1.1806  0.4513
 6758SOL    HW231911   2.428   3.611   7.748 -0.6086 -0.5985  0.1736
 6759SOL     OW31912   1.162   2.365   3.069  0.2082  0.0457 -0.4158
 6759SOL    HW131913   1.197   2.292   3.019 -1.9150 -1.2429 -0.0374
 6759SOL    HW231914   1.143   2.425   2.996 -2.9158  0.7854  0.9722
 6760SOL     OW31915   2.947   2.578   2.156  0.0561 -0.4585  0.5756
 6760SOL    HW131916   2.867   2.585   2.208 -1.4286 -1.6012 -1.5540
 6760SOL    HW231917   2.920   2.600   2.067  1.9823 -2.3896 -0.4880
 6761SOL     OW31918   3.882   1.603   3.872  0.2651  0.0599  0.4583
 6761SOL    HW131919   3.875   1.698   3.879 -0.2857 -0.0565  1.4808
 6761SOL    HW231920   3.832   1.584   3.793 -1.1047 -1.1529  1.6168
 6762SOL     OW31921   0.405   0.320   8.762  0.0553  0.0569 -0.2345
 6762SOL    HW131922   0.335   0.311   8.827 -0.8924  1.4363 -1.0486
 6762SOL    HW231923   0.418   0.234   8.723  0.8260 -0.4657  1.1737
 6763SOL     OW31924   4.585   2.782  10.124  0.2071 -0.3339  0.2529
 6763SOL    HW131925   4.523   2.724  10.168  0.6284 -1.2542 -0.3576
 6763SOL    HW231926   4.537   2.811  10.047  2.5487  0.4275 -0.9399
 6764SOL     OW31927   1.781   0.529   4.067  0.5224 -0.2404 -0.3336
 6764SOL    HW131928   1.831   0.534   4.149 -1.7572  0.7954  0.9797
 6764SOL    HW231929   1.855   0.520   4.006 -0.6534 -0.3157 -1.7293
 6765SOL     OW31930   3.923   2.762  17.281  0.3369 -0.5562 -0.4766
 6765SOL    HW131931   3.847   2.705  17.285  2.1044 -2.9101 -0.9576
 6765SOL    HW231932   3.986   2.712  17.333  1.2397  0.0391 -0.9893
 6766SOL     OW31933   0.041   1.968   7.938  0.1750 -0.0554 -0.6268
 6766SOL    HW131934   0.035   1.911   8.014 -0.3468  0.4294 -0.3047
 6766SOL    HW231935   4.685   1.972   7.919  0.2984 -1.4166 -1.5316
 6767SOL     OW31936   1.611   0.114  16.255  0.4783  0.0687 -1.1250
 6767SOL    HW131937   1.692   0.130  16.303 -0.5507  0.8188  0.3479
 6767SOL    HW231938   1.571   0.200  16.239  0.3183  0.4382  1.2537
 6768SOL     OW31939   3.436   4.476   0.114 -0.2504  0.5155 -0.7403
 6768SOL    HW131940   3.368   4.487   0.181  1.6787  0.0499  1.2721
 6768SOL    HW231941   3.501   4.542   0.136  0.4550 -0.4469  0.0336
 6769SOL     OW31942   0.258   0.150  14.692  0.4242  0.0943 -0.3136
 6769SOL    HW131943   0.224   0.105  14.615  0.8869 -1.2135  0.2401
 6769SOL    HW231944   0.178   0.171  14.740  0.5204  2.3081 -1.1165
 6770SOL     OW31945   2.222   0.111   4.547  0.5880  0.3427  0.5533
 6770SOL    HW131946   2.278   0.172   4.596  2.4974 -0.0332 -1.1823
 6770SOL    HW231947   2.214   0.047   4.618 -0.3146 -0.5156 -0.3308
 6771SOL     OW31948   4.325   0.056   5.836  0.6472  0.0686 -0.1612
 6771SOL    HW131949   4.400   0.061   5.777 -0.1800 -0.4281 -1.2510
 6771SOL    HW231950   4.300   0.148   5.845  1.0624  0.2722 -1.0019
 6772SOL     OW31951   2.091   2.509   2.918  0.8832 -0.0597 -0.1031
 6772SOL    HW131952   2.089   2.440   2.984  0.5704  0.7079  0.6827
 6772SOL    HW231953   2.151   2.462   2.860  0.9804 -1.4204  1.1144
 6773SOL     OW31954   2.949   4.449  13.606 -0.1463  0.1704  0.0978
 6773SOL    HW131955   3.003   4.389  13.658  0.0215 -0.3995 -0.7203
 6773SOL    HW231956   2.864   4.422  13.641  0.1566 -0.1515  0.5927
 6774SOL     OW31957   2.621   3.856   7.601  0.1582  0.1099 -0.0171
 6774SOL    HW131958   2.533   3.877   7.633 -0.3296 -1.8186 -0.0945
 6774SOL    HW231959   2.664   3.828   7.682  0.1836  1.3056  0.3820
 6775SOL     OW31960   4.593   4.603   3.005 -0.0800 -0.0094  0.1692
 6775SOL    HW131961   4.525   4.579   2.941  2.0699 -0.1387 -2.0948
 6775SOL    HW231962   4.605   4.696   2.986 -1.5455  0.2384  0.5280
 6776SOL     OW31963   0.842   3.632   6.988  0.5540 -0.0358  0.3286
 6776SOL    HW131964   0.850   3.700   6.921 -2.8446  0.8639  0.8587
 6776SOL    HW231965   0.831   3.694   7.060  1.4166 -1.8914  2.0359
 6777SOL     OW31966   3.523   3.586   2.268  0.3895 -0.7960 -0.0104
 6777SOL    HW131967   3.502   3.545   2.352 -3.2946 -1.3765 -1.1998
 6777SOL    HW231968   3.614   3.614   2.275  0.2680 -0.5665  0.6451
 6778SOL     OW31969   2.737   2.232   3.187 -0.3456  0.8432  0.2113
 6778SOL    HW131970   2.669   2.176   3.223  0.5390  0.8714  1.9177
 6778SOL    HW231971   2.680   2.307   3.201 -0.8239  0.6647 -0.7830
 6779SOL     OW31972   0.621   3.702  15.606  1.0745 -0.1575 -0.0950
 6779SOL    HW131973   0.690   3.652  15.650  2.0382  0.0204 -1.3826
 6779SOL    HW231974   0.575   3.744  15.678  0.0199  0.4002 -1.0925
 6780SOL     OW31975   4.649   1.587  10.993  0.5442 -0.4226  0.4305
 6780SOL    HW131976   4.605   1.589  10.908 -0.0516  1.0850  0.7865
 6780SOL    HW231977   4.624   1.498  11.018  0.1979 -0.1351  1.0852
 6781SOL     OW31978   1.412   4.473   3.018  0.0163 -0.0479  0.1491
 6781SOL    HW131979   1.446   4.472   3.107  1.4797  2.6299 -0.3626
 6781SOL    HW231980   1.484   4.514   2.969  0.2910  0.1488  0.7250
 6782SOL     OW31981   2.759   1.882   5.648  0.3127  0.0424  0.2078
 6782SOL    HW131982   2.753   1.795   5.609  0.9011 -0.0244  0.2707
 6782SOL    HW231983   2.728   1.933   5.573  1.9795  0.4223 -0.2140
 6783SOL     OW31984   3.185   1.693   2.501  0.1394 -0.9479  0.0297
 6783SOL    HW131985   3.113   1.716   2.443  1.3356  2.1690 -0.2265
 6783SOL    HW231986   3.156   1.723   2.587 -0.1817 -0.8761 -0.1031
 6784SOL     OW31987   3.389   2.711   3.033 -0.5227  0.0026  0.0284
 6784SOL    HW131988   3.463   2.762   2.999 -0.8652  0.0928 -0.5750
 6784SOL    HW231989   3.367   2.679   2.946 -2.8242  0.3048  0.5158
 6785SOL     OW31990   3.328   1.213   3.453 -0.2197  0.3548 -0.3118
 6785SOL    HW131991   3.323   1.160   3.373  0.4904 -0.5962  0.2670
 6785SOL    HW231992   3.380   1.289   3.429 -0.8155  1.0481  0.6320
 6786SOL     OW31993   3.145   0.554  13.771 -0.4477  0.3226 -0.1730
 6786SOL    HW131994   3.151   0.462  13.799 -3.2205  0.1194 -0.2558
 6786SOL    HW231995   3.153   0.594  13.858  1.2396 -1.5658  0.5544
 6787SOL     OW31996   1.229   4.065   6.270  0.4977 -0.2441  0.1878
 6787SOL    HW131997   1.217   4.091   6.362 -0.8143 -2.4585  0.6267
 6787SOL    HW231998   1.273   4.137   6.225 -0.8028  0.7503  0.5115
 6788SOL     OW31999   3.789   4.107   8.426 -0.3425  0.1482  0.5732
 6788SOL    HW132000   3.836   4.065   8.354 -1.4650  1.6898 -1.0394
 6788SOL    HW232001   3.860   4.152   8.473 -0.7606 -0.3936  1.7349
 6789SOL     OW32002   3.498   2.005  14.141 -0.0726  0.0556 -0.4336
 6789SOL    HW132003   3.557   2.001  14.217  0.3144 -1.1374 -0.8086
 6789SOL    HW232004   3.520   2.082  14.089 -1.0195  1.7757  1.6766
 6790SOL     OW32005   4.281   3.514  10.929 -0.2443  0.1579  0.4510
 6790SOL    HW132006   4.363   3.564  10.924  0.3180 -0.8005  0.1927
 6790SOL    HW232007   4.243   3.554  11.007 -0.7183  2.0459 -0.7200
 6791SOL     OW32008   2.908   0.291   0.273  0.4091  0.6468 -0.6719
 6791SOL    HW132009   2.882   0.345   0.199  1.5099  0.8707 -0.9066
 6791SOL    HW232010   2.904   0.202   0.238  0.0117  1.4265 -2.5989
 6792SOL     OW32011   0.605   1.078   3.212 -0.1936  0.1439  0.8885
 6792SOL    HW132012   0.615   1.172   3.204  1.1309 -0.1493 -0.8307
 6792SOL    HW232013   0.650   1.063   3.296 -1.7216  3.7487  2.3062
 6793SOL     OW32014   0.224   3.235   2.377 -0.1330 -0.0620 -0.0904
 6793SOL    HW132015   0.208   3.292   2.452 -0.3743 -1.9431  1.2808
 6793SOL    HW232016   0.142   3.187   2.379  1.2266 -2.3529 -0.1915
 6794SOL     OW32017   3.325   1.700   4.872 -0.0773  0.2530 -0.1714
 6794SOL    HW132018   3.416   1.714   4.900 -1.2554  0.2893  3.7219
 6794SOL    HW232019   3.340   1.639   4.800 -0.4684  0.2571 -0.2544
 6795SOL     OW32020   1.526   2.364   4.722  1.2456  0.0476  0.2163
 6795SOL    HW132021   1.438   2.392   4.748  1.6218  0.4348  1.0760
 6795SOL    HW232022   1.544   2.421   4.647 -1.7617  1.2510  0.3986
 6796SOL     OW32023   1.799   1.032   8.676 -0.4931 -0.2282 -0.2333
 6796SOL    HW132024   1.750   0.951   8.670 -0.2853 -0.3455 -0.3456
 6796SOL    HW232025   1.860   1.002   8.743  0.5372  0.4495 -0.8567
 6797SOL     OW32026   4.719   2.661   7.206 -0.2157  0.3777 -0.0606
 6797SOL    HW132027   4.718   2.568   7.185  0.1848  0.7796 -1.8729
 6797SOL    HW232028   4.642   2.696   7.161  0.8896  0.2169 -2.0609
 6798SOL     OW32029   4.388   3.127   6.360  0.2324  0.2073  0.0426
 6798SOL    HW132030   4.438   3.048   6.341 -2.0478 -1.1894 -0.1211
 6798SOL    HW232031   4.407   3.139   6.453 -0.9310 -0.9521  0.4285
 6799SOL     OW32032   4.676   0.349   4.280 -0.8669  0.4086  0.0738
 6799SOL    HW132033   4.624   0.270   4.273 -0.3780  0.1157 -0.2187
 6799SOL    HW232034   4.664   0.406   4.204  0.2520 -0.9962 -1.1566
 6800SOL     OW32035   4.573   3.320  10.522 -0.0543  0.1198 -0.4162
 6800SOL    HW132036   4.572   3.293  10.430  0.8180 -2.1657  0.2505
 6800SOL    HW232037   4.665   3.344  10.533  0.6795 -2.2256 -1.2823
 6801SOL     OW32038   2.204   2.928   3.210 -0.0734 -0.1511  0.2301
 6801SOL    HW132039   2.177   2.957   3.297  1.3533  1.2297  0.2240
 6801SOL    HW232040   2.269   2.994   3.185  1.0858 -1.2559  0.2976
 6802SOL     OW32041   3.172   2.956   2.863 -0.0820 -0.3833  0.1915
 6802SOL    HW132042   3.188   2.890   2.796  0.4820  0.3113 -0.3574
 6802SOL    HW232043   3.182   3.039   2.818 -1.1041  0.8617  2.2670
 6803SOL     OW32044   1.962   4.498   3.825  0.0323  0.5472  0.2839
 6803SOL    HW132045   1.947   4.432   3.757 -2.5810  1.4154  0.0179
 6803SOL    HW232046   1.871   4.528   3.826  0.4562  1.8104 -0.3879
 6804SOL     OW32047   3.819   0.431   7.967  0.6831 -0.9139 -0.3942
 6804SOL    HW132048   3.791   0.359   8.023  1.3128 -1.4652 -0.7840
 6804SOL    HW232049   3.749   0.497   7.969  0.5523 -1.0432 -0.6465
 6805SOL     OW32050   0.027   2.671  13.801  0.5901  0.0597  0.1225
 6805SOL    HW132051   0.074   2.609  13.745 -0.6027 -0.9600  0.2429
 6805SOL    HW232052   4.672   2.648  13.790  0.4864  0.1966  0.7404
 6806SOL     OW32053   3.276   0.702   8.624 -0.0174  0.2648 -0.4876
 6806SOL    HW132054   3.346   0.679   8.564  0.3030 -4.0805  1.5558
 6806SOL    HW232055   3.259   0.787   8.584  0.8486  0.2377 -0.8893
 6807SOL     OW32056   2.065   3.318  10.647  0.1350 -0.0147 -0.2243
 6807SOL    HW132057   2.078   3.371  10.568  0.7458 -1.7213 -1.2710
 6807SOL    HW232058   2.006   3.249  10.615  2.1044 -1.3967 -0.8516
 6808SOL     OW32059   0.801   3.792   8.532 -0.3388 -0.2775  0.1479
 6808SOL    HW132060   0.744   3.739   8.477  1.5052 -0.3571 -1.6596
 6808SOL    HW232061   0.824   3.731   8.602 -3.0189 -1.0375  0.3765
 6809SOL     OW32062   1.790   3.061  12.506 -0.0824 -0.4903  0.4520
 6809SOL    HW132063   1.832   3.021  12.430 -0.3928  0.7794 -0.3884
 6809SOL    HW232064   1.697   3.048  12.486  0.1058 -2.3288  0.7662
 6810SOL     OW32065   0.961   2.816   1.654 -0.2919 -0.1513 -0.2972
 6810SOL    HW132066   0.906   2.796   1.578 -2.8295  0.5406  1.3858
 6810SOL    HW232067   0.926   2.763   1.725  0.4066  0.4461  0.5024
 6811SOL     OW32068   0.011   1.889   1.377  0.6613  0.2723  0.2556
 6811SOL    HW132069   0.061   1.827   1.324 -0.6990  0.4282 -1.2324
 6811SOL    HW232070   4.681   1.910   1.313  0.2406  3.3111  1.6794
 6812SOL     OW32071   2.597   1.985   5.348 -0.2858  0.4882 -0.3508
 6812SOL    HW132072   2.517   2.022   5.311 -0.1335  1.1634 -0.0004
 6812SOL    HW232073   2.559   1.907   5.389 -1.2721  2.2713  2.0734
 6813SOL     OW32074   0.725   4.111  12.612 -0.2183  0.8014  0.4109
 6813SOL    HW132075   0.715   4.016  12.613 -0.4443  0.8163 -0.0111
 6813SOL    HW232076   0.710   4.126  12.705  1.3785  0.6500  0.6905
 6814SOL     OW32077   0.244   2.969   6.711  0.1451  0.4712  0.0637
 6814SOL    HW132078   0.154   2.937   6.705 -0.4866  2.5351 -1.4009
 6814SOL    HW232079   0.285   2.917   6.781  0.1372  0.8690  0.3646
 6815SOL     OW32080   0.248   3.451   3.163 -0.1728 -0.1986 -0.0567
 6815SOL    HW132081   0.192   3.387   3.119 -0.5110 -0.4480  0.7367
 6815SOL    HW232082   0.316   3.461   3.097  0.3096 -0.4144  0.4046
 6816SOL     OW32083   1.955   0.863   6.584 -0.2603 -0.8886  0.4222
 6816SOL    HW132084   1.873   0.870   6.536  0.0743 -1.9361 -0.3021
 6816SOL    HW232085   1.910   0.843   6.666 -3.3428 -0.4441 -1.1659
 6817SOL     OW32086   4.649   4.432   8.051  0.5187 -0.3732 -0.0662
 6817SOL    HW132087   4.593   4.357   8.070  0.0248 -0.2412 -0.9734
 6817SOL    HW232088   4.734   4.397   8.077  1.0443 -0.0936 -1.3890
 6818SOL     OW32089   1.206   2.995  16.948 -0.0984 -0.3261 -0.4284
 6818SOL    HW132090   1.221   3.054  16.875 -1.6492 -0.6181 -0.9712
 6818SOL    HW232091   1.271   2.925  16.936 -0.0267 -0.3025 -0.1864
 6819SOL     OW32092   3.773   0.833   6.412  0.1984  0.4663 -0.0380
 6819SOL    HW132093   3.838   0.766   6.435 -0.7145  0.8706  3.7267
 6819SOL    HW232094   3.802   0.867   6.328 -2.9708  0.4611 -1.1360
 6820SOL     OW32095   2.850   4.434  10.693 -0.1392 -0.3204 -0.1007
 6820SOL    HW132096   2.848   4.388  10.776  0.6405 -1.3696 -0.6583
 6820SOL    HW232097   2.768   4.406  10.653 -0.3760 -1.9002  1.5238
 6821SOL     OW32098   4.060   2.964   9.310 -0.3668  0.1326 -0.4272
 6821SOL    HW132099   3.965   2.970   9.300 -0.3161  2.9260  0.9285
 6821SOL    HW232100   4.085   2.876   9.340  1.2098  0.5062 -0.6571
 6822SOL     OW32101   1.784   1.340   6.978 -0.5345  0.9498 -0.4451
 6822SOL    HW132102   1.710   1.282   6.991  1.4706 -1.3183  0.9709
 6822SOL    HW232103   1.833   1.332   7.060  0.2423  1.1855 -0.8849
 6823SOL     OW32104   3.521   1.030   0.928 -0.7487 -0.4215  0.0053
 6823SOL    HW132105   3.552   1.040   1.018  0.0444 -1.0543 -0.1924
 6823SOL    HW232106   3.601   1.071   0.893  0.7839 -4.2102 -0.9780
 6824SOL     OW32107   2.815   3.940  15.916  0.5039  1.0557 -0.5119
 6824SOL    HW132108   2.814   3.862  15.861 -2.4831  0.5418  0.3092
 6824SOL    HW232109   2.859   3.902  15.992  0.2699 -1.3891 -1.6028
 6825SOL     OW32110   3.143   1.523   9.161 -0.6216 -0.4385 -0.2152
 6825SOL    HW132111   3.108   1.612   9.157  1.4277  0.3096 -1.1699
 6825SOL    HW232112   3.091   1.474   9.096  1.4573 -0.7055 -1.6675
 6826SOL     OW32113   3.659   2.819   3.605 -0.0589  0.0378 -1.0535
 6826SOL    HW132114   3.634   2.853   3.519 -0.8445  0.9642 -0.4621
 6826SOL    HW232115   3.642   2.727   3.587  0.7307  0.5617 -4.4267
 6827SOL     OW32116   1.246   2.264   5.513 -0.0557 -0.8935 -0.0809
 6827SOL    HW132117   1.292   2.343   5.543  0.1837 -0.6571 -1.0403
 6827SOL    HW232118   1.302   2.204   5.563 -0.3776 -0.1380  1.1842
 6828SOL     OW32119   1.845   1.097  11.119  0.1473 -0.0014 -0.3790
 6828SOL    HW132120   1.929   1.097  11.074 -0.3206  2.6995 -1.2371
 6828SOL    HW232121   1.834   1.192  11.117  1.4958  0.2004  2.0768
 6829SOL     OW32122   3.024   3.471  11.645 -0.5311 -0.6931 -0.1639
 6829SOL    HW132123   3.102   3.492  11.696 -0.2071 -2.2539 -0.0099
 6829SOL    HW232124   2.979   3.434  11.721  1.4590  0.4419  1.5768
 6830SOL     OW32125   0.894   4.606   5.547 -0.0133 -0.1147  0.1450
 6830SOL    HW132126   0.929   4.595   5.458 -0.4795  0.7671 -0.1456
 6830SOL    HW232127   0.905   4.700   5.561  2.1842 -0.3577 -0.0330
 6831SOL     OW32128   3.452   0.012  13.908 -0.1444 -0.1777  0.9834
 6831SOL    HW132129   3.527   0.062  13.875 -1.2116  0.7149 -0.0639
 6831SOL    HW232130   3.408   0.073  13.967  1.0302  0.1318  1.5340
 6832SOL     OW32131   4.045   3.234  12.640  0.3356 -0.3914  0.3565
 6832SOL    HW132132   4.008   3.304  12.693 -1.4774 -0.6097 -0.6375
 6832SOL    HW232133   4.139   3.250  12.633 -0.0599  1.4590 -0.6314
 6833SOL     OW32134   3.742   3.928   9.294  0.1576 -0.2369 -0.6945
 6833SOL    HW132135   3.810   3.934   9.227  2.5583 -1.2917  1.6369
 6833SOL    HW232136   3.696   3.849   9.264 -3.2113  0.6827  2.0037
 6834SOL     OW32137   3.133   3.651   5.251  0.4913  0.2021  0.5246
 6834SOL    HW132138   3.124   3.735   5.205 -0.2977 -0.1356  0.0717
 6834SOL    HW232139   3.068   3.596   5.207  0.0558  1.5856 -0.5640
 6835SOL     OW32140   3.801   4.292  13.894  0.4186  0.1879 -0.1410
 6835SOL    HW132141   3.851   4.307  13.814  2.0025  1.9696  1.1594
 6835SOL    HW232142   3.754   4.375  13.900 -2.8307 -1.6491 -0.5006
 6836SOL     OW32143   0.416   3.174   3.838 -0.2169  0.3131 -0.9540
 6836SOL    HW132144   0.379   3.145   3.755 -2.1426 -1.9307  0.6740
 6836SOL    HW232145   0.429   3.089   3.881 -1.7390  0.3085 -0.4957
 6837SOL     OW32146   0.877   1.861  13.829 -0.0232  0.2911 -0.5560
 6837SOL    HW132147   0.889   1.870  13.734  0.0692 -0.7277 -0.6411
 6837SOL    HW232148   0.908   1.945  13.861 -1.0723  0.3876  0.2055
 6838SOL     OW32149   0.435   4.502   4.933 -0.0261 -0.6397  0.6682
 6838SOL    HW132150   0.369   4.476   4.997 -2.4116 -0.5796 -1.7754
 6838SOL    HW232151   0.492   4.552   4.992  1.6343 -0.8221 -0.7669
 6839SOL     OW32152   1.276   2.269   6.725 -0.0696  0.3859  0.3701
 6839SOL    HW132153   1.337   2.213   6.773 -0.0278 -1.5627 -1.9501
 6839SOL    HW232154   1.210   2.199   6.724  0.8602 -0.4591 -1.1342
 6840SOL     OW32155   0.290   3.919   9.637 -0.5067  0.2579 -0.3763
 6840SOL    HW132156   0.298   3.960   9.723 -0.4896 -1.1656  0.3018
 6840SOL    HW232157   0.233   3.982   9.593  1.1826  1.1374 -1.3081
 6841SOL     OW32158   1.624   3.141  10.345 -0.4544  0.1695  0.3120
 6841SOL    HW132159   1.660   3.065  10.391 -0.5497 -0.2618 -0.3268
 6841SOL    HW232160   1.638   3.207  10.413 -1.7313  2.1552 -1.3506
 6842SOL     OW32161   2.969   0.105   9.324  0.1522  0.6508  0.3411
 6842SOL    HW132162   2.943   0.073   9.238  0.4763  1.0748  0.0821
 6842SOL    HW232163   2.888   0.136   9.365  0.6021  0.3434  1.4814
 6843SOL     OW32164   3.943   2.684   7.958 -0.2527  0.0668 -0.0933
 6843SOL    HW132165   4.032   2.651   7.970 -0.5464 -1.2980 -1.6985
 6843SOL    HW232166   3.935   2.737   8.037  1.0167  1.7502 -1.0771
 6844SOL     OW32167   0.411   4.100   5.449 -0.5394  0.3937 -0.3307
 6844SOL    HW132168   0.380   4.017   5.486  0.6623 -0.1910 -0.6091
 6844SOL    HW232169   0.333   4.153   5.460 -1.6896 -0.9940 -1.8582
 6845SOL     OW32170   0.610   0.522   8.275 -0.1623  0.3738 -0.4228
 6845SOL    HW132171   0.523   0.544   8.306 -0.4320 -1.2830 -0.0015
 6845SOL    HW232172   0.599   0.428   8.285  1.5121  0.2985  0.8039
 6846SOL     OW32173   0.888   3.127   6.612  0.0866  0.5108 -0.6872
 6846SOL    HW132174   0.849   3.109   6.527  3.8100 -3.3277 -1.5632
 6846SOL    HW232175   0.825   3.190   6.646  2.7562  2.1832  1.2460
 6847SOL     OW32176   3.241   4.064   7.921 -0.1468  0.0103 -0.0525
 6847SOL    HW132177   3.273   4.151   7.901  2.1984  0.1443  4.2684
 6847SOL    HW232178   3.315   4.016   7.959 -0.7371 -0.5695  0.3687
 6848SOL     OW32179   0.067   4.579   3.472 -0.3771 -0.1362  0.2113
 6848SOL    HW132180   4.734   4.551   3.413 -0.4185  1.1548 -0.3522
 6848SOL    HW232181   0.027   4.564   3.558  0.3478 -4.0308 -0.1111
 6849SOL     OW32182   3.236   3.729   6.976  0.3839  0.4799 -0.7892
 6849SOL    HW132183   3.293   3.806   6.981  3.0882 -1.6371  1.1097
 6849SOL    HW232184   3.218   3.715   6.883  3.0981 -0.5923 -1.1521
 6850SOL     OW32185   0.327   1.173  17.139 -0.4118  0.4324  0.0678
 6850SOL    HW132186   0.250   1.200  17.189 -0.3098 -0.4123  0.6842
 6850SOL    HW232187   0.277   1.144  17.062 -1.4556  3.1585 -0.3000
 6851SOL     OW32188   2.700   1.196   1.929 -0.1955 -0.5912 -0.4024
 6851SOL    HW132189   2.700   1.138   1.853  1.4567 -1.9603  0.6818
 6851SOL    HW232190   2.783   1.185   1.975 -0.5840 -2.8568 -0.2794
 6852SOL     OW32191   0.968   0.510   1.540  0.2580  0.2648  0.7534
 6852SOL    HW132192   0.943   0.426   1.581 -2.7865 -0.8003 -3.2317
 6852SOL    HW232193   0.945   0.487   1.450 -0.6180  2.3950  0.4509
 6853SOL     OW32194   1.286   1.318   4.917 -0.4427 -0.0331  0.5298
 6853SOL    HW132195   1.249   1.377   4.851 -1.6080 -1.9969 -0.5508
 6853SOL    HW232196   1.210   1.300   4.972 -0.1463 -0.0320  0.9406
 6854SOL     OW32197   3.472   4.734   1.475  0.1375 -0.0147 -0.3015
 6854SOL    HW132198   3.532   4.660   1.483 -1.8171 -1.5488  0.2126
 6854SOL    HW232199   3.416   4.707   1.403 -0.7461  0.2915  0.2687
 6855SOL     OW32200   2.873   1.819   2.811 -0.1546  0.7901 -0.3538
 6855SOL    HW132201   2.784   1.788   2.826  1.2984 -1.6625  3.3010
 6855SOL    HW232202   2.855   1.910   2.787 -0.4232  0.3672 -1.7697
 6856SOL     OW32203   4.193   3.215   3.879 -0.0408 -0.0426  0.0503
 6856SOL    HW132204   4.217   3.146   3.940 -1.0367 -0.8215 -0.4344
 6856SOL    HW232205   4.103   3.195   3.852  0.0320 -1.4389  0.8715
 6857SOL     OW32206   2.815   3.811  10.818  0.6824  0.5009 -0.3134
 6857SOL    HW132207   2.830   3.772  10.732  2.8542 -1.8014  1.1205
 6857SOL    HW232208   2.903   3.827  10.851  1.9252 -1.8565 -2.5407
 6858SOL     OW32209   3.784   2.952   9.317 -0.2415  0.1193  0.1386
 6858SOL    HW132210   3.708   2.927   9.370 -1.4905  0.8765 -1.2632
 6858SOL    HW232211   3.751   2.921   9.233  0.6553 -1.9807  0.5711
 6859SOL     OW32212   2.803   2.158   8.703  0.0639 -0.2086  0.0703
 6859SOL    HW132213   2.720   2.182   8.744 -0.5340  0.8022 -1.7430
 6859SOL    HW232214   2.811   2.244   8.663  0.3696 -0.0451  0.4893
 6860SOL     OW32215   0.432   0.744   1.501 -0.0281 -0.5467 -0.8493
 6860SOL    HW132216   0.475   0.731   1.585 -1.8769 -2.8086 -0.2727
 6860SOL    HW232217   0.418   0.839   1.503  0.6456 -0.4637 -0.2488
 6861SOL     OW32218   1.814   2.005   0.657 -0.6041  0.0485  0.2489
 6861SOL    HW132219   1.790   1.915   0.635 -1.1170  0.1679  0.3269
 6861SOL    HW232220   1.863   1.985   0.737  0.3627  2.2457  0.2153
 6862SOL     OW32221   2.807   4.616  17.035  0.2143 -0.2860  0.3444
 6862SOL    HW132222   2.813   4.588  17.126 -0.8228  0.5706  0.6741
 6862SOL    HW232223   2.754   4.546  16.997 -0.0624 -0.3984  0.9367
 6863SOL     OW32224   0.957   3.286   1.043  0.3361  0.2210 -0.0735
 6863SOL    HW132225   0.899   3.325   0.978  1.0440  0.1440 -0.7603
 6863SOL    HW232226   1.039   3.275   0.993  1.7312  0.7038  2.1181
 6864SOL     OW32227   0.689   3.996  10.861  0.4147 -0.0534 -0.4847
 6864SOL    HW132228   0.657   4.071  10.911  1.3105 -0.2350  0.3496
 6864SOL    HW232229   0.641   3.927  10.907 -0.0162 -1.1143 -2.5138
 6865SOL     OW32230   1.615   3.471  14.754 -0.2497  0.6147 -0.3692
 6865SOL    HW132231   1.678   3.502  14.689 -2.2578  1.7068 -1.8108
 6865SOL    HW232232   1.569   3.403  14.706  2.5661 -0.6015 -1.2896
 6866SOL     OW32233   1.369   4.102   3.474 -0.1848 -0.5187  0.2828
 6866SOL    HW132234   1.284   4.094   3.432  0.3454  0.7152 -1.0692
 6866SOL    HW232235   1.362   4.054   3.556  1.4413  0.0568  0.7725
 6867SOL     OW32236   0.173   4.482   9.711 -0.8773  0.3864  0.6698
 6867SOL    HW132237   0.108   4.415   9.692 -0.0336 -0.7305  1.7124
 6867SOL    HW232238   0.226   4.475   9.632  0.7769 -1.8527  1.9745
 6868SOL     OW32239   1.468   4.041   9.950  0.3348 -0.1788  0.4581
 6868SOL    HW132240   1.457   3.980   9.877  0.5565 -1.3917  1.4366
 6868SOL    HW232241   1.387   4.091   9.954 -0.0687 -0.7763 -0.0599
 6869SOL     OW32242   3.175   3.703  15.345  0.2408  0.0539 -0.4211
 6869SOL    HW132243   3.172   3.608  15.339  0.2539  0.0843 -0.8740
 6869SOL    HW232244   3.109   3.731  15.409  2.2046  2.1534  0.7007
 6870SOL     OW32245   2.293   2.404   3.298 -0.1235 -0.0108 -0.0659
 6870SOL    HW132246   2.210   2.445   3.325 -0.5781 -1.1713  0.3178
 6870SOL    HW232247   2.351   2.475   3.325 -1.7387  1.1299  0.4182
 6871SOL     OW32248   0.672   3.369   7.287 -0.0570  0.0639 -1.2094
 6871SOL    HW132249   0.663   3.435   7.356 -0.3043 -1.2047 -0.0315
 6871SOL    HW232250   0.758   3.383   7.246 -0.8369  0.7675 -2.5880
 6872SOL     OW32251   1.956   1.514  12.725  0.3903  0.0825  0.6710
 6872SOL    HW132252   1.995   1.491  12.641 -1.5628 -1.0513  0.0603
 6872SOL    HW232253   1.957   1.423  12.755 -0.3695  0.4574  1.8550
 6873SOL     OW32254   0.755   4.122  10.587  0.5020  0.0989  0.5713
 6873SOL    HW132255   0.756   4.086  10.676 -1.3373  1.4734  1.1302
 6873SOL    HW232256   0.838   4.171  10.587  0.8893 -0.5491  0.8324
 6874SOL     OW32257   0.476   2.918  10.740  0.0069  0.5572  0.3746
 6874SOL    HW132258   0.480   2.935  10.834  1.8112 -1.0333  0.5939
 6874SOL    HW232259   0.536   2.980  10.697  1.1879 -0.4109  0.6429
 6875SOL     OW32260   4.548   0.487   6.954 -0.8489  0.5396  0.2490
 6875SOL    HW132261   4.633   0.451   6.928 -0.3254  1.9489 -0.0044
 6875SOL    HW232262   4.533   0.531   6.870  2.8587  0.0240 -0.6838
 6876SOL     OW32263   2.652   1.530  13.021 -0.1913  0.2048 -0.4834
 6876SOL    HW132264   2.684   1.495  12.938  0.7112  2.3816 -1.0364
 6876SOL    HW232265   2.679   1.464  13.086 -1.5208 -0.1044 -0.2353
 6877SOL     OW32266   0.004   3.899  16.957 -0.1787 -0.0271 -0.1638
 6877SOL    HW132267   0.093   3.933  16.961 -0.0732 -0.4510  1.2429
 6877SOL    HW232268   4.699   3.981  16.983 -0.9869 -0.2411 -0.8205
 6878SOL     OW32269   4.191   2.910   1.826  0.3754  0.0517 -0.3317
 6878SOL    HW132270   4.212   2.991   1.780  0.0733  0.1469 -0.3054
 6878SOL    HW232271   4.271   2.858   1.815  0.3623 -0.2576  1.0676
 6879SOL     OW32272   4.205   1.456  17.131 -0.0102 -0.4019  0.5485
 6879SOL    HW132273   4.119   1.454  17.173  0.2225 -0.6035  1.0159
 6879SOL    HW232274   4.233   1.548  17.132  0.5874 -0.5899  0.8532
 6880SOL     OW32275   1.583   3.619   5.278 -0.0116  0.5431  0.5130
 6880SOL    HW132276   1.553   3.586   5.362 -0.2775 -0.2037  0.1303
 6880SOL    HW232277   1.572   3.539   5.225 -1.1536  1.4870 -0.6757
 6881SOL     OW32278   1.437   3.861  11.153  0.2911  0.1177 -0.7747
 6881SOL    HW132279   1.373   3.907  11.099 -1.4502 -1.8159 -0.3595
 6881SOL    HW232280   1.510   3.866  11.092  1.6327 -1.4891  0.6889
 6882SOL     OW32281   4.505   1.384   6.627 -0.4089  0.4760 -0.0464
 6882SOL    HW132282   4.454   1.347   6.698  3.0181 -0.7492  1.7909
 6882SOL    HW232283   4.447   1.457   6.606 -0.0551  1.0775  1.0679
 6883SOL     OW32284   1.701   2.202   3.881  0.1092  0.2010 -0.1615
 6883SOL    HW132285   1.654   2.280   3.910  0.4838  0.6985 -0.8723
 6883SOL    HW232286   1.748   2.242   3.808 -0.3114  1.3794  0.2085
 6884SOL     OW32287   3.123   3.641   7.197 -0.1480 -0.1135  0.4018
 6884SOL    HW132288   3.211   3.620   7.228 -0.8845  0.0439  2.5929
 6884SOL    HW232289   3.149   3.693   7.121 -0.2202 -0.1414  0.3583
 6885SOL     OW32290   2.904   3.439   8.314 -0.2499 -0.5196  0.3337
 6885SOL    HW132291   2.844   3.403   8.249 -0.7223  1.1521 -0.1760
 6885SOL    HW232292   2.982   3.390   8.288  0.3301  1.5412 -1.8173
 6886SOL     OW32293   3.346   1.581   8.210  0.1357  0.4708  0.2685
 6886SOL    HW132294   3.369   1.672   8.191  1.3521  0.1539  0.1894
 6886SOL    HW232295   3.351   1.593   8.305  0.9331 -0.4452  0.3516
 6887SOL     OW32296   0.430   2.383   2.917  0.1186 -0.5500  0.2001
 6887SOL    HW132297   0.489   2.371   2.992 -0.2688 -0.4356  0.5184
 6887SOL    HW232298   0.400   2.292   2.908 -1.7278 -0.0113  0.9105
 6888SOL     OW32299   1.791   3.656   4.253  0.2241 -0.3215 -0.1356
 6888SOL    HW132300   1.828   3.711   4.184 -1.6650  2.9638  1.4965
 6888SOL    HW232301   1.762   3.717   4.321  1.1125 -1.0243  0.8865
 6889SOL     OW32302   0.635   3.386   7.766 -0.6221  0.5603 -0.6761
 6889SOL    HW132303   0.557   3.349   7.806 -0.1910 -0.3576 -0.6869
 6889SOL    HW232304   0.662   3.307   7.720  1.0026 -0.5535  2.1867
 6890SOL     OW32305   1.249   2.032   4.834 -0.1871  0.6189  0.2074
 6890SOL    HW132306   1.251   2.009   4.926  0.1250 -0.1721  0.0006
 6890SOL    HW232307   1.160   2.067   4.824 -0.6071 -0.2064  1.1283
 6891SOL     OW32308   0.262   3.551   5.312  0.0311  0.1627  0.4952
 6891SOL    HW132309   0.220   3.637   5.307 -0.0350  0.1968  1.6611
 6891SOL    HW232310   0.321   3.555   5.236  0.3279 -0.5205  0.6893
 6892SOL     OW32311   3.282   4.588   4.585 -0.3582  0.1696 -0.0281
 6892SOL    HW132312   3.298   4.588   4.490  4.0402  0.2170  0.7246
 6892SOL    HW232313   3.189   4.612   4.577 -0.0461  0.4628 -2.9578
 6893SOL     OW32314   3.087   2.193  15.044 -0.2225  0.0760 -0.0342
 6893SOL    HW132315   3.101   2.273  15.094 -2.0713 -0.0886  0.7525
 6893SOL    HW232316   3.020   2.147  15.094 -2.3623  1.6338 -1.4771
 6894SOL     OW32317   1.415   2.777   4.465 -0.0432  0.3203 -0.3422
 6894SOL    HW132318   1.340   2.756   4.411  1.3784  0.9393 -2.5742
 6894SOL    HW232319   1.445   2.857   4.421 -0.8507  0.7749 -0.0706
 6895SOL     OW32320   3.712   1.848   5.795  0.3048 -0.5242  0.7043
 6895SOL    HW132321   3.644   1.797   5.839  0.5659 -3.1045 -1.9147
 6895SOL    HW232322   3.679   1.934   5.822 -2.0172 -0.1559 -3.1960
 6896SOL     OW32323   3.630   0.306   7.728  0.0121 -0.0345 -0.5236
 6896SOL    HW132324   3.587   0.226   7.699 -0.2967 -0.1942  0.3829
 6896SOL    HW232325   3.624   0.296   7.823  2.6235  0.7990 -0.2709
 6897SOL     OW32326   2.115   1.006   4.421  0.2711 -0.3927 -0.4497
 6897SOL    HW132327   2.154   1.009   4.508  0.1371  0.5465 -0.4145
 6897SOL    HW232328   2.042   1.066   4.437  0.3490 -0.0085 -1.5080
 6898SOL     OW32329   0.227   3.029   2.825 -0.3529 -0.5278 -0.0749
 6898SOL    HW132330   0.216   2.948   2.775  1.8914 -0.3328 -0.9030
 6898SOL    HW232331   0.210   2.995   2.913  0.4562  2.7042  1.3346
 6899SOL     OW32332   3.789   0.426   9.541  0.7901  0.1698  0.6680
 6899SOL    HW132333   3.864   0.370   9.562  2.5870  3.0955  1.9243
 6899SOL    HW232334   3.766   0.478   9.617 -0.0434  0.8501 -0.0558
 6900SOL     OW32335   2.117   2.408   8.461 -0.7574 -0.5014 -0.8286
 6900SOL    HW132336   2.196   2.355   8.472 -0.0174  0.4928 -1.3235
 6900SOL    HW232337   2.146   2.465   8.389  0.4892 -0.6253 -0.4170
 6901SOL     OW32338   2.853   0.601   4.392  0.3650  0.0935  0.4866
 6901SOL    HW132339   2.905   0.631   4.317  0.7799 -0.9658  0.3512
 6901SOL    HW232340   2.764   0.597   4.357 -0.3063 -3.3648  2.6433
 6902SOL     OW32341   2.920   3.071  13.030  0.4646 -0.0230 -0.0206
 6902SOL    HW132342   2.994   3.121  12.996 -1.2598  3.5876  1.6170
 6902SOL    HW232343   2.943   3.061  13.123  1.5584  0.6076 -0.2211
 6903SOL     OW32344   1.959   3.323  10.932 -0.1513  0.2643 -0.9650
 6903SOL    HW132345   2.039   3.359  10.971  0.9832 -2.5885 -0.6492
 6903SOL    HW232346   1.976   3.324  10.838  1.9431  1.9482 -0.5495
 6904SOL     OW32347   4.296   1.875  10.583  0.1787  0.2499 -0.1902
 6904SOL    HW132348   4.329   1.794  10.545 -1.0518 -0.9224  1.2474
 6904SOL    HW232349   4.203   1.877  10.560 -0.1263 -2.9619  0.7822
 6905SOL     OW32350   2.549   0.226  14.340  0.3977  0.4482  0.0581
 6905SOL    HW132351   2.547   0.320  14.356  1.8000  0.9880 -2.8168
 6905SOL    HW232352   2.630   0.199  14.382 -0.7401 -2.3132  0.4630
 6906SOL     OW32353   0.111   1.749   3.251 -0.0657 -0.3854  0.1231
 6906SOL    HW132354   0.114   1.657   3.278 -2.5379  0.1226  2.1997
 6906SOL    HW232355   0.024   1.753   3.210 -0.0339 -1.1591 -0.0176
 6907SOL     OW32356   1.682   3.759  10.411  0.2781 -0.0574  0.9122
 6907SOL    HW132357   1.763   3.782  10.458 -1.2726  2.0087  2.5755
 6907SOL    HW232358   1.639   3.845  10.407 -0.6700 -0.5732  0.0751
 6908SOL     OW32359   3.337   0.237   7.261 -0.2709  0.3572  0.3717
 6908SOL    HW132360   3.361   0.296   7.333 -0.0401  0.5078  0.1748
 6908SOL    HW232361   3.365   0.155   7.300 -1.0477 -0.5199 -0.9324
 6909SOL     OW32362   4.304   0.635   2.141 -0.2295  0.0582 -0.0119
 6909SOL    HW132363   4.288   0.561   2.082  0.7330 -0.9347  0.9742
 6909SOL    HW232364   4.319   0.700   2.073 -2.1885 -0.0518 -0.5337
 6910SOL     OW32365   2.259   2.438  14.333 -0.6760  0.0718  0.3599
 6910SOL    HW132366   2.284   2.378  14.403 -0.5224 -0.9031 -0.5185
 6910SOL    HW232367   2.164   2.437  14.328 -0.6050 -0.2491 -1.0248
 6911SOL     OW32368   3.329   3.787   0.074  0.3865  0.7408  0.1155
 6911SOL    HW132369   3.410   3.755   0.035 -0.5923 -1.7453  0.0837
 6911SOL    HW232370   3.348   3.806   0.166  1.3605  0.8560 -0.1071
 6912SOL     OW32371   4.479   2.762   5.729  0.0009 -0.1127  0.3830
 6912SOL    HW132372   4.521   2.831   5.678  1.5893 -0.2226  1.5315
 6912SOL    HW232373   4.544   2.744   5.797  2.1159  0.5354 -1.4699
 6913SOL     OW32374   4.330   3.294  12.581 -0.3240 -0.2121 -0.3441
 6913SOL    HW132375   4.308   3.261  12.494  0.0712  2.1304 -1.3248
 6913SOL    HW232376   4.379   3.374  12.567  0.5658 -0.5748  0.6693
 6914SOL     OW32377   0.062   2.666   2.931 -0.2252 -0.0825  0.1842
 6914SOL    HW132378   0.140   2.710   2.962  1.1137 -0.9288 -2.0024
 6914SOL    HW232379   0.086   2.574   2.940 -0.7554 -0.2020  0.4110
 6915SOL     OW32380   0.835   0.156   7.644 -0.5087 -0.0755 -0.6787
 6915SOL    HW132381   0.918   0.133   7.686 -0.7138  1.1548  0.4269
 6915SOL    HW232382   0.867   0.182   7.558  0.4318  2.5338  0.4524
 6916SOL     OW32383   2.513   0.572   1.851  0.6140  0.2462  0.0691
 6916SOL    HW132384   2.525   0.631   1.925  0.0588 -0.2210  0.5226
 6916SOL    HW232385   2.518   0.484   1.888  0.2811  0.0821 -0.2752
 6917SOL     OW32386   3.675   1.886  10.706  0.1141  0.1843  0.4040
 6917SOL    HW132387   3.720   1.909  10.624  0.1003 -0.8740  0.0989
 6917SOL    HW232388   3.741   1.906  10.773  0.3795  0.5105  0.0445
 6918SOL     OW32389   3.235   3.066   2.194 -0.1828  0.5101  0.2563
 6918SOL    HW132390   3.298   3.119   2.244  0.9667 -1.6405  1.0938
 6918SOL    HW232391   3.157   3.088   2.245 -0.6170 -0.2236 -0.1052
 6919SOL     OW32392   3.789   2.052   3.619  0.0005 -0.1705  0.3212
 6919SOL    HW132393   3.802   2.112   3.546  2.3498 -1.2061 -0.1126
 6919SOL    HW232394   3.792   2.113   3.693 -0.9282 -1.5170  1.4699
 6920SOL     OW32395   1.022   0.045   2.093  0.1066  0.3336 -0.0987
 6920SOL    HW132396   0.949   4.733   2.131 -1.1181  2.5706  0.5001
 6920SOL    HW232397   1.076   0.054   2.171 -0.2052  0.5246  0.0954
 6921SOL     OW32398   3.930   1.516   4.113  0.3359 -0.5296  0.2672
 6921SOL    HW132399   3.894   1.550   4.031 -0.0581  1.3838  1.2216
 6921SOL    HW232400   3.891   1.429   4.119 -1.0116 -0.0407 -1.5111
 6922SOL     OW32401   0.994   3.319   8.872 -0.4179  0.6186 -0.2563
 6922SOL    HW132402   1.050   3.348   8.800  1.9654 -0.7632  0.9941
 6922SOL    HW232403   0.988   3.403   8.918  0.4015 -0.0749  1.1329
 6923SOL     OW32404   2.628   0.685   2.537  0.1034  0.0506 -0.2353
 6923SOL    HW132405   2.708   0.636   2.553 -0.6379 -0.5695  1.6234
 6923SOL    HW232406   2.659   0.767   2.499  2.0228  0.4953  2.3688
 6924SOL     OW32407   0.091   2.366   5.336 -0.2279  0.5733  0.4385
 6924SOL    HW132408   0.125   2.387   5.249 -0.6949 -1.5789 -0.2569
 6924SOL    HW232409   0.018   2.307   5.319  1.3498 -1.1650 -0.3003
 6925SOL     OW32410   3.854   4.123   0.271  0.7635 -0.3640  1.2277
 6925SOL    HW132411   3.929   4.092   0.220 -1.2748 -0.0028 -2.0328
 6925SOL    HW232412   3.790   4.053   0.255  0.5908 -0.0020  0.3353
 6926SOL     OW32413   0.247   0.234  12.516  0.3109  0.4301  0.3571
 6926SOL    HW132414   0.215   0.322  12.536  0.4359  0.4771  0.3492
 6926SOL    HW232415   0.290   0.248  12.432  0.7119 -2.3142  0.1024
 6927SOL     OW32416   2.546   3.991   8.100 -0.2831  0.4159 -0.3695
 6927SOL    HW132417   2.606   3.993   8.025 -1.5603  0.4930 -1.4101
 6927SOL    HW232418   2.596   3.955   8.173  0.2795  3.5463  0.7831
 6928SOL     OW32419   0.070   1.383   4.746  0.5667 -0.0880  0.3217
 6928SOL    HW132420   0.158   1.420   4.759  0.5675 -0.1059  0.3661
 6928SOL    HW232421   0.103   1.296   4.723  1.3403  0.3157 -0.0975
 6929SOL     OW32422   4.538   0.003   7.615 -0.0409  0.0997 -0.5449
 6929SOL    HW132423   4.482   4.663   7.621  0.1148  0.0442  0.1767
 6929SOL    HW232424   4.534   0.012   7.520 -2.3787 -1.6703 -0.6116
 6930SOL     OW32425   3.859   0.397   9.222  0.5424 -0.1460 -0.0807
 6930SOL    HW132426   3.806   0.323   9.252 -1.4276  2.2706  2.3361
 6930SOL    HW232427   3.905   0.424   9.301  1.9514 -0.3034 -0.8481
 6931SOL     OW32428   2.877   0.629   7.225  0.3020 -0.0416 -0.2721
 6931SOL    HW132429   2.816   0.661   7.158  0.2969 -1.5571 -0.9843
 6931SOL    HW232430   2.889   0.709   7.276  1.0516 -0.6821  0.5573
 6932SOL     OW32431   4.594   1.574   4.184 -0.1720 -0.2308  0.4083
 6932SOL    HW132432   4.613   1.559   4.277 -1.4110 -2.1216  0.3627
 6932SOL    HW232433   4.546   1.656   4.194  1.6977  0.7740  1.1563
 6933SOL     OW32434   2.232   3.276  15.569  0.0424 -0.6822  0.1771
 6933SOL    HW132435   2.205   3.192  15.533 -0.5878 -1.4910  2.5234
 6933SOL    HW232436   2.150   3.318  15.592  0.0240 -0.3057 -0.5933
 6934SOL     OW32437   0.415   1.847   4.580  0.0461  0.1356  0.1415
 6934SOL    HW132438   0.502   1.808   4.590  0.8709  2.3227  1.4144
 6934SOL    HW232439   0.406   1.885   4.667  0.6209 -2.6394  1.4022
 6935SOL     OW32440   0.155   4.357   2.170  0.5895 -0.1599  0.0771
 6935SOL    HW132441   0.183   4.354   2.262  0.9572  2.1507  0.0444
 6935SOL    HW232442   0.239   4.362   2.126 -0.4079  1.9551 -1.6026
 6936SOL     OW32443   2.909   3.596   8.611  0.4907  0.0429  0.2781
 6936SOL    HW132444   2.997   3.570   8.637  0.5291  0.0797  0.1877
 6936SOL    HW232445   2.890   3.532   8.542  1.9277 -0.9692  0.8329
 6937SOL     OW32446   4.190   1.591   4.061 -0.2153 -0.6266 -0.1474
 6937SOL    HW132447   4.229   1.612   4.146  0.5472 -2.5695 -0.0061
 6937SOL    HW232448   4.103   1.563   4.088 -1.4089  1.9544 -1.3156
 6938SOL     OW32449   3.435   3.763  15.470  0.7503 -0.7183 -0.9614
 6938SOL    HW132450   3.343   3.746  15.449  0.1645  0.5253  0.6062
 6938SOL    HW232451   3.479   3.767  15.385  2.1042  1.6157 -0.1351
 6939SOL     OW32452   4.446   3.664   5.078 -0.3953  0.0426 -0.6753
 6939SOL    HW132453   4.465   3.571   5.062 -1.2568 -0.3160  0.3511
 6939SOL    HW232454   4.358   3.676   5.041 -1.0778 -2.5610  0.0770
 6940SOL     OW32455   0.899   1.209  12.295 -0.1761 -0.0334 -0.3594
 6940SOL    HW132456   0.831   1.267  12.259  0.1235 -0.8795 -2.2945
 6940SOL    HW232457   0.858   1.154  12.361  2.0230 -0.4419  0.6819
 6941SOL     OW32458   3.460   0.523  12.097 -0.1942  0.3261  0.3984
 6941SOL    HW132459   3.470   0.433  12.130 -2.4000 -1.0554 -2.7674
 6941SOL    HW232460   3.528   0.568  12.148 -0.3955 -1.7340  2.5161
 6942SOL     OW32461   2.086   2.164  16.202 -0.1010  0.3179  0.2600
 6942SOL    HW132462   2.058   2.256  16.205 -2.3055 -0.4032  1.5125
 6942SOL    HW232463   2.032   2.125  16.270 -0.7993  0.7190 -0.0669
 6943SOL     OW32464   2.069   0.021  14.775  0.1877 -0.0830  0.7649
 6943SOL    HW132465   2.079   0.062  14.861  1.0915  2.5721 -0.6340
 6943SOL    HW232466   2.154   0.020  14.731 -0.9194  1.9299 -1.4115
 6944SOL     OW32467   2.291   2.263  16.857  0.2641 -0.4425 -0.7020
 6944SOL    HW132468   2.316   2.187  16.909  0.4126 -0.5039 -0.8625
 6944SOL    HW232469   2.289   2.324  16.931 -1.5381  0.2600 -1.3311
 6945SOL     OW32470   1.584   3.139   3.507 -0.3454 -0.0921  0.4073
 6945SOL    HW132471   1.580   3.125   3.602 -1.6316 -0.0533  0.3614
 6945SOL    HW232472   1.491   3.156   3.493 -0.3777 -1.2243 -0.6579
 6946SOL     OW32473   0.542   1.208   6.908 -0.0538  0.4872  0.5804
 6946SOL    HW132474   0.465   1.253   6.872  0.9346  1.0606 -0.7973
 6946SOL    HW232475   0.495   1.137   6.952 -0.3959  0.5824  0.3753
 6947SOL     OW32476   4.604   2.329   2.968  0.1830  0.2361  0.3146
 6947SOL    HW132477   4.689   2.371   2.952  0.3533 -0.3281 -0.3016
 6947SOL    HW232478   4.564   2.345   2.883 -1.0711  0.6264  0.9924
 6948SOL     OW32479   3.233   0.962   2.405  0.6427 -0.3675  0.5047
 6948SOL    HW132480   3.298   0.892   2.414 -0.2975 -1.0919  1.7770
 6948SOL    HW232481   3.231   0.985   2.498  1.1825 -1.7806  0.8642
 6949SOL     OW32482   4.646   4.281   0.836  0.6909  0.2977 -0.2310
 6949SOL    HW132483   4.567   4.290   0.889 -0.0581  0.5525 -1.3875
 6949SOL    HW232484   4.638   4.355   0.775 -1.9623 -1.1482 -1.6755
 6950SOL     OW32485   3.454   0.885  17.573 -0.3556 -0.0322 -0.3347
 6950SOL    HW132486   3.425   0.954  17.633  0.9061  0.1944  0.0165
 6950SOL    HW232487   3.485   0.830  17.644 -0.7352 -0.4650 -0.5036
 6951SOL     OW32488   2.163   3.806   8.796  0.3748 -0.0052  0.6179
 6951SOL    HW132489   2.091   3.830   8.855 -0.5351 -0.2982 -0.3771
 6951SOL    HW232490   2.123   3.817   8.710  0.6451  3.5888  0.9576
 6952SOL     OW32491   0.752   1.610  10.587  0.2254  0.6833 -0.2124
 6952SOL    HW132492   0.789   1.571  10.508 -0.7168  1.9352 -1.2809
 6952SOL    HW232493   0.721   1.697  10.561 -0.0570  1.0669  1.3650
 6953SOL     OW32494   3.065   0.956  14.788  0.7228 -0.0907 -0.0754
 6953SOL    HW132495   3.161   0.955  14.788  0.7332  1.2809  0.7497
 6953SOL    HW232496   3.050   0.893  14.859  3.1247  0.5971  1.0507
 6954SOL     OW32497   3.482   0.466   4.827 -0.0398  0.2295 -0.0409
 6954SOL    HW132498   3.532   0.540   4.859  1.4942  0.4361 -2.9383
 6954SOL    HW232499   3.473   0.482   4.733  0.2545 -2.1251 -0.4839
 6955SOL     OW32500   0.712   3.534   8.851 -0.5122  0.1359  0.4426
 6955SOL    HW132501   0.687   3.464   8.791 -2.9650  1.9378 -0.6116
 6955SOL    HW232502   0.665   3.609   8.815 -0.2808  0.9311  1.7780
 6956SOL     OW32503   4.090   4.401  10.901  0.4243 -0.3886  0.3848
 6956SOL    HW132504   4.179   4.405  10.936  0.1394 -0.3827  1.1251
 6956SOL    HW232505   4.048   4.448  10.974 -0.1758 -0.2807 -0.0306
 6957SOL     OW32506   0.891   3.220  16.353 -0.1318 -0.0044  0.0713
 6957SOL    HW132507   0.841   3.141  16.330  0.8913 -0.5854 -0.1709
 6957SOL    HW232508   0.893   3.257  16.265 -0.3244  1.2671  0.6036
 6958SOL     OW32509   3.703   0.454   7.386  0.1312 -0.1450  0.2284
 6958SOL    HW132510   3.692   0.545   7.356 -0.5340  0.0656  1.1395
 6958SOL    HW232511   3.623   0.445   7.438  1.2936 -1.2506  1.8182
 6959SOL     OW32512   0.165   4.571   6.799  0.1653  0.0762  0.4522
 6959SOL    HW132513   0.109   4.516   6.744  1.0991 -1.2623  0.8448
 6959SOL    HW232514   0.251   4.534   6.778 -0.0912 -0.6459  0.6873
 6960SOL     OW32515   4.362   4.632   4.190 -0.2916 -0.0689 -0.1068
 6960SOL    HW132516   4.418   4.554   4.182 -0.9990 -0.4220 -1.5883
 6960SOL    HW232517   4.422   4.706   4.187  0.3676 -0.5294  1.3477
 6961SOL     OW32518   4.440   1.351   1.805 -0.6827 -0.3646  0.0358
 6961SOL    HW132519   4.480   1.402   1.875 -2.8027 -0.0252  1.0146
 6961SOL    HW232520   4.393   1.419   1.755 -0.9446 -0.5956 -0.0327
 6962SOL     OW32521   3.617   4.415   4.682 -0.3079  0.2567  0.3358
 6962SOL    HW132522   3.548   4.451   4.739 -1.2328  0.5349 -0.9620
 6962SOL    HW232523   3.669   4.494   4.696  0.5067 -0.1429 -0.4861
 6963SOL     OW32524   2.633   2.097  11.772  0.1549 -0.1681  0.1530
 6963SOL    HW132525   2.549   2.080  11.728  1.0123 -0.0363 -1.5300
 6963SOL    HW232526   2.597   2.150  11.843  1.6433 -0.9755  1.4969
 6964SOL     OW32527   2.539   4.384  14.251  0.5922  0.0104 -0.1229
 6964SOL    HW132528   2.609   4.357  14.310  0.0695 -2.0055 -0.4292
 6964SOL    HW232529   2.508   4.461  14.299 -4.2916 -2.2026  0.3018
 6965SOL     OW32530   0.610   1.416   7.421 -0.2751 -0.0783 -0.1686
 6965SOL    HW132531   0.669   1.419   7.346 -3.1292  0.4580 -2.4222
 6965SOL    HW232532   0.532   1.447   7.374  0.3427  0.3502 -0.9138
 6966SOL     OW32533   0.228   1.411   8.334  0.5596 -0.3280 -0.1156
 6966SOL    HW132534   0.139   1.409   8.369 -0.4383  1.5575 -2.4901
 6966SOL    HW232535   0.192   1.393   8.247 -1.1360  0.7876  0.3718
 6967SOL     OW32536   3.666   1.613   3.404  0.0025 -0.7198  0.2133
 6967SOL    HW132537   3.624   1.694   3.431 -1.2019 -1.6330  1.0579
 6967SOL    HW232538   3.754   1.631   3.437  0.4144 -0.0291 -1.2378
 6968SOL     OW32539   3.797   4.692  10.848 -0.4086 -0.0880  0.0840
 6968SOL    HW132540   3.835   4.694  10.936 -1.0828  2.2462  0.3307
 6968SOL    HW232541   3.780   0.047  10.832  0.1958  0.1721  0.9794
 6969SOL     OW32542   1.547   2.710  15.763 -0.5483 -0.2214 -0.7875
 6969SOL    HW132543   1.533   2.783  15.702 -0.8209  1.2135  0.9733
 6969SOL    HW232544   1.545   2.751  15.850  0.9113 -1.2493 -0.2756
 6970SOL     OW32545   4.132   0.942   6.637 -0.2209 -0.5940  0.1291
 6970SOL    HW132546   4.044   0.913   6.662 -0.4986 -0.3399 -0.5581
 6970SOL    HW232547   4.156   0.870   6.579  0.2707 -0.0925 -0.2850
 6971SOL     OW32548   0.580   3.528   0.036  0.0052  0.2101 -0.0228
 6971SOL    HW132549   0.543   3.447   0.002 -0.8659  0.9034 -0.7456
 6971SOL    HW232550   0.515   3.582  17.739  0.9645  0.9195 -0.5580
 6972SOL     OW32551   1.101   1.566   7.344 -0.3712 -0.7667  0.0714
 6972SOL    HW132552   1.173   1.508   7.368  0.7548  0.2057 -0.9307
 6972SOL    HW232553   1.121   1.639   7.403  1.6119  0.6298 -2.2987
 6973SOL     OW32554   4.094   1.435   8.673 -0.0424  0.4057 -0.3132
 6973SOL    HW132555   4.133   1.519   8.649  0.1446  0.4492  0.1428
 6973SOL    HW232556   4.049   1.456   8.755 -0.2977  0.2112 -0.4050
 6974SOL     OW32557   2.195   4.322   4.425 -0.6635  0.1078  0.5168
 6974SOL    HW132558   2.251   4.358   4.494  0.7837 -1.0228 -0.0809
 6974SOL    HW232559   2.172   4.397   4.371 -0.8367 -0.0244  0.4099
 6975SOL     OW32560   1.294   1.520   3.062  0.0910 -0.0876 -0.1778
 6975SOL    HW132561   1.277   1.460   2.990 -0.8661 -0.6069  0.4868
 6975SOL    HW232562   1.388   1.536   3.047  0.1298 -0.8896 -0.8150
 6976SOL     OW32563   1.905   2.457   2.150  0.0139  0.2560  0.2865
 6976SOL    HW132564   1.864   2.370   2.147 -2.5470  1.5300 -1.9799
 6976SOL    HW232565   1.998   2.436   2.146  0.0319  0.7013 -1.5389
 6977SOL     OW32566   0.095   0.104   5.973  0.3948 -0.4933 -0.0619
 6977SOL    HW132567   0.129   0.017   5.994 -0.9147 -0.6644  1.3312
 6977SOL    HW232568   0.137   0.151   6.045 -1.1113 -0.6486  0.9192
 6978SOL     OW32569   0.762   1.479   0.496 -0.2764 -0.1631 -0.0527
 6978SOL    HW132570   0.744   1.393   0.459 -0.8728 -0.5433  1.1375
 6978SOL    HW232571   0.843   1.497   0.448 -0.1178  0.2462  0.3751
 6979SOL     OW32572   1.067   2.372  13.563 -0.0881 -0.1595  0.0285
 6979SOL    HW132573   1.142   2.425  13.534 -0.4195 -0.5356 -1.4942
 6979SOL    HW232574   1.041   2.319  13.488 -1.0404 -0.0491  0.2791
 6980SOL     OW32575   0.887   3.675  11.464 -0.8082 -0.0513 -0.0570
 6980SOL    HW132576   0.927   3.690  11.378  1.6567 -2.1508  0.7195
 6980SOL    HW232577   0.912   3.751  11.515 -1.6187  0.7742 -0.8881
 6981SOL     OW32578   3.774   1.810   7.441  0.0460  0.4780  0.0814
 6981SOL    HW132579   3.743   1.867   7.371 -0.8834  0.5716  0.5638
 6981SOL    HW232580   3.853   1.857   7.469  0.6313  0.4643 -1.5633
 6982SOL     OW32581   0.607   2.883   5.535  0.4837  0.0914 -0.3698
 6982SOL    HW132582   0.542   2.886   5.606  0.7295 -0.2676 -0.1338
 6982SOL    HW232583   0.589   2.800   5.491  1.7678  0.5993 -1.8455
 6983SOL     OW32584   3.183   1.332  11.239  0.2445 -0.0333 -0.2562
 6983SOL    HW132585   3.208   1.317  11.330 -0.9913 -0.0660  0.0886
 6983SOL    HW232586   3.099   1.378  11.250  0.0355 -0.5494  0.2618
 6984SOL     OW32587   2.049   3.389  10.127 -0.1595  0.4606  0.3536
 6984SOL    HW132588   2.066   3.322  10.060  0.0624  0.6548  0.2146
 6984SOL    HW232589   2.016   3.451  10.062  0.9127  0.6915  0.0221
 6985SOL     OW32590   1.052   1.118   2.190  0.6498 -0.2725  0.1507
 6985SOL    HW132591   1.135   1.136   2.233  0.3954  0.9415  0.1139
 6985SOL    HW232592   1.004   1.054   2.244  2.2942 -0.1240  1.7812
 6986SOL     OW32593   3.956   1.133   9.170 -0.0790 -0.5166  0.1874
 6986SOL    HW132594   3.908   1.110   9.248  0.8509  0.8357  1.1662
 6986SOL    HW232595   4.041   1.165   9.201 -0.2844 -1.2319  1.4514
 6987SOL     OW32596   1.420   0.104   3.910  0.0417 -0.4081 -0.4401
 6987SOL    HW132597   1.385   0.128   3.824  0.7556  0.6289 -0.4556
 6987SOL    HW232598   1.493   0.167   3.918  0.4683 -1.0372  0.5445
 6988SOL     OW32599   0.450   1.930   7.908 -0.0080 -0.6047 -0.3047
 6988SOL    HW132600   0.448   1.860   7.973  0.1937 -0.3554 -0.0276
 6988SOL    HW232601   0.498   1.993   7.962 -1.4376  0.0340  0.1961
 6989SOL     OW32602   1.103   3.416   3.247  0.2861 -0.0772  0.1147
 6989SOL    HW132603   1.129   3.482   3.183  3.0297  0.5913  1.9246
 6989SOL    HW232604   1.034   3.371   3.197 -0.4882  1.9519 -0.6600
 6990SOL     OW32605   1.746   0.082   3.015  0.5974  0.1913  0.2373
 6990SOL    HW132606   1.667   0.087   2.961  0.7704 -1.7175 -0.1884
 6990SOL    HW232607   1.796   0.018   2.965 -1.1847 -0.7682 -0.3422
 6991SOL     OW32608   4.082   2.076   6.058  0.7319 -0.0341 -0.3446
 6991SOL    HW132609   4.107   2.037   5.974  0.6801 -0.4844 -0.1536
 6991SOL    HW232610   3.987   2.064   6.055  0.5260  0.8936  2.4451
 6992SOL     OW32611   1.584   2.811  12.673 -0.2272 -0.0223  0.0066
 6992SOL    HW132612   1.563   2.888  12.619  0.8629 -0.2828 -0.7807
 6992SOL    HW232613   1.512   2.814  12.736 -0.6130  0.1639 -0.4407
 6993SOL     OW32614   4.003   0.104   7.720  0.1115 -0.3398 -0.2067
 6993SOL    HW132615   4.089   0.128   7.687  0.4066  1.6233  2.0276
 6993SOL    HW232616   3.979   0.185   7.764 -1.5090  0.4731 -2.5656
 6994SOL     OW32617   2.264   3.620   3.627 -0.1786  0.3633 -0.1502
 6994SOL    HW132618   2.255   3.611   3.532  2.0673  1.0645 -0.4362
 6994SOL    HW232619   2.172   3.628   3.653  0.4082 -0.3657  2.2031
 6995SOL     OW32620   1.315   2.737   3.756 -0.0805  0.1475  0.5960
 6995SOL    HW132621   1.328   2.661   3.699 -1.8882  0.2740  0.0038
 6995SOL    HW232622   1.250   2.705   3.819  0.0840 -1.7066 -0.1558
 6996SOL     OW32623   1.044   3.798   2.924  0.1169  0.0006 -0.2744
 6996SOL    HW132624   1.080   3.823   2.839 -1.3700 -0.4129 -1.0152
 6996SOL    HW232625   0.969   3.741   2.909  0.6389 -0.7501 -0.0532
 6997SOL     OW32626   1.386   2.836   6.796 -0.0617 -0.3694 -0.2544
 6997SOL    HW132627   1.334   2.883   6.731  2.2304  1.0419 -1.0510
 6997SOL    HW232628   1.445   2.788   6.737 -0.5025 -1.2663  0.0305
 6998SOL     OW32629   1.212   1.402   1.761  0.1609 -0.0527 -0.1485
 6998SOL    HW132630   1.228   1.330   1.701 -2.4365 -0.3641 -0.4703
 6998SOL    HW232631   1.194   1.478   1.705  0.9815  1.6898  1.9344
 6999SOL     OW32632   4.063   1.424   7.538 -0.2933  0.4989  0.3492
 6999SOL    HW132633   4.067   1.455   7.447  0.6103 -0.5214  0.0408
 6999SOL    HW232634   4.105   1.503   7.571 -0.5839  0.0981  1.6953
 7000SOL     OW32635   1.711   2.841   1.825 -0.5496  0.1541 -1.0605
 7000SOL    HW132636   1.626   2.797   1.818  0.7401 -2.3792 -0.6689
 7000SOL    HW232637   1.677   2.910   1.882 -1.5958 -0.4180 -0.9874
 7001SOL     OW32638   2.631   0.758   3.007 -0.3674 -0.1608 -0.4991
 7001SOL    HW132639   2.694   0.686   2.996 -0.4838 -0.0386 -1.9560
 7001SOL    HW232640   2.629   0.743   3.101 -0.8114 -0.0160 -0.4887
 7002SOL     OW32641   3.916   4.151   2.037  0.1831  1.1096 -0.5083
 7002SOL    HW132642   3.953   4.196   2.113  2.5478  2.1484 -2.3153
 7002SOL    HW232643   3.993   4.104   2.005 -0.1774  0.3411 -0.2665
 7003SOL     OW32644   0.858   0.923   5.981 -0.1372  0.2049 -0.0787
 7003SOL    HW132645   0.929   0.891   6.036  1.2519  2.2108 -0.7316
 7003SOL    HW232646   0.845   1.014   6.006  2.3771  0.0802  1.6479
 7004SOL     OW32647   2.705   3.770   5.479  0.4709  0.3963  0.7681
 7004SOL    HW132648   2.612   3.763   5.499  0.3660 -0.3371  0.0155
 7004SOL    HW232649   2.748   3.782   5.564  1.8074  1.1520 -0.0094
 7005SOL     OW32650   1.456   4.534   6.301 -0.4982 -0.8276  0.3983
 7005SOL    HW132651   1.507   4.511   6.223  0.7759  4.6268 -0.4318
 7005SOL    HW232652   1.368   4.513   6.270 -0.1896 -1.0135 -0.3685
 7006SOL     OW32653   1.553   3.091   6.640  0.0280  0.0787 -0.6153
 7006SOL    HW132654   1.537   3.048   6.557 -0.5467  0.9664 -0.9630
 7006SOL    HW232655   1.627   3.037   6.669  1.3908  2.3319  0.1215
 7007SOL     OW32656   2.829   0.508   4.954  0.3482 -0.7656 -0.3765
 7007SOL    HW132657   2.918   0.527   4.985  1.0801 -2.2252 -1.5679
 7007SOL    HW232658   2.783   0.479   5.032  0.2253 -0.9187 -0.5058
 7008SOL     OW32659   0.890   0.195  10.913 -0.2127 -0.2669 -0.0426
 7008SOL    HW132660   0.983   0.171  10.913 -0.0299  0.5253  2.8754
 7008SOL    HW232661   0.854   0.132  10.851  1.3433 -0.3137 -0.8980
 7009SOL     OW32662   1.214   3.590  15.956  0.2427 -0.4994 -0.2733
 7009SOL    HW132663   1.118   3.585  15.959  0.0941  2.5462  0.8897
 7009SOL    HW232664   1.235   3.635  16.038 -1.7414  0.6381 -0.3724
 7010SOL     OW32665   2.205   0.590   5.846 -0.5901 -0.4300  0.2943
 7010SOL    HW132666   2.231   0.506   5.808 -0.0352 -0.0120 -0.2494
 7010SOL    HW232667   2.158   0.570   5.927 -1.6824 -0.0900 -0.2462
 7011SOL     OW32668   2.875   2.140  15.214 -0.0831 -0.0811  0.8719
 7011SOL    HW132669   2.861   2.051  15.246  0.8703 -0.3925  0.4563
 7011SOL    HW232670   2.838   2.201  15.277  1.4927  2.4006 -0.5914
 7012SOL     OW32671   0.743   1.665  15.237  0.6008 -0.2862 -0.7668
 7012SOL    HW132672   0.694   1.590  15.202 -0.5210  0.8917 -1.6935
 7012SOL    HW232673   0.773   1.628  15.320  1.9013  2.6992  0.1054
 7013SOL     OW32674   0.975   0.348  13.905 -0.0367 -0.4883 -0.3929
 7013SOL    HW132675   0.897   0.293  13.894 -1.0642  1.2161 -1.7967
 7013SOL    HW232676   1.042   0.280  13.910 -1.1737 -1.5574  0.3828
 7014SOL     OW32677   0.509   1.840   7.011  0.4299 -0.3155  0.4487
 7014SOL    HW132678   0.594   1.823   7.052 -0.2994 -2.6182  1.0183
 7014SOL    HW232679   0.474   1.752   7.025  1.5491 -0.8154  0.1019
 7015SOL     OW32680   2.782   3.446   3.278  0.3009  0.1231  0.3333
 7015SOL    HW132681   2.827   3.527   3.255  0.8180 -0.0521  0.7402
 7015SOL    HW232682   2.797   3.451   3.372  1.8404 -1.3838  0.1678
 7016SOL     OW32683   2.906   1.103   8.479  0.3076 -0.2148  0.5137
 7016SOL    HW132684   2.838   1.119   8.414  1.0543  2.8354  0.4793
 7016SOL    HW232685   2.991   1.128   8.441  0.4576 -1.3229  0.1311
 7017SOL     OW32686   4.291   3.491   8.910  0.3458 -0.0007  0.0476
 7017SOL    HW132687   4.309   3.585   8.912  0.3828  0.0315 -1.9081
 7017SOL    HW232688   4.369   3.462   8.957 -0.5829 -0.1688  1.5136
 7018SOL     OW32689   3.013   0.733  14.990 -0.1119 -0.8812 -1.1130
 7018SOL    HW132690   3.073   0.659  14.974  0.2060 -0.7678 -0.4309
 7018SOL    HW232691   2.932   0.701  14.952 -1.8539  0.1162  1.7952
 7019SOL     OW32692   4.358   3.209   5.590 -0.3209  0.0728  0.0756
 7019SOL    HW132693   4.333   3.285   5.644 -0.6807 -0.5121  0.7303
 7019SOL    HW232694   4.273   3.167   5.579 -0.7952  1.6666 -2.4000
 7020SOL     OW32695   4.729   3.835   6.364  0.0120  0.3259  0.2112
 7020SOL    HW132696   0.036   3.906   6.410  1.2781  1.6822 -3.1167
 7020SOL    HW232697   0.031   3.754   6.395  0.3471  0.6351  0.5759
 7021SOL     OW32698   0.004   0.292   6.636  0.1597  0.0630 -0.3802
 7021SOL    HW132699   0.026   0.355   6.704  0.2061 -0.5364  0.1589
 7021SOL    HW232700   4.696   0.341   6.567 -3.6294 -2.0575  0.6314
 7022SOL     OW32701   3.305   1.444  12.494 -0.0593 -0.1362 -0.4076
 7022SOL    HW132702   3.386   1.464  12.446 -0.9284 -0.7878 -2.1402
 7022SOL    HW232703   3.341   1.380  12.555 -1.6490  0.3448  1.0164
 7023SOL     OW32704   1.959   1.815   8.695 -0.2120  0.1957 -0.3078
 7023SOL    HW132705   2.018   1.745   8.725  1.5142  1.8929  0.2494
 7023SOL    HW232706   2.010   1.896   8.698 -1.4909  0.9654  0.5158
 7024SOL     OW32707   0.158   4.420   1.727  0.4670 -0.2544  0.0900
 7024SOL    HW132708   0.078   4.375   1.754  0.0438  0.7199  0.4590
 7024SOL    HW232709   0.158   4.505   1.770 -0.3267 -0.8732  1.3269
 7025SOL     OW32710   0.020   2.027   9.659  0.0832 -0.6143  0.5102
 7025SOL    HW132711   0.059   1.989   9.580 -0.9316  2.1897 -1.3260
 7025SOL    HW232712   4.710   1.950   9.692  0.1182  0.1834  2.3889
 7026SOL     OW32713   1.348   3.540   5.753  0.3086 -0.0198 -0.7778
 7026SOL    HW132714   1.292   3.594   5.697 -2.4077  0.4759  2.4467
 7026SOL    HW232715   1.358   3.589   5.835 -0.1204  0.7401 -1.1768
 7027SOL     OW32716   0.249   4.353   5.518  0.0743  0.5822 -0.0841
 7027SOL    HW132717   0.217   4.438   5.549  0.3869  0.3439  0.9098
 7027SOL    HW232718   0.169   4.300   5.519 -0.3927  1.2969  0.3726
 7028SOL     OW32719   2.466   4.051   3.798  0.8581 -0.4104  0.2598
 7028SOL    HW132720   2.395   3.994   3.828 -0.8116  1.1869 -0.6513
 7028SOL    HW232721   2.538   4.008   3.845  0.2030  0.1019  1.7547
 7029SOL     OW32722   3.980   3.002   1.473  0.2234 -0.4371 -0.1144
 7029SOL    HW132723   4.043   2.930   1.482  1.2716  0.4360 -0.6216
 7029SOL    HW232724   3.897   2.954   1.482 -0.7827  1.2228 -0.4947
 7030SOL     OW32725   3.469   1.418   3.732 -0.1007  0.4538  0.4091
 7030SOL    HW132726   3.420   1.364   3.670 -1.8787  1.7693  0.6907
 7030SOL    HW232727   3.554   1.447   3.699 -0.9504 -0.0560 -2.2171
 7031SOL     OW32728   0.306   0.026  10.757  0.6690 -0.9995 -0.8027
 7031SOL    HW132729   0.278   0.066  10.675  1.3017  0.1093 -0.4765
 7031SOL    HW232730   0.336   4.677  10.728  1.7659 -0.6003 -0.8779
 7032SOL     OW32731   3.857   0.236   7.417  0.1952  0.2768  0.4226
 7032SOL    HW132732   3.789   0.303   7.431  0.1859  0.1562  0.9370
 7032SOL    HW232733   3.942   0.280   7.426 -0.3703  1.4599  0.1019
 7033SOL     OW32734   2.492   3.934   3.514 -0.0804  0.3600 -0.2101
 7033SOL    HW132735   2.508   3.995   3.586 -1.2422  0.6386 -0.1865
 7033SOL    HW232736   2.419   3.969   3.462 -1.0678 -0.9038  0.3354
 7034SOL     OW32737   3.528   2.024   3.324  0.4638  0.1742  0.0408
 7034SOL    HW132738   3.617   1.989   3.323  0.7464  0.8100  2.0317
 7034SOL    HW232739   3.500   2.016   3.416  1.8491 -0.5491  0.4041
 7035SOL     OW32740   2.868   4.678   6.959  0.0906  0.1283 -0.1685
 7035SOL    HW132741   2.963   4.668   6.960  0.3477  2.6237 -0.6983
 7035SOL    HW232742   2.833   4.591   6.941 -1.6885  1.1772 -1.6698
 7036SOL     OW32743   3.140   0.095   2.761  0.7888  0.8959 -0.1113
 7036SOL    HW132744   3.137   0.011   2.716 -0.7332  0.3577  0.9769
 7036SOL    HW232745   3.053   0.130   2.741  1.8332  2.6750 -1.5244
 7037SOL     OW32746   4.575   1.024   5.548  0.0956 -0.5608 -0.4439
 7037SOL    HW132747   4.640   1.027   5.618 -0.0844  1.1220 -0.3625
 7037SOL    HW232748   4.623   0.956   5.501  2.4910  0.1956  0.9212
 7038SOL     OW32749   0.419   4.413   2.634  0.7570 -0.1155 -0.2447
 7038SOL    HW132750   0.361   4.489   2.639  2.4826  1.1253  1.1679
 7038SOL    HW232751   0.483   4.437   2.567 -1.4221 -1.0938 -2.6340
 7039SOL     OW32752   2.991   2.690  10.592  0.0738  0.2071 -0.0074
 7039SOL    HW132753   2.934   2.660  10.521 -0.7986 -1.6140  1.4824
 7039SOL    HW232754   2.961   2.634  10.663  0.2326 -1.1731 -1.0288
 7040SOL     OW32755   3.748   1.311  15.905 -0.0496  0.3033  0.1262
 7040SOL    HW132756   3.778   1.347  15.821  1.2559  0.6258  0.7383
 7040SOL    HW232757   3.813   1.349  15.964  0.0452  2.5757 -1.4212
 7041SOL     OW32758   0.175   0.865   2.559 -0.3814 -0.5391 -0.5871
 7041SOL    HW132759   0.218   0.784   2.534  0.4065  0.3292 -2.1011
 7041SOL    HW232760   0.088   0.849   2.522 -1.3400  2.3978  0.3895
 7042SOL     OW32761   1.750   2.078   6.768  0.1894  0.0250  0.3475
 7042SOL    HW132762   1.704   2.121   6.695  2.3305  1.8370  0.0442
 7042SOL    HW232763   1.800   2.156   6.794  1.8755 -0.9958  0.1770
 7043SOL     OW32764   2.839   0.896   0.292  0.1118  0.2028 -0.0806
 7043SOL    HW132765   2.907   0.937   0.346  0.9924  1.4255 -2.1270
 7043SOL    HW232766   2.761   0.893   0.347 -0.4067 -1.1872 -0.8869
 7044SOL     OW32767   3.784   1.127   6.512 -0.5321  0.2138 -0.4195
 7044SOL    HW132768   3.784   1.121   6.417 -0.5847  0.5560 -0.4401
 7044SOL    HW232769   3.789   1.039   6.549 -1.0352 -0.3101 -1.6069
 7045SOL     OW32770   0.084   1.265   2.353  0.0750  0.9245 -0.0069
 7045SOL    HW132771   0.083   1.323   2.429  1.0526 -1.1709  1.5916
 7045SOL    HW232772   0.154   1.205   2.380  0.1039  0.4799 -1.0449
 7046SOL     OW32773   0.493   3.843   6.139 -0.1748 -0.7611  0.3168
 7046SOL    HW132774   0.464   3.758   6.105 -2.6509  1.6093 -3.3631
 7046SOL    HW232775   0.554   3.812   6.207 -1.0252  2.9131  2.7590
 7047SOL     OW32776   3.265   3.299   7.275  0.0339  0.2371 -0.4699
 7047SOL    HW132777   3.297   3.211   7.257  0.9677  0.5453 -0.3265
 7047SOL    HW232778   3.261   3.335   7.187  0.8089 -0.4134 -0.7715
 7048SOL     OW32779   0.440   2.723   5.233 -0.2798  0.3492  0.1432
 7048SOL    HW132780   0.383   2.658   5.274  2.2256 -2.4436 -0.7646
 7048SOL    HW232781   0.528   2.704   5.266 -1.5198  0.4054  3.4282
 7049SOL     OW32782   4.619   1.369   3.405 -0.3168 -0.0892  0.4159
 7049SOL    HW132783   4.680   1.428   3.360  0.9676 -0.3497  1.7905
 7049SOL    HW232784   4.541   1.408   3.365 -0.2488 -0.2036  0.1713
 7050SOL     OW32785   2.953   4.279   3.859 -0.5210 -0.1188 -0.2665
 7050SOL    HW132786   3.001   4.238   3.786  0.0496  1.7917 -0.9474
 7050SOL    HW232787   2.873   4.306   3.814 -0.1494  0.2949 -0.6806
 7051SOL     OW32788   2.972   0.230   5.392  0.1892  0.1325  0.2755
 7051SOL    HW132789   3.010   0.299   5.337  0.6159 -1.0575 -0.9220
 7051SOL    HW232790   2.956   0.167   5.322  2.1309  1.9022 -1.7616
 7052SOL     OW32791   1.726   0.130   2.397  0.1704 -0.2278 -0.1503
 7052SOL    HW132792   1.772   0.047   2.408  0.6705  0.2181  1.0593
 7052SOL    HW232793   1.795   0.196   2.396  0.3111 -0.3825 -0.6066
 7053SOL     OW32794   2.377   2.712   1.176 -0.0309  0.4893 -0.1661
 7053SOL    HW132795   2.315   2.724   1.248  0.3641  2.9515 -0.2408
 7053SOL    HW232796   2.421   2.634   1.209  0.3085  0.8823  0.3153
 7054SOL     OW32797   3.493   3.269   4.170 -0.1748 -0.1102  0.5930
 7054SOL    HW132798   3.520   3.182   4.199  1.7779  0.3124  0.0940
 7054SOL    HW232799   3.570   3.294   4.117  2.0136 -1.8173  2.9925
 7055SOL     OW32800   4.476   0.975   0.565 -0.3972  0.2109 -0.2564
 7055SOL    HW132801   4.422   0.895   0.562 -0.7430  0.4676 -0.9127
 7055SOL    HW232802   4.528   0.960   0.487  1.9331 -0.1886  1.3860
 7056SOL     OW32803   4.270   1.957   1.808 -0.2929 -0.2260  0.0586
 7056SOL    HW132804   4.293   1.874   1.849  0.5594 -0.4595 -0.8722
 7056SOL    HW232805   4.185   1.944   1.766 -0.5246  2.5454 -0.3820
 7057SOL     OW32806   0.869   3.039  16.804 -0.2455 -0.0949  0.1370
 7057SOL    HW132807   0.857   3.016  16.712  1.9886 -1.9853  0.3036
 7057SOL    HW232808   0.923   3.118  16.804  0.1140 -0.3449 -1.7237
 7058SOL     OW32809   2.760   3.815   3.325  0.0019  0.0248 -0.1811
 7058SOL    HW132810   2.664   3.821   3.320 -0.1220 -1.4892  0.4767
 7058SOL    HW232811   2.776   3.825   3.418  0.9028  1.8676 -0.5185
 7059SOL     OW32812   3.192   1.220   3.689  0.5102 -0.2548 -0.8276
 7059SOL    HW132813   3.122   1.222   3.623  0.8009  3.0147 -1.0019
 7059SOL    HW232814   3.264   1.198   3.630  0.8067  1.6389 -1.1516
 7060SOL     OW32815   1.868   3.452   2.607  0.2441  0.0995 -0.3987
 7060SOL    HW132816   1.888   3.392   2.678 -1.4883 -1.6603 -1.3708
 7060SOL    HW232817   1.782   3.482   2.638  0.2103  0.2475 -0.6293
 7061SOL     OW32818   3.500   1.255   6.939 -0.1680  0.5126 -0.3409
 7061SOL    HW132819   3.509   1.237   6.845  0.4385  1.3321 -0.4290
 7061SOL    HW232820   3.580   1.304   6.956  0.3880 -0.5189  0.0368
 7062SOL     OW32821   1.398   4.209   8.064  0.5143  0.2864  0.5732
 7062SOL    HW132822   1.475   4.242   8.110  0.9601  1.2010 -0.8300
 7062SOL    HW232823   1.325   4.255   8.105  1.3115  1.2957  0.8506
 7063SOL     OW32824   4.468   0.512  16.219 -0.0060  0.2731 -0.1184
 7063SOL    HW132825   4.404   0.572  16.182 -0.2057  0.0598 -0.1211
 7063SOL    HW232826   4.413   0.464  16.281  1.8482  0.2147  1.4771
 7064SOL     OW32827   1.182   1.497   4.724 -0.1975 -0.1836  0.5990
 7064SOL    HW132828   1.122   1.530   4.791 -0.4110 -2.1425  1.3543
 7064SOL    HW232829   1.209   1.579   4.682  0.6867 -1.0416 -0.5211
 7065SOL     OW32830   4.486   2.747   4.456  0.2678 -0.1750 -0.5107
 7065SOL    HW132831   4.539   2.671   4.433 -2.3748 -1.7458 -1.4801
 7065SOL    HW232832   4.445   2.719   4.539  2.3151 -2.1339 -0.1566
 7066SOL     OW32833   3.809   0.994   8.124 -0.2498  0.7749 -0.2547
 7066SOL    HW132834   3.867   1.015   8.197  1.7278 -0.9065 -1.3462
 7066SOL    HW232835   3.854   1.023   8.045 -0.3852  0.8988 -0.2862
 7067SOL     OW32836   2.605   0.969  17.344 -0.1578  0.5277  0.2215
 7067SOL    HW132837   2.611   0.874  17.347 -0.3341  0.5420  1.0852
 7067SOL    HW232838   2.630   0.990  17.434 -0.1642 -2.7859  0.9742
 7068SOL     OW32839   0.230   3.374  14.587  0.2595 -0.3420  0.3439
 7068SOL    HW132840   0.135   3.377  14.579  0.3023 -0.3068 -0.1442
 7068SOL    HW232841   0.259   3.432  14.517 -1.8287  0.7151  0.3405
 7069SOL     OW32842   3.246   0.496   2.091 -0.3685  0.0211  0.2093
 7069SOL    HW132843   3.329   0.506   2.137  0.9724 -1.3537 -1.8872
 7069SOL    HW232844   3.241   0.583   2.052  1.2496 -0.2488 -0.6217
 7070SOL     OW32845   3.648   1.713   1.954  0.5855 -0.0700 -0.2716
 7070SOL    HW132846   3.629   1.781   2.020  1.1803  0.9182 -1.1207
 7070SOL    HW232847   3.653   1.767   1.875 -0.5191 -1.4976 -1.3160
 7071SOL     OW32848   3.729   2.016   5.457  0.4392 -0.3647  0.1301
 7071SOL    HW132849   3.810   1.967   5.468  1.3124  1.8467  3.4976
 7071SOL    HW232850   3.677   1.989   5.533 -0.9441  2.2381  0.1278
 7072SOL     OW32851   4.536   0.199   0.576  0.3325 -0.2382  0.1105
 7072SOL    HW132852   4.559   0.112   0.545  0.4256  0.2092 -1.0983
 7072SOL    HW232853   4.578   0.207   0.662  0.1775  0.9498  0.0733
 7073SOL     OW32854   3.884   0.696  10.625  0.5354 -0.4987  0.1328
 7073SOL    HW132855   3.921   0.765  10.679  0.0264 -0.2239  0.1395
 7073SOL    HW232856   3.962   0.642  10.617 -1.0614 -2.6256 -1.1909
 7074SOL     OW32857   4.695   3.358  14.531 -0.6752  0.8128  0.0294
 7074SOL    HW132858   4.716   3.385  14.442  1.2903  1.1589  0.6009
 7074SOL    HW232859   4.603   3.331  14.528 -0.1530 -0.9547 -0.1720
 7075SOL     OW32860   0.308   2.262   1.282  0.2865 -0.0524  0.6137
 7075SOL    HW132861   0.255   2.184   1.298  0.1210 -0.0673 -0.0500
 7075SOL    HW232862   0.392   2.239   1.322 -0.6517 -1.5121  1.7678
 7076SOL     OW32863   2.176   4.109   1.727 -0.1935  0.1894  0.5721
 7076SOL    HW132864   2.087   4.084   1.753  1.1169 -2.6447  2.2765
 7076SOL    HW232865   2.151   4.196   1.695  0.2419  0.1170  0.0501
 7077SOL     OW32866   1.800   1.863  16.015 -0.0727  0.0750  0.4189
 7077SOL    HW132867   1.861   1.801  16.055 -1.5505 -2.9441 -2.0683
 7077SOL    HW232868   1.861   1.937  16.015  1.2668 -1.0237 -1.1145
 7078SOL     OW32869   1.825   0.124  14.643  0.2319 -0.0383  0.2805
 7078SOL    HW132870   1.880   0.065  14.695 -0.3758 -0.6516  0.2233
 7078SOL    HW232871   1.776   0.171  14.711  3.4524  0.5562  2.2097
 7079SOL     OW32872   1.305   3.062   1.287 -0.1073 -0.7733 -0.0459
 7079SOL    HW132873   1.361   3.021   1.222 -0.5894 -0.9890 -0.3247
 7079SOL    HW232874   1.230   3.002   1.282  0.4143 -1.3176 -1.2124
 7080SOL     OW32875   3.747   2.144  15.916  0.4017 -0.0733  0.5085
 7080SOL    HW132876   3.801   2.093  15.856  0.0419  0.4873 -0.3029
 7080SOL    HW232877   3.677   2.170  15.856  1.2059 -1.4221 -1.0364
 7081SOL     OW32878   1.776   1.778  11.121  0.2946 -0.3878  0.4044
 7081SOL    HW132879   1.779   1.724  11.042  2.0363 -1.5850  1.2842
 7081SOL    HW232880   1.793   1.715  11.190  0.6501  1.1323  1.7127
 7082SOL     OW32881   1.894   0.365   5.611  1.0881 -0.1053 -0.1407
 7082SOL    HW132882   1.977   0.319   5.629  0.2306 -0.8544  1.8931
 7082SOL    HW232883   1.872   0.326   5.527 -1.4121 -2.8559  1.7984
 7083SOL     OW32884   0.882   1.237   2.666 -0.6738 -0.3187  0.1361
 7083SOL    HW132885   0.843   1.211   2.750  2.7669 -3.3019  0.8504
 7083SOL    HW232886   0.811   1.287   2.627 -0.4548  2.4950  3.3242
 7084SOL     OW32887   3.334   4.696   3.309 -0.3848  0.2953  0.0295
 7084SOL    HW132888   3.397   0.019   3.272 -0.0458 -0.2783 -0.3411
 7084SOL    HW232889   3.348   4.611   3.266 -2.6423  0.1311 -0.3973
 7085SOL     OW32890   4.041   4.402   9.012  0.0234  0.3992 -0.3962
 7085SOL    HW132891   4.045   4.494   8.983  1.1948  0.8718  1.3067
 7085SOL    HW232892   4.025   4.417   9.105  2.2235 -0.9324  0.1785
 7086SOL     OW32893   0.406   2.910   8.971  0.1439  0.2538 -0.8417
 7086SOL    HW132894   0.500   2.909   8.991  0.0096 -1.5225 -0.2813
 7086SOL    HW232895   0.377   2.947   9.055 -0.0036  0.4488 -0.9795
 7087SOL     OW32896   0.659   2.864   2.345  0.7023 -0.7811 -0.8337
 7087SOL    HW132897   0.607   2.824   2.276 -0.4910  0.6593 -0.7816
 7087SOL    HW232898   0.639   2.807   2.419 -2.2358  0.8376 -0.3423
 7088SOL     OW32899   2.371   4.704   4.300 -0.3351 -0.0560 -0.3203
 7088SOL    HW132900   2.310   4.650   4.351  1.9114 -0.2707  2.1387
 7088SOL    HW232901   2.365   0.049   4.347 -1.3127 -0.2869 -0.0260
 7089SOL     OW32902   1.855   0.588   1.613  0.4589  0.1598  0.0409
 7089SOL    HW132903   1.798   0.632   1.676  1.3527 -0.5055  1.3275
 7089SOL    HW232904   1.928   0.646   1.636 -0.1662  0.4645  1.2423
 7090SOL     OW32905   2.044   3.709   0.453 -0.1658 -0.0433  0.7135
 7090SOL    HW132906   2.105   3.653   0.501 -0.6358 -2.3551 -1.3813
 7090SOL    HW232907   1.966   3.652   0.449  1.8741 -2.8201  0.4624
 7091SOL     OW32908   0.018   2.245   6.356  0.3949 -0.1150 -0.5452
 7091SOL    HW132909   4.667   2.216   6.333  0.2775  0.2606 -0.5682
 7091SOL    HW232910   0.062   2.201   6.283 -1.1344  0.1514 -1.6294
 7092SOL     OW32911   2.525   3.728  15.409  0.1202 -0.5396 -0.0175
 7092SOL    HW132912   2.603   3.782  15.397 -0.7000  0.4949 -0.6760
 7092SOL    HW232913   2.473   3.774  15.343  3.3287  2.8124 -0.1926
 7093SOL     OW32914   1.791   0.355  16.307 -0.4535 -0.2296  0.3695
 7093SOL    HW132915   1.833   0.277  16.271  2.4517  1.1841  0.6988
 7093SOL    HW232916   1.795   0.405  16.225 -0.6795  0.5646  0.8453
 7094SOL     OW32917   3.022   3.908   5.160 -0.0787 -0.1876  0.0137
 7094SOL    HW132918   2.930   3.913   5.133  0.6761  1.0522 -2.2866
 7094SOL    HW232919   3.067   3.987   5.132  1.9762 -0.6579  1.9496
 7095SOL     OW32920   1.316   2.114  12.623  0.2603 -0.2194 -0.2187
 7095SOL    HW132921   1.274   2.028  12.618 -0.8894  0.2991  0.3401
 7095SOL    HW232922   1.364   2.115  12.541 -1.8122  0.7515 -1.4242
 7096SOL     OW32923   2.352   2.206   5.482 -0.1956 -0.5144 -0.9208
 7096SOL    HW132924   2.408   2.131   5.503  2.3741  1.3940 -1.0091
 7096SOL    HW232925   2.375   2.228   5.392 -3.6743  1.3769 -1.3355
 7097SOL     OW32926   0.559   0.913   4.393 -1.0755  0.7010  0.3563
 7097SOL    HW132927   0.550   0.870   4.309  1.4005  0.4159  0.2115
 7097SOL    HW232928   0.644   0.958   4.391 -0.4422 -0.6091 -1.4890
 7098SOL     OW32929   4.317   2.205   2.949 -0.0337 -0.0808 -0.6383
 7098SOL    HW132930   4.359   2.290   2.964  0.7703 -0.2419 -2.0056
 7098SOL    HW232931   4.300   2.168   3.036  0.3092  1.5287  0.1118
 7099SOL     OW32932   3.909   0.455   8.839 -0.3364  0.1453  0.2812
 7099SOL    HW132933   3.928   0.489   8.926 -1.7186  0.4901  0.4511
 7099SOL    HW232934   3.996   0.423   8.816 -0.5413 -0.5192  0.4319
 7100SOL     OW32935   4.502   3.284   2.998  0.9153 -0.2268 -1.0266
 7100SOL    HW132936   4.492   3.278   2.903 -0.4801  0.9423 -0.9563
 7100SOL    HW232937   4.522   3.191   3.003 -2.3911 -0.7397  2.3019
 7101SOL     OW32938   1.016   2.354   5.861  0.2247  0.0396 -0.5960
 7101SOL    HW132939   1.089   2.410   5.834  0.6113 -1.7272 -3.1411
 7101SOL    HW232940   1.064   2.273   5.877  0.4164 -0.2836 -2.9361
 7102SOL     OW32941   0.968   1.504   1.903  0.2109  0.2446  0.4145
 7102SOL    HW132942   0.931   1.425   1.864 -0.2469  2.1213 -2.9854
 7102SOL    HW232943   1.058   1.506   1.871  0.6101  1.1608  1.6000
 7103SOL     OW32944   4.218   2.332   8.900 -0.5012  0.3362  0.1651
 7103SOL    HW132945   4.215   2.323   8.995 -0.4275 -1.6441 -0.0269
 7103SOL    HW232946   4.144   2.275   8.879 -0.2742  0.4396 -0.9431
 7104SOL     OW32947   4.631   2.487   3.453 -0.5814 -0.0759  0.1556
 7104SOL    HW132948   4.614   2.499   3.360  2.4605  0.9010 -0.2693
 7104SOL    HW232949   4.697   2.419   3.442  0.4072  0.5109  2.2915
 7105SOL     OW32950   3.532   0.767   6.318 -0.3251 -0.1318  0.0066
 7105SOL    HW132951   3.559   0.782   6.228 -0.0895 -0.6085  0.0006
 7105SOL    HW232952   3.609   0.801   6.365  1.1173 -1.4356 -1.4417
 7106SOL     OW32953   2.880   1.415  14.901 -0.2080  0.2452 -0.0051
 7106SOL    HW132954   2.786   1.436  14.901 -0.3102 -0.3561  4.1515
 7106SOL    HW232955   2.900   1.370  14.819 -0.5115 -1.2276  0.7336
 7107SOL     OW32956   2.333   1.458  12.058 -0.7689 -0.5198  0.3082
 7107SOL    HW132957   2.415   1.484  12.016 -0.8490  0.1961  0.5989
 7107SOL    HW232958   2.271   1.521  12.022  2.0392  3.2197  2.0247
 7108SOL     OW32959   3.438   0.569  15.077 -0.2971 -0.2043  0.3619
 7108SOL    HW132960   3.426   0.547  14.985  1.6322  0.1932  0.0111
 7108SOL    HW232961   3.529   0.597  15.069 -0.7536  2.1471  3.1950
 7109SOL     OW32962   3.531   1.497   4.217 -0.4524  0.6315 -0.0466
 7109SOL    HW132963   3.545   1.515   4.124 -1.1707 -1.5115 -0.5753
 7109SOL    HW232964   3.540   1.581   4.262  0.1553  0.6914 -0.2801
 7110SOL     OW32965   2.313   3.818   6.706 -0.1056 -0.3596 -0.6103
 7110SOL    HW132966   2.241   3.879   6.721 -0.8044 -1.3466  0.0198
 7110SOL    HW232967   2.273   3.740   6.743 -0.4654  0.2664  0.3397
 7111SOL     OW32968   4.036   1.033   2.644 -0.1130  0.1499 -0.0251
 7111SOL    HW132969   4.009   1.021   2.553 -0.9648 -0.0370  0.2475
 7111SOL    HW232970   4.015   0.947   2.680 -2.4029  0.5905 -0.3036
 7112SOL     OW32971   2.048   2.307  12.562  0.0842 -0.4081  0.1396
 7112SOL    HW132972   2.061   2.277  12.472 -0.5309 -0.9674  0.2362
 7112SOL    HW232973   1.967   2.356  12.548  0.3287  0.6422  2.4342
 7113SOL     OW32974   3.714   4.178   4.821  0.6099 -0.3512 -0.1649
 7113SOL    HW132975   3.681   4.236   4.752  0.2503 -2.1142 -1.4549
 7113SOL    HW232976   3.756   4.245   4.876  0.2380 -0.5426  0.3521
 7114SOL     OW32977   1.223   3.715   3.650  0.0128 -0.6293 -0.0928
 7114SOL    HW132978   1.189   3.652   3.713 -0.0733 -1.3091 -0.8204
 7114SOL    HW232979   1.145   3.763   3.621  1.4699  0.5263 -2.0967
 7115SOL     OW32980   0.594   0.497   1.381  0.0639 -0.3748 -0.6228
 7115SOL    HW132981   0.650   0.420   1.379 -0.8598 -1.0470 -0.7546
 7115SOL    HW232982   0.581   0.501   1.475  0.6141 -0.8725 -0.5262
 7116SOL     OW32983   0.411   4.402   0.099 -0.1180 -0.6754  0.0546
 7116SOL    HW132984   0.405   4.323   0.152 -1.8674 -0.4686  0.1356
 7116SOL    HW232985   0.412   4.364   0.011  0.2414  1.1386 -0.7132
 7117SOL     OW32986   0.950   3.966  16.476 -0.0568 -0.3548 -0.2276
 7117SOL    HW132987   0.887   4.023  16.433  0.0104 -0.7737 -0.8826
 7117SOL    HW232988   1.001   3.940  16.399 -0.6999  1.2496 -1.1781
 7118SOL     OW32989   3.078   1.840   3.505  0.0706  0.3228 -0.1154
 7118SOL    HW132990   3.010   1.906   3.497 -0.1556  0.1817  0.6724
 7118SOL    HW232991   3.042   1.791   3.579  0.4805 -1.1563 -0.9037
 7119SOL     OW32992   2.141   2.179  12.832 -0.0030  0.6474 -0.1563
 7119SOL    HW132993   2.197   2.167  12.756  0.2300 -3.2285  0.6448
 7119SOL    HW232994   2.198   2.230  12.890 -0.3212  0.0475  0.6897
 7120SOL     OW32995   1.373   3.234   6.328  0.1343  0.1764  0.2168
 7120SOL    HW132996   1.301   3.268   6.381  0.5012  0.4456  0.5401
 7120SOL    HW232997   1.379   3.297   6.256  0.9834 -0.3164 -0.1375
 7121SOL     OW32998   3.296   0.994   8.222 -0.4884 -0.4310  0.3664
 7121SOL    HW132999   3.300   1.062   8.154  2.8857  0.9746  1.9508
 7121SOL    HW233000   3.388   0.966   8.226  0.3448  2.3021  0.1831
 7122SOL     OW33001   2.684   4.080   2.040 -0.2149  0.0659 -0.3910
 7122SOL    HW133002   2.697   4.108   1.949  0.1470 -0.5573 -0.5347
 7122SOL    HW233003   2.677   3.985   2.030  0.1431 -0.1564  1.6406
 7123SOL     OW33004   2.331   2.542   1.383 -0.1457  0.2935 -0.4486
 7123SOL    HW133005   2.297   2.610   1.441 -1.3526 -0.6884  0.0078
 7123SOL    HW233006   2.360   2.473   1.444  4.3925  0.5500 -2.2858
 7124SOL     OW33007   1.223   3.006  17.405 -0.1113  0.0132  0.0653
 7124SOL    HW133008   1.180   3.066  17.344 -3.0304 -3.0819 -0.9113
 7124SOL    HW233009   1.253   3.065  17.474  0.1382  1.0122 -0.8819
 7125SOL     OW33010   0.718   0.252  16.302 -0.1677  0.1876  0.3035
 7125SOL    HW133011   0.699   0.236  16.210 -0.5984  0.2993  0.3728
 7125SOL    HW233012   0.725   0.347  16.314  0.1855  0.3414 -1.1570
 7126SOL     OW33013   3.123   0.170   7.114 -0.1794 -0.0199 -0.7254
 7126SOL    HW133014   3.187   0.200   7.178  0.8967 -0.1871 -1.7163
 7126SOL    HW233015   3.057   0.135   7.174  1.0743 -1.3919 -0.1604
 7127SOL     OW33016   3.910   4.142  12.513  0.2991  0.7704 -0.1685
 7127SOL    HW133017   3.887   4.090  12.436 -1.2563  1.0865  0.0850
 7127SOL    HW233018   3.878   4.087  12.584 -1.0150  0.3214 -1.1094
 7128SOL     OW33019   3.257   0.944   8.484 -0.4419 -0.3795  0.3437
 7128SOL    HW133020   3.264   0.964   8.391  1.6697 -2.5463  0.0509
 7128SOL    HW233021   3.285   1.028   8.520 -1.8588 -0.1667  0.9615
 7129SOL     OW33022   4.645   4.122   6.452 -0.0043  0.5820 -0.1567
 7129SOL    HW133023   4.647   4.113   6.357  1.7100  0.8501 -0.1388
 7129SOL    HW233024   4.700   4.199   6.464  0.1954  0.5268 -0.7448
 7130SOL     OW33025   2.366   2.780   2.650  0.0458  0.0753  0.3643
 7130SOL    HW133026   2.401   2.695   2.622  2.5716  0.7289  1.5660
 7130SOL    HW233027   2.331   2.820   2.570  0.7237  1.8770  0.9765
 7131SOL     OW33028   4.026   4.172  14.016  0.0150  0.1671 -0.2242
 7131SOL    HW133029   3.939   4.196  13.984  1.0944 -0.3073 -3.4572
 7131SOL    HW233030   4.014   4.165  14.111  0.9420  0.1287 -0.1093
 7132SOL     OW33031   1.573   3.922   6.484 -0.1191 -0.1501 -0.2694
 7132SOL    HW133032   1.599   3.837   6.447 -1.0233 -0.7462  0.4626
 7132SOL    HW233033   1.561   3.902   6.577 -1.0383  0.1112 -0.3405
 7133SOL     OW33034   1.083   3.842   4.935  0.0763 -0.3056  0.6997
 7133SOL    HW133035   1.120   3.836   4.846 -1.3369 -2.8520  0.2921
 7133SOL    HW233036   1.052   3.754   4.957  0.2086 -0.2181  1.2324
 7134SOL     OW33037   4.549   4.147   5.433 -0.2953  0.2347 -0.8323
 7134SOL    HW133038   4.544   4.242   5.441  1.6118  0.2196  0.5366
 7134SOL    HW233039   4.482   4.116   5.493  0.2935 -2.4659 -1.5619
 7135SOL     OW33040   0.207   1.212   4.584 -0.9445  0.4071  0.5170
 7135SOL    HW133041   0.276   1.271   4.552 -0.0928 -0.8621  0.0311
 7135SOL    HW233042   0.211   1.136   4.526 -1.6532 -0.5851  1.7672
 7136SOL     OW33043   1.557   0.080   3.640  0.4313  0.4401 -0.4871
 7136SOL    HW133044   1.577   0.169   3.671 -0.2538  0.8256 -1.1506
 7136SOL    HW233045   1.628   0.026   3.675 -0.4552  0.8231  1.9484
 7137SOL     OW33046   4.564   2.392   0.376  0.0074  0.1519 -0.0216
 7137SOL    HW133047   4.587   2.462   0.315 -1.2058  2.4076  2.1060
 7137SOL    HW233048   4.477   2.420   0.402 -0.6141  0.5879 -2.6355
 7138SOL     OW33049   2.590   4.311  11.435 -0.4699 -0.6880 -0.5585
 7138SOL    HW133050   2.657   4.377  11.422 -0.8420 -0.3117 -0.5787
 7138SOL    HW233051   2.632   4.253  11.499  0.6697 -1.7805 -2.3309
 7139SOL     OW33052   1.879   1.544  13.847  0.6215 -0.9084  0.0372
 7139SOL    HW133053   1.974   1.544  13.859  0.8147 -1.9092 -1.4124
 7139SOL    HW233054   1.878   1.616  13.784  0.6861 -1.3896 -0.5122
 7140SOL     OW33055   4.478   2.985   1.514  0.2755  0.2987  0.0510
 7140SOL    HW133056   4.423   3.004   1.438 -0.0476  1.0655  0.4680
 7140SOL    HW233057   4.412   2.997   1.582 -1.0023  0.5160 -1.2319
 7141SOL     OW33058   1.571   0.311   5.822  0.5378  0.1598 -0.4855
 7141SOL    HW133059   1.575   0.369   5.898  3.2913 -2.7449  1.5911
 7141SOL    HW233060   1.501   0.258   5.861  0.4755  2.5427  2.6380
 7142SOL     OW33061   3.002   0.152   8.671 -0.0563 -0.2647  0.2416
 7142SOL    HW133062   3.065   0.098   8.623 -0.3415  2.2914 -2.9818
 7142SOL    HW233063   2.996   0.099   8.750 -3.8063 -1.2080 -0.7352
 7143SOL     OW33064   3.844   0.685   3.589  0.1197 -0.3460  0.4904
 7143SOL    HW133065   3.810   0.663   3.675 -2.0321  1.0899  0.0070
 7143SOL    HW233066   3.901   0.611   3.569  0.8351  0.1861  0.5425
 7144SOL     OW33067   2.482   0.780   3.730  0.4358 -0.0357 -0.0278
 7144SOL    HW133068   2.487   0.875   3.738 -0.3598  0.1725 -1.9109
 7144SOL    HW233069   2.467   0.774   3.635  2.0216  0.2865 -0.2941
 7145SOL     OW33070   4.336   4.300  10.989 -0.3529 -0.5616  0.7464
 7145SOL    HW133071   4.401   4.263  10.930 -0.3197  1.7572 -0.6675
 7145SOL    HW233072   4.396   4.336  11.054  0.3498 -0.5548  0.0841
 7146SOL     OW33073   1.285   3.382  10.207 -0.1023  0.5964 -0.0439
 7146SOL    HW133074   1.338   3.440  10.261 -1.0050  1.1358  0.2731
 7146SOL    HW233075   1.215   3.442  10.184 -1.4624 -0.8722  0.2203
 7147SOL     OW33076   3.141   2.891  16.453  0.7671  0.0492  0.4055
 7147SOL    HW133077   3.154   2.896  16.358  1.2843  1.1410  0.5314
 7147SOL    HW233078   3.218   2.843  16.486  0.9852  1.0849  1.3890
 7148SOL     OW33079   1.280   0.074   8.583 -0.0120  0.4164 -0.4337
 7148SOL    HW133080   1.234   0.139   8.530 -0.3514 -0.4776 -1.2452
 7148SOL    HW233081   1.359   0.126   8.599  0.6257 -0.5941 -0.2637
 7149SOL     OW33082   3.302   0.008   2.009 -0.4709 -0.2870 -1.0356
 7149SOL    HW133083   3.352   0.084   1.978 -2.0363  0.4253 -1.7922
 7149SOL    HW233084   3.222   0.055   2.031  0.9468  1.2837  0.8293
 7150SOL     OW33085   3.978   3.612   3.301 -0.7530 -0.0404 -0.9899
 7150SOL    HW133086   3.933   3.638   3.221 -0.4588 -1.2184 -1.5242
 7150SOL    HW233087   3.997   3.700   3.335  2.5484 -1.3071  0.4720
 7151SOL     OW33088   1.290   1.900  16.782  0.3443  0.1258  0.3112
 7151SOL    HW133089   1.320   1.919  16.871  0.9202 -0.2946  0.2090
 7151SOL    HW233090   1.198   1.924  16.787  0.5093  0.9426 -0.6795
 7152SOL     OW33091   2.772   0.279   5.815 -0.2964 -0.2054  0.1840
 7152SOL    HW133092   2.734   0.288   5.727  0.3139 -3.2827 -0.3845
 7152SOL    HW233093   2.788   0.185   5.811  1.8339  0.2327 -1.7416
 7153SOL     OW33094   3.935   3.319   8.577  0.4749 -0.1602  0.2677
 7153SOL    HW133095   3.910   3.227   8.573 -0.0282 -0.0343  0.4684
 7153SOL    HW233096   3.940   3.323   8.673 -1.4691 -1.6798  0.4337
 7154SOL     OW33097   4.091   0.291   3.853  0.4265 -0.4915 -0.0424
 7154SOL    HW133098   4.135   0.369   3.888 -0.8502  0.0050  0.4391
 7154SOL    HW233099   4.159   0.225   3.861  0.5028 -0.6907 -2.1966
 7155SOL     OW33100   1.967   0.954   8.968  0.3285 -0.4508  0.2656
 7155SOL    HW133101   1.916   0.986   9.043 -1.5129  4.3753 -3.0321
 7155SOL    HW233102   1.919   0.874   8.946  1.1896 -0.4056 -1.7245
 7156SOL     OW33103   4.277   0.752   8.327  0.5659 -0.0209  0.2131
 7156SOL    HW133104   4.259   0.805   8.404 -0.9524 -0.4807  0.1803
 7156SOL    HW233105   4.303   0.672   8.374 -0.4747 -0.1599  0.5483
 7157SOL     OW33106   0.175   3.557  13.652 -0.0784 -0.2188  0.3146
 7157SOL    HW133107   0.151   3.645  13.623 -2.0062 -0.7007  0.4354
 7157SOL    HW233108   0.099   3.529  13.704 -0.3610  1.6116  0.8873
 7158SOL     OW33109   3.610   4.701   6.290 -0.5874 -0.1420 -0.1950
 7158SOL    HW133110   3.676   0.014   6.243 -2.3311  1.3806 -0.9939
 7158SOL    HW233111   3.665   4.627   6.316  3.1114  2.3491 -0.9308
 7159SOL     OW33112   3.213   3.804   2.376  0.1751 -0.0707 -0.3463
 7159SOL    HW133113   3.223   3.899   2.369  0.3077  0.1372  2.7302
 7159SOL    HW233114   3.266   3.783   2.299 -1.6991 -1.3102 -1.2960
 7160SOL     OW33115   3.080   0.675  10.289 -0.4152 -1.0305 -0.1106
 7160SOL    HW133116   3.144   0.734  10.248 -0.0711 -1.9641 -0.9089
 7160SOL    HW233117   3.002   0.686  10.235  0.4672 -0.8227 -1.3349
 7161SOL     OW33118   4.081   3.425   6.533 -0.1424  0.2458  0.4510
 7161SOL    HW133119   3.996   3.383   6.524  0.7172 -1.1391 -1.3312
 7161SOL    HW233120   4.087   3.447   6.626 -0.6771 -3.0043  1.2215
 7162SOL     OW33121   1.992   3.537   4.457  0.1382 -0.1538  0.6666
 7162SOL    HW133122   1.938   3.557   4.381  1.2453  0.9119  0.1605
 7162SOL    HW233123   1.949   3.587   4.526 -1.6272 -1.5791  0.5809
 7163SOL     OW33124   2.054   4.037   5.863 -0.1054  0.3257  0.0820
 7163SOL    HW133125   2.056   3.976   5.936 -0.7680  1.0960  0.7465
 7163SOL    HW233126   2.103   3.989   5.796  0.8837  0.8352  0.4461
 7164SOL     OW33127   2.811   3.509  12.008  0.1135 -0.3488 -0.3171
 7164SOL    HW133128   2.838   3.568  11.938 -0.7082  0.9151  0.4443
 7164SOL    HW233129   2.846   3.425  11.980  2.3664  0.4817 -0.0624
 7165SOL     OW33130   2.842   2.603  10.383  0.0101  0.1534 -0.1679
 7165SOL    HW133131   2.822   2.666  10.314 -0.8767 -1.6780 -1.6041
 7165SOL    HW233132   2.887   2.538  10.329 -1.0175 -2.1014  1.6644
 7166SOL     OW33133   0.296   2.686   7.092 -0.0997  0.0749 -0.0127
 7166SOL    HW133134   0.231   2.723   7.152  0.3115  1.1706 -0.2329
 7166SOL    HW233135   0.247   2.616   7.049 -0.6046  0.4288 -0.0103
 7167SOL     OW33136   3.459   0.348   6.800  0.0281  0.4602 -0.1337
 7167SOL    HW133137   3.400   0.423   6.801  0.8502  1.1128 -0.6555
 7167SOL    HW233138   3.454   0.330   6.894  0.6121  0.9526 -0.0102
 7168SOL     OW33139   3.383   2.671   2.245 -0.6474 -0.3325  0.4236
 7168SOL    HW133140   3.438   2.632   2.312  0.1898  0.6334  0.3009
 7168SOL    HW233141   3.433   2.657   2.164 -0.2958 -0.0275  0.5878
 7169SOL     OW33142   4.638   2.778  17.220 -0.0379 -0.2357 -0.1351
 7169SOL    HW133143   4.633   2.755  17.313 -1.9262  1.2698  0.1508
 7169SOL    HW233144   4.548   2.786  17.187 -0.2363 -2.8838 -0.2222
 7170SOL     OW33145   3.543   1.544   2.594  0.3576  0.4386 -0.2766
 7170SOL    HW133146   3.616   1.581   2.644 -0.8272  1.7607  0.4558
 7170SOL    HW233147   3.543   1.609   2.524 -1.1689  1.4904  0.7064
 7171SOL     OW33148   0.079   0.940   1.507 -0.3377 -0.0319 -0.0299
 7171SOL    HW133149   0.069   1.023   1.554 -0.8816 -0.2864  0.3110
 7171SOL    HW233150   0.071   0.869   1.570 -0.6978  0.0470  0.0176
 7172SOL     OW33151   1.130   3.185   3.847  0.7828  0.9532  1.0177
 7172SOL    HW133152   1.136   3.174   3.942  0.3934 -5.5261  0.2572
 7172SOL    HW233153   1.041   3.157   3.824  2.1780 -1.0553 -1.8537
 7173SOL     OW33154   2.938   3.738  16.092 -0.2328 -0.0753  0.6982
 7173SOL    HW133155   2.996   3.813  16.099 -0.7090  0.0964  2.8924
 7173SOL    HW233156   2.905   3.736  16.182  1.8261  2.5434  1.4939
 7174SOL     OW33157   3.084   2.800   5.095  0.1591  0.1746 -0.3030
 7174SOL    HW133158   3.157   2.840   5.141 -1.2298  2.5577 -0.1671
 7174SOL    HW233159   3.090   2.707   5.118 -3.5081 -0.7255 -3.0189
 7175SOL     OW33160   3.231   1.251   7.894 -0.1215 -0.4591 -0.0317
 7175SOL    HW133161   3.216   1.313   7.822 -0.4699 -0.8092 -0.2614
 7175SOL    HW233162   3.165   1.184   7.877 -1.6464  0.6264  1.6765
 7176SOL     OW33163   3.808   1.954   6.703 -0.4479  0.2927  0.0636
 7176SOL    HW133164   3.849   2.023   6.650  1.2822 -2.2695 -1.9024
 7176SOL    HW233165   3.792   1.885   6.639  0.9344  0.4032 -0.3916
 7177SOL     OW33166   2.475   4.547   9.440 -0.0937 -0.3176  0.1198
 7177SOL    HW133167   2.434   4.466   9.470 -2.5002  1.5571  1.9148
 7177SOL    HW233168   2.540   4.541   9.370  0.6414  2.2798  0.5555
 7178SOL     OW33169   3.886   4.058   7.257  0.2363  0.5075 -0.0739
 7178SOL    HW133170   3.980   4.078   7.263  0.4040  0.4889 -2.5943
 7178SOL    HW233171   3.845   4.141   7.280  3.3317  2.0683 -0.1726
 7179SOL     OW33172   0.062   4.575   5.380  0.1562 -0.5684 -0.9074
 7179SOL    HW133173   0.001   4.526   5.436  1.8987 -3.5135 -1.6111
 7179SOL    HW233174   0.128   4.610   5.439 -0.6548  0.2498 -0.4795
 7180SOL     OW33175   2.687   0.494   0.329  0.1557 -0.0492 -0.0236
 7180SOL    HW133176   2.682   0.421   0.268 -0.1174  1.4656 -1.7992
 7180SOL    HW233177   2.613   0.488   0.390 -1.3449 -1.3691 -1.9911
 7181SOL     OW33178   3.787   0.439   3.905  0.5675  0.1230  0.0690
 7181SOL    HW133179   3.714   0.501   3.910 -0.7745 -1.3262 -1.4106
 7181SOL    HW233180   3.846   0.498   3.951  1.2075 -0.4741  0.0110
 7182SOL     OW33181   3.247   4.503   2.966 -0.3111  0.2053  0.4984
 7182SOL    HW133182   3.302   4.441   2.919 -1.0824  0.8047 -1.1710
 7182SOL    HW233183   3.193   4.528   2.891 -1.1101 -1.0820  0.6437
 7183SOL     OW33184   4.710   0.485   6.434  0.0945 -0.2004  0.2922
 7183SOL    HW133185   4.697   0.577   6.457 -1.0759  0.1804 -1.8524
 7183SOL    HW233186   4.708   0.491   6.338 -2.8120  0.9952  0.4336
 7184SOL     OW33187   1.412   4.133   0.601 -0.2023 -0.1662 -0.0727
 7184SOL    HW133188   1.407   4.229   0.600 -1.4150 -0.2446 -1.5082
 7184SOL    HW233189   1.350   4.114   0.671 -2.7429  1.7311 -1.8069
 7185SOL     OW33190   3.668   3.864   4.466 -0.0785 -0.2010 -0.0292
 7185SOL    HW133191   3.655   3.945   4.515 -2.1698  0.6561 -1.9706
 7185SOL    HW233192   3.654   3.796   4.532 -1.7728  2.1337  1.9989
 7186SOL     OW33193   0.133   4.001  11.594  0.1712 -0.4533 -0.0149
 7186SOL    HW133194   0.080   3.941  11.541 -2.2678  0.9417  0.8478
 7186SOL    HW233195   0.065   4.061  11.625 -0.1558 -2.1817  2.6645
 7187SOL     OW33196   2.201   3.020  11.385 -0.0253 -0.3883  0.2723
 7187SOL    HW133197   2.214   3.109  11.419 -1.4199  0.4102 -1.2890
 7187SOL    HW233198   2.277   2.969  11.412 -0.3147 -0.6563  0.5685
 7188SOL     OW33199   1.638   1.658   7.133  0.0048 -0.5283  0.7276
 7188SOL    HW133200   1.673   1.731   7.184  0.2974  0.6605 -1.1655
 7188SOL    HW233201   1.550   1.652   7.170 -0.0912 -1.8990  0.2864
 7189SOL     OW33202   0.953   3.278   7.916  0.2249 -0.0090  0.4050
 7189SOL    HW133203   1.017   3.214   7.948  1.0799 -0.3972 -2.1140
 7189SOL    HW233204   0.891   3.217   7.875 -1.1318 -1.4349  4.5593
 7190SOL     OW33205   0.399   0.629   5.564  0.5801  0.6890 -0.2135
 7190SOL    HW133206   0.376   0.569   5.635 -0.3096  1.1242 -0.1385
 7190SOL    HW233207   0.320   0.676   5.538 -0.1281 -0.5958 -0.4295
 7191SOL     OW33208   1.598   1.896   4.456  0.4783  0.3642 -0.4443
 7191SOL    HW133209   1.569   1.954   4.526 -1.0144  0.3843 -1.0593
 7191SOL    HW233210   1.546   1.817   4.471  0.0052  0.6184 -0.7220
 7192SOL     OW33211   3.267   4.188   6.891 -0.3007 -0.2293 -0.2697
 7192SOL    HW133212   3.191   4.241   6.915  0.5176  0.5229  0.6825
 7192SOL    HW233213   3.261   4.213   6.799 -0.8921  0.7403  0.0316
 7193SOL     OW33214   2.292   1.225   5.033  0.4478  0.2163 -0.3579
 7193SOL    HW133215   2.225   1.250   5.097  1.5755  1.7490  0.2216
 7193SOL    HW233216   2.373   1.226   5.084 -0.0201 -4.1387  0.4652
 7194SOL     OW33217   0.696   1.373  12.159  0.3183 -0.0675  0.5250
 7194SOL    HW133218   0.634   1.428  12.111  1.0394  0.5476  0.2918
 7194SOL    HW233219   0.733   1.432  12.225  2.0592 -0.2202 -0.2966
 7195SOL     OW33220   4.319   2.333   5.495  0.2220 -0.1926 -0.5974
 7195SOL    HW133221   4.381   2.266   5.525  0.6641  0.9876  1.1412
 7195SOL    HW233222   4.372   2.410   5.513 -1.1992  0.6520 -0.0387
 7196SOL     OW33223   1.863   4.237  14.120  0.4763  0.1098 -0.0714
 7196SOL    HW133224   1.846   4.256  14.028  1.8313 -0.6810 -0.4783
 7196SOL    HW233225   1.810   4.307  14.159 -0.7185 -0.3196 -0.9546
 7197SOL     OW33226   0.307   2.182   2.112  0.2770 -0.3908 -0.0936
 7197SOL    HW133227   0.306   2.145   2.201  1.4760 -0.4476 -0.1019
 7197SOL    HW233228   0.217   2.210   2.094 -0.1122 -1.1532  0.6828
 7198SOL     OW33229   4.567   0.596  14.856 -0.1352  0.4271 -0.0155
 7198SOL    HW133230   4.488   0.547  14.878  0.5333 -1.0330 -0.9274
 7198SOL    HW233231   4.606   0.542  14.788  3.7626  2.1205  0.8722
 7199SOL     OW33232   0.931   3.427   6.484 -0.3351  0.4577  0.7585
 7199SOL    HW133233   0.918   3.447   6.576 -1.1221 -0.5302  0.8636
 7199SOL    HW233234   0.852   3.374   6.473  0.8908 -1.4039  0.8320
 7200SOL     OW33235   0.091   0.150   7.720  0.0400  0.1731  0.2686
 7200SOL    HW133236   0.020   0.117   7.665  0.0812  0.2202  0.1863
 7200SOL    HW233237   0.163   0.108   7.673  0.4344  1.0342  0.0971
 7201SOL     OW33238   1.678   3.287   9.285 -0.2749 -0.3519 -0.6933
 7201SOL    HW133239   1.664   3.375   9.319 -1.1233 -1.5981  2.2429
 7201SOL    HW233240   1.586   3.260   9.279  0.3372 -2.5431 -0.3383
 7202SOL     OW33241   3.067   0.555  16.158 -0.7999 -0.0379 -0.0810
 7202SOL    HW133242   3.014   0.634  16.156 -1.0571 -0.1700  1.2039
 7202SOL    HW233243   3.061   0.528  16.067 -0.1793  0.7717 -0.3660
 7203SOL     OW33244   4.713   4.076   9.495 -0.0194  0.4421  0.5061
 7203SOL    HW133245   4.701   4.021   9.573  0.5944  0.1852  0.4269
 7203SOL    HW233246   0.066   4.106   9.499 -0.2078  1.3395 -1.8410
 7204SOL     OW33247   3.877   2.346  12.649 -0.4433 -0.0977  0.4715
 7204SOL    HW133248   3.942   2.282  12.622 -0.4330  0.2140 -0.2505
 7204SOL    HW233249   3.915   2.368  12.733  0.3509  0.1856  0.0386
 7205SOL     OW33250   1.923   4.379  10.741  0.1861 -0.8847 -0.2089
 7205SOL    HW133251   1.993   4.416  10.688 -0.0067  0.5712  0.5622
 7205SOL    HW233252   1.977   4.357  10.817  2.2313  1.4201 -1.0060
 7206SOL     OW33253   1.467   2.174  11.814 -0.5515  0.1829 -0.3665
 7206SOL    HW133254   1.519   2.161  11.735  1.6103 -1.3907  1.3275
 7206SOL    HW233255   1.526   2.187  11.888 -0.3121 -0.6348 -0.4174
 7207SOL     OW33256   3.567   4.229   3.115 -0.5664 -0.4644  0.0689
 7207SOL    HW133257   3.529   4.145   3.140  1.2945 -0.7221  2.0621
 7207SOL    HW233258   3.649   4.203   3.073  0.3764 -2.4311  3.0947
 7208SOL     OW33259   3.875   1.589  10.872  0.2127  0.3659 -0.3086
 7208SOL    HW133260   3.895   1.617  10.782 -0.6514 -0.2429 -0.6793
 7208SOL    HW233261   3.894   1.678  10.903 -0.8773 -0.0167  1.4330
 7209SOL     OW33262   1.449   0.675   3.068  0.3600 -0.0147 -0.4814
 7209SOL    HW133263   1.402   0.756   3.048 -1.1317 -0.5971  0.6906
 7209SOL    HW233264   1.497   0.658   2.987  0.1570 -1.2905 -0.3297
 7210SOL     OW33265   0.959   1.231   9.676  0.4180  0.7665  0.5712
 7210SOL    HW133266   0.879   1.278   9.655 -1.6279 -2.2582  1.6928
 7210SOL    HW233267   1.001   1.271   9.599  0.6804 -0.7099 -0.0718
 7211SOL     OW33268   3.215   2.734   3.236  0.5146  0.4190 -0.0779
 7211SOL    HW133269   3.247   2.650   3.270 -1.2959 -0.6332 -0.9643
 7211SOL    HW233270   3.281   2.753   3.170  0.1614 -1.6248 -1.0192
 7212SOL     OW33271   3.993   4.432   7.139  0.6343  0.7117 -0.3250
 7212SOL    HW133272   4.042   4.506   7.176  1.8214 -0.7925  1.1226
 7212SOL    HW233273   4.038   4.415   7.056  0.5147  0.3213 -0.3116
 7213SOL     OW33274   2.307   1.962  11.190 -0.3929 -0.0947 -1.1529
 7213SOL    HW133275   2.359   2.026  11.238 -1.2687  0.9718 -1.6156
 7213SOL    HW233276   2.283   1.889  11.247  1.2189 -0.1676 -0.5673
 7214SOL     OW33277   2.434   1.207  16.043 -0.9148 -0.9087  0.0943
 7214SOL    HW133278   2.374   1.217  16.117  2.9414  1.7923  2.8151
 7214SOL    HW233279   2.498   1.144  16.076  1.9188  3.1640  2.3794
 7215SOL     OW33280   0.874   4.609   6.739  0.1015  0.0427  0.0598
 7215SOL    HW133281   0.875   4.531   6.794  0.3101  0.0104  0.0103
 7215SOL    HW233282   0.965   4.638   6.745 -0.3966  1.6342 -0.0204
 7216SOL     OW33283   3.062   4.099   1.668 -0.0390 -0.8174 -0.2407
 7216SOL    HW133284   3.094   4.014   1.698  2.2681 -0.3158 -1.2092
 7216SOL    HW233285   3.085   4.096   1.574  3.0287 -0.3302  0.4745
 7217SOL     OW33286   0.049   2.441  16.195  0.4205 -0.0734 -0.1886
 7217SOL    HW133287   0.134   2.482  16.182  0.9850 -1.0008  0.6030
 7217SOL    HW233288   0.075   2.351  16.211 -0.8483 -0.2267  1.0466
 7218SOL     OW33289   2.369   0.249  17.485  0.6973 -0.3711 -0.0942
 7218SOL    HW133290   2.299   0.253  17.550  0.3508 -0.1865 -0.4776
 7218SOL    HW233291   2.327   0.252  17.399 -0.6123  1.7058  0.6233
 7219SOL     OW33292   4.407   2.110  16.472 -0.0513 -0.0440 -0.0426
 7219SOL    HW133293   4.501   2.095  16.482 -0.2933 -0.7678  1.2083
 7219SOL    HW233294   4.391   2.128  16.379  2.4255  0.5459 -0.3515
 7220SOL     OW33295   0.242   0.303  15.563  0.0871 -0.0024 -0.2552
 7220SOL    HW133296   0.178   0.280  15.631 -2.1186 -0.1401 -2.3764
 7220SOL    HW233297   0.237   0.237  15.494  1.2291  1.1468 -1.4340
 7221SOL     OW33298   0.757   3.424  16.951 -0.5585 -0.0607 -0.4605
 7221SOL    HW133299   0.834   3.379  16.987  0.6388  2.3515 -0.0515
 7221SOL    HW233300   0.753   3.501  17.008 -0.8407 -0.5264  0.1511
 7222SOL     OW33301   1.857   3.774   7.185  0.5364  0.5288  0.6765
 7222SOL    HW133302   1.897   3.736   7.107 -0.3568 -0.2595  0.6031
 7222SOL    HW233303   1.819   3.848   7.138  1.4077 -0.0697 -0.9753
 7223SOL     OW33304   2.582   0.781  14.158  0.0931 -0.4975 -0.2933
 7223SOL    HW133305   2.674   0.796  14.176 -0.1264  0.7279 -0.2236
 7223SOL    HW233306   2.558   0.861  14.112  0.9171 -0.3793 -0.5089
 7224SOL     OW33307   3.957   2.389   4.787 -0.1924 -0.3575 -0.3438
 7224SOL    HW133308   3.956   2.466   4.729  0.4275  1.3258  1.8811
 7224SOL    HW233309   3.907   2.419   4.863 -2.8641 -1.2218 -1.7431
 7225SOL     OW33310   3.535   1.726   5.271  0.1409  0.2618 -0.0460
 7225SOL    HW133311   3.584   1.732   5.353  2.6561  0.4133 -1.5885
 7225SOL    HW233312   3.444   1.719   5.302  0.5692  0.6526  1.2882
 7226SOL     OW33313   3.278   4.556   7.743  1.1105  0.4663  0.3079
 7226SOL    HW133314   3.294   4.483   7.684  1.1425 -0.9097  2.0235
 7226SOL    HW233315   3.182   4.563   7.745  1.0866 -0.2884  1.9013
 7227SOL     OW33316   3.319   4.563   8.518  0.5970  0.6004  0.3873
 7227SOL    HW133317   3.288   4.653   8.516 -2.4981 -0.4607  0.0532
 7227SOL    HW233318   3.256   4.537   8.451  1.6762  2.5760 -1.3619
 7228SOL     OW33319   1.986   3.463   1.845  0.0202 -0.3578 -0.3743
 7228SOL    HW133320   1.997   3.506   1.930 -1.0911  0.5683 -0.7069
 7228SOL    HW233321   1.927   3.395   1.877 -0.3543 -0.4766 -1.3297
 7229SOL     OW33322   3.243   0.770   4.258  0.1885 -0.5686 -0.2830
 7229SOL    HW133323   3.287   0.785   4.342 -0.6424  2.1055 -0.3198
 7229SOL    HW233324   3.255   0.854   4.214 -1.4850  0.7907  1.8644
 7230SOL     OW33325   4.199   4.079   1.980 -0.1570  0.1679  0.1396
 7230SOL    HW133326   4.240   4.049   1.899  1.0329  0.0872  0.7668
 7230SOL    HW233327   4.279   4.110   2.023  0.7831 -1.8303 -0.1640
 7231SOL     OW33328   0.532   3.715   4.808 -0.7654 -0.3959 -0.4292
 7231SOL    HW133329   0.577   3.770   4.744 -1.8483 -0.3324 -1.1453
 7231SOL    HW233330   0.470   3.680   4.744 -1.4169  0.0180 -0.0277
 7232SOL     OW33331   0.596   1.654   3.739  0.0943  0.0185 -0.2075
 7232SOL    HW133332   0.545   1.698   3.671 -0.8383  1.4954  1.4291
 7232SOL    HW233333   0.574   1.561   3.735 -2.2828  0.5775 -0.0170
 7233SOL     OW33334   1.565   3.608  17.649 -0.2380  0.3075  0.4683
 7233SOL    HW133335   1.561   3.692  17.602 -1.2700 -0.9129 -1.6578
 7233SOL    HW233336   1.660   3.599  17.652 -0.3077 -0.1736  1.0493
 7234SOL     OW33337   2.671   1.346   5.479  0.0423 -0.4658 -0.4385
 7234SOL    HW133338   2.592   1.388   5.448  0.2894  1.5590  1.6769
 7234SOL    HW233339   2.634   1.283   5.541 -2.7858 -0.0195 -1.7152
 7235SOL     OW33340   2.302   1.874   1.720 -0.2371 -0.7221 -0.1675
 7235SOL    HW133341   2.383   1.859   1.770 -0.3821 -1.0072 -0.0176
 7235SOL    HW233342   2.253   1.945   1.761  0.1765 -1.5641  1.7961
 7236SOL     OW33343   1.276   2.046   8.724 -0.1252  0.2961  0.3950
 7236SOL    HW133344   1.268   2.085   8.637 -0.5146  1.6832  1.0442
 7236SOL    HW233345   1.310   2.121   8.774 -0.8670  0.7999  0.1465
 7237SOL     OW33346   2.535   3.951   5.968  0.2496  0.1585  0.4853
 7237SOL    HW133347   2.529   3.912   5.881 -0.6204  0.8486  0.2391
 7237SOL    HW233348   2.574   4.035   5.945  2.1184 -1.0485 -0.8195
 7238SOL     OW33349   0.806   1.630   8.440  0.0881 -0.1301 -0.0443
 7238SOL    HW133350   0.856   1.675   8.507 -1.0047 -0.1271  0.7641
 7238SOL    HW233351   0.721   1.675   8.437 -0.5297 -1.1820  1.7204
 7239SOL     OW33352   3.163   4.643   2.569 -0.0557 -0.3409 -0.0704
 7239SOL    HW133353   3.190   4.585   2.497 -2.1645 -1.2871 -0.0857
 7239SOL    HW233354   3.147   4.717   2.511 -0.9422 -0.8843 -0.5113
 7240SOL     OW33355   1.097   2.447   6.275 -0.3456 -0.7184 -0.3818
 7240SOL    HW133356   1.189   2.472   6.269 -0.6866  0.2194 -1.8152
 7240SOL    HW233357   1.058   2.529   6.307 -0.9436 -0.2345 -2.3334
 7241SOL     OW33358   2.736   3.309  10.305 -0.4135 -0.0104  0.2210
 7241SOL    HW133359   2.786   3.230  10.286  0.6773  0.8736 -0.5628
 7241SOL    HW233360   2.647   3.277  10.317 -1.0632  2.1889  1.3167
 7242SOL     OW33361   2.948   2.022   1.444  0.3932  0.0259  0.1202
 7242SOL    HW133362   2.900   1.942   1.423 -1.3660  1.1515 -0.1371
 7242SOL    HW233363   2.888   2.083   1.402 -0.7442 -0.8072  0.5216
 7243SOL     OW33364   0.198   1.846   8.217 -0.1301  0.0961 -0.3517
 7243SOL    HW133365   0.173   1.773   8.160  0.3064 -1.4474  1.4305
 7243SOL    HW233366   0.116   1.856   8.265 -0.5514  1.4804 -1.3809
 7244SOL     OW33367   1.956   3.121  11.197 -0.5033  0.0579 -0.3077
 7244SOL    HW133368   1.972   3.192  11.135 -2.9835  0.3920 -0.5808
 7244SOL    HW233369   1.907   3.158  11.270  1.0563  0.9990  0.2617
 7245SOL     OW33370   2.936   2.986   4.180 -0.1787  0.0840  0.2160
 7245SOL    HW133371   2.938   2.990   4.084 -0.4337 -2.3037  0.1191
 7245SOL    HW233372   2.850   2.945   4.186 -0.8796  1.3072 -1.3734
 7246SOL     OW33373   2.660   0.832   7.716  0.1763  0.3684 -0.0999
 7246SOL    HW133374   2.669   0.849   7.622  3.3940 -1.7915 -0.1976
 7246SOL    HW233375   2.664   0.921   7.749 -0.0654  0.4761 -0.3651
 7247SOL     OW33376   2.205   0.970  10.591 -0.0300 -0.2669 -0.7729
 7247SOL    HW133377   2.164   0.989  10.507  0.6336 -0.6969 -1.1894
 7247SOL    HW233378   2.249   1.054  10.605 -0.9478  0.1781 -0.5932
 7248SOL     OW33379   1.331   2.101  15.922  0.5805 -0.1712 -0.9395
 7248SOL    HW133380   1.307   2.027  15.866 -2.3275  0.1700 -0.1365
 7248SOL    HW233381   1.424   2.097  15.899  0.9982 -0.4925  0.7667
 7249SOL     OW33382   0.493   2.457   0.610 -0.0052  0.5480  0.1313
 7249SOL    HW133383   0.463   2.481   0.522  1.4379  0.5421 -0.3638
 7249SOL    HW233384   0.422   2.397   0.633 -0.2373  1.6615  2.2742
 7250SOL     OW33385   4.362   3.660  17.461 -0.1010  0.6386 -0.4386
 7250SOL    HW133386   4.347   3.712  17.540  0.4610 -0.9801  0.7374
 7250SOL    HW233387   4.341   3.717  17.388  2.0774  0.9201 -0.8195
 7251SOL     OW33388   0.258   1.517   8.771 -0.2479 -0.1870  0.1633
 7251SOL    HW133389   0.262   1.612   8.763  0.6937 -0.2118  0.4204
 7251SOL    HW233390   0.331   1.493   8.715 -0.7517  1.3520 -1.1520
 7252SOL     OW33391   2.224   0.377  14.650  0.2835  0.3516 -0.6019
 7252SOL    HW133392   2.131   0.377  14.628 -0.1652  1.2756  1.2002
 7252SOL    HW233393   2.246   0.287  14.629 -0.4187 -0.3289  1.5258
 7253SOL     OW33394   0.253   1.522  16.033 -0.2233 -0.1290 -0.1703
 7253SOL    HW133395   0.222   1.600  16.079 -0.2297 -1.5368  2.2191
 7253SOL    HW233396   0.311   1.558  15.967  0.5609 -0.8416  0.1265
 7254SOL     OW33397   2.634   0.721   2.076  0.5810  0.0636 -0.1720
 7254SOL    HW133398   2.724   0.755   2.081  0.6555 -0.5205  2.4480
 7254SOL    HW233399   2.594   0.764   2.151 -0.6669  1.7060 -1.8051
 7255SOL     OW33400   2.025   0.211   2.874  0.5322 -0.5087  0.5706
 7255SOL    HW133401   2.003   0.272   2.944 -1.6436 -0.5735 -0.0664
 7255SOL    HW233402   2.085   0.151   2.918  0.7059  0.4882  1.6918
 7256SOL     OW33403   0.265   1.558   0.669  0.0725  0.1377  0.3430
 7256SOL    HW133404   0.212   1.580   0.592  0.1666  0.4504  0.3676
 7256SOL    HW233405   0.278   1.650   0.693 -1.1481  0.6151 -0.8225
 7257SOL     OW33406   1.288   3.381  10.930  0.2997  0.0759 -0.2257
 7257SOL    HW133407   1.337   3.355  11.008 -0.9982 -0.5276  0.3957
 7257SOL    HW233408   1.334   3.463  10.910  0.9312  0.1302  1.4444
 7258SOL     OW33409   3.726   1.598   4.607 -0.5246 -0.5197  0.2595
 7258SOL    HW133410   3.641   1.622   4.643 -0.5348 -0.6510  0.3253
 7258SOL    HW233411   3.778   1.600   4.687  0.7559  0.1907 -0.6034
 7259SOL     OW33412   1.895   3.092  12.748 -0.0673 -0.2022  0.0481
 7259SOL    HW133413   1.863   3.092  12.657 -0.1622 -1.1886  0.0789
 7259SOL    HW233414   1.861   3.006  12.773 -2.6572  1.3393  1.8668
 7260SOL     OW33415   0.870   4.162   2.696 -0.7738  0.1630  0.1101
 7260SOL    HW133416   0.902   4.229   2.756 -2.0882 -0.4124  1.4329
 7260SOL    HW233417   0.951   4.152   2.646 -2.6910  2.1945 -3.3937
 7261SOL     OW33418   3.522   3.633   5.462  0.4655  0.0807 -0.1610
 7261SOL    HW133419   3.471   3.554   5.441 -2.1511  1.2913  1.5607
 7261SOL    HW233420   3.463   3.708   5.460 -1.1455 -1.2038 -1.0525
 7262SOL     OW33421   3.849   3.587   0.270  0.3416  0.1603 -0.0643
 7262SOL    HW133422   3.865   3.583   0.364  0.1161 -0.2048 -0.0396
 7262SOL    HW233423   3.830   3.499   0.237 -2.1844  0.2996  0.9753
 7263SOL     OW33424   1.563   0.354  12.882 -0.4229 -0.3848  0.6892
 7263SOL    HW133425   1.481   0.367  12.928 -1.2488 -0.7361 -0.6813
 7263SOL    HW233426   1.564   0.264  12.851 -4.0099 -0.2334  0.1520
 7264SOL     OW33427   3.010   2.093   6.366 -0.5379 -0.5745 -0.0164
 7264SOL    HW133428   2.945   2.084   6.296 -1.7359  0.9791  0.8998
 7264SOL    HW233429   2.969   2.152   6.429  2.9376  0.6867  1.0627
 7265SOL     OW33430   0.511   0.169   4.045 -0.3755 -0.2080 -0.0745
 7265SOL    HW133431   0.498   0.140   3.955 -1.0305 -0.9898  0.2711
 7265SOL    HW233432   0.540   0.083   4.076  0.2402 -0.3942 -1.1507
 7266SOL     OW33433   1.935   4.428   8.285  0.3681 -0.0717 -0.6479
 7266SOL    HW133434   2.005   4.484   8.317 -0.0406 -0.8576  1.5607
 7266SOL    HW233435   1.883   4.482   8.225  0.4921 -2.1464 -2.6337
 7267SOL     OW33436   0.069   0.392  15.993  0.4098  0.1522  0.1305
 7267SOL    HW133437   0.030   0.473  16.025 -0.2440  0.5682 -1.7037
 7267SOL    HW233438   0.032   0.325  16.050  2.4245 -0.1042  1.1572
 7268SOL     OW33439   1.196   0.653   6.419 -0.1416  0.1763  0.0270
 7268SOL    HW133440   1.217   0.622   6.507  0.0314 -1.3536 -0.5603
 7268SOL    HW233441   1.280   0.641   6.375 -1.4397 -2.1935 -1.8065
 7269SOL     OW33442   1.337   3.392   8.058  0.0058 -0.3340  0.0892
 7269SOL    HW133443   1.419   3.392   8.008 -0.3177  1.2175 -0.4319
 7269SOL    HW233444   1.279   3.346   7.998  1.1511  0.5642 -1.6980
 7270SOL     OW33445   0.274   2.042   0.411  0.1964 -0.0179 -0.5572
 7270SOL    HW133446   0.178   2.038   0.414  0.1814 -0.1373 -1.1662
 7270SOL    HW233447   0.305   1.952   0.403 -0.9110 -0.1874 -3.0583
 7271SOL     OW33448   3.859   0.775   3.938 -0.2369  0.0153  0.2656
 7271SOL    HW133449   3.821   0.808   4.019  0.3081 -0.1092  0.5696
 7271SOL    HW233450   3.779   0.753   3.890  0.6025  1.3125 -1.7090
 7272SOL     OW33451   2.391   2.856   2.378 -0.0424  0.8450  0.1107
 7272SOL    HW133452   2.413   2.894   2.293  0.6707 -0.8863 -0.4795
 7272SOL    HW233453   2.476   2.825   2.408  0.1292  1.9085  0.7045
 7273SOL     OW33454   3.840   2.748   2.366 -0.3910  0.6432  0.1144
 7273SOL    HW133455   3.928   2.762   2.401 -0.9182 -3.9664  3.2019
 7273SOL    HW233456   3.856   2.658   2.340  0.7190  0.5810  1.0337
 7274SOL     OW33457   1.312   3.213   2.105 -0.8084  0.0736  0.2636
 7274SOL    HW133458   1.278   3.135   2.149 -0.9252  0.7370  1.3278
 7274SOL    HW233459   1.236   3.259   2.070 -0.3886 -0.2830 -1.1412
 7275SOL     OW33460   3.645   4.267  14.418  0.9390 -0.1290  0.1414
 7275SOL    HW133461   3.696   4.245  14.340 -1.2951  0.4789 -1.4818
 7275SOL    HW233462   3.629   4.176  14.445 -1.8006  0.3587  0.1794
 7276SOL     OW33463   1.241   3.525   6.541  0.1177 -0.4334 -0.7734
 7276SOL    HW133464   1.267   3.585   6.471 -1.4990  0.3302 -0.7140
 7276SOL    HW233465   1.279   3.573   6.615  0.5957 -1.3814 -0.4096
 7277SOL     OW33466   4.624   0.973   2.544  0.2498  0.4026  0.3208
 7277SOL    HW133467   4.533   0.976   2.576 -0.2170 -0.8452 -0.8964
 7277SOL    HW233468   4.624   1.051   2.488  1.3265  0.7126  0.7578
 7278SOL     OW33469   3.122   4.384  16.312 -0.4278  0.3836 -0.4000
 7278SOL    HW133470   3.096   4.371  16.403 -0.5849  0.5815 -0.4173
 7278SOL    HW233471   3.041   4.354  16.272  0.6405 -2.4535 -0.4512
 7279SOL     OW33472   4.541   3.488   9.087 -0.1515  0.4333 -0.1368
 7279SOL    HW133473   4.521   3.536   9.167 -2.0549 -0.5306 -0.0294
 7279SOL    HW233474   4.613   3.430   9.112  1.8381  3.4612  1.0936
 7280SOL     OW33475   0.430   1.879   4.855  0.4444  0.4629  0.2999
 7280SOL    HW133476   0.456   1.812   4.918  0.3797  1.4661  1.3822
 7280SOL    HW233477   0.374   1.935   4.908  1.1163  1.2961  0.1208
 7281SOL     OW33478   1.328   1.387  11.654  0.3865  0.1925  0.1783
 7281SOL    HW133479   1.359   1.301  11.625  1.1473 -0.1285  1.9254
 7281SOL    HW233480   1.362   1.440  11.582  1.5306  1.4861  1.6573
 7282SOL     OW33481   1.985   2.802  11.383 -0.3638  0.1643 -0.2737
 7282SOL    HW133482   1.981   2.860  11.459  0.7822 -1.4837  1.0180
 7282SOL    HW233483   1.899   2.762  11.389 -1.2541  2.4437  2.2599
 7283SOL     OW33484   0.463   4.231   5.180 -0.5160 -0.1988  0.1433
 7283SOL    HW133485   0.441   4.172   5.253  0.5555 -0.3339  0.3469
 7283SOL    HW233486   0.489   4.312   5.224  1.6556 -0.2941 -0.9788
 7284SOL     OW33487   0.127   3.485  12.764 -1.1215  0.4268 -0.6555
 7284SOL    HW133488   0.150   3.456  12.676  0.4999  0.2809 -0.1865
 7284SOL    HW233489   0.120   3.397  12.802 -0.4592 -0.0305 -1.5913
 7285SOL     OW33490   4.413   0.478   7.196 -0.1546  0.2420  0.0228
 7285SOL    HW133491   4.487   0.443   7.246  0.3404 -1.9758 -2.2273
 7285SOL    HW233492   4.447   0.484   7.106 -1.5798 -1.7246 -0.6405
 7286SOL     OW33493   3.581   3.160   5.930  0.1221 -0.3640 -0.5593
 7286SOL    HW133494   3.508   3.113   5.969  0.5530 -0.4550  0.1267
 7286SOL    HW233495   3.597   3.235   5.988  1.5878  0.5786 -2.1664
 7287SOL     OW33496   0.917   0.488   3.694 -0.5044  0.1342  0.0408
 7287SOL    HW133497   0.836   0.439   3.688 -0.5739  0.0025  1.8846
 7287SOL    HW233498   0.890   0.571   3.654  0.8176 -0.0032 -1.1347
 7288SOL     OW33499   3.624   0.192  14.073 -0.0573 -0.4684 -0.2481
 7288SOL    HW133500   3.672   0.120  14.113 -0.4182 -1.2608 -1.2290
 7288SOL    HW233501   3.686   0.226  14.008 -1.5048  3.8185  0.6166
 7289SOL     OW33502   1.609   3.645   6.453 -0.1264 -0.2010 -0.0276
 7289SOL    HW133503   1.612   3.594   6.534  0.2397 -0.0593  0.0467
 7289SOL    HW233504   1.515   3.660   6.441 -0.0616 -0.5082 -0.8780
 7290SOL     OW33505   2.049   4.611   3.261 -0.2858  0.4808 -0.7501
 7290SOL    HW133506   2.069   4.530   3.307 -1.1752  0.1242 -0.9960
 7290SOL    HW233507   1.963   4.588   3.225  0.7253 -1.6243 -1.8134
 7291SOL     OW33508   1.540   0.882   2.064 -0.2188  0.1916 -0.7506
 7291SOL    HW133509   1.497   0.881   2.149 -1.0163  2.5381 -1.1215
 7291SOL    HW233510   1.543   0.788   2.050  0.5885 -0.1732  1.8948
 7292SOL     OW33511   3.924   1.665   4.779 -0.0352 -0.1336  0.3670
 7292SOL    HW133512   4.018   1.647   4.771 -0.0226  0.0099  0.1992
 7292SOL    HW233513   3.924   1.757   4.802 -0.6657  0.0613 -0.4230
 7293SOL     OW33514   3.131   1.073  12.925  0.5089 -0.2423  0.2217
 7293SOL    HW133515   3.103   1.003  12.985 -0.4453 -0.7197 -0.7885
 7293SOL    HW233516   3.043   1.110  12.916 -0.0396 -1.4086  0.6256
 7294SOL     OW33517   2.127   3.755   3.028 -0.3848  0.0180  0.2240
 7294SOL    HW133518   2.043   3.710   3.038 -0.1213 -0.5094  0.0356
 7294SOL    HW233519   2.101   3.827   2.969  1.1971  1.4246  1.2493
 7295SOL     OW33520   2.505   1.587   3.232 -0.0708  0.1002 -0.3799
 7295SOL    HW133521   2.440   1.553   3.293 -0.1879  1.2047  0.1180
 7295SOL    HW233522   2.505   1.682   3.243  0.6182  0.1838 -1.1548
 7296SOL     OW33523   2.803   0.033   6.535 -0.0631  0.9480  0.3750
 7296SOL    HW133524   2.851   0.112   6.513 -0.5545  1.3935  0.9203
 7296SOL    HW233525   2.873   4.706   6.548 -0.8450  0.0980  0.4241
 7297SOL     OW33526   2.853   2.704   8.998 -0.2776  0.1781  0.1727
 7297SOL    HW133527   2.945   2.726   8.982  0.5590 -1.7933  2.3195
 7297SOL    HW233528   2.817   2.791   8.984 -0.7622 -0.0059  0.2934
 7298SOL     OW33529   3.680   2.451   3.752  0.3043 -0.5799  0.2353
 7298SOL    HW133530   3.609   2.495   3.704  0.7125 -0.0881  0.0871
 7298SOL    HW233531   3.633   2.375   3.785  1.5179 -1.3448  0.1880
 7299SOL     OW33532   1.406   0.092   9.377 -0.0697  0.0128 -0.1767
 7299SOL    HW133533   1.457   0.173   9.381 -2.5145  1.5405  0.0200
 7299SOL    HW233534   1.467   0.022   9.357  1.9476  0.7397  3.4503
 7300SOL     OW33535   1.883   0.427   2.739  0.1629  0.2654  0.4507
 7300SOL    HW133536   1.830   0.352   2.766 -2.5567  1.8763 -0.4747
 7300SOL    HW233537   1.964   0.379   2.721 -0.1198 -0.1105  0.1726
 7301SOL     OW33538   3.105   1.806   3.041 -0.1280  0.0467 -0.3587
 7301SOL    HW133539   3.145   1.799   3.127 -0.2430 -0.5737 -0.3571
 7301SOL    HW233540   3.078   1.897   3.049 -0.0744 -0.0988  1.4728
 7302SOL     OW33541   3.647   0.650   9.839  0.2113  0.5758  0.3108
 7302SOL    HW133542   3.720   0.601   9.876 -0.8535 -0.3708  1.1769
 7302SOL    HW233543   3.586   0.578   9.821 -0.3757  1.4130 -1.0507
 7303SOL     OW33544   1.520   1.461   2.622  0.1309 -0.5773  0.0628
 7303SOL    HW133545   1.471   1.534   2.660  0.4823 -0.9767  1.3054
 7303SOL    HW233546   1.594   1.460   2.684 -0.1895  2.2163  0.4815
 7304SOL     OW33547   3.765   3.417  16.238  0.9300  0.2508  0.5492
 7304SOL    HW133548   3.700   3.425  16.169 -0.6112  1.5138  2.1582
 7304SOL    HW233549   3.849   3.453  16.208 -0.0067 -0.3586 -2.8160
 7305SOL     OW33550   0.815   1.615  14.759 -0.0143 -0.0895 -0.2539
 7305SOL    HW133551   0.814   1.554  14.833 -1.0171 -0.6422 -0.7259
 7305SOL    HW233552   0.897   1.594  14.714 -1.0462  0.4742 -2.4065
 7306SOL     OW33553   1.916   1.906  11.975 -0.2209  0.0198  0.2759
 7306SOL    HW133554   1.920   1.857  12.057  0.7481 -0.8916 -0.3068
 7306SOL    HW233555   1.824   1.896  11.950  0.1822 -1.4787 -0.5689
 7307SOL     OW33556   1.277   2.908   9.090  0.5257  0.0665 -0.1721
 7307SOL    HW133557   1.249   3.000   9.085  0.2301 -0.0664 -0.9746
 7307SOL    HW233558   1.337   2.913   9.164  0.4852 -2.0206 -0.0015
 7308SOL     OW33559   0.826   1.806   3.387  0.2459  0.7892  0.2870
 7308SOL    HW133560   0.762   1.734   3.385  1.5980 -0.3775 -1.6357
 7308SOL    HW233561   0.803   1.848   3.304 -1.0056 -1.5988 -0.5803
 7309SOL     OW33562   1.306   1.332   2.019  0.4681  0.5286  0.4019
 7309SOL    HW133563   1.301   1.237   2.020  1.5016  0.4762  1.1773
 7309SOL    HW233564   1.268   1.344   1.932  1.4625  0.6004 -0.0246
 7310SOL     OW33565   0.280   1.050   4.837 -0.1410 -0.3555 -0.3725
 7310SOL    HW133566   0.311   1.108   4.906 -1.4502 -2.5687  2.0782
 7310SOL    HW233567   0.271   1.106   4.760 -2.3986 -2.1106 -1.3742
 7311SOL     OW33568   4.726   2.161  17.175 -0.2117 -0.2586 -0.4265
 7311SOL    HW133569   0.072   2.149  17.130  0.3781 -0.9920  0.8876
 7311SOL    HW233570   4.715   2.255  17.164  1.8472  0.0227 -0.0820
 7312SOL     OW33571   0.029   0.345   5.090  0.5026  0.1256 -0.4701
 7312SOL    HW133572   0.053   0.435   5.069  1.1380 -0.8666 -3.9960
 7312SOL    HW233573   0.119   0.316   5.075  0.4520  1.3236 -2.9907
 7313SOL     OW33574   2.706   2.323   8.006 -0.0871 -0.1208  0.0802
 7313SOL    HW133575   2.665   2.389   8.063 -0.2825 -0.5526  0.4370
 7313SOL    HW233576   2.715   2.382   7.932  0.5702  0.7446  0.8393
 7314SOL     OW33577   4.009   3.731   3.756 -0.2349 -0.2745 -0.1176
 7314SOL    HW133578   3.937   3.752   3.816  0.0209  2.0813 -0.6607
 7314SOL    HW233579   4.052   3.816   3.755 -3.1784  1.2671  2.7321
 7315SOL     OW33580   3.935   1.877   8.593 -0.1273  0.1174  0.2222
 7315SOL    HW133581   3.989   1.907   8.520 -2.6452  0.5318 -1.4566
 7315SOL    HW233582   3.880   1.954   8.608 -0.8355 -1.0245  3.5814
 7316SOL     OW33583   2.528   0.463   5.385 -0.3747 -0.1053 -0.2548
 7316SOL    HW133584   2.437   0.455   5.413 -0.1602  0.5317  0.6255
 7316SOL    HW233585   2.552   0.514   5.462  0.3255 -2.0125  0.7841
 7317SOL     OW33586   1.952   1.345   0.954 -0.0267  0.7539 -0.1592
 7317SOL    HW133587   1.906   1.347   1.038 -0.2259  2.2666 -0.3009
 7317SOL    HW233588   1.887   1.300   0.900  0.1479 -0.5007  0.6843
 7318SOL     OW33589   2.366   3.771   3.194  0.1892  0.0376  0.0324
 7318SOL    HW133590   2.298   3.760   3.127  1.0176  0.0362 -0.8127
 7318SOL    HW233591   2.357   3.861   3.224 -0.4619 -0.4474  1.2971
 7319SOL     OW33592   2.403   4.236  15.979 -0.0022 -0.0241  0.0924
 7319SOL    HW133593   2.450   4.154  15.994 -1.1214 -0.8976 -1.0759
 7319SOL    HW233594   2.398   4.244  15.884 -0.9898 -0.7909  0.0779
 7320SOL     OW33595   1.109   1.728   2.561 -0.9107 -0.0114  0.2909
 7320SOL    HW133596   1.144   1.747   2.473 -2.2058  1.4641  0.1128
 7320SOL    HW233597   1.189   1.712   2.612 -1.4763 -0.3277  1.0681
 7321SOL     OW33598   1.098   1.009  13.202  0.0864  0.5695  0.1082
 7321SOL    HW133599   1.089   1.096  13.165  0.7128 -0.0695 -1.5549
 7321SOL    HW233600   1.138   1.032  13.287 -2.0347  1.9006  0.7423
 7322SOL     OW33601   2.247   0.061   8.657  0.1223  0.5852 -0.7157
 7322SOL    HW133602   2.198   0.134   8.696 -1.9960 -1.7359  0.9526
 7322SOL    HW233603   2.172   0.001   8.658 -0.1211  0.8933 -0.3842
 7323SOL     OW33604   2.387   1.346   6.737  0.0725 -0.0944  0.5455
 7323SOL    HW133605   2.418   1.317   6.823 -0.4837 -1.5360  0.2463
 7323SOL    HW233606   2.402   1.266   6.686 -0.1035 -1.3241  2.4344
 7324SOL     OW33607   1.559   4.342  16.919 -0.0561 -0.1448  0.4925
 7324SOL    HW133608   1.593   4.360  17.007  2.9664 -0.1779 -0.6787
 7324SOL    HW233609   1.613   4.266  16.898 -0.1555 -0.7504  2.3615
 7325SOL     OW33610   3.319   3.532  14.783 -0.6747 -0.2730  0.1068
 7325SOL    HW133611   3.358   3.446  14.769 -0.0726 -0.0159  0.2050
 7325SOL    HW233612   3.333   3.546  14.876  3.1679  1.1053 -0.6572
 7326SOL     OW33613   2.254   1.884   3.160 -0.7920 -0.1694 -0.2371
 7326SOL    HW133614   2.201   1.948   3.111 -1.3841 -0.1726  0.4041
 7326SOL    HW233615   2.202   1.877   3.240 -1.4449 -0.3680 -0.6769
 7327SOL     OW33616   2.396   0.393  11.097  0.2140 -0.3242  0.0759
 7327SOL    HW133617   2.316   0.364  11.052  0.0333  1.7652 -0.9579
 7327SOL    HW233618   2.358   0.475  11.128  0.4744  0.4619 -1.6803
 7328SOL     OW33619   1.168   1.679   1.661  0.2638 -0.1141 -0.3653
 7328SOL    HW133620   1.075   1.682   1.681  0.5688 -1.0739  1.2415
 7328SOL    HW233621   1.196   1.766   1.688 -1.2155 -0.4122  2.1282
 7329SOL     OW33622   0.441   3.235   7.857 -0.0235 -0.1224  0.1686
 7329SOL    HW133623   0.427   3.219   7.951  3.5836  0.0038  0.7568
 7329SOL    HW233624   0.455   3.148   7.821  0.9407  0.1393 -0.0978
 7330SOL     OW33625   4.340   3.629   4.219  0.4835 -0.4180 -0.2031
 7330SOL    HW133626   4.301   3.545   4.195  0.7523 -0.9762  1.3036
 7330SOL    HW233627   4.280   3.669   4.283  0.9204 -0.7130  0.3950
 7331SOL     OW33628   1.765   1.657   2.327 -0.3426 -0.1520 -0.3376
 7331SOL    HW133629   1.729   1.743   2.305  0.7983  0.5143  0.4063
 7331SOL    HW233630   1.689   1.606   2.357 -0.8416  0.0679 -1.2172
 7332SOL     OW33631   4.126   2.887  12.285  0.2781  0.3137 -0.0539
 7332SOL    HW133632   4.105   2.863  12.376  0.8411  0.5129  0.1286
 7332SOL    HW233633   4.049   2.852  12.241  0.7740 -0.6606 -0.1682
 7333SOL     OW33634   2.421   1.244   3.571  0.0450 -0.2443  0.5017
 7333SOL    HW133635   2.443   1.160   3.611  0.3712  0.7840  2.4954
 7333SOL    HW233636   2.483   1.304   3.614 -0.8146  1.9420 -1.3116
 7334SOL     OW33637   4.728   0.576   7.145  0.3796 -0.0064 -0.6329
 7334SOL    HW133638   0.024   0.664   7.160  1.9324 -0.6951 -0.0456
 7334SOL    HW233639   4.659   0.592   7.081 -0.6627  1.2707  0.8006
 7335SOL     OW33640   1.558   1.278   9.228  0.5667 -0.1754 -0.4673
 7335SOL    HW133641   1.590   1.350   9.282 -0.3506  0.1458 -0.3416
 7335SOL    HW233642   1.560   1.317   9.141 -1.2462  0.3348 -0.2960
 7336SOL     OW33643   0.208   4.500   7.123  0.0464  0.2795  0.1642
 7336SOL    HW133644   0.302   4.511   7.110  0.0787 -1.0268 -0.6916
 7336SOL    HW233645   0.188   4.446   7.046 -1.4821 -0.1181  0.8428
 7337SOL     OW33646   1.340   1.430   8.649 -0.3307  0.2255  0.3451
 7337SOL    HW133647   1.282   1.437   8.574  0.5794 -0.4286 -0.4193
 7337SOL    HW233648   1.418   1.461   8.604  0.9212 -1.4245  1.3546
 7338SOL     OW33649   3.144   1.268   8.411 -0.2492  0.0995  0.1351
 7338SOL    HW133650   3.227   1.247   8.455 -0.6446 -2.5635 -0.3744
 7338SOL    HW233651   3.176   1.296   8.326  2.2434 -0.9019  0.7201
 7339SOL     OW33652   4.011   0.807   7.853 -0.2319 -0.5226 -0.0004
 7339SOL    HW133653   4.036   0.731   7.800 -0.6230  0.0283 -0.9521
 7339SOL    HW233654   3.938   0.838   7.801 -0.4155  1.5540  1.4833
 7340SOL     OW33655   0.368   2.694   1.683 -0.1775 -0.1316 -0.4650
 7340SOL    HW133656   0.409   2.730   1.604 -0.4475 -0.3362 -0.6992
 7340SOL    HW233657   0.415   2.611   1.674 -1.3050 -0.6956 -1.2518
 7341SOL     OW33658   0.123   3.150  12.674  0.2349 -0.4846  0.1157
 7341SOL    HW133659   0.068   3.156  12.753 -0.2053  0.9773 -0.3089
 7341SOL    HW233660   0.152   3.059  12.679  2.0374  0.0483 -0.6584
 7342SOL     OW33661   3.128   3.055   4.833 -0.2314 -0.0081 -0.2506
 7342SOL    HW133662   3.061   3.006   4.785  0.2644 -1.2454  0.3080
 7342SOL    HW233663   3.149   3.001   4.909  1.1444  0.9863  0.0667
 7343SOL     OW33664   2.888   4.022   9.671  0.4223 -0.7479 -0.2835
 7343SOL    HW133665   2.801   4.020   9.710  1.2383  1.8429  1.6598
 7343SOL    HW233666   2.943   4.052   9.743  0.5245  0.0593 -0.6954
 7344SOL     OW33667   2.973   2.241   9.484 -0.5863  0.2032  0.6636
 7344SOL    HW133668   3.043   2.304   9.501 -0.1550 -0.5336  1.5916
 7344SOL    HW233669   3.018   2.157   9.493  0.3940  0.6706  0.1327
 7345SOL     OW33670   2.276   2.486   7.813 -0.3330  0.2904 -0.4644
 7345SOL    HW133671   2.245   2.569   7.848  0.9834  0.6620 -0.1914
 7345SOL    HW233672   2.312   2.450   7.894 -2.6249 -0.6765  0.1241
 7346SOL     OW33673   4.292   2.911   9.596  0.1509 -0.6048  0.0128
 7346SOL    HW133674   4.198   2.915   9.613  0.3621 -1.8750  1.5072
 7346SOL    HW233675   4.323   2.953   9.676 -0.8012 -0.5980  0.3855
 7347SOL     OW33676   1.029   2.458   8.472 -0.5139  0.1172 -0.2193
 7347SOL    HW133677   1.018   2.463   8.377  1.1948 -0.2704 -0.4446
 7347SOL    HW233678   0.941   2.432   8.496 -1.1081  1.7083 -0.6375
 7348SOL     OW33679   4.263   0.348  11.259  0.1617 -0.3555  0.1081
 7348SOL    HW133680   4.351   0.366  11.291 -0.5481 -0.5622  2.1506
 7348SOL    HW233681   4.253   0.424  11.201  1.1816 -2.0540 -2.2661
 7349SOL     OW33682   3.513   2.853   7.078 -0.4947 -0.4454 -0.0226
 7349SOL    HW133683   3.513   2.759   7.100 -0.8558 -0.1530  1.2178
 7349SOL    HW233684   3.590   2.855   7.023  0.2398 -0.5223  1.0034
 7350SOL     OW33685   1.902   1.345  14.606  0.3366  0.4607  0.4633
 7350SOL    HW133686   1.873   1.316  14.692 -0.7760  1.9427  0.5718
 7350SOL    HW233687   1.871   1.435  14.612  0.3081  0.5227 -0.5374
 7351SOL     OW33688   0.316   1.472   4.742  0.0503  0.7922  0.4578
 7351SOL    HW133689   0.381   1.404   4.722 -1.1934  0.0870 -1.1618
 7351SOL    HW233690   0.326   1.542   4.678 -2.6848 -0.4877 -1.3166
 7352SOL     OW33691   2.942   2.971   3.908 -0.3289  0.3059 -0.7979
 7352SOL    HW133692   3.035   2.951   3.897 -0.3751 -1.8194  2.8078
 7352SOL    HW233693   2.891   2.939   3.833  0.8528 -1.1572 -0.9847
 7353SOL     OW33694   2.785   1.781  13.032  0.2099  0.5706  0.1127
 7353SOL    HW133695   2.759   1.700  13.076  0.7293  1.4919  2.1094
 7353SOL    HW233696   2.798   1.837  13.109  0.0986  0.1042  0.4693
 7354SOL     OW33697   2.516   2.196  17.380  0.9790  0.3778 -0.0880
 7354SOL    HW133698   2.466   2.154  17.311  0.3493  0.4055  0.3448
 7354SOL    HW233699   2.577   2.128  17.408  0.4316 -0.9457 -2.1960
 7355SOL     OW33700   3.143   1.782   2.748 -0.9313  0.5058  0.5787
 7355SOL    HW133701   3.079   1.779   2.819  0.7248 -1.2237  1.9747
 7355SOL    HW233702   3.177   1.869   2.768  1.3994  0.4142 -2.8773
 7356SOL     OW33703   0.698   3.769  16.894  0.0614 -0.2729 -0.8130
 7356SOL    HW133704   0.766   3.754  16.828  1.6112 -1.7782  1.1443
 7356SOL    HW233705   0.735   3.732  16.974 -0.6055 -0.3729 -0.5500
 7357SOL     OW33706   1.862   1.790   5.738  0.0864  0.2520  0.4161
 7357SOL    HW133707   1.954   1.774   5.755  0.5787  3.1060  0.5154
 7357SOL    HW233708   1.839   1.697   5.734  0.4601  0.2484 -1.5260
 7358SOL     OW33709   0.161   3.159   0.265  0.0869  0.5757  0.5356
 7358SOL    HW133710   0.133   3.124   0.180 -1.7996  1.2346  0.8682
 7358SOL    HW233711   0.106   3.110   0.327  1.1333  0.2848  1.2211
 7359SOL     OW33712   4.142   1.177   6.103  0.0841 -0.2294 -0.4609
 7359SOL    HW133713   4.181   1.095   6.072  0.3768  0.7004 -2.5508
 7359SOL    HW233714   4.194   1.246   6.062  0.1638  0.2295  0.4145
 7360SOL     OW33715   2.903   1.019   8.026  0.0493 -0.0645 -0.5428
 7360SOL    HW133716   2.970   0.992   7.963  0.0096 -0.9946 -0.1837
 7360SOL    HW233717   2.821   0.999   7.982 -0.4783 -1.2681  0.9827
 7361SOL     OW33718   4.557   3.890   7.098 -0.5218  0.0043 -0.1843
 7361SOL    HW133719   4.583   3.798   7.091  0.8085  0.3231  0.5054
 7361SOL    HW233720   4.513   3.873   7.182 -1.2202  2.9684  0.0620
 7362SOL     OW33721   4.115   4.228   5.121 -0.1725 -0.1967 -0.3555
 7362SOL    HW133722   4.066   4.265   5.194  0.4885  0.4883 -0.2525
 7362SOL    HW233723   4.126   4.140   5.157 -0.5652  0.1757  0.6600
 7363SOL     OW33724   1.409   4.596   8.364 -0.2255 -0.3037  0.5693
 7363SOL    HW133725   1.315   4.613   8.355 -1.2415 -4.0472  3.8592
 7363SOL    HW233726   1.429   4.640   8.447  1.7742  0.2534 -0.2056
 7364SOL     OW33727   2.277   0.990   9.406  0.3482  0.5601 -0.3888
 7364SOL    HW133728   2.360   1.023   9.373  1.3708 -0.6943  0.9375
 7364SOL    HW233729   2.261   1.021   9.496  1.3016 -0.8582  0.2593
 7365SOL     OW33730   3.393   1.522   9.717 -0.5005  0.4462 -0.1776
 7365SOL    HW133731   3.439   1.484   9.642  0.8649 -0.0028  0.8996
 7365SOL    HW233732   3.464   1.545   9.776 -1.6514 -0.5409  1.6001
 7366SOL     OW33733   1.209   1.008   3.663 -0.1814 -0.1253 -0.0370
 7366SOL    HW133734   1.189   1.037   3.752 -0.2238  0.1941 -0.1526
 7366SOL    HW233735   1.301   0.994   3.685 -0.0408  0.8948  0.0103
 7367SOL     OW33736   0.810   2.190   3.957  0.1624 -0.5278 -0.7145
 7367SOL    HW133737   0.728   2.200   4.007  1.0890  0.9697  0.5266
 7367SOL    HW233738   0.812   2.095   3.948  1.6240 -0.4445 -1.2405
 7368SOL     OW33739   0.560   3.955   1.448 -0.2229 -0.1305  0.3443
 7368SOL    HW133740   0.567   4.048   1.467  1.9220 -0.5494  1.5733
 7368SOL    HW233741   0.558   3.946   1.352  1.3635  0.1247  0.2908
 7369SOL     OW33742   4.260   0.497   5.250 -0.1695 -0.3032  0.5015
 7369SOL    HW133743   4.346   0.459   5.267  0.9009  0.8532 -2.2714
 7369SOL    HW233744   4.281   0.574   5.198 -2.6254 -0.2916 -0.4725
 7370SOL     OW33745   1.360   4.570   4.860 -0.3925  0.2242 -0.0504
 7370SOL    HW133746   1.373   4.476   4.848 -0.8578  0.0780  0.5892
 7370SOL    HW233747   1.451   4.592   4.879 -0.4216  2.1505 -2.1358
 7371SOL     OW33748   0.174   3.582   4.498  0.0264  0.5733  0.3483
 7371SOL    HW133749   0.080   3.564   4.485 -0.1607  1.6576  0.1532
 7371SOL    HW233750   0.183   3.645   4.570  2.9168  2.0589 -1.3168
 7372SOL     OW33751   4.448   3.345   2.446  0.4779 -0.1823 -0.4700
 7372SOL    HW133752   4.505   3.420   2.463 -0.5708 -0.0958  2.6751
 7372SOL    HW233753   4.457   3.342   2.351  1.3114  0.9323 -0.4188
 7373SOL     OW33754   0.438   0.505   2.645  0.5546  0.3074  0.1931
 7373SOL    HW133755   0.476   0.579   2.692  0.1246  0.3871  0.4139
 7373SOL    HW233756   0.509   0.442   2.650  0.2038 -0.1934 -1.1743
 7374SOL     OW33757   4.481   2.406   2.715 -0.3569 -0.0167  0.1645
 7374SOL    HW133758   4.474   2.458   2.635  0.7774  0.4914  0.3894
 7374SOL    HW233759   4.388   2.395   2.734 -0.5181 -0.4999 -0.9016
 7375SOL     OW33760   4.609   0.007   4.172 -0.1937 -0.6631 -0.3094
 7375SOL    HW133761   4.684   4.694   4.140  0.8319  0.6500  0.0349
 7375SOL    HW233762   4.621   4.721   4.264 -3.2726 -0.2171  0.2189
 7376SOL     OW33763   2.621   3.399  10.042  0.5980 -0.3258 -0.0508
 7376SOL    HW133764   2.674   3.323  10.067  1.5070  0.1435 -0.5652
 7376SOL    HW233765   2.531   3.366  10.046  0.0493  0.9070 -2.6062
 7377SOL     OW33766   0.939   1.411   5.132 -0.3134  0.2709  0.1021
 7377SOL    HW133767   0.994   1.417   5.210  1.4643  0.4941 -1.1561
 7377SOL    HW233768   0.855   1.452   5.148 -0.0649  0.7925  0.0662
 7378SOL     OW33769   1.383   0.015   7.835  0.2958  0.7312  0.5690
 7378SOL    HW133770   1.331   0.040   7.759  1.8277  0.5292 -0.5461
 7378SOL    HW233771   1.342   0.058   7.910 -2.5943  0.8994 -1.1223
 7379SOL     OW33772   4.001   3.361   2.490 -0.1877 -0.6860  0.1275
 7379SOL    HW133773   4.020   3.290   2.430  1.1120 -0.9412  0.8514
 7379SOL    HW233774   4.077   3.418   2.475 -0.1643 -0.6541  0.3712
 7380SOL     OW33775   3.623   2.056   8.355 -0.0914 -0.1316  0.5470
 7380SOL    HW133776   3.539   2.085   8.390 -0.3161  1.4793 -1.3548
 7380SOL    HW233777   3.633   2.120   8.285 -2.5543 -1.5685 -1.1222
 7381SOL     OW33778   2.322   3.321   2.631 -0.5879 -0.1093  0.4268
 7381SOL    HW133779   2.320   3.238   2.583 -3.0868  1.5258 -2.2720
 7381SOL    HW233780   2.279   3.373   2.563  1.1352  1.7389  0.7451
 7382SOL     OW33781   1.142   0.787   2.297  0.0313  0.3144 -0.1052
 7382SOL    HW133782   1.159   0.701   2.333  0.3999  0.5330  0.2374
 7382SOL    HW233783   1.092   0.819   2.371  0.8510  0.2985  0.4524
 7383SOL     OW33784   2.451   0.329   8.744  0.1871  0.0853  0.3887
 7383SOL    HW133785   2.382   0.266   8.722  1.3705 -1.6308  1.5157
 7383SOL    HW233786   2.532   0.290   8.712 -1.8855 -2.1243 -2.1263
 7384SOL     OW33787   1.162   2.178   1.315 -0.2511 -0.4306 -0.1856
 7384SOL    HW133788   1.140   2.095   1.272  1.8205 -0.0778 -1.9534
 7384SOL    HW233789   1.080   2.221   1.289 -0.8512 -0.9287  0.9019
 7385SOL     OW33790   2.289   3.671  15.544 -0.3389 -0.1723 -0.2494
 7385SOL    HW133791   2.236   3.610  15.493 -1.6550 -0.3321  1.2984
 7385SOL    HW233792   2.371   3.675  15.494 -1.3918 -0.1902 -1.9798
 7386SOL     OW33793   0.125   0.026   7.205 -0.4653 -0.1339 -0.0997
 7386SOL    HW133794   0.149   4.675   7.179 -2.3044 -0.3403 -1.0872
 7386SOL    HW233795   0.086   0.059   7.125  1.3814  1.6198 -0.2760
 7387SOL     OW33796   2.018   0.085   8.292 -0.3718 -0.0276  0.1796
 7387SOL    HW133797   2.088   0.022   8.308  0.2901  0.3686 -1.2034
 7387SOL    HW233798   1.998   0.073   8.199  0.2271  1.1430 -0.1006
 7388SOL     OW33799   3.473   0.058   9.304 -0.2085  0.5018  0.1795
 7388SOL    HW133800   3.513   0.133   9.349 -2.9207  0.0371  3.3252
 7388SOL    HW233801   3.382   0.087   9.304 -1.0240 -2.0627  1.7061
 7389SOL     OW33802   0.034   4.708  16.023  0.0000 -0.1249  0.7298
 7389SOL    HW133803   0.102   0.021  16.067  0.5698 -0.3945  0.1628
 7389SOL    HW233804   4.704   0.038  16.013  0.5364  0.2911 -0.0789
 7390SOL     OW33805   0.098   2.066   9.203  0.4024 -0.2453 -0.2284
 7390SOL    HW133806   0.083   2.157   9.228 -2.1647 -0.6603 -0.3299
 7390SOL    HW233807   0.132   2.022   9.282 -1.4969 -0.4114  0.4889
 7391SOL     OW33808   3.492   1.420  13.294  0.6688  0.2006  0.2666
 7391SOL    HW133809   3.499   1.511  13.266  2.1687 -0.6087 -2.0891
 7391SOL    HW233810   3.512   1.436  13.386  0.3469  1.8938  0.0270
 7392SOL     OW33811   3.308   0.294   9.120 -0.1019 -0.2714 -0.0755
 7392SOL    HW133812   3.267   0.297   9.207 -2.4149 -1.7573 -1.1208
 7392SOL    HW233813   3.357   0.375   9.109  0.6708 -0.6897  0.2618
 7393SOL     OW33814   1.271   1.386   7.995  0.3365 -0.3642  0.0898
 7393SOL    HW133815   1.234   1.341   8.071 -0.6399 -2.3537 -1.5744
 7393SOL    HW233816   1.225   1.351   7.919  0.8118 -1.0488  0.1240
 7394SOL     OW33817   0.578   0.532   6.575 -0.1979 -0.3927 -0.4926
 7394SOL    HW133818   0.627   0.584   6.511  1.4068 -0.4706  0.6660
 7394SOL    HW233819   0.665   0.511   6.609 -0.0593  0.6414 -0.1983
 7395SOL     OW33820   1.618   1.510  12.992  0.1643 -0.0288  0.5489
 7395SOL    HW133821   1.656   1.431  12.954 -0.7421  1.4592 -3.3533
 7395SOL    HW233822   1.586   1.560  12.918 -0.2481  0.7271  1.2356
 7396SOL     OW33823   2.391   1.033  17.126  0.7250  0.3041 -0.5324
 7396SOL    HW133824   2.468   1.020  17.181 -0.2841  0.1962  0.8554
 7396SOL    HW233825   2.378   1.127  17.139 -1.8438 -0.4261  2.1564
 7397SOL     OW33826   0.349   0.742   6.445  0.3253  0.1020  0.0106
 7397SOL    HW133827   0.304   0.670   6.401 -0.2464  0.2986  0.2710
 7397SOL    HW233828   0.429   0.693   6.463  0.0374 -1.1294 -2.0133
 7398SOL     OW33829   3.506   4.301   4.067 -0.1276  0.0228 -0.0767
 7398SOL    HW133830   3.429   4.294   4.010 -1.3678 -2.5804  1.8890
 7398SOL    HW233831   3.476   4.357   4.140 -0.1298 -0.7541  0.5237
 7399SOL     OW33832   2.718   1.638   6.061  0.2782 -0.0947 -0.1294
 7399SOL    HW133833   2.681   1.673   5.980  1.7721  1.1511 -0.2748
 7399SOL    HW233834   2.810   1.619   6.047  0.6678  0.3221  1.7756
 7400SOL     OW33835   3.314   3.885  13.938  0.6079 -0.2218  0.3595
 7400SOL    HW133836   3.307   3.975  13.970  1.8093 -0.6691  1.9539
 7400SOL    HW233837   3.292   3.894  13.846 -2.9729  1.4305  1.3903
 7401SOL     OW33838   3.734   4.445   9.266  0.4276 -0.1238 -0.1929
 7401SOL    HW133839   3.744   4.362   9.218  1.5682 -0.2408  0.2399
 7401SOL    HW233840   3.771   4.504   9.200  0.5890 -0.3379 -0.2972
 7402SOL     OW33841   0.851   0.770  17.295  0.1889  0.4830 -0.3132
 7402SOL    HW133842   0.823   0.777  17.204 -1.9372 -0.3307  0.2875
 7402SOL    HW233843   0.764   0.777  17.335  0.4746 -0.5610  0.4773
 7403SOL     OW33844   3.018   3.849  11.051  0.0691  0.1840  0.5560
 7403SOL    HW133845   3.100   3.831  11.005  1.0440  1.7598  1.7216
 7403SOL    HW233846   3.015   3.784  11.121 -0.5777  0.0705  0.4295
 7404SOL     OW33847   2.316   1.976   9.946  0.2689  0.2091  0.1257
 7404SOL    HW133848   2.378   1.905   9.931  1.7678  1.6288 -0.2907
 7404SOL    HW233849   2.236   1.925   9.960  0.6056 -0.5008 -0.5653
 7405SOL     OW33850   0.815   4.112   5.779  0.5413 -0.3273 -0.1580
 7405SOL    HW133851   0.720   4.118   5.789  0.3578  0.4894 -2.3468
 7405SOL    HW233852   0.815   4.045   5.711 -1.4655 -0.1134 -0.3604
 7406SOL     OW33853   1.931   3.161   4.224  0.7716  0.0338 -0.4688
 7406SOL    HW133854   1.906   3.236   4.170 -0.8929  1.1751  1.8667
 7406SOL    HW233855   1.900   3.200   4.306 -0.0743  0.4676 -0.9866
 7407SOL     OW33856   1.928   4.017   1.798 -0.3636  0.3725  0.6549
 7407SOL    HW133857   1.835   4.026   1.815 -0.2346  0.6744  1.2094
 7407SOL    HW233858   1.953   3.959   1.870 -1.9098 -1.0563  0.0267
 7408SOL     OW33859   1.566   3.763  10.698 -0.1165  0.0891 -0.1750
 7408SOL    HW133860   1.599   3.849  10.722  2.5173 -1.4431  1.7034
 7408SOL    HW233861   1.471   3.774  10.702 -0.2455 -1.2328  0.4196
 7409SOL     OW33862   4.142   2.677   3.826  0.0017  0.1425 -0.2581
 7409SOL    HW133863   4.072   2.698   3.765  0.8914  0.2565 -1.2370
 7409SOL    HW233864   4.186   2.761   3.813  1.0958 -0.3171  0.4168
 7410SOL     OW33865   2.690   0.161   1.681 -0.2319  0.2102  0.0454
 7410SOL    HW133866   2.786   0.153   1.675 -0.3045  0.1514 -1.1632
 7410SOL    HW233867   2.673   0.244   1.636  0.9376 -0.4674 -1.6855
 7411SOL     OW33868   3.212   3.044   5.110  0.4341  0.1960 -0.7492
 7411SOL    HW133869   3.238   3.095   5.186  0.4660  0.1488 -0.7288
 7411SOL    HW233870   3.139   3.093   5.071 -0.1064 -1.3518 -1.6972
 7412SOL     OW33871   1.070   3.470   6.212 -0.4045  0.6848  0.0332
 7412SOL    HW133872   1.139   3.525   6.175 -0.0029  0.2162  0.0852
 7412SOL    HW233873   1.070   3.486   6.306  0.7114  1.0682 -0.0410
 7413SOL     OW33874   0.760   4.576   2.711  0.3356  0.5115 -0.1000
 7413SOL    HW133875   0.674   4.574   2.669  0.5243  0.2265 -0.4765
 7413SOL    HW233876   0.816   4.547   2.639  1.9034  2.5600  0.3106
 7414SOL     OW33877   1.727   4.056   7.921  0.2724  0.2514 -0.2263
 7414SOL    HW133878   1.776   4.013   7.850  0.5873 -0.4179  0.3970
 7414SOL    HW233879   1.656   4.106   7.881 -0.3999 -2.8407 -2.9035
 7415SOL     OW33880   2.422   1.059   8.096 -0.0490  0.2617 -0.3872
 7415SOL    HW133881   2.398   1.065   8.189  1.5100  0.5944  0.0018
 7415SOL    HW233882   2.461   0.973   8.086  2.1039  1.2870 -0.8496
 7416SOL     OW33883   3.150   0.455   6.543 -0.0252  0.1345 -0.5928
 7416SOL    HW133884   3.099   0.375   6.546  3.6277 -2.2087 -0.7101
 7416SOL    HW233885   3.230   0.421   6.502 -0.7454 -0.1130 -1.7577
 7417SOL     OW33886   3.069   1.642   6.977 -0.0179 -0.0125  0.3608
 7417SOL    HW133887   3.072   1.664   6.883 -2.2003 -2.3599 -0.2874
 7417SOL    HW233888   3.160   1.663   6.995  0.7626 -2.1056 -1.1746
 7418SOL     OW33889   3.990   2.943  17.577 -0.1068 -0.1239  0.0717
 7418SOL    HW133890   4.082   2.917  17.567 -0.2518 -0.5984  0.0126
 7418SOL    HW233891   3.963   2.973  17.490  1.1637  1.0320  0.0758
 7419SOL     OW33892   1.270   1.565   6.790  0.1448  0.1445 -0.4325
 7419SOL    HW133893   1.238   1.626   6.857 -3.3437 -0.9920 -1.0610
 7419SOL    HW233894   1.266   1.477   6.826 -0.4500  0.4465  0.2571
 7420SOL     OW33895   2.122   1.717   5.181 -0.2756  0.1078 -0.4982
 7420SOL    HW133896   2.197   1.688   5.234 -1.2771 -1.6330 -0.0388
 7420SOL    HW233897   2.155   1.674   5.102 -3.2642  0.8989 -2.1715
 7421SOL     OW33898   2.245   2.305  16.467 -0.1119  0.0949 -0.4775
 7421SOL    HW133899   2.151   2.290  16.452  0.1511 -0.5164 -1.4908
 7421SOL    HW233900   2.247   2.387  16.419  0.1599  0.0909 -0.4725
 7422SOL     OW33901   0.792   1.746   9.557 -0.0471 -0.7438 -0.2183
 7422SOL    HW133902   0.876   1.791   9.561 -0.1766 -0.4713 -0.5800
 7422SOL    HW233903   0.757   1.771   9.643  2.2289 -0.5814  0.6631
 7423SOL     OW33904   1.012   3.727   1.578 -0.4015 -0.6774 -0.2560
 7423SOL    HW133905   1.094   3.738   1.531  0.0843 -1.5812  0.3782
 7423SOL    HW233906   1.027   3.737   1.672  0.1369 -3.2065 -0.0770
 7424SOL     OW33907   3.475   4.250   1.613 -0.6247  0.0674  0.0701
 7424SOL    HW133908   3.407   4.207   1.665 -0.8859 -0.2292 -0.5214
 7424SOL    HW233909   3.425   4.301   1.550 -0.3686 -0.6378 -0.6917
 7425SOL     OW33910   1.159   4.200   3.163  0.5117  0.2297  0.5404
 7425SOL    HW133911   1.107   4.262   3.214  0.1191  0.1163  0.2808
 7425SOL    HW233912   1.237   4.253   3.150  0.8126 -0.2074  0.5923
 7426SOL     OW33913   1.014   1.942   1.517  0.1944 -0.0336 -0.5643
 7426SOL    HW133914   0.978   1.947   1.428 -0.0699 -0.0737 -0.4597
 7426SOL    HW233915   1.105   1.964   1.497 -0.4314  3.6744  0.7878
 7427SOL     OW33916   2.978   1.143  15.328 -0.3818 -0.4297  0.2901
 7427SOL    HW133917   2.991   1.184  15.242 -1.9909  1.9105  1.1838
 7427SOL    HW233918   3.044   1.074  15.318  0.1663  0.3677 -1.8114
 7428SOL     OW33919   0.362   1.522  17.184 -0.1218 -0.0401  0.1378
 7428SOL    HW133920   0.298   1.507  17.253  0.0519  0.8931  0.5017
 7428SOL    HW233921   0.359   1.439  17.137  2.6958 -0.3294  0.4836
 7429SOL     OW33922   2.078   3.526   6.496  0.6993  0.0443 -0.1314
 7429SOL    HW133923   2.057   3.449   6.444 -1.6535 -1.0931  2.4385
 7429SOL    HW233924   2.007   3.586   6.475  1.0069 -0.1685 -1.7622
 7430SOL     OW33925   4.624   4.656   3.676 -0.2165  0.0211  0.6941
 7430SOL    HW133926   4.691   4.722   3.695  0.1966  0.1646 -1.2743
 7430SOL    HW233927   4.594   4.639   3.765 -0.7097  0.9545  0.7031
 7431SOL     OW33928   2.162   0.284   6.846 -0.0481 -0.2962 -0.3174
 7431SOL    HW133929   2.092   0.350   6.843 -0.7854 -1.0683 -0.0690
 7431SOL    HW233930   2.132   0.211   6.793 -2.1937  0.3776 -0.0422
 7432SOL     OW33931   3.752   2.389  15.407 -0.1643 -0.0491  0.0847
 7432SOL    HW133932   3.797   2.331  15.468  0.2639 -0.0333 -0.2168
 7432SOL    HW233933   3.789   2.354  15.326 -1.5502 -1.3128 -0.0088
 7433SOL     OW33934   4.332   3.118   3.539  0.6389  0.0189  0.1826
 7433SOL    HW133935   4.356   3.157   3.455  1.2118  2.4617  1.4551
 7433SOL    HW233936   4.417   3.118   3.582 -0.7211  1.8509  2.8930
 7434SOL     OW33937   0.984   2.840   6.059 -0.1487 -0.4328 -0.3983
 7434SOL    HW133938   1.058   2.781   6.074 -0.8601 -1.6739 -1.7420
 7434SOL    HW233939   1.021   2.925   6.036  1.6743 -0.2497  3.3018
 7435SOL     OW33940   3.335   2.016  16.156  0.2071 -0.2408  0.2060
 7435SOL    HW133941   3.393   1.942  16.139 -0.4805 -0.7622  0.1525
 7435SOL    HW233942   3.266   1.990  16.095 -1.0634  0.4829  1.3352
 7436SOL     OW33943   1.073   0.075   6.162 -0.1617  0.4590 -0.5552
 7436SOL    HW133944   1.049   4.727   6.126 -1.4347 -0.1614  1.8068
 7436SOL    HW233945   1.110   0.108   6.080  0.7666  2.3485  0.6161
 7437SOL     OW33946   0.649   0.131  16.557  0.9562  0.5265  0.4776
 7437SOL    HW133947   0.721   0.069  16.566  0.6970  0.1129 -0.3149
 7437SOL    HW233948   0.692   0.195  16.500  1.9580 -1.1950 -0.6786
 7438SOL     OW33949   0.533   0.016   7.135  0.4902  0.1803 -0.1603
 7438SOL    HW133950   0.515   0.046   7.224  0.0959 -1.0177  0.1684
 7438SOL    HW233951   0.570   0.093   7.092 -1.6557  1.0091 -0.5205
 7439SOL     OW33952   3.962   1.581   4.453 -0.3908 -0.1474  0.1608
 7439SOL    HW133953   3.877   1.607   4.488 -1.1250 -0.9818 -1.0016
 7439SOL    HW233954   3.941   1.494   4.420  2.4837 -1.1455  0.9741
 7440SOL     OW33955   3.578   4.320   8.024  0.2346 -0.4759  0.4696
 7440SOL    HW133956   3.568   4.342   8.117 -0.1447 -0.1886  0.3622
 7440SOL    HW233957   3.651   4.259   8.033  0.6983  0.4170  2.7681
 7441SOL     OW33958   3.392   0.743   4.483  0.4766 -0.0748  0.3250
 7441SOL    HW133959   3.386   0.796   4.562  0.7656 -2.3081  1.8468
 7441SOL    HW233960   3.347   0.660   4.503 -0.7997  0.5898  0.1909
 7442SOL     OW33961   0.065   4.524   5.844 -0.3961 -0.2627 -0.4268
 7442SOL    HW133962   0.160   4.534   5.853 -0.5731  0.9354  0.1476
 7442SOL    HW233963   0.038   4.536   5.936 -1.6103 -1.7209 -0.5915
 7443SOL     OW33964   0.077   2.828   7.401  0.3838  0.1237  0.2519
 7443SOL    HW133965   0.041   2.785   7.324 -0.2267  0.5148  0.3116
 7443SOL    HW233966   0.081   2.760   7.468 -0.1824 -0.2900 -0.1327
 7444SOL     OW33967   2.366   1.506   3.474  0.4165  0.2628 -0.0499
 7444SOL    HW133968   2.393   1.414   3.482  1.2372  0.5075 -0.0464
 7444SOL    HW233969   2.287   1.496   3.420 -0.2221  2.5166  0.4805
 7445SOL     OW33970   3.833   3.508   6.346 -0.3015 -0.4160 -0.1769
 7445SOL    HW133971   3.848   3.582   6.405  0.1676 -0.2972 -0.4505
 7445SOL    HW233972   3.908   3.510   6.288  1.3714 -0.7684  1.9837
 7446SOL     OW33973   3.737   1.996  10.285  0.0184 -0.6690  0.2088
 7446SOL    HW133974   3.644   1.973  10.295  0.2813 -0.9621  1.9835
 7446SOL    HW233975   3.733   2.002  10.190  1.4495 -0.2859  0.1762
 7447SOL     OW33976   1.024   1.080   0.327 -0.0964  0.3079 -0.2848
 7447SOL    HW133977   0.996   1.117   0.243 -0.7954 -1.1838 -0.6949
 7447SOL    HW233978   1.012   0.988   0.307 -1.2047 -0.0512  2.1370
 7448SOL     OW33979   4.214   3.666   9.286 -0.1754 -0.0085 -0.9217
 7448SOL    HW133980   4.291   3.638   9.335 -0.7835  1.6608  0.9537
 7448SOL    HW233981   4.156   3.593   9.308  0.7129 -0.2480  0.5732
 7449SOL     OW33982   0.387   4.097   4.602  0.1489 -0.2507  0.2792
 7449SOL    HW133983   0.381   4.037   4.527  0.1781  0.2127 -0.0973
 7449SOL    HW233984   0.366   4.041   4.677  1.4768 -1.6012 -0.3646
 7450SOL     OW33985   4.051   2.751   6.930  0.7156  0.1667  0.0401
 7450SOL    HW133986   4.030   2.764   7.022 -0.4051  0.9954 -0.3440
 7450SOL    HW233987   4.126   2.809   6.916  2.5135 -2.4221 -1.1126
 7451SOL     OW33988   2.879   2.475   7.326 -0.4720 -0.0674 -0.0636
 7451SOL    HW133989   2.785   2.488   7.312  0.0682  0.4884 -3.2038
 7451SOL    HW233990   2.893   2.384   7.354  0.2036  0.7958  2.3913
 7452SOL     OW33991   0.812   2.275   8.892 -0.8347  0.1410 -0.4510
 7452SOL    HW133992   0.884   2.328   8.861 -2.4568  2.7448  0.2306
 7452SOL    HW233993   0.800   2.312   8.980  2.0150 -2.4652  1.0587
 7453SOL     OW33994   2.459   3.108  10.834  0.2979 -0.5213  0.5588
 7453SOL    HW133995   2.421   3.025  10.863 -2.4192  1.5709  2.9674
 7453SOL    HW233996   2.530   3.122  10.896  1.3200  1.9619 -1.1832
 7454SOL     OW33997   3.205   0.054  13.812  0.5105  0.1169  0.2219
 7454SOL    HW133998   3.285   0.019  13.853  0.9554 -0.3576 -1.0413
 7454SOL    HW233999   3.185   4.715  13.758  1.4014  0.6408 -0.8595
 7455SOL     OW34000   1.060   1.745   8.982  0.0168  0.3403  0.3685
 7455SOL    HW134001   1.132   1.694   8.944 -0.5153  0.8182 -1.2754
 7455SOL    HW234002   1.041   1.818   8.922 -0.3787  0.0017  0.0852
 7456SOL     OW34003   3.531   2.631   2.001  0.7770 -0.2406  0.2999
 7456SOL    HW134004   3.503   2.589   1.920 -1.2277 -0.4440  1.0835
 7456SOL    HW234005   3.616   2.668   1.976  1.7686 -2.3071  0.6126
 7457SOL     OW34006   2.775   0.782  12.151  0.3437  0.2846 -1.1300
 7457SOL    HW134007   2.765   0.757  12.243  0.0333  2.4624 -0.5603
 7457SOL    HW234008   2.863   0.818  12.159  0.0551  0.9890 -1.0778
 7458SOL     OW34009   3.612   2.637   7.666  0.1608 -0.5738  0.1140
 7458SOL    HW134010   3.557   2.670   7.595  1.8284  0.1693 -0.8274
 7458SOL    HW234011   3.553   2.572   7.705 -0.6618  1.0055  1.5407
 7459SOL     OW34012   1.369   3.830   3.969  0.0099 -0.0279  0.1046
 7459SOL    HW134013   1.357   3.754   3.911  0.3582 -1.4502  1.9108
 7459SOL    HW234014   1.296   3.815   4.029  0.6884  1.3454  1.2514
 7460SOL     OW34015   1.787   1.352   1.439 -0.2507 -0.1883 -0.1287
 7460SOL    HW134016   1.772   1.446   1.452 -0.3500 -0.4779  1.7931
 7460SOL    HW234017   1.843   1.330   1.513  1.0505  0.7861 -0.8334
 7461SOL     OW34018   3.556   0.924   9.329  0.2943  0.5004 -0.1725
 7461SOL    HW134019   3.535   0.908   9.237 -1.3087  0.7130  0.1585
 7461SOL    HW234020   3.616   0.852   9.350 -0.5560  0.3152  1.6435
 7462SOL     OW34021   2.920   0.126   7.786 -0.1059  0.1624  0.4540
 7462SOL    HW134022   2.973   0.104   7.863  0.8052 -0.3471 -0.3205
 7462SOL    HW234023   2.956   0.068   7.719  0.9223 -1.5770  2.4986
 7463SOL     OW34024   3.027   1.504  14.236 -0.2897 -0.0730  0.3706
 7463SOL    HW134025   2.985   1.552  14.165 -0.9389 -1.6288 -0.2914
 7463SOL    HW234026   3.089   1.570  14.268 -0.9227  1.2035 -1.0401
 7464SOL     OW34027   4.502   2.813   4.932 -0.3211  0.6578  0.0580
 7464SOL    HW134028   4.511   2.877   5.003 -2.0737 -0.7520  1.5582
 7464SOL    HW234029   4.538   2.867   4.862 -1.1840  0.8173 -0.2679
 7465SOL     OW34030   2.290   3.143  12.837  0.3397  0.3879  0.4902
 7465SOL    HW134031   2.222   3.093  12.882  1.0634  1.4503  2.7604
 7465SOL    HW234032   2.285   3.231  12.874  0.8235 -0.0531  1.6027
 7466SOL     OW34033   3.921   3.175   3.811  0.3382  0.1032  0.1102
 7466SOL    HW134034   3.855   3.195   3.743  0.4625  0.5083  0.1110
 7466SOL    HW234035   3.911   3.080   3.801  0.7084 -0.0193  0.9482
 7467SOL     OW34036   3.771   3.924   0.513  0.1655  0.5054 -0.0681
 7467SOL    HW134037   3.773   3.900   0.420  0.1448  1.6920 -0.3796
 7467SOL    HW234038   3.808   4.013   0.509 -2.4058  1.5195 -1.4250
 7468SOL     OW34039   0.999   2.674  11.683  0.5550  0.6531  0.4241
 7468SOL    HW134040   0.932   2.722  11.633 -1.1978 -2.5979 -0.3809
 7468SOL    HW234041   0.977   2.585  11.655  0.1230  0.4822  1.3001
 7469SOL     OW34042   1.741   0.389  16.687 -0.2212 -0.0854  0.1257
 7469SOL    HW134043   1.700   0.317  16.638  0.7149 -0.4492 -0.1137
 7469SOL    HW234044   1.661   0.422  16.729 -0.8783 -0.3456 -0.9137
 7470SOL     OW34045   0.324   1.523   1.161 -0.6196 -0.4538  0.3875
 7470SOL    HW134046   0.262   1.556   1.096 -0.3585 -1.0974 -0.1812
 7470SOL    HW234047   0.349   1.444   1.113 -0.3896 -1.0176  1.4326
 7471SOL     OW34048   2.824   2.600   2.994  0.3667  0.8837  0.1022
 7471SOL    HW134049   2.765   2.648   2.934  0.6092 -0.8763 -1.5417
 7471SOL    HW234050   2.903   2.654   2.987 -0.4489  1.9968 -0.5503
 7472SOL     OW34051   2.542   0.857  14.433  0.2827 -0.1880 -0.2083
 7472SOL    HW134052   2.531   0.830  14.341  0.5718  2.5593 -1.0441
 7472SOL    HW234053   2.630   0.894  14.423  1.4290 -2.4039  1.7652
 7473SOL     OW34054   1.543   3.297  13.565 -0.1424 -0.1724  1.2252
 7473SOL    HW134055   1.492   3.256  13.496  0.4421 -0.2396  0.8371
 7473SOL    HW234056   1.501   3.383  13.570 -0.5836 -0.1706 -2.5621
 7474SOL     OW34057   1.380   2.916   7.966 -0.7610 -0.1814 -0.4551
 7474SOL    HW134058   1.394   2.829   7.929  0.0542 -0.5374  0.6962
 7474SOL    HW234059   1.471   2.941   7.983 -0.1123 -1.4572 -2.0245
 7475SOL     OW34060   2.232   4.255   6.314  0.0629 -0.5742 -0.1406
 7475SOL    HW134061   2.239   4.263   6.219  0.5752  1.9028  0.1085
 7475SOL    HW234062   2.184   4.336   6.332  0.3480 -0.2874 -0.6619
 7476SOL     OW34063   4.735   4.218   3.244 -0.4179  0.5253  0.1460
 7476SOL    HW134064   4.654   4.170   3.225  0.8671 -1.2442 -0.8000
 7476SOL    HW234065   0.001   4.211   3.340  2.8506  0.4841 -0.0063
 7477SOL     OW34066   2.632   4.686   4.341 -0.4554 -0.1647 -0.2879
 7477SOL    HW134067   2.538   4.681   4.328 -0.5381 -1.2781  0.8112
 7477SOL    HW234068   2.631   4.717   4.431  0.7077  0.9118 -0.6346
 7478SOL     OW34069   0.149   3.050   4.097 -0.4733  0.3430 -0.3940
 7478SOL    HW134070   0.203   3.012   4.027  0.0682 -0.9180  0.7235
 7478SOL    HW234071   0.186   3.137   4.110  1.1767 -0.6369  1.4700
 7479SOL     OW34072   3.042   4.105  12.412  0.3010 -0.1564  0.1770
 7479SOL    HW134073   3.024   4.198  12.404 -1.9012 -0.6360 -0.4046
 7479SOL    HW234074   3.091   4.094  12.331  0.7809 -0.4556  0.5030
 7480SOL     OW34075   3.238   1.537   2.752 -0.2415  0.1460 -0.1362
 7480SOL    HW134076   3.219   1.620   2.796  1.3240  1.7677 -2.5622
 7480SOL    HW234077   3.194   1.555   2.669  0.3319 -1.1858 -0.7200
 7481SOL     OW34078   2.275   2.981   6.385 -0.1732  0.4238  0.3776
 7481SOL    HW134079   2.266   2.960   6.292 -1.3841  2.6095 -0.0030
 7481SOL    HW234080   2.329   3.060   6.377  1.9487 -1.2975 -2.2050
 7482SOL     OW34081   1.250   0.486   3.077  0.4710 -0.0893 -0.0905
 7482SOL    HW134082   1.221   0.541   3.005 -1.2775  0.8022  1.2957
 7482SOL    HW234083   1.321   0.541   3.109 -0.4990  0.4487  1.1205
 7483SOL     OW34084   2.310   3.137  16.333  0.5396 -0.2405 -0.4683
 7483SOL    HW134085   2.346   3.104  16.416 -2.3615  1.5244  1.5094
 7483SOL    HW234086   2.293   3.229  16.355  0.7713 -0.5426  0.9697
 7484SOL     OW34087   0.311   2.108   3.589 -0.2317 -0.2823  0.8857
 7484SOL    HW134088   0.285   2.042   3.524 -0.8107 -0.4480  1.2865
 7484SOL    HW234089   0.238   2.121   3.649  0.0709  0.4237  1.0950
 7485SOL     OW34090   2.419   0.772   8.392  0.3165 -0.0151 -0.2784
 7485SOL    HW134091   2.349   0.707   8.391 -1.2593  1.7010 -0.8107
 7485SOL    HW234092   2.425   0.785   8.298  0.7101  1.5654 -0.0380
 7486SOL     OW34093   4.439   0.788   8.096  0.3306  0.2976  0.4010
 7486SOL    HW134094   4.390   0.716   8.055 -0.0340  0.7387  0.0580
 7486SOL    HW234095   4.404   0.789   8.185 -2.7545  2.0598 -0.8342
 7487SOL     OW34096   1.303   1.928   5.734  0.0783 -0.4551  0.1326
 7487SOL    HW134097   1.380   1.885   5.697  0.7850  0.3503  0.6630
 7487SOL    HW234098   1.316   1.931   5.829 -1.1385  1.8069  0.2306
 7488SOL     OW34099   3.878   3.294   4.690  0.0279 -0.2705 -0.5041
 7488SOL    HW134100   3.827   3.373   4.705  1.4137  0.7522 -1.1852
 7488SOL    HW234101   3.967   3.326   4.673  0.2220 -1.0919 -1.0578
 7489SOL     OW34102   2.666   1.371   8.108 -0.0322 -0.0251 -0.5153
 7489SOL    HW134103   2.750   1.345   8.145  1.1507  0.0213 -3.1747
 7489SOL    HW234104   2.679   1.335   8.020 -0.6828 -0.8357 -0.2869
 7490SOL     OW34105   2.017   0.924   8.061 -0.2890  0.0153 -0.1907
 7490SOL    HW134106   2.034   0.903   7.969 -1.5590 -1.2722 -0.1278
 7490SOL    HW234107   2.062   1.009   8.066  1.0106 -0.7580  1.2762
 7491SOL     OW34108   3.709   1.554   0.196 -0.4913  0.6841 -0.5399
 7491SOL    HW134109   3.696   1.643   0.166 -0.0115  1.2379  0.8890
 7491SOL    HW234110   3.763   1.579   0.271 -2.7176  2.0206  0.6045
 7492SOL     OW34111   3.545   0.776   2.086  0.0349  0.0602 -0.5875
 7492SOL    HW134112   3.578   0.816   2.166  0.4292  2.2049 -1.8197
 7492SOL    HW234113   3.498   0.703   2.125 -1.9663  0.2541 -2.6134
 7493SOL     OW34114   1.916   1.646   1.036 -0.5131 -0.1615 -0.1057
 7493SOL    HW134115   1.918   1.713   1.104  2.8090 -0.3332 -0.0320
 7493SOL    HW234116   1.880   1.573   1.086 -1.2171 -0.6657 -1.3595
 7494SOL     OW34117   1.441   1.392   0.621  0.3538  0.0166 -0.3856
 7494SOL    HW134118   1.441   1.405   0.526  1.2397  1.2142 -0.2122
 7494SOL    HW234119   1.527   1.426   0.645  0.1387  1.4142 -1.6244
 7495SOL     OW34120   1.154   3.266   6.530 -0.0232  0.0301  0.1089
 7495SOL    HW134121   1.063   3.286   6.508 -0.5417  0.6326  2.8408
 7495SOL    HW234122   1.187   3.356   6.539  0.1038  0.1284 -1.2301
 7496SOL     OW34123   3.316   1.055  14.566  0.5515  0.0659 -0.3651
 7496SOL    HW134124   3.358   1.047  14.652 -0.5914  0.4816  0.2300
 7496SOL    HW234125   3.361   0.997  14.505  0.6728 -2.1862  1.8428
 7497SOL     OW34126   2.682   3.569   9.650  0.2967 -0.2538  0.0416
 7497SOL    HW134127   2.615   3.549   9.584  0.1938 -3.5927  1.1270
 7497SOL    HW234128   2.756   3.516   9.618  0.0548 -0.8494  0.4621
 7498SOL     OW34129   3.623   1.352   6.102  0.2124 -0.3555  0.0911
 7498SOL    HW134130   3.569   1.274   6.101 -0.7946  0.3009  2.8383
 7498SOL    HW234131   3.589   1.399   6.026  2.0932 -0.6349 -0.9222
 7499SOL     OW34132   1.438   4.301   8.510 -0.2352 -0.0966 -0.7345
 7499SOL    HW134133   1.443   4.391   8.544  1.2686 -0.3934 -0.1880
 7499SOL    HW234134   1.475   4.307   8.422  1.6564  0.3312  0.0906
 7500SOL     OW34135   0.706   0.767   8.444  0.1595  0.3661  0.7107
 7500SOL    HW134136   0.720   0.717   8.364 -1.3005 -1.2074  1.4389
 7500SOL    HW234137   0.621   0.806   8.425  0.9776  1.8598  0.0973
 7501SOL     OW34138   2.368   3.650   4.427 -0.4432 -0.3394 -0.3657
 7501SOL    HW134139   2.341   3.694   4.508  0.2376  0.1329 -0.3924
 7501SOL    HW234140   2.435   3.711   4.398  2.2739 -2.8307  0.6182
 7502SOL     OW34141   3.155   4.433   6.923 -0.2340 -0.0126  0.2867
 7502SOL    HW134142   3.144   4.508   6.864 -0.9488 -0.6376 -0.3830
 7502SOL    HW234143   3.093   4.453   6.993 -0.4485 -1.6730  0.5686
 7503SOL     OW34144   1.495   3.836   7.920  0.2334 -0.2061  0.4767
 7503SOL    HW134145   1.482   3.869   8.009  1.8125  0.8541  0.3085
 7503SOL    HW234146   1.549   3.758   7.932  1.7651  0.8568  0.5152
 7504SOL     OW34147   1.253   2.536   1.842  0.0954  0.1012  0.0685
 7504SOL    HW134148   1.314   2.481   1.891 -1.3308 -1.6778 -0.1692
 7504SOL    HW234149   1.199   2.581   1.906 -1.1701 -0.4719 -0.6106
 7505SOL     OW34150   3.271   3.382   5.612  0.2075  0.0240  0.0293
 7505SOL    HW134151   3.315   3.449   5.663 -1.1094  0.6995  0.2740
 7505SOL    HW234152   3.240   3.318   5.677 -0.0445 -1.9081 -1.9788
 7506SOL     OW34153   0.693   1.960  14.510 -0.9107  0.1322  0.1666
 7506SOL    HW134154   0.639   1.942  14.433 -0.2605 -2.9662  0.4362
 7506SOL    HW234155   0.644   2.030  14.552 -0.5165  0.3349  0.2916
 7507SOL     OW34156   2.912   2.772   8.175 -0.4839  0.7151 -0.6731
 7507SOL    HW134157   2.947   2.757   8.087  0.4597  0.0937 -0.1960
 7507SOL    HW234158   3.000   2.797   8.205 -0.2264 -0.8722 -0.0815
 7508SOL     OW34159   1.256   4.469   2.464 -0.1306 -0.3888 -0.9075
 7508SOL    HW134160   1.224   4.505   2.547 -1.6313 -3.2865 -0.2305
 7508SOL    HW234161   1.305   4.392   2.492 -1.6287 -2.3926 -3.7626
 7509SOL     OW34162   4.220   4.625   7.263 -0.2046 -0.5354  0.2286
 7509SOL    HW134163   4.252   4.702   7.311  0.4059 -0.7720  0.1952
 7509SOL    HW234164   4.299   4.584   7.229  0.4493  0.5258  0.4723
 7510SOL     OW34165   2.886   3.261   3.959  0.1240  0.1811 -0.0506
 7510SOL    HW134166   2.856   3.248   4.049  0.4771 -2.4379 -0.3012
 7510SOL    HW234167   2.904   3.176   3.919  2.0284 -0.0157  1.2313
 7511SOL     OW34168   0.602   2.686   2.528 -0.7124 -0.3190  0.6003
 7511SOL    HW134169   0.697   2.677   2.530 -0.5493  1.2856  0.0871
 7511SOL    HW234170   0.604   2.739   2.607  0.2840  0.6739 -0.0924
 7512SOL     OW34171   4.388   0.342  11.616  0.2538  0.1432 -0.3294
 7512SOL    HW134172   4.432   0.298  11.543 -0.1735  1.3165 -1.2922
 7512SOL    HW234173   4.363   0.426  11.578  0.0981  1.1187  1.9373
 7513SOL     OW34174   2.039   4.709   6.149  0.0502 -0.1580  0.0786
 7513SOL    HW134175   1.964   4.655   6.176 -1.1053  0.3506 -2.1380
 7513SOL    HW234176   2.057   0.026   6.225  1.4297 -0.9520  0.3347
 7514SOL     OW34177   3.638   0.927  15.782  0.1947 -0.1024 -0.5964
 7514SOL    HW134178   3.581   0.856  15.813 -1.5644  0.7301 -1.9223
 7514SOL    HW234179   3.610   0.935  15.691 -1.4459 -0.7128 -0.1510
 7515SOL     OW34180   1.943   0.325   6.288  0.2936  0.1628 -0.2706
 7515SOL    HW134181   1.870   0.388   6.289  1.6070  1.7128 -2.1683
 7515SOL    HW234182   1.989   0.347   6.207 -0.3073 -4.1354 -1.7727
 7516SOL     OW34183   3.747   2.551   7.102 -0.1310 -0.0772 -0.1821
 7516SOL    HW134184   3.806   2.476   7.105 -0.3364 -0.1352  2.2796
 7516SOL    HW234185   3.733   2.556   7.007 -0.1720  0.0271 -0.1705
 7517SOL     OW34186   1.148   2.219   8.072  0.2071 -0.5421  0.2400
 7517SOL    HW134187   1.200   2.165   8.013  2.1109  0.3180  1.1340
 7517SOL    HW234188   1.063   2.182   8.049  0.0957 -0.2701  0.2160
 7518SOL     OW34189   3.678   0.038  16.565  0.6807  0.1746  0.6274
 7518SOL    HW134190   3.651   0.024  16.474 -2.2123 -0.6765  1.6117
 7518SOL    HW234191   3.589   0.051  16.598  0.1836 -0.9230 -0.2652
 7519SOL     OW34192   0.512   0.374  15.562 -0.0784 -0.5992  1.0390
 7519SOL    HW134193   0.420   0.348  15.561 -0.3127  0.2456  0.4009
 7519SOL    HW234194   0.497   0.468  15.546  0.0446 -0.5441  1.2472
 7520SOL     OW34195   3.043   4.228   3.568 -0.0531  0.0449 -0.1959
 7520SOL    HW134196   3.063   4.179   3.489 -0.6619  0.9778 -0.9210
 7520SOL    HW234197   3.135   4.241   3.593  0.1713 -0.6235 -0.6894
 7521SOL     OW34198   0.265   0.047   8.096  0.5530  0.0764 -0.6174
 7521SOL    HW134199   0.290   0.049   8.189 -1.5541 -0.0763 -0.0591
 7521SOL    HW234200   0.249   0.140   8.078  1.3494  0.2204 -0.5722
 7522SOL     OW34201   4.029   1.472   1.739 -0.2010 -0.3414 -0.5992
 7522SOL    HW134202   3.981   1.550   1.767 -1.4585 -0.2163 -3.1198
 7522SOL    HW234203   4.115   1.513   1.728 -0.3833 -0.4455 -2.3814
 7523SOL     OW34204   2.759   3.320   7.042  0.6898  0.3068 -0.0361
 7523SOL    HW134205   2.853   3.339   7.052  1.0857 -1.3473 -0.7114
 7523SOL    HW234206   2.725   3.331   7.131 -0.9644  1.5561 -0.8272
 7524SOL     OW34207   0.224   0.783  17.002 -0.3875 -0.2503 -0.1732
 7524SOL    HW134208   0.289   0.775  17.072 -1.0436 -0.2576  0.4394
 7524SOL    HW234209   0.149   0.829  17.039  1.8033  2.3179  1.0888
 7525SOL     OW34210   1.284   3.056   6.626  1.0673  0.0141  0.0831
 7525SOL    HW134211   1.378   3.069   6.636  1.0079  0.9151 -0.5376
 7525SOL    HW234212   1.247   3.141   6.600 -0.1764 -1.0872 -1.8297
 7526SOL     OW34213   2.376   1.885  14.546  0.3737 -0.8515 -0.1021
 7526SOL    HW134214   2.329   1.965  14.523  0.8646  0.1516  2.3893
 7526SOL    HW234215   2.335   1.852  14.626  1.1394  0.3162  0.7707
 7527SOL     OW34216   2.495   2.995   5.364 -0.6505  0.1199 -0.4076
 7527SOL    HW134217   2.560   3.046   5.315  0.2512 -0.2759  0.3885
 7527SOL    HW234218   2.535   2.995   5.451 -0.5940  0.8818 -0.4339
 7528SOL     OW34219   0.932   0.726   1.207  0.3545 -0.2067  0.3049
 7528SOL    HW134220   1.009   0.765   1.248 -1.0676  2.7192  0.1404
 7528SOL    HW234221   0.883   0.680   1.275  1.2730 -0.4715  0.7875
 7529SOL     OW34222   3.436   3.918   7.021  0.1602 -0.1731 -0.1233
 7529SOL    HW134223   3.455   4.008   6.995 -2.4480  0.0597 -1.1962
 7529SOL    HW234224   3.387   3.928   7.103  1.9533 -1.0276  1.0511
 7530SOL     OW34225   4.220   1.352   3.038 -0.0148  0.1857 -0.4130
 7530SOL    HW134226   4.244   1.316   3.124 -2.9400  2.3753  1.3392
 7530SOL    HW234227   4.218   1.272   2.985  1.7760 -0.7065  0.8706
 7531SOL     OW34228   0.819   3.449   8.486 -0.2029  0.3195 -0.2861
 7531SOL    HW134229   0.857   3.519   8.539 -1.7141  1.3920 -0.6416
 7531SOL    HW234230   0.764   3.493   8.421  0.7675 -0.6481 -1.7754
 7532SOL     OW34231   0.762   3.773  10.695 -0.2586  0.2214 -0.1452
 7532SOL    HW134232   0.675   3.780  10.655  0.6812 -1.1444 -2.4342
 7532SOL    HW234233   0.764   3.860  10.735 -2.7314  0.0084  0.4471
 7533SOL     OW34234   3.338   1.589   7.023 -0.5363  0.4527  0.4050
 7533SOL    HW134235   3.330   1.525   7.093  2.1919 -0.6332 -0.2900
 7533SOL    HW234236   3.321   1.530   6.949  1.8482  0.6657 -0.3199
 7534SOL     OW34237   0.588   4.418   2.183  0.0807 -0.1657  0.2069
 7534SOL    HW134238   0.674   4.426   2.141 -0.4923 -0.2277 -0.9723
 7534SOL    HW234239   0.521   4.424   2.115 -0.6598 -1.5979  0.8116
 7535SOL     OW34240   0.221   0.470   9.879 -0.0315  0.3883 -0.8175
 7535SOL    HW134241   0.147   0.531   9.888 -0.4552 -0.2180 -0.2389
 7535SOL    HW234242   0.202   0.417   9.956  0.5919  0.5308 -0.5638
 7536SOL     OW34243   1.587   3.051  11.673  0.0131 -0.4844  0.2679
 7536SOL    HW134244   1.524   3.041  11.744 -2.6737  1.4719 -1.8678
 7536SOL    HW234245   1.673   3.049  11.715 -0.0772 -1.7381  0.3930
 7537SOL     OW34246   1.307   2.588   4.163  0.5034  0.0296 -0.5818
 7537SOL    HW134247   1.254   2.633   4.097 -0.5893  0.3653  0.5163
 7537SOL    HW234248   1.242   2.540   4.215 -3.0390  3.1330 -2.1808
 7538SOL     OW34249   2.862   2.417  16.001 -0.8296 -0.7250 -0.0228
 7538SOL    HW134250   2.905   2.480  15.944  3.8603 -0.8112  3.3784
 7538SOL    HW234251   2.873   2.338  15.948  0.7445 -1.7064  1.7459
 7539SOL     OW34252   0.796   0.619  16.013 -0.0859  0.4483 -0.0823
 7539SOL    HW134253   0.836   0.705  15.997  0.5424 -0.1397 -1.7233
 7539SOL    HW234254   0.743   0.606  15.934 -1.1150 -0.1467  0.7181
 7540SOL     OW34255   3.928   2.437  10.157 -0.5071  0.0747 -0.2369
 7540SOL    HW134256   3.856   2.498  10.173 -0.2934  0.7921 -2.0217
 7540SOL    HW234257   3.918   2.363  10.216  2.2741  1.7053  2.2588
 7541SOL     OW34258   4.275   4.044  13.181 -0.4859 -0.0908 -0.1097
 7541SOL    HW134259   4.257   4.025  13.089  0.0717 -0.0967 -0.2221
 7541SOL    HW234260   4.354   3.989  13.182  1.5831  2.8750  0.4215
 7542SOL     OW34261   4.688   3.729   9.003  0.3924  0.1803 -0.0195
 7542SOL    HW134262   4.637   3.649   9.016 -2.6912  2.5285  2.3787
 7542SOL    HW234263   4.621   3.798   8.997 -0.8195 -0.6982  3.8391
 7543SOL     OW34264   2.605   2.808   7.705  0.2382 -0.1726  0.5636
 7543SOL    HW134265   2.516   2.814   7.669  0.9766 -1.6517 -1.5057
 7543SOL    HW234266   2.589   2.838   7.795  0.2019  0.1790  0.4397
 7544SOL     OW34267   1.762   1.356   2.310  0.5597 -0.3757  0.4212
 7544SOL    HW134268   1.829   1.377   2.244  0.3921 -4.4540 -1.0366
 7544SOL    HW234269   1.686   1.342   2.253  0.1349  0.8412  0.6857
 7545SOL     OW34270   3.046   2.210  16.552  0.6233  0.2548 -0.1829
 7545SOL    HW134271   3.019   2.148  16.620 -1.1960  1.4985  0.2448
 7545SOL    HW234272   3.113   2.156  16.510  1.0720 -0.7644  1.8131
 7546SOL     OW34273   3.387   4.589  16.743 -0.7655  0.0917  0.5478
 7546SOL    HW134274   3.318   4.607  16.679  1.2511  1.7081 -1.1683
 7546SOL    HW234275   3.417   4.675  16.772 -0.3349 -0.4200  1.6391
 7547SOL     OW34276   1.627   1.712   6.421 -1.1469  0.8201  0.1454
 7547SOL    HW134277   1.670   1.705   6.336  1.3128 -3.2494  1.7114
 7547SOL    HW234278   1.676   1.641   6.464  0.4944  1.4853 -0.6271
 7548SOL     OW34279   4.399   2.514   3.594  0.6116 -0.1208 -0.1427
 7548SOL    HW134280   4.406   2.609   3.582  0.7793 -0.1360 -0.1649
 7548SOL    HW234281   4.479   2.488   3.550  2.2955  2.8771  1.1297
 7549SOL     OW34282   3.164   4.114   5.077  0.4555  0.4096 -0.5583
 7549SOL    HW134283   3.225   4.167   5.026 -2.2082  2.7693 -1.2875
 7549SOL    HW234284   3.139   4.174   5.147  0.6428  0.0627 -0.1942
 7550SOL     OW34285   0.718   3.104   8.017 -0.3205  0.3711 -0.3250
 7550SOL    HW134286   0.783   3.034   8.003 -3.1101 -2.2584 -0.1088
 7550SOL    HW234287   0.659   3.064   8.081 -0.3566  0.9293 -0.0085
 7551SOL     OW34288   0.881   1.731  16.685 -0.6825 -0.2432 -0.3091
 7551SOL    HW134289   0.888   1.746  16.780 -1.5275  2.4579 -0.6858
 7551SOL    HW234290   0.788   1.741  16.667 -0.8088 -0.4269  0.2243
 7552SOL     OW34291   4.606   1.892   1.600 -0.5580 -0.3418  0.0550
 7552SOL    HW134292   4.653   1.873   1.519  0.6761 -0.8331  0.8853
 7552SOL    HW234293   4.583   1.804   1.632 -1.5842  0.2768  1.0539
 7553SOL     OW34294   0.213   1.098   5.901 -1.0468 -0.3786  0.3014
 7553SOL    HW134295   0.214   1.116   5.995  2.2785  0.0410  0.1925
 7553SOL    HW234296   0.190   1.184   5.866 -1.1116 -1.0054 -1.2209
 7554SOL     OW34297   4.417   4.243   8.808  0.2223 -0.5688  0.3173
 7554SOL    HW134298   4.389   4.292   8.885 -0.6231 -0.2621 -0.1791
 7554SOL    HW234299   4.353   4.256   8.739  1.8896  0.1963 -1.0850
 7555SOL     OW34300   1.406   0.080   5.472  0.0295 -0.3100 -0.7946
 7555SOL    HW134301   1.331   0.140   5.473  0.6297  0.4085  1.9701
 7555SOL    HW234302   1.479   0.132   5.507  0.6888 -0.4551 -1.9232
 7556SOL     OW34303   0.348   4.263  17.617 -0.0087  0.2340  0.5733
 7556SOL    HW134304   0.318   4.174  17.598  2.1292 -0.3641  0.0543
 7556SOL    HW234305   0.338   4.300  17.529 -0.6097 -1.4343 -0.0702
 7557SOL     OW34306   0.695   3.004   2.599 -0.4612 -0.0075 -0.2320
 7557SOL    HW134307   0.689   2.925   2.653 -1.7671 -0.4736 -1.0681
 7557SOL    HW234308   0.703   2.968   2.511  0.7984  0.4390 -0.3059
 7558SOL     OW34309   0.476   0.179   4.921  0.4471 -0.0777  0.2825
 7558SOL    HW134310   0.554   0.211   4.876 -0.1675 -0.3337 -0.9685
 7558SOL    HW234311   0.454   0.110   4.858  4.4705 -0.7092 -0.3990
 7559SOL     OW34312   2.433   2.098   3.212 -0.2350  0.0171  0.0222
 7559SOL    HW134313   2.366   2.039   3.248 -0.4032 -0.7784 -1.5690
 7559SOL    HW234314   2.383   2.176   3.188  2.5911  1.2421 -1.8479
 7560SOL     OW34315   0.076   2.014   2.769  0.2681  0.8543  0.4993
 7560SOL    HW134316   0.009   2.058   2.718 -0.7372  0.4750  1.4834
 7560SOL    HW234317   0.121   1.969   2.698  0.3102  0.6027  0.6858
 7561SOL     OW34318   4.615   0.018   7.351 -0.4082 -0.1767  0.6183
 7561SOL    HW134319   4.626   4.661   7.345  0.8796  0.1495 -2.0278
 7561SOL    HW234320   4.689   0.055   7.302 -1.1213  1.3628  0.6939
 7562SOL     OW34321   1.552   4.491   7.015 -0.6160  0.0757  0.6390
 7562SOL    HW134322   1.567   4.552   6.944  0.0144  1.4948  1.9882
 7562SOL    HW234323   1.476   4.532   7.056 -1.1246 -0.6585  0.4264
 7563SOL     OW34324   3.429   4.693   2.688 -0.2476  0.9379 -0.3017
 7563SOL    HW134325   3.498   4.658   2.631  0.8574  0.7000  1.1858
 7563SOL    HW234326   3.345   4.670   2.648  0.9187 -0.8311 -1.7221
 7564SOL     OW34327   2.105   0.340   3.304  0.1027 -0.7273 -0.5061
 7564SOL    HW134328   2.115   0.246   3.320  1.4697 -0.1486  2.1334
 7564SOL    HW234329   2.036   0.340   3.238  1.3383  1.1680 -1.7857
 7565SOL     OW34330   0.123   0.104   5.700  0.2260 -0.2239  0.2322
 7565SOL    HW134331   0.189   0.172   5.685 -0.3433 -0.1283 -1.7806
 7565SOL    HW234332   0.095   0.102   5.792 -1.0177 -2.0101 -0.2003
 7566SOL     OW34333   2.880   0.348   1.906  0.2075 -0.1852  0.4588
 7566SOL    HW134334   2.951   0.296   1.870  0.4947 -1.2502  2.5313
 7566SOL    HW234335   2.919   0.345   1.994 -2.6059  0.0046  1.7275
 7567SOL     OW34336   2.434   3.269   9.540  0.4667 -0.8538 -0.0331
 7567SOL    HW134337   2.396   3.251   9.626 -1.3414  2.2333 -0.1941
 7567SOL    HW234338   2.398   3.199   9.484 -0.5046 -0.4604  0.0988
 7568SOL     OW34339   1.583   3.642   5.569  0.1890 -0.6044 -0.1761
 7568SOL    HW134340   1.520   3.708   5.599  2.2056  0.6812  1.2286
 7568SOL    HW234341   1.573   3.582   5.643 -0.4247  1.1327  1.1750
 7569SOL     OW34342   1.090   4.507   7.405 -0.3444 -0.5323  0.2388
 7569SOL    HW134343   1.172   4.558   7.406 -0.4322 -0.3920  0.2747
 7569SOL    HW234344   1.061   4.512   7.496  2.1194 -1.0155  1.0604
 7570SOL     OW34345   0.092   3.369  10.610 -0.2713 -0.1627 -0.5065
 7570SOL    HW134346   0.082   3.276  10.628  0.5619 -0.7510 -3.1161
 7570SOL    HW234347   0.112   3.402  10.698  1.0096 -3.5923  0.4860
 7571SOL     OW34348   4.641   3.333   5.214  0.0560  0.4089 -0.2010
 7571SOL    HW134349   4.608   3.256   5.261  1.1757 -0.6147 -1.0873
 7571SOL    HW234350   4.725   3.304   5.179  0.8311 -0.1108  2.0643
 7572SOL     OW34351   2.051   0.645  15.636  0.2664  0.4468 -0.8742
 7572SOL    HW134352   2.097   0.727  15.654  0.6582  0.1646 -0.5724
 7572SOL    HW234353   1.973   0.682  15.594 -2.0327  0.5760  3.5134
 7573SOL     OW34354   0.228   2.542   8.664  0.2844  0.6550  0.2941
 7573SOL    HW134355   0.203   2.600   8.736  0.0724 -0.4614  1.1278
 7573SOL    HW234356   0.210   2.592   8.584 -0.2657 -0.2541 -0.1448
 7574SOL     OW34357   0.483   0.465  10.245 -0.4459  0.5825 -0.3520
 7574SOL    HW134358   0.537   0.440  10.169 -0.7592  1.5321 -0.8920
 7574SOL    HW234359   0.396   0.461  10.206 -1.0430  0.2147  1.0506
 7575SOL     OW34360   3.974   0.165   2.164  0.0615  0.6681 -0.7220
 7575SOL    HW134361   3.926   0.082   2.171 -0.0781  0.6917 -1.4687
 7575SOL    HW234362   3.920   0.218   2.106 -0.8286  1.2500  0.6530
 7576SOL     OW34363   1.256   0.231   3.039 -0.7382 -0.4411  0.4499
 7576SOL    HW134364   1.330   0.225   3.099 -0.1495 -2.3227 -0.4826
 7576SOL    HW234365   1.262   0.325   3.021 -0.1317 -0.8240 -1.3533
 7577SOL     OW34366   0.317   4.287  16.875  0.0352  0.1660  0.0129
 7577SOL    HW134367   0.283   4.339  16.948 -1.2759  1.8059 -1.8053
 7577SOL    HW234368   0.389   4.344  16.846  0.7651 -1.1552 -0.7743
 7578SOL     OW34369   4.382   1.815   9.053 -0.7163 -0.0284 -0.1485
 7578SOL    HW134370   4.471   1.799   9.084 -0.6384 -0.8814 -0.8041
 7578SOL    HW234371   4.363   1.885   9.116 -1.0082 -0.3449  0.1134
 7579SOL     OW34372   4.374   2.786   6.552  0.2034 -0.3149 -0.2092
 7579SOL    HW134373   4.341   2.700   6.527 -0.5908  0.0446 -0.4056
 7579SOL    HW234374   4.465   2.788   6.524  0.3015  2.0057  0.2469
 7580SOL     OW34375   2.672   0.244   8.617  0.2023  0.3455 -0.0294
 7580SOL    HW134376   2.645   0.180   8.551 -0.9720  0.9280 -0.1037
 7580SOL    HW234377   2.767   0.235   8.623  0.0861 -1.1453 -0.2944
 7581SOL     OW34378   0.509   2.718   8.126  0.3256 -0.1508  0.0054
 7581SOL    HW134379   0.423   2.687   8.156  0.2485  0.4618  0.4140
 7581SOL    HW234380   0.568   2.655   8.168 -1.4219  0.1028  2.8682
 7582SOL     OW34381   0.800   0.563   6.782  0.4213 -0.3015  0.0313
 7582SOL    HW134382   0.885   0.521   6.783  0.2465 -0.6587 -0.2761
 7582SOL    HW234383   0.823   0.654   6.762  0.2679 -0.1521  0.5260
 7583SOL     OW34384   1.133   3.971   2.164  0.0138 -0.0735 -0.4478
 7583SOL    HW134385   1.040   3.972   2.187  0.6007 -0.4118  1.8937
 7583SOL    HW234386   1.126   3.978   2.069  0.2085 -2.7345 -0.6601
 7584SOL     OW34387   1.969   1.212   4.554  0.8249  0.3415  0.0247
 7584SOL    HW134388   1.909   1.273   4.597  1.6225  2.6034 -2.0317
 7584SOL    HW234389   2.048   1.243   4.598  0.4398  2.1753 -0.5603
 7585SOL     OW34390   3.988   0.019   4.091  0.3922 -0.3015  0.5393
 7585SOL    HW134391   3.956   0.088   4.149 -0.0732 -0.1650  0.1181
 7585SOL    HW234392   3.904   4.736   4.051  0.3955  0.7531 -0.0015
 7586SOL     OW34393   4.064   2.982   7.911 -0.4475  0.2888  0.2391
 7586SOL    HW134394   4.018   2.944   7.986 -1.8016 -0.6184 -1.0450
 7586SOL    HW234395   4.030   2.929   7.839  0.8110  0.6187 -0.5863
 7587SOL     OW34396   3.253   4.555   7.400  0.5877  0.0338 -0.5620
 7587SOL    HW134397   3.241   4.473   7.447  2.2791 -0.6839 -1.3861
 7587SOL    HW234398   3.231   4.538   7.308 -0.3918  0.8404 -0.4742
 7588SOL     OW34399   1.639   3.789   1.564 -0.1448  0.5201 -0.2467
 7588SOL    HW134400   1.566   3.757   1.617 -0.2569  0.8202 -0.2201
 7588SOL    HW234401   1.709   3.777   1.628 -2.0521  0.0657  1.7609
 7589SOL     OW34402   2.980   0.884   3.852  0.6388 -0.3445  0.1697
 7589SOL    HW134403   2.900   0.839   3.877 -0.6753  0.9519 -1.7501
 7589SOL    HW234404   3.007   0.922   3.935  0.2419 -0.9405  0.5737
 7590SOL     OW34405   3.253   4.334   7.550 -0.1451  0.7054 -0.1255
 7590SOL    HW134406   3.334   4.282   7.555 -0.6954 -0.0935  0.3952
 7590SOL    HW234407   3.193   4.270   7.513 -1.9313  1.5570  1.3464
 7591SOL     OW34408   3.404   0.642  11.703  0.5312  0.4614  0.1172
 7591SOL    HW134409   3.378   0.729  11.671  0.0905  0.2276 -0.1600
 7591SOL    HW234410   3.465   0.671  11.771  0.2447  1.5470 -0.0873
 7592SOL     OW34411   4.698   3.587  17.559  0.4130 -0.1468  0.0009
 7592SOL    HW134412   4.620   3.551  17.599  1.5223  0.3852  2.6633
 7592SOL    HW234413   0.017   3.510  17.566 -0.1239 -0.4544  0.8808
 7593SOL     OW34414   1.824   0.645   2.067 -0.1834  0.0405 -0.3685
 7593SOL    HW134415   1.760   0.619   2.000  0.7974 -0.5089 -1.1142
 7593SOL    HW234416   1.893   0.578   2.064  0.1793  0.4004  0.2012
 7594SOL     OW34417   3.924   3.105  12.427 -0.7780  0.2496  0.0076
 7594SOL    HW134418   3.933   3.187  12.378 -0.3497 -0.3412 -0.9065
 7594SOL    HW234419   3.932   3.155  12.509  2.1146 -0.7010  0.2736
 7595SOL     OW34420   2.650   2.372   2.541 -0.1346  0.2065  0.1460
 7595SOL    HW134421   2.718   2.369   2.609  0.5255 -2.2342 -0.5994
 7595SOL    HW234422   2.683   2.297   2.492 -2.6404 -0.7257 -0.0891
 7596SOL     OW34423   2.810   4.621   3.215  0.2163  0.0862  0.3293
 7596SOL    HW134424   2.889   4.625   3.268 -0.6481  0.2664  1.6084
 7596SOL    HW234425   2.749   4.601   3.286 -1.2397 -0.2593 -1.0104
 7597SOL     OW34426   0.356   0.365   8.439  0.0148 -0.2238 -0.2531
 7597SOL    HW134427   0.372   0.450   8.480  0.2941 -1.6738  2.6643
 7597SOL    HW234428   0.271   0.345   8.480  0.3015  1.4492  1.1491
 7598SOL     OW34429   4.279   3.175  12.351 -0.0909 -1.0791  0.8739
 7598SOL    HW134430   4.222   3.098  12.357  2.3436 -2.8824  0.6820
 7598SOL    HW234431   4.240   3.218  12.275 -0.3177 -1.3320  0.8496
 7599SOL     OW34432   3.979   1.013  16.177  0.3723  0.1260 -0.7166
 7599SOL    HW134433   3.898   0.963  16.163 -0.6813  1.5193  0.5233
 7599SOL    HW234434   3.946   1.084  16.231  3.6221 -0.6685  2.2881
 7600SOL     OW34435   1.045   1.154   1.249 -0.0066 -1.1650 -0.1766
 7600SOL    HW134436   1.029   1.242   1.214  0.1862 -0.6998  0.8948
 7600SOL    HW234437   1.073   1.112   1.168  1.4770 -0.7397  0.1137
 7601SOL     OW34438   1.230   3.982   4.418  0.0144  0.3283 -0.3106
 7601SOL    HW134439   1.311   4.006   4.462 -0.7977  0.5714  1.0517
 7601SOL    HW234440   1.260   3.909   4.364  0.2279 -1.6676  2.5075
 7602SOL     OW34441   1.536   4.358   5.502  0.0342  0.2745 -0.0296
 7602SOL    HW134442   1.564   4.389   5.416  2.8401 -1.4127  0.2836
 7602SOL    HW234443   1.607   4.303   5.534  0.4906  0.6567 -0.3793
 7603SOL     OW34444   3.534   1.264   0.687 -0.4533 -0.0546 -1.1430
 7603SOL    HW134445   3.507   1.186   0.638  0.8200 -1.0602 -0.2380
 7603SOL    HW234446   3.623   1.246   0.719 -1.3166 -0.3845  1.0235
 7604SOL     OW34447   3.654   3.464   4.405  0.2121  0.6784 -0.2265
 7604SOL    HW134448   3.567   3.423   4.407  0.4771  0.1152 -0.1066
 7604SOL    HW234449   3.714   3.390   4.418 -0.6335 -0.3970 -2.4918
 7605SOL     OW34450   1.071   4.171  16.604  0.1143  0.2603  0.1114
 7605SOL    HW134451   1.001   4.213  16.655  3.1964  4.6179  0.7376
 7605SOL    HW234452   1.028   4.132  16.528 -0.2595 -0.9766  0.9553
 7606SOL     OW34453   3.474   0.022   7.400  0.5595 -0.1094 -0.0346
 7606SOL    HW134454   3.397   4.703   7.399  0.9560 -0.6767  1.1068
 7606SOL    HW234455   3.501   0.019   7.492  0.6522 -0.3164 -0.0693
 7607SOL     OW34456   1.888   2.539   8.358  0.0768 -0.4412  0.0189
 7607SOL    HW134457   1.944   2.480   8.408 -0.9972 -1.3100  0.1827
 7607SOL    HW234458   1.899   2.510   8.267  2.1210 -2.4344  0.9004
 7608SOL     OW34459   0.751   0.405  10.340 -0.3838  0.2152  0.2284
 7608SOL    HW134460   0.716   0.439  10.422 -0.9179 -3.1512  1.4084
 7608SOL    HW234461   0.712   0.317  10.336  1.6322 -0.6251 -1.0715
 7609SOL     OW34462   1.909   3.223  17.483  0.2424 -0.0074  0.2818
 7609SOL    HW134463   1.953   3.240  17.566  0.0598 -1.4526  0.6833
 7609SOL    HW234464   1.898   3.312  17.451  0.2198 -0.9214 -2.2757
 7610SOL     OW34465   2.833   3.543   3.549  0.0990 -0.1200 -0.3551
 7610SOL    HW134466   2.746   3.574   3.524  0.1574 -0.4652 -0.9823
 7610SOL    HW234467   2.815   3.506   3.635  0.0466 -1.1290 -0.8035
 7611SOL     OW34468   3.255   2.767   4.315  0.7037  0.1493 -0.4994
 7611SOL    HW134469   3.181   2.710   4.293  1.2635  0.2494 -2.6602
 7611SOL    HW234470   3.331   2.712   4.297  0.1178 -1.3548  1.6995
 7612SOL     OW34471   2.241   1.520   5.670  0.0858 -0.0264 -0.6156
 7612SOL    HW134472   2.270   1.476   5.590  0.0512 -0.0898 -0.5934
 7612SOL    HW234473   2.319   1.512   5.724 -0.1074  1.8458 -0.0671
 7613SOL     OW34474   1.990   0.058   6.378 -0.1416 -0.2454  0.1338
 7613SOL    HW134475   1.911   0.008   6.358 -1.3338  1.9107 -0.5858
 7613SOL    HW234476   1.970   0.142   6.336  0.5141  0.6510  1.6340
 7614SOL     OW34477   0.343   3.571   2.232  0.4094 -0.5775  0.2991
 7614SOL    HW134478   0.361   3.495   2.286 -0.7004 -0.1574  1.2668
 7614SOL    HW234479   0.408   3.555   2.164 -0.6221 -0.5284 -0.7183
 7615SOL     OW34480   0.614   2.862   6.312 -0.0283 -0.1815  0.1480
 7615SOL    HW134481   0.555   2.885   6.384 -0.4181  0.7186 -0.4657
 7615SOL    HW234482   0.674   2.806   6.361 -1.7523 -1.1054  1.2133
 7616SOL     OW34483   1.798   3.305   1.962 -0.0526  0.0612  0.4260
 7616SOL    HW134484   1.747   3.364   2.018 -0.0583  0.5344 -0.0849
 7616SOL    HW234485   1.737   3.235   1.939 -0.9040 -0.2951  3.7265
 7617SOL     OW34486   1.662   2.939   5.218  0.3600 -0.5226  0.3040
 7617SOL    HW134487   1.716   2.986   5.154  0.5042 -1.6446 -0.4005
 7617SOL    HW234488   1.672   2.847   5.194  0.1255 -0.1678 -1.1811
 7618SOL     OW34489   3.050   1.405   4.696 -0.5242 -0.2028  0.3637
 7618SOL    HW134490   3.142   1.420   4.718  0.0828  0.6825 -2.8720
 7618SOL    HW234491   3.015   1.351   4.767 -0.9440  0.8448  0.9643
 7619SOL     OW34492   3.245   4.018  13.647 -0.6936 -0.2901  0.7528
 7619SOL    HW134493   3.190   4.096  13.650 -0.4875 -0.1851  1.7482
 7619SOL    HW234494   3.190   3.946  13.678 -2.6901 -0.0835 -2.2953
 7620SOL     OW34495   3.930   3.547  17.685 -0.1490 -0.1088  0.0662
 7620SOL    HW134496   3.946   3.555  17.590 -1.8256  1.5137 -0.0803
 7620SOL    HW234497   3.868   3.617  17.706 -1.6673 -1.2850 -0.4488
 7621SOL     OW34498   3.961   2.128   2.666 -0.2441  0.2350  0.0133
 7621SOL    HW134499   3.965   2.091   2.754  1.9433 -0.2760 -0.3101
 7621SOL    HW234500   3.951   2.047   2.616 -2.2093  0.6608 -0.2905
 7622SOL     OW34501   3.506   4.668  17.626 -0.1652 -0.1826  0.5779
 7622SOL    HW134502   3.513   4.671  17.531  1.2214  2.9848  0.8005
 7622SOL    HW234503   3.441   4.737  17.635  0.8833  1.2277 -2.6130
 7623SOL     OW34504   3.599   3.735  15.261  0.3958 -0.0596 -0.3000
 7623SOL    HW134505   3.643   3.767  15.182 -0.9297  0.9003 -0.6621
 7623SOL    HW234506   3.578   3.645  15.236  1.0948  0.0472 -1.2685
 7624SOL     OW34507   4.013   0.914   1.840 -0.3621 -0.3241 -0.1030
 7624SOL    HW134508   4.004   1.009   1.847 -2.2825 -0.4732 -0.4777
 7624SOL    HW234509   3.964   0.911   1.758 -0.5935 -0.7763  0.0503
 7625SOL     OW34510   0.596   2.937   9.338  0.3063  0.1017  0.3802
 7625SOL    HW134511   0.663   2.888   9.386  0.8616 -0.8235 -1.3257
 7625SOL    HW234512   0.656   2.964   9.268 -0.5482 -2.7266 -1.4387
 7626SOL     OW34513   3.104   2.104   5.491 -0.7910  0.3704  0.0110
 7626SOL    HW134514   3.093   2.195   5.461  1.1846  0.8504  0.7678
 7626SOL    HW234515   3.197   2.082   5.484 -0.7881  0.4962 -0.3628
 7627SOL     OW34516   2.941   2.071   3.872 -0.0330 -0.0173 -1.0018
 7627SOL    HW134517   2.972   2.140   3.814 -1.0818  0.6158 -0.8113
 7627SOL    HW234518   2.849   2.095   3.883  0.0166  0.1598 -0.9729
 7628SOL     OW34519   1.495   4.458   4.309  0.1340 -0.4809 -0.0011
 7628SOL    HW134520   1.567   4.488   4.364 -2.5873  1.1138  2.7006
 7628SOL    HW234521   1.483   4.531   4.248  0.8303 -1.5271 -1.4115
 7629SOL     OW34522   3.105   4.342   9.310  0.4602  0.6030  1.0248
 7629SOL    HW134523   3.134   4.265   9.261  0.4313 -0.1780  2.2187
 7629SOL    HW234524   3.171   4.407   9.286  1.4512 -0.1219  1.7506
 7630SOL     OW34525   1.522   2.278   6.158 -0.2456  0.4648  0.3612
 7630SOL    HW134526   1.497   2.205   6.215  1.1270  0.8607  1.4780
 7630SOL    HW234527   1.583   2.227   6.106  0.5558  0.0724  1.6975
 7631SOL     OW34528   2.699   2.105   1.759 -0.3309 -0.3444 -0.3281
 7631SOL    HW134529   2.712   2.098   1.664  1.9872 -1.6328  0.0748
 7631SOL    HW234530   2.676   2.197   1.764  1.0186  0.0509 -1.4858
 7632SOL     OW34531   1.406   3.544   4.234 -0.6809 -0.1524 -0.5300
 7632SOL    HW134532   1.382   3.489   4.159 -2.7068  0.0894 -0.0595
 7632SOL    HW234533   1.325   3.576   4.273 -0.1582  2.8119 -1.9054
 7633SOL     OW34534   0.552   3.041   5.914  0.0972 -0.4789 -0.3377
 7633SOL    HW134535   0.566   2.964   5.968 -0.4555 -0.3295  0.0257
 7633SOL    HW234536   0.634   3.089   5.899  0.3991 -0.7557  0.4313
 7634SOL     OW34537   1.177   0.569   2.448  0.1374 -0.4126 -0.5228
 7634SOL    HW134538   1.130   0.577   2.532 -2.4265  1.6457 -2.1628
 7634SOL    HW234539   1.263   0.535   2.474  1.2022  2.0327 -0.8512
 7635SOL     OW34540   2.760   0.770   4.882  0.3850 -0.0184 -0.2225
 7635SOL    HW134541   2.669   0.743   4.868  0.5044  0.4372 -1.8967
 7635SOL    HW234542   2.787   0.701   4.942 -0.3778  0.5876  0.8323
 7636SOL     OW34543   3.230   1.866   5.840 -0.7614 -0.4177  0.2188
 7636SOL    HW134544   3.139   1.883   5.817 -0.1851  0.1853 -1.6798
 7636SOL    HW234545   3.249   1.794   5.780  1.8837 -1.5142  2.3689
 7637SOL     OW34546   3.011   2.114   4.663  0.5307  0.1184 -0.2202
 7637SOL    HW134547   3.052   2.029   4.677  0.1006  0.2990  2.0689
 7637SOL    HW234548   2.917   2.098   4.671  0.6755  0.8701  2.7649
 7638SOL     OW34549   1.011   0.931   1.017 -0.7321 -0.0097 -0.5496
 7638SOL    HW134550   0.940   0.968   0.964  0.1454 -0.8624 -2.3181
 7638SOL    HW234551   0.960   0.866   1.064 -0.8285 -0.9325 -1.9342
 7639SOL     OW34552   3.062   1.064  10.639 -0.0415  0.4935  0.5462
 7639SOL    HW134553   3.002   0.995  10.611  0.2342  0.2863  0.4616
 7639SOL    HW234554   3.069   1.111  10.556 -1.8849 -1.7681 -0.9104
 7640SOL     OW34555   0.299   2.286   8.639 -0.5412  0.1883 -0.0413
 7640SOL    HW134556   0.272   2.377   8.648  0.8496  0.8300 -2.1649
 7640SOL    HW234557   0.388   2.297   8.673 -0.2620  0.9640 -1.0155
 7641SOL     OW34558   2.746   0.608   6.686 -0.0177  0.0236 -0.0123
 7641SOL    HW134559   2.657   0.611   6.722  0.3153  1.1741  0.7268
 7641SOL    HW234560   2.768   0.531   6.739 -2.0494 -0.2339  0.4644
 7642SOL     OW34561   4.288   2.181  17.709 -0.2125 -0.1327  0.2071
 7642SOL    HW134562   4.295   2.227   0.043 -0.2845  2.3875 -1.1990
 7642SOL    HW234563   4.364   2.217  17.664 -1.1080  0.1663 -1.0522
 7643SOL     OW34564   1.673   4.506  11.423  0.0196  0.2314  0.3292
 7643SOL    HW134565   1.682   4.469  11.335 -0.1730 -0.1779  0.4824
 7643SOL    HW234566   1.748   4.472  11.470  0.3958  0.3228 -0.2062
 7644SOL     OW34567   3.080   4.327   7.985  0.4271  0.0061 -0.1348
 7644SOL    HW134568   3.024   4.273   8.040  1.4102  1.0641  1.9288
 7644SOL    HW234569   3.089   4.272   7.908 -0.1487 -0.3581  0.0613
 7645SOL     OW34570   3.140   1.941  15.366  0.0797 -0.9880 -0.1567
 7645SOL    HW134571   3.202   1.886  15.318 -0.2503 -3.1618  1.8988
 7645SOL    HW234572   3.062   1.923  15.313  1.2644  2.3477 -3.0318
 7646SOL     OW34573   4.331   3.640   7.011  0.0414  0.8177  0.1151
 7646SOL    HW134574   4.265   3.658   7.077  0.6764 -2.4589  1.6778
 7646SOL    HW234575   4.401   3.625   7.074 -0.4318  1.1206  0.7023
 7647SOL     OW34576   1.210   4.252   1.983 -0.8437  0.2381  0.5170
 7647SOL    HW134577   1.185   4.333   1.938  1.0917  0.1493 -0.7528
 7647SOL    HW234578   1.194   4.285   2.071  3.4920 -0.9147  1.6985
 7648SOL     OW34579   3.143   4.135  12.152 -0.2295  0.0746  0.2034
 7648SOL    HW134580   3.091   4.209  12.121 -1.9061 -1.8742 -1.6576
 7648SOL    HW234581   3.152   4.099  12.064 -1.5119 -1.1871  0.5829
 7649SOL     OW34582   2.562   0.500   5.048 -0.0562 -0.0817 -0.0929
 7649SOL    HW134583   2.581   0.579   5.099 -1.1552  1.9117 -2.7995
 7649SOL    HW234584   2.496   0.454   5.101 -0.2717 -0.5217 -0.7402
 7650SOL     OW34585   4.692   1.729   8.563  0.3029 -0.1339 -0.4005
 7650SOL    HW134586   4.649   1.712   8.479 -0.0672  0.9542 -0.4225
 7650SOL    HW234587   4.725   1.644   8.594 -1.4285 -0.9748 -0.8578
 7651SOL     OW34588   4.310   2.563  14.439  0.0316 -0.3652 -0.4176
 7651SOL    HW134589   4.270   2.516  14.511  0.5753 -2.4294 -1.4516
 7651SOL    HW234590   4.246   2.634  14.434  0.2085 -0.0760  1.5484
 7652SOL     OW34591   0.911   1.820   1.733  0.2724 -0.0377 -0.3899
 7652SOL    HW134592   0.818   1.810   1.713  0.5615 -1.1993 -1.2046
 7652SOL    HW234593   0.942   1.879   1.664  0.2062 -0.4790 -0.7986
 7653SOL     OW34594   0.161   0.864   7.847  0.5150 -0.6668  0.0043
 7653SOL    HW134595   0.193   0.835   7.933 -2.2605 -0.6953  1.0518
 7653SOL    HW234596   0.235   0.858   7.787  0.7943 -0.0789  0.2900
 7654SOL     OW34597   4.247   2.659  13.191  0.5183 -0.2755  0.6517
 7654SOL    HW134598   4.174   2.679  13.249 -1.1635 -0.7794 -1.3079
 7654SOL    HW234599   4.250   2.563  13.197 -2.0648 -0.5306 -1.9266
 7655SOL     OW34600   4.650   2.589   2.017 -0.0193  0.0413  0.0542
 7655SOL    HW134601   0.008   2.592   2.019 -0.0094 -0.2495  0.0315
 7655SOL    HW234602   4.631   2.587   1.923 -2.7040  0.0847  0.5863
 7656SOL     OW34603   1.951   3.355  15.412  0.1731  0.5062  0.1192
 7656SOL    HW134604   1.878   3.384  15.357  0.7511 -1.1042 -1.4990
 7656SOL    HW234605   1.930   3.262  15.415  1.9055  0.1680  1.2785
 7657SOL     OW34606   3.911   4.337   3.684  0.2596 -0.0866 -0.0586
 7657SOL    HW134607   3.930   4.358   3.775  1.0481 -0.5824 -0.1107
 7657SOL    HW234608   3.959   4.254   3.681 -0.9125 -0.9448  4.7481
 7658SOL     OW34609   0.340   4.376  13.983  0.0839  0.4248  0.0746
 7658SOL    HW134610   0.297   4.461  13.987  1.5200  1.0774  1.5915
 7658SOL    HW234611   0.261   4.329  13.956  0.2826  0.5795 -0.7696
 7659SOL     OW34612   3.233   4.166   0.772  0.3150 -0.3235 -0.3884
 7659SOL    HW134613   3.154   4.166   0.826  1.5379  0.1700  1.4033
 7659SOL    HW234614   3.307   4.185   0.830  0.8272 -0.4386 -1.0030
 7660SOL     OW34615   1.634   2.880   3.752 -0.2816  0.2194  0.7388
 7660SOL    HW134616   1.562   2.889   3.814 -0.9644  2.1827 -0.3648
 7660SOL    HW234617   1.627   2.787   3.730 -1.0358  0.8202 -1.5308
 7661SOL     OW34618   3.799   1.743   1.319  0.6066  0.1233  0.1249
 7661SOL    HW134619   3.726   1.753   1.380 -1.0000 -0.6444 -1.6630
 7661SOL    HW234620   3.820   1.834   1.300 -0.9716  0.2845 -0.9205
 7662SOL     OW34621   3.642   1.133  16.322 -0.5938  0.2568 -0.0051
 7662SOL    HW134622   3.646   1.228  16.319  1.3621  0.2727  3.0764
 7662SOL    HW234623   3.662   1.105  16.233 -0.2371 -1.0046  0.4706
 7663SOL     OW34624   1.246   0.498   5.457 -0.2751  0.1312 -0.5733
 7663SOL    HW134625   1.309   0.545   5.512 -0.3346  2.3635 -2.4349
 7663SOL    HW234626   1.287   0.518   5.374 -3.5247  4.3740 -1.1550
 7664SOL     OW34627   3.886   1.138  16.520 -0.5128 -0.0379  0.3132
 7664SOL    HW134628   3.852   1.227  16.522  4.4173  1.9014 -0.1304
 7664SOL    HW234629   3.804   1.103  16.486 -1.1369  2.8240 -1.1644
 7665SOL     OW34630   1.290   4.094   4.067  0.1308 -0.4372  0.1375
 7665SOL    HW134631   1.345   4.032   4.114 -1.5878 -1.1015  1.3071
 7665SOL    HW234632   1.305   4.176   4.114  0.9507  0.1419 -1.1318
 7666SOL     OW34633   0.965   2.078  14.614  1.2207  0.0585 -0.1234
 7666SOL    HW134634   0.924   1.995  14.589  1.5816 -0.0015 -0.5064
 7666SOL    HW234635   0.899   2.141  14.585  0.8817  0.5550  1.7368
 7667SOL     OW34636   4.347   1.352  13.466  0.4159  0.3876 -0.3935
 7667SOL    HW134637   4.267   1.404  13.456  1.2536  1.5422 -1.0759
 7667SOL    HW234638   4.333   1.298  13.544 -1.1515 -1.4826 -1.9755
 7668SOL     OW34639   3.959   4.168  17.672 -0.1755 -0.4440 -0.0060
 7668SOL    HW134640   3.932   4.114  17.597 -2.1519  1.8220 -0.9339
 7668SOL    HW234641   3.880   4.215  17.698 -0.7086 -2.1744  1.5176
 7669SOL     OW34642   3.633   0.038   0.103 -0.0173 -0.0456 -0.1228
 7669SOL    HW134643   3.699   4.708   0.116 -0.5919 -0.6062 -0.1337
 7669SOL    HW234644   3.597   0.013   0.018  2.4696 -1.9291 -0.6243
 7670SOL     OW34645   4.122   2.780   7.347  0.2454 -0.2217  0.7508
 7670SOL    HW134646   4.181   2.710   7.319 -0.5355 -1.2244  1.6162
 7670SOL    HW234647   4.036   2.738   7.342  0.4551 -0.5973  0.3685
 7671SOL     OW34648   4.341   0.234   1.894  0.0426 -0.0069  0.4360
 7671SOL    HW134649   4.422   0.224   1.844  0.7703  0.0776  1.5825
 7671SOL    HW234650   4.348   0.328   1.911 -0.6354 -0.1164  1.3147
 7672SOL     OW34651   0.682   2.320   7.274  0.2453  0.2199 -0.2162
 7672SOL    HW134652   0.613   2.356   7.219  0.8805  1.7655  0.0131
 7672SOL    HW234653   0.641   2.353   7.354  2.0377  2.0910 -0.0838
 7673SOL     OW34654   2.873   4.460   7.384 -0.1495 -0.4127 -0.1294
 7673SOL    HW134655   2.875   4.405   7.462 -0.8994 -0.7749 -0.3631
 7673SOL    HW234656   2.864   4.549   7.416 -0.4796  0.0191 -1.4135
 7674SOL     OW34657   0.323   1.136   9.146  0.1205  0.3396 -0.1398
 7674SOL    HW134658   0.312   1.055   9.195 -1.1945 -0.4925 -1.8262
 7674SOL    HW234659   0.415   1.126   9.123  0.4032  0.9513  0.7426
 7675SOL     OW34660   0.884   0.929  13.546 -0.3500 -0.7580 -0.6963
 7675SOL    HW134661   0.880   1.022  13.522  1.1996 -0.3137  0.8404
 7675SOL    HW234662   0.835   0.885  13.476 -2.1640 -0.3858  0.3427
 7676SOL     OW34663   2.781   3.689   2.871  0.0507 -0.5160 -0.1128
 7676SOL    HW134664   2.803   3.601   2.902 -2.1373 -0.0054  2.9570
 7676SOL    HW234665   2.695   3.670   2.833  0.3344 -0.0189 -0.9943
 7677SOL     OW34666   4.148   2.513   7.282 -0.2583 -0.3624 -0.4255
 7677SOL    HW134667   4.123   2.459   7.206  1.4301 -0.7090 -0.7429
 7677SOL    HW234668   4.240   2.489   7.290 -0.8843 -1.3784  3.4785
 7678SOL     OW34669   4.077   4.520   2.155 -0.6240  0.4165 -0.4951
 7678SOL    HW134670   4.063   4.434   2.193  0.3011  1.0694  1.3292
 7678SOL    HW234671   4.015   4.512   2.083 -1.5480 -2.4943  0.6347
 7679SOL     OW34672   3.091   0.989   9.021 -0.3885  0.4539 -0.5981
 7679SOL    HW134673   3.016   1.042   9.049 -0.6508 -0.7128  0.9760
 7679SOL    HW234674   3.034   0.937   8.963  0.1089 -0.7725  0.0142
 7680SOL     OW34675   2.583   0.098  10.787  0.3114  0.5889  0.0376
 7680SOL    HW134676   2.655   0.120  10.847 -0.3126 -0.2675  1.1029
 7680SOL    HW234677   2.615   0.138  10.706 -1.9414 -2.1218 -2.1646
 7681SOL     OW34678   1.580   3.246   4.022 -0.1926 -0.4317 -0.1846
 7681SOL    HW134679   1.669   3.282   4.028 -0.0510 -0.3354 -3.1163
 7681SOL    HW234680   1.589   3.157   3.987 -0.3857 -0.4382 -0.2181
 7682SOL     OW34681   1.224   0.059   7.609 -0.7459 -0.0836 -0.0391
 7682SOL    HW134682   1.161   0.045   7.680 -0.4920  1.8507  0.5718
 7682SOL    HW234683   1.224   0.153   7.594 -1.1872 -0.2694 -1.2418
 7683SOL     OW34684   4.234   1.609   7.673  0.2431 -0.1651 -0.1042
 7683SOL    HW134685   4.305   1.574   7.727 -0.2979 -0.2566  0.5495
 7683SOL    HW234686   4.272   1.635   7.589 -1.8306 -0.9769 -1.3108
 7684SOL     OW34687   3.823   4.123   7.905 -0.2658 -0.4087  0.1418
 7684SOL    HW134688   3.735   4.095   7.928  0.0248 -1.5743 -0.1842
 7684SOL    HW234689   3.874   4.109   7.984 -1.6891 -0.2518  1.0909
 7685SOL     OW34690   2.704   1.220  17.209 -0.3139  0.1273  0.1840
 7685SOL    HW134691   2.640   1.291  17.201 -1.0710 -0.3523  1.9894
 7685SOL    HW234692   2.655   1.160  17.266 -0.1471 -1.6810 -1.5756
 7686SOL     OW34693   2.060   2.239  17.641  0.0782 -0.3058 -0.3756
 7686SOL    HW134694   1.983   2.296  17.634  0.1552 -0.3940 -2.0670
 7686SOL    HW234695   2.059   2.233  17.736  0.4438 -0.5575 -0.3890
 7687SOL     OW34696   2.509   1.464   6.459 -0.2908 -0.3263 -0.0130
 7687SOL    HW134697   2.476   1.417   6.535 -1.9286  0.7064 -0.1068
 7687SOL    HW234698   2.600   1.481   6.483 -0.5984 -0.1718  1.0439
 7688SOL     OW34699   1.339   2.124   1.514 -0.0661 -0.5801  0.6225
 7688SOL    HW134700   1.329   2.206   1.561  2.1500 -0.3224  0.6579
 7688SOL    HW234701   1.313   2.149   1.425 -0.2926 -2.6012  0.1084
 7689SOL     OW34702   1.853   0.337  15.280  0.5170  0.3070  0.6440
 7689SOL    HW134703   1.838   0.305  15.191 -1.2213  0.5231  0.8448
 7689SOL    HW234704   1.935   0.297  15.310  0.8896 -0.3803 -1.3326
 7690SOL     OW34705   0.677   3.025  16.297 -0.0179 -0.2783 -0.7480
 7690SOL    HW134706   0.611   2.970  16.339 -1.6197  2.4144  0.2292
 7690SOL    HW234707   0.620   3.060  16.228  2.9360 -0.8765 -3.5035
 7691SOL     OW34708   3.690   2.468   5.184  0.5525  0.4873 -0.1492
 7691SOL    HW134709   3.714   2.412   5.258  0.9299  1.2482  0.3020
 7691SOL    HW234710   3.632   2.409   5.136 -0.0284  0.6595  0.3389
 7692SOL     OW34711   0.010   1.447  16.500 -0.2115 -0.7675  0.2322
 7692SOL    HW134712   0.098   1.449  16.462 -0.6534 -1.8709 -0.8475
 7692SOL    HW234713   4.716   1.361  16.472  0.2875 -0.5964 -0.8561
 7693SOL     OW34714   3.105   0.802   7.679 -0.1772  0.2282  0.7370
 7693SOL    HW134715   3.038   0.745   7.642  1.7518 -1.5149 -0.0984
 7693SOL    HW234716   3.171   0.741   7.713 -0.3367 -0.5551 -0.3327
 7694SOL     OW34717   2.843   3.912   3.049 -0.7223 -0.1616  0.0865
 7694SOL    HW134718   2.840   3.829   3.002 -2.6132 -1.4157  2.4197
 7694SOL    HW234719   2.821   3.883   3.138  0.7606 -1.9571 -0.1196
 7695SOL     OW34720   1.684   4.321  10.646 -0.6389 -0.6193  0.0605
 7695SOL    HW134721   1.773   4.326  10.681 -0.4928 -1.3260 -0.2185
 7695SOL    HW234722   1.669   4.415  10.646 -1.8441 -0.8161 -2.6070
 7696SOL     OW34723   1.146   2.699   6.608 -0.0425 -0.2779 -0.3392
 7696SOL    HW134724   1.095   2.752   6.669  2.7497  0.3084  1.5069
 7696SOL    HW234725   1.122   2.615   6.648  2.1802 -0.1835  1.1991
 7697SOL     OW34726   1.156   0.634  13.497 -0.5277 -0.4896 -0.1165
 7697SOL    HW134727   1.250   0.637  13.478 -0.3907 -0.5035  0.5728
 7697SOL    HW234728   1.119   0.636  13.408 -1.5041 -1.0618  0.2805
 7698SOL     OW34729   1.994   3.505   2.140 -0.3319  0.1278 -0.1327
 7698SOL    HW134730   1.991   3.469   2.229  0.6626 -1.3169 -0.6844
 7698SOL    HW234731   2.082   3.543   2.139 -0.2464 -0.0482  0.8640
 7699SOL     OW34732   1.323   1.031   7.264 -0.0602  0.3485  0.2006
 7699SOL    HW134733   1.406   1.078   7.271 -0.4089  0.8201  1.1000
 7699SOL    HW234734   1.305   1.004   7.354 -0.3164 -0.2213 -0.0260
 7700SOL     OW34735   2.244   1.644   3.045 -0.6869 -0.0732 -0.2604
 7700SOL    HW134736   2.230   1.660   2.952  2.1028  2.7166 -0.2078
 7700SOL    HW234737   2.254   1.730   3.084  1.0058 -1.0203  1.4200
 7701SOL     OW34738   0.570   2.241   2.443  0.0173  0.2020 -0.1970
 7701SOL    HW134739   0.549   2.149   2.427 -0.6316  0.0097  1.7626
 7701SOL    HW234740   0.520   2.255   2.524 -0.5823  0.4426 -0.6067
 7702SOL     OW34741   1.511   1.065   7.667  0.0007  0.1137 -0.4465
 7702SOL    HW134742   1.576   1.077   7.597 -1.2287 -0.0648 -1.6107
 7702SOL    HW234743   1.520   1.147   7.716 -0.9027 -0.0966  0.0497
 7703SOL     OW34744   2.496   1.274   2.127  0.3520  0.3779 -0.1245
 7703SOL    HW134745   2.479   1.358   2.084  0.8338  0.1871 -0.6839
 7703SOL    HW234746   2.570   1.240   2.076 -0.8196  0.0234 -1.5642
 7704SOL     OW34747   2.895   2.705   4.304 -0.2229  0.4128 -0.1680
 7704SOL    HW134748   2.892   2.800   4.292 -0.3452  0.7878  3.0331
 7704SOL    HW234749   2.818   2.677   4.253 -0.3963 -1.8357  1.3292
 7705SOL     OW34750   2.250   1.060   4.192 -0.1356  0.0866 -0.0791
 7705SOL    HW134751   2.203   1.057   4.109  2.2980  3.3647 -1.5902
 7705SOL    HW234752   2.180   1.043   4.256  1.5673 -0.9285  1.5335
 7706SOL     OW34753   4.499   2.207   4.466  0.0720 -0.1448  0.1678
 7706SOL    HW134754   4.416   2.185   4.507  0.5057  1.6797  2.0260
 7706SOL    HW234755   4.563   2.170   4.527 -0.2921 -2.8758 -1.1189
 7707SOL     OW34756   2.907   0.602   0.438 -0.2891 -0.9062 -0.3815
 7707SOL    HW134757   2.864   0.674   0.483  0.2934 -0.4038 -0.6288
 7707SOL    HW234758   2.836   0.556   0.393  0.0726  0.1943 -2.0831
 7708SOL     OW34759   3.971   1.835   5.831 -0.1245 -0.2128  0.0209
 7708SOL    HW134760   3.994   1.900   5.765 -0.4653 -0.1383 -0.0274
 7708SOL    HW234761   3.877   1.836   5.811  0.3652  1.8868 -2.2549
 7709SOL     OW34762   4.581   0.587   1.795  1.0455  0.3362 -0.1034
 7709SOL    HW134763   4.635   0.516   1.760  0.8939  0.4930 -0.6564
 7709SOL    HW234764   4.546   0.630   1.716  0.3354 -2.5998 -1.3849
 7710SOL     OW34765   3.009   2.547   8.406  0.2674 -0.3638 -0.3044
 7710SOL    HW134766   3.072   2.477   8.422  1.8656  2.3036  5.1243
 7710SOL    HW234767   3.075   2.617   8.403 -1.1440  0.8932 -1.8474
 7711SOL     OW34768   1.357   0.383   8.801 -0.4934 -0.3974  0.0137
 7711SOL    HW134769   1.378   0.304   8.751 -3.1627  0.0990 -1.8209
 7711SOL    HW234770   1.443   0.417   8.826 -0.9497 -0.1500  1.2783
 7712SOL     OW34771   0.116   0.939   2.199  0.0809 -0.0612 -0.8011
 7712SOL    HW134772   0.183   0.998   2.234 -2.0796  0.0738  3.0396
 7712SOL    HW234773   0.171   0.862   2.188  1.0939  0.8027 -1.8926
 7713SOL     OW34774   3.359   0.914  14.828 -0.0125 -0.1644  0.1335
 7713SOL    HW134775   3.382   0.957  14.910  0.4165 -0.6047  0.2508
 7713SOL    HW234776   3.370   0.823  14.856  2.4160 -0.0056 -0.2505
 7714SOL     OW34777   0.341   0.541   1.341  0.3160  0.1408  0.0205
 7714SOL    HW134778   0.427   0.504   1.324 -0.6252 -2.4770  1.0380
 7714SOL    HW234779   0.372   0.626   1.375  0.8474  0.8894 -2.3243
 7715SOL     OW34780   4.152   3.165   3.230 -0.5460  0.3692  0.0293
 7715SOL    HW134781   4.113   3.145   3.316 -1.5242 -0.6243 -0.6443
 7715SOL    HW234782   4.148   3.080   3.186  0.4037  0.2584  0.1471
 7716SOL     OW34783   0.030   1.267   1.945  0.4285 -0.5251 -0.4025
 7716SOL    HW134784   0.049   1.174   1.931 -0.3048 -0.8340  0.6685
 7716SOL    HW234785   4.681   1.265   1.986  1.4292  1.0906  1.7768
 7717SOL     OW34786   1.551   1.702   4.871  0.2059 -0.1185  0.4184
 7717SOL    HW134787   1.512   1.764   4.810 -0.0039 -0.3212  0.3424
 7717SOL    HW234788   1.476   1.683   4.928 -0.0668 -1.4057 -0.3811
 7718SOL     OW34789   3.982   3.697   6.531  0.9034  0.1505  0.0034
 7718SOL    HW134790   3.971   3.753   6.608  1.0079 -1.8926  1.4964
 7718SOL    HW234791   4.018   3.614   6.561  1.6323 -0.0255 -1.3397
 7719SOL     OW34792   1.567   3.482   4.858 -0.4222 -0.4862 -0.0984
 7719SOL    HW134793   1.473   3.501   4.858 -0.1278  0.9638 -0.2642
 7719SOL    HW234794   1.594   3.541   4.788  0.5966 -1.4226 -0.4999
 7720SOL     OW34795   1.294   2.079   4.294  0.6127  0.0047 -0.1293
 7720SOL    HW134796   1.319   2.116   4.378 -0.0414  0.8988 -0.3349
 7720SOL    HW234797   1.384   2.067   4.263  0.2090  0.9607 -1.6833
 7721SOL     OW34798   1.512   3.133  12.065  0.5924 -0.1106 -0.1016
 7721SOL    HW134799   1.476   3.076  11.997  0.1475 -1.5810  1.3841
 7721SOL    HW234800   1.570   3.068  12.106 -0.6077 -1.3515 -0.3874
 7722SOL     OW34801   3.638   2.456  15.662 -0.2155 -0.2115 -0.2109
 7722SOL    HW134802   3.560   2.401  15.666  0.8357 -1.4891  2.9192
 7722SOL    HW234803   3.664   2.443  15.570  0.6949 -0.2278  0.0477
 7723SOL     OW34804   3.388   4.608   8.153  0.1740 -0.5444  1.2483
 7723SOL    HW134805   3.411   4.682   8.209  0.6003  0.5918 -0.4197
 7723SOL    HW234806   3.398   4.537   8.215  0.8326 -0.5791  1.0971
 7724SOL     OW34807   3.585   0.301   6.399  0.0373  0.0675 -0.4732
 7724SOL    HW134808   3.645   0.241   6.355  0.4866  0.7195 -0.7436
 7724SOL    HW234809   3.532   0.332   6.326  0.4102 -0.5094 -0.9918
 7725SOL     OW34810   0.445   1.801   3.538  0.0008 -0.1543 -0.0127
 7725SOL    HW134811   0.371   1.858   3.518 -0.4866 -0.7926 -0.0109
 7725SOL    HW234812   0.448   1.760   3.451 -0.9543 -0.4757  0.1051
 7726SOL     OW34813   3.229   4.661   8.829  0.2164  0.4888  0.2120
 7726SOL    HW134814   3.309   4.710   8.849 -0.0255 -0.0390  2.5098
 7726SOL    HW234815   3.268   4.574   8.820 -0.0254  0.4048 -0.0488
 7727SOL     OW34816   0.932   2.217   4.760  0.3513  0.7407  0.3732
 7727SOL    HW134817   0.866   2.148   4.761 -0.2902  1.3466 -0.1378
 7727SOL    HW234818   0.996   2.188   4.695  0.0139  1.8729 -0.4779
 7728SOL     OW34819   0.796   0.621   4.548 -0.3793  0.2977 -0.3661
 7728SOL    HW134820   0.798   0.677   4.470 -1.4597  0.3905 -0.3228
 7728SOL    HW234821   0.853   0.667   4.610  2.7915 -2.6738 -1.0435
 7729SOL     OW34822   1.641   1.639  14.655 -0.1604  0.0261  0.0205
 7729SOL    HW134823   1.571   1.703  14.661  0.9050  1.1773  0.1219
 7729SOL    HW234824   1.714   1.685  14.614 -0.2918 -0.5924 -0.9092
 7730SOL     OW34825   1.040   0.561   2.670 -0.4043 -0.3315 -0.3554
 7730SOL    HW134826   1.047   0.579   2.764  0.6592 -0.0497 -0.4975
 7730SOL    HW234827   0.949   0.579   2.646 -0.4320  2.2498  1.7187
 7731SOL     OW34828   0.616   3.601   1.444 -0.0433  0.4978 -0.4850
 7731SOL    HW134829   0.704   3.608   1.407 -0.1134  2.9193 -0.1710
 7731SOL    HW234830   0.567   3.641   1.371  1.0302  2.1080 -0.3117
 7732SOL     OW34831   3.321   4.415   3.192 -0.0808  0.2242 -0.3117
 7732SOL    HW134832   3.300   4.438   3.101  0.5049  2.5476  0.1360
 7732SOL    HW234833   3.393   4.355   3.174  1.5648  2.3676 -0.8519
 7733SOL     OW34834   1.930   0.872   5.699 -0.4588 -0.2829 -0.1371
 7733SOL    HW134835   1.901   0.901   5.785  1.5285 -0.7902  0.7070
 7733SOL    HW234836   1.883   0.789   5.687 -1.9535  0.3936  1.2162
 7734SOL     OW34837   4.063   4.270   2.295  0.2620 -0.3784 -0.4850
 7734SOL    HW134838   4.056   4.302   2.384 -0.5860 -0.4530 -0.5306
 7734SOL    HW234839   4.157   4.253   2.289  0.1744 -0.7035 -0.9443
 7735SOL     OW34840   4.207   3.977   4.234  0.0411  0.0151 -0.0766
 7735SOL    HW134841   4.265   4.046   4.200  2.6605 -1.0838  2.1518
 7735SOL    HW234842   4.126   4.028   4.239 -0.4900 -0.8892  0.4182
 7736SOL     OW34843   3.967   3.417   8.311 -0.4536 -0.0691 -0.0559
 7736SOL    HW134844   3.976   3.367   8.392  0.0443  0.9822  0.5410
 7736SOL    HW234845   3.888   3.470   8.325 -1.0922 -0.5203 -1.9169
 7737SOL     OW34846   0.684   4.172   2.256  1.0698 -0.1222  0.5390
 7737SOL    HW134847   0.686   4.267   2.264  1.2472 -0.0768 -0.0614
 7737SOL    HW234848   0.590   4.155   2.250  1.0423  0.2792 -0.1712
 7738SOL     OW34849   1.202   2.083   9.369  0.2236  0.3753 -0.3450
 7738SOL    HW134850   1.228   2.075   9.277 -2.3877  1.0478 -1.1258
 7738SOL    HW234851   1.221   2.174   9.391  1.9024  0.2155 -1.1560
 7739SOL     OW34852   1.247   2.513  17.382 -0.4299  0.0559 -0.7253
 7739SOL    HW134853   1.253   2.419  17.363  1.1496  0.4818 -2.3905
 7739SOL    HW234854   1.193   2.557  17.317 -0.0134  1.9063  0.1980
 7740SOL     OW34855   1.060   0.793  13.682  0.5745 -0.2644  0.0909
 7740SOL    HW134856   0.983   0.837  13.645  0.0829 -1.2574 -0.0475
 7740SOL    HW234857   1.092   0.742  13.607 -0.8281 -0.7927 -0.1323
 7741SOL     OW34858   4.468   3.327   4.281  0.3974 -0.2604 -0.1368
 7741SOL    HW134859   4.389   3.329   4.227 -0.3251  1.7766  1.0075
 7741SOL    HW234860   4.507   3.252   4.237 -0.0883 -1.5732  1.6763
 7742SOL     OW34861   3.999   1.342  10.942 -0.5311  0.1196  0.3707
 7742SOL    HW134862   4.077   1.361  10.890 -0.3484  0.7331  0.8645
 7742SOL    HW234863   3.966   1.432  10.951 -2.1354 -0.5277  1.0402
 7743SOL     OW34864   4.336   4.114   3.509  0.7280  0.0484 -0.4940
 7743SOL    HW134865   4.358   4.111   3.602 -1.0328 -1.5797 -0.1251
 7743SOL    HW234866   4.337   4.028   3.466 -2.1549  0.7676 -2.0356
 7744SOL     OW34867   0.402   2.564  10.366  0.6773  0.4608  0.1083
 7744SOL    HW134868   0.420   2.636  10.426 -3.7071  1.0193  0.7353
 7744SOL    HW234869   0.392   2.611  10.284 -0.7326  0.8719  0.5352
 7745SOL     OW34870   2.517   4.512   8.113 -0.1076  0.3140  0.1490
 7745SOL    HW134871   2.421   4.508   8.108 -0.0574  1.1872 -1.3863
 7745SOL    HW234872   2.528   4.418   8.124  0.9309  0.2183 -1.7326
 7746SOL     OW34873   1.064   3.406  12.471 -0.3995  0.1844  0.0642
 7746SOL    HW134874   1.008   3.474  12.435 -4.0290 -1.7876  2.0519
 7746SOL    HW234875   1.095   3.356  12.395 -1.4586 -0.5606  0.1196
 7747SOL     OW34876   0.165   1.616   7.620  0.4529 -0.2675  0.7570
 7747SOL    HW134877   0.242   1.559   7.625 -0.4970 -1.5331  0.9092
 7747SOL    HW234878   0.178   1.702   7.660  0.9696 -0.2363  0.5219
 7748SOL     OW34879   4.732   0.674   4.398  0.3032  0.5170  0.3100
 7748SOL    HW134880   4.677   0.602   4.430  0.0948 -0.4317 -2.1830
 7748SOL    HW234881   4.672   0.740   4.364 -0.5940 -0.7888 -0.6534
 7749SOL     OW34882   3.080   1.972   7.486 -0.5459 -0.0445  0.3438
 7749SOL    HW134883   3.047   1.911   7.552  1.9024  0.5428  2.0997
 7749SOL    HW234884   3.079   1.916   7.408  1.2534  1.4791 -0.7697
 7750SOL     OW34885   3.859   2.043  15.686 -0.2346 -0.3903  0.5873
 7750SOL    HW134886   3.897   2.124  15.653 -2.5046  0.3317 -0.2725
 7750SOL    HW234887   3.772   2.043  15.644 -0.4090 -3.6425  0.9208
 7751SOL     OW34888   3.152   4.355   1.717 -0.3003  0.5084 -0.3791
 7751SOL    HW134889   3.134   4.264   1.694 -0.3243 -0.0029  1.6026
 7751SOL    HW234890   3.061   4.380   1.736 -0.2481  1.8390 -1.9050
 7752SOL     OW34891   4.462   1.276   4.763  0.0021 -0.6017 -0.5372
 7752SOL    HW134892   4.474   1.196   4.814 -1.4235 -3.0137 -4.0175
 7752SOL    HW234893   4.374   1.302   4.792  0.8160  1.9730 -0.3807
 7753SOL     OW34894   4.084   3.377  11.718 -0.1636 -0.3604 -0.1671
 7753SOL    HW134895   4.095   3.471  11.735  1.3779 -0.3546 -1.2656
 7753SOL    HW234896   4.022   3.355  11.787 -1.5146 -1.1887 -1.6689
 7754SOL     OW34897   1.919   0.551   4.555  0.0165  0.2772 -0.4953
 7754SOL    HW134898   1.988   0.528   4.618 -0.1650  0.5494 -0.1954
 7754SOL    HW234899   1.843   0.538   4.611  0.3473  0.3852 -0.0183
 7755SOL     OW34900   3.818   4.718   6.553 -0.0972 -0.0269  0.1566
 7755SOL    HW134901   3.839   4.705   6.460 -1.2442 -2.1401  0.1914
 7755SOL    HW234902   3.784   0.070   6.555  0.5791  0.2501 -0.7796
 7756SOL     OW34903   0.161   1.295  16.305 -0.2996  0.8369 -0.1234
 7756SOL    HW134904   0.082   1.295  16.252  0.5596 -1.8984 -1.3683
 7756SOL    HW234905   0.231   1.278  16.243 -0.4874 -0.1694 -0.0633
 7757SOL     OW34906   3.379   2.021   8.746  0.1128 -0.2398 -0.4932
 7757SOL    HW134907   3.413   1.932   8.746 -0.0719 -0.3111 -1.9578
 7757SOL    HW234908   3.456   2.078   8.746  0.7939 -1.1721  0.1877
 7758SOL     OW34909   0.035   0.655   2.040 -0.4526 -0.0106  0.1640
 7758SOL    HW134910   4.703   0.650   2.106 -0.2460 -0.1987  0.3663
 7758SOL    HW234911   4.731   0.614   1.964  1.0073  0.4113 -0.8658
 7759SOL     OW34912   2.360   0.323   2.094 -0.4168 -0.0168 -0.7488
 7759SOL    HW134913   2.351   0.235   2.132 -0.0282  0.4398  0.4013
 7759SOL    HW234914   2.448   0.321   2.056  0.6028 -0.0340  1.5453
 7760SOL     OW34915   1.088   3.594   2.182  0.4530  0.0602 -0.1965
 7760SOL    HW134916   1.140   3.545   2.245 -2.3343 -2.0470  0.4875
 7760SOL    HW234917   1.056   3.523   2.127 -0.3019  0.8676 -0.8045
 7761SOL     OW34918   1.797   1.418   1.166 -0.4413 -0.3068 -0.1353
 7761SOL    HW134919   1.819   1.405   1.259 -0.0701  3.1887  0.2544
 7761SOL    HW234920   1.703   1.426   1.178 -0.0666  3.5240  0.1552
 7762SOL     OW34921   3.781   3.036   4.727  0.8152 -0.1285  0.0249
 7762SOL    HW134922   3.870   3.002   4.721  1.0108  0.3868 -0.0152
 7762SOL    HW234923   3.800   3.130   4.731  0.9542 -0.1958  1.0760
 7763SOL     OW34924   4.528   2.210   1.024 -1.0366 -0.0592  0.3206
 7763SOL    HW134925   4.576   2.263   0.961  1.1026 -1.2792  0.9218
 7763SOL    HW234926   4.448   2.202   0.972 -1.4873  0.8457  0.8815
 7764SOL     OW34927   0.332   1.966   1.229  0.0388  0.0902 -0.1802
 7764SOL    HW134928   0.408   1.977   1.172  0.2926  0.8213  0.2959
 7764SOL    HW234929   0.275   1.905   1.181  0.2017  1.7410 -2.4481
 7765SOL     OW34930   1.429   0.382   9.680  0.0644 -0.2396  0.8304
 7765SOL    HW134931   1.349   0.415   9.719 -0.5410 -0.0785 -0.5689
 7765SOL    HW234932   1.477   0.363   9.761  1.6232 -1.7300 -0.4512
 7766SOL     OW34933   0.827   2.170   6.949  0.0290 -0.3231 -0.1606
 7766SOL    HW134934   0.864   2.211   7.027  0.4327 -3.1827  1.1729
 7766SOL    HW234935   0.751   2.228   6.944 -1.2977 -2.2139 -1.9813
 7767SOL     OW34936   4.401   4.409   4.543  0.2155 -0.0798 -0.8913
 7767SOL    HW134937   4.336   4.339   4.546  0.7515 -0.5261  0.1817
 7767SOL    HW234938   4.431   4.396   4.633  1.4480 -1.6121 -1.5314
 7768SOL     OW34939   3.052   4.236   8.918 -0.0078  0.4580 -0.3820
 7768SOL    HW134940   3.044   4.211   8.826 -0.9459 -1.0103  0.0885
 7768SOL    HW234941   3.146   4.232   8.935  0.1031  2.6886 -0.4073
 7769SOL     OW34942   1.337   1.331   5.229 -0.0874 -0.3769  0.8616
 7769SOL    HW134943   1.395   1.307   5.300 -0.2100 -1.0692  0.7240
 7769SOL    HW234944   1.270   1.371   5.285 -0.9878 -0.4178 -0.1748
 7770SOL     OW34945   2.111   4.567   4.278 -0.4487 -0.5271  0.2726
 7770SOL    HW134946   2.045   4.525   4.223 -1.4111  1.6542 -0.2429
 7770SOL    HW234947   2.134   4.647   4.231 -0.1751 -0.1319  1.0676
 7771SOL     OW34948   2.396   2.526  14.595 -0.2746 -0.1861  0.1660
 7771SOL    HW134949   2.385   2.619  14.614  0.3835 -0.2205  0.6933
 7771SOL    HW234950   2.359   2.527  14.506  0.4668 -0.9537 -0.1525
 7772SOL     OW34951   2.149   1.157   8.119 -0.4469 -0.1098  0.0192
 7772SOL    HW134952   2.239   1.192   8.115 -1.3753  2.2887 -0.1680
 7772SOL    HW234953   2.143   1.121   8.208 -0.6965 -0.4706 -0.1500
 7773SOL     OW34954   0.436   1.237   8.416  0.4424  0.5239  0.4782
 7773SOL    HW134955   0.393   1.156   8.388 -0.6102  0.4311  2.3970
 7773SOL    HW234956   0.367   1.299   8.397 -2.4760 -2.1128  2.4363
 7774SOL     OW34957   1.880   4.155   2.483 -0.2462  0.2245 -0.2121
 7774SOL    HW134958   1.834   4.159   2.566 -2.6841 -0.0391 -1.5605
 7774SOL    HW234959   1.944   4.226   2.496  1.4905 -1.2644 -0.5527
 7775SOL     OW34960   4.363   0.944   2.672 -0.1288  0.0538  0.4453
 7775SOL    HW134961   4.290   0.989   2.715 -0.3495  1.5584 -1.4803
 7775SOL    HW234962   4.321   0.928   2.588 -1.0897  0.5563  0.8214
 7776SOL     OW34963   3.078   1.587  11.732 -0.2736  0.1167  0.0119
 7776SOL    HW134964   3.089   1.651  11.663 -2.3052  0.7464  0.2510
 7776SOL    HW234965   3.147   1.621  11.789  0.0692 -0.2289 -0.2044
 7777SOL     OW34966   1.760   0.914   3.084  0.7393 -0.6747  0.0005
 7777SOL    HW134967   1.741   0.926   2.991  1.4138 -0.3668 -0.0963
 7777SOL    HW234968   1.680   0.955   3.117  1.6856  1.4408 -0.3483
 7778SOL     OW34969   3.507   0.462   9.386 -0.1798 -0.6216 -0.3733
 7778SOL    HW134970   3.530   0.391   9.446  1.5942  0.4416  0.2043
 7778SOL    HW234971   3.448   0.515   9.440 -1.0219  0.1359 -2.0553
 7779SOL     OW34972   0.658   2.389   9.921  0.7855  0.0409 -0.2823
 7779SOL    HW134973   0.568   2.399   9.953  0.4832 -1.1616 -0.7653
 7779SOL    HW234974   0.633   2.379   9.829 -1.8048 -0.0294  0.4249
 7780SOL     OW34975   2.523   4.627  12.829  0.0329  0.0303  0.1540
 7780SOL    HW134976   2.516   4.709  12.877  2.2896  0.4632 -0.2706
 7780SOL    HW234977   2.481   4.568  12.891 -0.3991 -0.2434 -0.3922
 7781SOL     OW34978   2.032   3.465   4.923 -0.1660 -0.2102  0.2192
 7781SOL    HW134979   2.062   3.381   4.958  0.6906  0.7083  1.6947
 7781SOL    HW234980   1.976   3.451   4.847  0.9954 -1.3718 -0.4191
 7782SOL     OW34981   2.404   2.113   7.794 -0.0682 -0.1158 -0.2436
 7782SOL    HW134982   2.327   2.059   7.778 -1.1648  1.0282  1.1915
 7782SOL    HW234983   2.406   2.176   7.722 -0.3126 -1.3963 -1.3865
 7783SOL     OW34984   2.221   2.182   4.842 -0.7070 -0.1832 -0.6540
 7783SOL    HW134985   2.155   2.140   4.897 -1.0335  3.0183  1.3747
 7783SOL    HW234986   2.179   2.169   4.756  0.6519 -0.4174 -1.2862
 7784SOL     OW34987   1.289   1.513   1.257 -0.0086 -0.2396 -0.3193
 7784SOL    HW134988   1.269   1.548   1.170 -1.0564  2.2615  0.9293
 7784SOL    HW234989   1.329   1.586   1.304 -0.5978  0.2061 -0.5005
 7785SOL     OW34990   1.701   0.041  11.419 -0.0269 -0.1807 -0.0472
 7785SOL    HW134991   1.767   0.044  11.489 -1.2743 -0.7086  1.1453
 7785SOL    HW234992   1.676   4.687  11.424  0.1467 -0.0981  2.4410
 7786SOL     OW34993   4.686   1.337   8.391  0.1555 -0.1294 -0.1189
 7786SOL    HW134994   4.644   1.400   8.333  2.1289  1.9182  0.6757
 7786SOL    HW234995   4.648   1.367   8.474 -0.7777 -1.8698  0.0702
 7787SOL     OW34996   0.669   2.642   5.352 -0.4512 -0.6429  0.6093
 7787SOL    HW134997   0.670   2.586   5.430  3.7257 -0.0211  1.0333
 7787SOL    HW234998   0.758   2.677   5.360 -0.9716  0.2703  2.3278
 7788SOL     OW34999   1.196   4.061  11.077 -0.3916  0.0845  0.5541
 7788SOL    HW135000   1.233   4.063  10.989 -1.5904 -0.7151  0.0302
 7788SOL    HW235001   1.129   4.129  11.069  0.8954  1.2650 -0.2507
 7789SOL     OW35002   0.311   1.036   5.539 -1.1170  0.3136 -0.2471
 7789SOL    HW135003   0.343   1.018   5.451  1.3125 -0.4360  0.7735
 7789SOL    HW235004   0.383   1.000   5.592 -2.4119  2.5252  2.9938
 7790SOL     OW35005   4.080   4.213   8.825  0.4588 -0.1706  0.0603
 7790SOL    HW135006   4.053   4.282   8.887  0.7910 -0.2181  0.2580
 7790SOL    HW235007   4.001   4.198   8.774  2.8610 -0.4822 -3.5644
 7791SOL     OW35008   0.877   3.084   1.783 -0.1609 -0.2452  0.6498
 7791SOL    HW135009   0.806   3.058   1.724  1.7894  1.7856 -2.5782
 7791SOL    HW235010   0.950   3.032   1.751 -2.5565 -2.0841 -1.8458
 7792SOL     OW35011   2.404   3.728  11.336 -0.0431 -0.2504  0.1885
 7792SOL    HW135012   2.485   3.677  11.333  0.3866  0.3129  2.0681
 7792SOL    HW235013   2.390   3.754  11.245  0.7308 -0.3960  0.0318
 7793SOL     OW35014   3.628   4.571   0.694  0.1630  0.3184 -0.2022
 7793SOL    HW135015   3.657   4.630   0.624 -2.4885  1.2834 -0.4739
 7793SOL    HW235016   3.629   4.627   0.771  0.2410  0.6100 -0.4108
 7794SOL     OW35017   4.693   4.518   2.497 -0.0912 -0.0312 -0.2245
 7794SOL    HW135018   4.663   4.443   2.446 -0.2544 -1.2590  1.6914
 7794SOL    HW235019   4.614   4.570   2.511 -0.8267 -1.3579  0.5240
 7795SOL     OW35020   0.527   0.003   1.665 -0.7153 -0.0613 -0.0713
 7795SOL    HW135021   0.470   4.716   1.592 -0.2863  0.6129 -0.6284
 7795SOL    HW235022   0.608   0.016   1.616 -3.2509  2.3525 -3.5491
 7796SOL     OW35023   0.557   2.700   0.724 -0.1500 -0.5795 -0.2676
 7796SOL    HW135024   0.533   2.610   0.701  0.6041 -0.7393 -0.4132
 7796SOL    HW235025   0.475   2.745   0.704 -1.5538 -1.8037  2.6260
 7797SOL     OW35026   2.607   2.514   7.684  0.0606  0.3001 -0.0242
 7797SOL    HW135027   2.565   2.600   7.680  1.0573  0.9000  2.3752
 7797SOL    HW235028   2.577   2.484   7.770  0.0812  1.0263  0.2343
 7798SOL     OW35029   2.102   0.207   8.871  0.2675  0.8742 -0.7769
 7798SOL    HW135030   2.161   0.192   8.945 -0.3848 -2.3199 -0.9266
 7798SOL    HW235031   2.098   0.303   8.878 -0.0230  0.9251 -1.6935
 7799SOL     OW35032   2.506   3.255   8.366  0.0995 -0.7017 -0.3546
 7799SOL    HW135033   2.574   3.209   8.316 -0.1797 -0.1432 -1.2498
 7799SOL    HW235034   2.457   3.177   8.392  0.0731 -1.0954 -1.5697
 7800SOL     OW35035   1.221   1.958  10.531 -0.1757  0.1202 -0.4790
 7800SOL    HW135036   1.313   1.983  10.537  0.0815 -0.8305 -0.4370
 7800SOL    HW235037   1.208   1.901  10.607 -1.4004  1.4834  0.3210
 7801SOL     OW35038   1.298   3.994  13.249  0.1782  0.0232  0.2681
 7801SOL    HW135039   1.265   4.084  13.241  2.1331  0.7456  0.4621
 7801SOL    HW235040   1.386   4.008  13.216  0.4323 -2.1359  0.0358
 7802SOL     OW35041   2.417   2.404   3.866  1.4582  0.0770 -0.0600
 7802SOL    HW135042   2.355   2.358   3.923  1.4126  0.0426 -0.1371
 7802SOL    HW235043   2.476   2.436   3.935  2.5132  0.1056 -0.9914
 7803SOL     OW35044   2.124   0.695  13.554 -0.5830  0.1744  0.0744
 7803SOL    HW135045   2.154   0.607  13.577 -0.0676  0.9209  2.2354
 7803SOL    HW235046   2.113   0.743  13.635 -0.8325  1.7560 -0.8990
 7804SOL     OW35047   1.882   3.819   7.451  0.1532 -0.1012 -0.3198
 7804SOL    HW135048   1.882   3.911   7.479  2.0954  0.5070 -2.3110
 7804SOL    HW235049   1.874   3.828   7.356 -0.0836  0.8854 -0.2150
 7805SOL     OW35050   4.349   3.236  14.944  0.3508  0.3938 -0.4984
 7805SOL    HW135051   4.345   3.294  14.868  0.4272 -0.6403 -1.2861
 7805SOL    HW235052   4.374   3.158  14.895 -1.4194 -1.8836  2.1656
 7806SOL     OW35053   0.115   2.977   6.334 -0.4547  0.2905 -0.3830
 7806SOL    HW135054   0.123   2.885   6.357 -0.5398  0.3064 -0.2899
 7806SOL    HW235055   0.186   2.973   6.269  0.4327  3.9412  0.3598
 7807SOL     OW35056   3.061   4.628   9.462  0.4265 -0.0002 -0.7545
 7807SOL    HW135057   3.052   4.578   9.381  3.1939 -1.7414 -0.0107
 7807SOL    HW235058   3.010   4.705   9.437 -0.8998 -0.5530  0.2769
 7808SOL     OW35059   1.806   1.094   7.837  0.3143  0.9243 -0.1724
 7808SOL    HW135060   1.888   1.046   7.854 -1.2062 -1.1164  1.4836
 7808SOL    HW235061   1.748   1.022   7.863  1.6966 -0.4644 -0.9066
 7809SOL     OW35062   1.189   0.178   2.778  0.2172  0.1721 -0.0532
 7809SOL    HW135063   1.207   0.195   2.870  0.4309 -1.8954  0.2868
 7809SOL    HW235064   1.107   0.128   2.786  1.6165 -1.8943  1.3175
 7810SOL     OW35065   0.715   3.622   7.876 -0.0644  0.3560  0.1752
 7810SOL    HW135066   0.691   3.550   7.818  0.6337  0.0899  0.2177
 7810SOL    HW235067   0.745   3.577   7.955 -0.2471  0.3940  0.2653
 7811SOL     OW35068   1.478   0.279   8.560  0.2148  0.3146 -0.2181
 7811SOL    HW135069   1.421   0.289   8.484 -0.3746  1.2240  0.3423
 7811SOL    HW235070   1.566   0.300   8.527  0.9055 -1.7167  0.3466
 7812SOL     OW35071   0.707   3.465  14.296  0.3160 -0.2428 -0.0125
 7812SOL    HW135072   0.791   3.512  14.296 -0.2309  0.7524  3.0359
 7812SOL    HW235073   0.733   3.383  14.255  1.6059 -1.4437  3.1432
 7813SOL     OW35074   4.265   2.711   2.323 -0.2434  0.3731 -0.3230
 7813SOL    HW135075   4.303   2.732   2.237  0.5636 -0.8588 -0.2645
 7813SOL    HW235076   4.185   2.666   2.299  0.3994 -1.0161  0.1481
 7814SOL     OW35077   3.726   0.228   6.645 -0.2442 -0.2595  0.3302
 7814SOL    HW135078   3.653   0.264   6.595 -1.5271 -3.3639  0.0277
 7814SOL    HW235079   3.748   0.301   6.704  1.2997  0.1937 -0.7946
 7815SOL     OW35080   0.221   1.430   1.608  0.3725 -0.3083  0.2473
 7815SOL    HW135081   0.302   1.440   1.557  2.0173 -0.1336  2.8793
 7815SOL    HW235082   0.160   1.488   1.562 -0.0095 -0.6247  0.3573
 7816SOL     OW35083   1.477   0.915   3.663 -0.2039 -0.3145 -0.3461
 7816SOL    HW135084   1.524   0.901   3.581  3.0632  6.1241  0.4218
 7816SOL    HW235085   1.503   1.005   3.684 -1.0194 -0.1611  0.0183
 7817SOL     OW35086   2.262   0.229   5.035 -0.3506  0.4923 -0.1749
 7817SOL    HW135087   2.187   0.173   5.016 -0.8527  1.8044 -2.0124
 7817SOL    HW235088   2.210   0.301   5.071  0.3814  0.4171  1.0343
 7818SOL     OW35089   3.211   0.776  10.731 -0.6136 -0.0681  0.0552
 7818SOL    HW135090   3.149   0.799  10.800 -1.2708  0.9630 -0.8865
 7818SOL    HW235091   3.150   0.741  10.666 -0.4401  0.8762 -0.6144
 7819SOL     OW35092   2.179   2.387   7.172  0.1156  0.4586  0.1926
 7819SOL    HW135093   2.243   2.346   7.229  1.2632  0.0782 -1.3668
 7819SOL    HW235094   2.170   2.326   7.098  0.3146 -0.7019  1.1308
 7820SOL     OW35095   3.543   3.914  17.457  0.1746  0.4094 -0.1770
 7820SOL    HW135096   3.600   3.981  17.496  1.2241 -0.4604 -0.2285
 7820SOL    HW235097   3.573   3.920  17.366  2.7232  0.4951  0.6532
 7821SOL     OW35098   0.517   3.747   8.758 -0.3810  0.1436 -0.9356
 7821SOL    HW135099   0.436   3.706   8.727 -0.2874 -0.9804  0.3268
 7821SOL    HW235100   0.513   3.832   8.714 -1.3271  0.5530 -0.0530
 7822SOL     OW35101   2.801   1.008  13.651 -0.3348  0.2989 -0.1706
 7822SOL    HW135102   2.762   0.939  13.597 -0.1220  1.0481 -1.2869
 7822SOL    HW235103   2.745   1.079  13.620 -1.0633  0.2802  1.1259
 7823SOL     OW35104   2.167   4.127   4.946 -0.4014 -0.1089 -0.1425
 7823SOL    HW135105   2.198   4.101   5.033 -2.2232  0.7810  0.7643
 7823SOL    HW235106   2.233   4.092   4.887  0.0931 -0.5696  0.6753
 7824SOL     OW35107   2.781   4.599  14.860  0.0262  0.6994  0.6297
 7824SOL    HW135108   2.874   4.603  14.881 -0.5657  1.3981  3.0468
 7824SOL    HW235109   2.770   4.505  14.875 -1.4855  0.6297 -0.8290
 7825SOL     OW35110   0.881   1.428   7.976  0.4907  0.1965  0.0688
 7825SOL    HW135111   0.880   1.520   7.948  1.6290 -0.0353 -0.7373
 7825SOL    HW235112   0.857   1.436   8.069  1.7946  2.8056  0.1875
 7826SOL     OW35113   3.900   1.766   3.503  0.1761 -0.2292  0.4923
 7826SOL    HW135114   3.845   1.820   3.561 -0.0113  1.7003 -1.4480
 7826SOL    HW235115   3.980   1.754   3.553 -0.4778  0.2114  1.6710
 7827SOL     OW35116   0.726   2.057   4.782 -0.6644  0.0238  0.4751
 7827SOL    HW135117   0.673   1.985   4.746  0.3733 -1.2695  1.5567
 7827SOL    HW235118   0.684   2.053   4.868  2.5317 -2.2540  1.9145
 7828SOL     OW35119   0.437   1.962   0.967 -0.3017  0.1570  0.5265
 7828SOL    HW135120   0.488   2.042   0.960  0.5809 -0.4094  0.4107
 7828SOL    HW235121   0.358   1.995   0.924 -0.0390 -0.8845 -0.7653
 7829SOL     OW35122   0.225   3.999  13.640 -0.2155 -0.2824  0.0842
 7829SOL    HW135123   0.153   3.971  13.584 -0.3022 -0.9909  0.5590
 7829SOL    HW235124   0.204   3.970  13.729 -0.3836 -0.9270 -0.1724
 7830SOL     OW35125   2.679   4.443   8.687 -0.1854  0.0592  0.2532
 7830SOL    HW135126   2.753   4.382   8.690 -1.2139 -1.0617  2.4499
 7830SOL    HW235127   2.689   4.486   8.602 -0.2598  0.5416  0.4885
 7831SOL     OW35128   1.662   2.522   7.167 -0.3708  0.3249  0.0569
 7831SOL    HW135129   1.673   2.599   7.222 -1.3738  0.0608  0.6259
 7831SOL    HW235130   1.574   2.534   7.133 -1.3798 -2.1283  1.7504
 7832SOL     OW35131   0.636   4.058   6.044  0.2427 -0.6872  0.2499
 7832SOL    HW135132   0.573   3.995   6.081 -0.1140  0.4588  1.5583
 7832SOL    HW235133   0.615   4.055   5.950 -0.1387 -3.2657  0.4107
 7833SOL     OW35134   3.908   0.798  15.765  0.0847 -0.2463  0.0123
 7833SOL    HW135135   3.812   0.790  15.760  0.3239 -0.9782 -3.4567
 7833SOL    HW235136   3.912   0.893  15.776  2.0150 -0.2376 -0.8232
 7834SOL     OW35137   0.234   4.185   2.916 -0.1837 -0.4813  0.3279
 7834SOL    HW135138   0.247   4.226   3.001  0.0131 -2.1793  1.1257
 7834SOL    HW235139   0.151   4.224   2.890 -0.3595 -2.5035 -2.1923
 7835SOL     OW35140   2.772   1.491   6.541 -0.2495 -0.0561 -0.3907
 7835SOL    HW135141   2.784   1.398   6.558 -1.7586  0.1813  1.9750
 7835SOL    HW235142   2.863   1.516   6.528 -0.5710  0.2069 -2.0835
 7836SOL     OW35143   2.829   0.854  15.139 -0.1788  0.3236  0.0024
 7836SOL    HW135144   2.793   0.929  15.091  4.7401  2.3103 -0.5479
 7836SOL    HW235145   2.899   0.820  15.083 -1.9912 -0.1415 -2.0253
 7837SOL     OW35146   2.972   4.524   9.695  0.1090 -0.1469 -0.1117
 7837SOL    HW135147   2.962   4.462   9.623  1.5715  1.2565 -1.5080
 7837SOL    HW235148   3.002   4.595   9.638  0.3473 -0.0008  0.1935
 7838SOL     OW35149   4.191   1.734   4.635 -0.3612 -0.4941 -0.4702
 7838SOL    HW135150   4.127   1.720   4.565  0.8509 -2.2248 -1.2248
 7838SOL    HW235151   4.175   1.828   4.647  1.2544 -0.3902  0.9077
 7839SOL     OW35152   4.304   2.225  17.125  0.0468  0.0213  0.4270
 7839SOL    HW135153   4.252   2.159  17.170 -1.2024  1.8423  1.6851
 7839SOL    HW235154   4.366   2.170  17.077  3.8924  2.1459  2.9272
 7840SOL     OW35155   2.043   0.091   6.650 -0.3692 -0.0241  0.0225
 7840SOL    HW135156   1.988   0.021   6.614 -1.7150  0.7329  0.6103
 7840SOL    HW235157   2.076   0.119   6.565 -1.3467  1.0306 -0.0112
 7841SOL     OW35158   1.476   0.368  11.296  0.4696 -0.0358 -0.9361
 7841SOL    HW135159   1.569   0.387  11.310  0.6526 -1.0536 -0.8201
 7841SOL    HW235160   1.463   0.433  11.227 -1.2445  1.0823  0.4575
 7842SOL     OW35161   2.152   0.038   3.624 -0.3596 -0.6060  0.5624
 7842SOL    HW135162   2.214   0.094   3.671 -0.2149 -0.0769 -0.2625
 7842SOL    HW235163   2.138   4.714   3.696 -1.5971 -1.7993 -0.6982
 7843SOL     OW35164   0.230   0.373  10.148 -0.0913  0.1939 -0.3917
 7843SOL    HW135165   0.230   0.282  10.178  0.5642  0.5531  0.6796
 7843SOL    HW235166   0.196   0.413  10.228 -1.4971 -2.1185  0.1540
 7844SOL     OW35167   2.975   4.631   3.954 -0.2917  0.1890 -0.2884
 7844SOL    HW135168   2.889   4.619   3.993  0.8589 -0.5159  1.9934
 7844SOL    HW235169   3.019   4.685   4.020  3.7760 -0.7901 -2.1816
 7845SOL     OW35170   3.564   1.755   4.314  0.1743  0.2434  0.3497
 7845SOL    HW135171   3.502   1.826   4.329  0.8509  0.9687 -0.2880
 7845SOL    HW235172   3.630   1.767   4.383  0.8952 -2.8506  0.2069
 7846SOL     OW35173   4.214   1.476  13.743 -0.5299  0.2227  0.5024
 7846SOL    HW135174   4.222   1.385  13.715 -2.3752 -0.5258  2.3806
 7846SOL    HW235175   4.295   1.473  13.794  0.6741  3.6000 -1.2083
 7847SOL     OW35176   2.402   4.249  15.678  0.1117  0.7378  0.1353
 7847SOL    HW135177   2.427   4.318  15.616  0.6353  1.1167  0.7816
 7847SOL    HW235178   2.309   4.239  15.657 -0.0891  1.4635  0.6731
 7848SOL     OW35179   0.292   2.897   1.127  0.2334  0.3654  0.0158
 7848SOL    HW135180   0.284   2.923   1.219 -3.7922  0.2764 -0.2865
 7848SOL    HW235181   0.243   2.966   1.082 -1.4301 -0.8870 -0.1014
 7849SOL     OW35182   0.208   2.411   6.426 -0.0286 -0.4695  0.0889
 7849SOL    HW135183   0.131   2.354   6.416  1.3507 -2.4339  0.7430
 7849SOL    HW235184   0.220   2.442   6.336 -1.8933 -2.8583 -0.9923
 7850SOL     OW35185   0.654   0.207   1.378 -0.8024  0.5694  0.0240
 7850SOL    HW135186   0.715   0.215   1.305 -1.4112 -0.7235 -0.6301
 7850SOL    HW235187   0.697   0.137   1.428  2.6581  0.3177 -3.3423
 7851SOL     OW35188   4.377   1.564  13.193  0.1343 -0.4110 -0.2896
 7851SOL    HW135189   4.388   1.486  13.138 -3.3869  0.6772 -2.5643
 7851SOL    HW235190   4.356   1.526  13.278 -0.3472 -0.1000 -0.2678
 7852SOL     OW35191   4.373   3.877   5.772  0.0575 -0.0897  0.4359
 7852SOL    HW135192   4.341   3.890   5.861  0.2215 -0.6636  0.5750
 7852SOL    HW235193   4.377   3.962   5.728  1.0622 -0.3874 -0.0378
 7853SOL     OW35194   4.456   2.427   6.256 -0.1543  0.0657 -0.1072
 7853SOL    HW135195   4.465   2.336   6.284 -1.3513 -0.3535 -1.0896
 7853SOL    HW235196   4.403   2.405   6.179  0.1955 -3.3359  0.6164
 7854SOL     OW35197   0.727   3.628   8.262 -0.5265 -0.2170  0.0500
 7854SOL    HW135198   0.722   3.559   8.196  2.3912  0.8701 -1.3260
 7854SOL    HW235199   0.811   3.669   8.242 -0.6904  0.4654  0.7606
 7855SOL     OW35200   3.154   1.083  10.914  0.3176 -0.1623 -0.1145
 7855SOL    HW135201   3.213   1.158  10.915 -1.5726  1.3220  0.1452
 7855SOL    HW235202   3.134   1.081  10.821 -1.1568  1.4597  0.1666
 7856SOL     OW35203   2.937   3.844   8.530 -0.4343 -0.3469  0.2137
 7856SOL    HW135204   2.959   3.878   8.616  0.5811  0.3309 -0.3160
 7856SOL    HW235205   2.927   3.750   8.540 -1.8336 -0.3220 -0.9035
 7857SOL     OW35206   1.010   0.309   5.056  0.5584  0.2645 -0.0971
 7857SOL    HW135207   1.044   0.381   5.003  2.7609 -0.3817  0.4713
 7857SOL    HW235208   1.002   0.239   4.992 -0.8888 -2.6896  3.3190
 7858SOL     OW35209   2.041   0.450  11.646 -0.3749 -0.4062  0.6396
 7858SOL    HW135210   1.998   0.375  11.605  1.8602 -0.5767 -1.3393
 7858SOL    HW235211   2.119   0.403  11.675 -1.7431 -1.7389  2.1441
 7859SOL     OW35212   0.026   4.573   7.811  0.2015 -0.2698  0.4250
 7859SOL    HW135213   4.725   4.639   7.870 -1.3842 -1.5543  0.8276
 7859SOL    HW235214   0.017   4.497   7.868  0.7531 -0.3505  0.4049
 7860SOL     OW35215   1.001   3.556  13.107 -0.2412  0.1271  0.5709
 7860SOL    HW135216   0.935   3.618  13.138  0.7729  1.0017  0.9803
 7860SOL    HW235217   1.077   3.613  13.120  0.1445 -0.1557 -0.4637
 7861SOL     OW35218   1.920   3.543   8.790 -0.4306 -0.1400  0.1841
 7861SOL    HW135219   1.950   3.630   8.765  1.1590 -0.9838 -0.7939
 7861SOL    HW235220   1.871   3.569   8.868 -0.6651 -0.4191  0.1310
 7862SOL     OW35221   3.283   3.915   4.765  0.0586 -0.0361 -0.1979
 7862SOL    HW135222   3.235   3.988   4.802 -0.6455 -1.4213  1.6093
 7862SOL    HW235223   3.270   3.937   4.673  1.2519  1.7624  0.0594
 7863SOL     OW35224   1.213   0.714   2.027  0.2389 -0.0981 -0.3690
 7863SOL    HW135225   1.177   0.745   2.110 -1.9984 -0.9804 -1.0227
 7863SOL    HW235226   1.139   0.730   1.969 -0.1578 -1.0427 -0.1129
 7864SOL     OW35227   0.103   3.754   7.821  0.2963 -0.2443 -0.1166
 7864SOL    HW135228   0.186   3.764   7.774  0.5869 -2.7832 -0.1884
 7864SOL    HW235229   0.110   3.660   7.839 -1.5427 -0.0673  1.4325
 7865SOL     OW35230   3.135   2.464   5.697 -0.0454  0.1666  0.0007
 7865SOL    HW135231   3.094   2.545   5.727  0.1427 -0.3072  1.5109
 7865SOL    HW235232   3.090   2.457   5.613  2.4861  0.5296 -1.4119
 7866SOL     OW35233   1.172   3.860   5.179  0.6635 -0.1160  0.4523
 7866SOL    HW135234   1.212   3.774   5.171 -1.4230 -0.8704 -1.5820
 7866SOL    HW235235   1.141   3.877   5.091 -0.0472 -1.4665  0.4423
 7867SOL     OW35236   4.547   3.455   2.747 -0.3265 -0.1344 -0.6807
 7867SOL    HW135237   4.640   3.437   2.759 -0.6598 -2.6115 -1.8572
 7867SOL    HW235238   4.558   3.544   2.711  2.3551  0.0261  0.5762
 7868SOL     OW35239   1.641   1.831   7.917  0.0716  0.0276 -0.5125
 7868SOL    HW135240   1.569   1.888   7.942 -0.7097 -0.4815 -1.6136
 7868SOL    HW235241   1.704   1.875   7.975 -0.4024  0.3112 -0.2164
 7869SOL     OW35242   0.090   3.281   6.644 -0.1643 -0.1797  0.3810
 7869SOL    HW135243   0.091   3.266   6.549  1.2976  1.7065  0.1109
 7869SOL    HW235244   0.004   3.322   6.659  0.3536  0.8185  0.6042
 7870SOL     OW35245   1.876   3.877   2.434  0.4292 -0.2502 -0.0199
 7870SOL    HW135246   1.853   3.970   2.441  1.4450  0.0910 -1.1722
 7870SOL    HW235247   1.825   3.836   2.504  0.5388  0.1037  0.2651
 7871SOL     OW35248   3.867   0.550   9.929  0.2777 -0.4079  0.1174
 7871SOL    HW135249   3.883   0.546  10.024  1.3950  0.6145 -0.0310
 7871SOL    HW235250   3.955   0.520   9.906  0.2880  1.1041 -1.7241
 7872SOL     OW35251   1.042   2.658  17.221  0.1702  0.2838  0.2396
 7872SOL    HW135252   1.108   2.728  17.218  0.0521  0.4004  0.4197
 7872SOL    HW235253   0.997   2.670  17.137  0.9757 -1.8463 -0.5126
 7873SOL     OW35254   0.820   0.279   1.625  0.0483  0.2936 -0.4620
 7873SOL    HW135255   0.871   0.251   1.702  0.8609  2.0180 -0.3809
 7873SOL    HW235256   0.807   0.192   1.586 -0.2314 -0.2132  0.7497
 7874SOL     OW35257   3.426   1.052   7.086  0.8221 -0.1849  0.0769
 7874SOL    HW135258   3.478   0.972   7.076  0.3198 -0.8282  2.5514
 7874SOL    HW235259   3.466   1.102   7.015  0.4027 -2.4472 -1.7436
 7875SOL     OW35260   3.473   4.511  10.742 -0.2098  0.1923 -0.4307
 7875SOL    HW135261   3.471   4.602  10.771  1.2945  1.2727 -3.6972
 7875SOL    HW235262   3.441   4.519  10.652  0.8211 -1.1038 -0.9148
 7876SOL     OW35263   0.218   1.633   5.638 -0.2329  0.0631  0.4208
 7876SOL    HW135264   0.196   1.606   5.548  1.1763 -1.5848  0.5674
 7876SOL    HW235265   0.137   1.606   5.682  0.5977 -4.3212 -0.7430
 7877SOL     OW35266   2.811   4.614  16.580  0.4334 -0.1579  0.6716
 7877SOL    HW135267   2.822   4.671  16.656 -0.4715 -1.1138  1.5246
 7877SOL    HW235268   2.716   4.620  16.576  0.4964  1.1874  1.0713
 7878SOL     OW35269   1.456   1.089   8.676  0.3005  0.9836  0.3339
 7878SOL    HW135270   1.448   0.996   8.694  1.6641  0.8421  0.2296
 7878SOL    HW235271   1.420   1.128   8.756 -1.4467  1.8111 -0.8569
 7879SOL     OW35272   4.458   1.026  14.784 -0.2394 -0.2876  0.4499
 7879SOL    HW135273   4.391   0.957  14.785 -0.5326  0.0025  0.9835
 7879SOL    HW235274   4.503   1.011  14.701  0.7361  0.6347  0.8151
 7880SOL     OW35275   1.195   3.500   3.813 -0.1708  0.3472 -0.2222
 7880SOL    HW135276   1.147   3.420   3.793 -0.2493 -0.0138  1.3524
 7880SOL    HW235277   1.267   3.458   3.859 -0.6616  1.8859  1.9916
 7881SOL     OW35278   3.424   4.566  10.185 -0.0419  0.0188 -0.0988
 7881SOL    HW135279   3.481   4.640  10.162  0.3084 -0.0686  0.4803
 7881SOL    HW235280   3.405   4.527  10.100 -0.0611 -0.4962  0.1408
 7882SOL     OW35281   3.197   2.210   8.862 -0.0402  0.1310 -0.1070
 7882SOL    HW135282   3.258   2.141   8.834  0.2115  0.6585 -0.8808
 7882SOL    HW235283   3.259   2.262   8.915  1.9990 -1.8273 -0.5755
 7883SOL     OW35284   0.624   0.574   3.355 -0.2775  0.7350 -0.7653
 7883SOL    HW135285   0.694   0.514   3.328 -0.1776  0.1214  0.8844
 7883SOL    HW235286   0.661   0.659   3.330 -1.5004  1.4801 -0.0601
 7884SOL     OW35287   3.804   0.091   9.286  0.1205  0.1458  0.4748
 7884SOL    HW135288   3.733   0.097   9.351  0.4971  1.9552  0.7172
 7884SOL    HW235289   3.865   0.037   9.336 -2.6043 -1.9838  1.5257
 7885SOL     OW35290   0.776   2.992  16.553 -0.1640 -0.0201 -0.1179
 7885SOL    HW135291   0.703   3.054  16.545 -1.2240 -0.9782  1.9767
 7885SOL    HW235292   0.753   2.928  16.486  0.6207 -2.0797  1.5651
 7886SOL     OW35293   3.522   1.551  15.671  0.1532  0.0881 -0.1164
 7886SOL    HW135294   3.497   1.531  15.581  3.5240  1.5143 -1.4095
 7886SOL    HW235295   3.614   1.524  15.666 -0.2794 -1.3565 -0.2078
 7887SOL     OW35296   1.603   3.955   3.958 -0.5494  0.2277 -0.3290
 7887SOL    HW135297   1.526   3.899   3.960 -0.4510  0.1919  2.0097
 7887SOL    HW235298   1.613   3.971   4.051 -0.6899 -1.2897 -0.0592
 7888SOL     OW35299   4.031   1.937  12.401  0.4047 -0.6009 -0.6039
 7888SOL    HW135300   4.108   1.980  12.363  0.5399 -0.6726 -0.4098
 7888SOL    HW235301   4.073   1.890  12.473  0.7982  0.0558 -0.4078
 7889SOL     OW35302   4.712   4.206   7.322  0.1507  0.1393  0.4296
 7889SOL    HW135303   0.046   4.233   7.380 -0.6633 -0.8630  1.9052
 7889SOL    HW235304   4.640   4.267   7.337 -1.1201 -0.8393 -1.6229
 7890SOL     OW35305   0.046   2.271   3.363 -0.1916  0.9170 -0.3761
 7890SOL    HW135306   4.730   2.221   3.302 -0.6252  1.4310 -0.4174
 7890SOL    HW235307   0.130   2.248   3.322 -0.4415 -0.4070 -0.1484
 7891SOL     OW35308   4.285   3.880  12.944 -0.1559  0.1640 -0.1305
 7891SOL    HW135309   4.362   3.853  12.894  1.5428  2.6781  1.1387
 7891SOL    HW235310   4.236   3.798  12.941 -0.1124  0.1975 -1.6071
 7892SOL     OW35311   4.320   0.946   5.256  0.8227  0.0903  0.2877
 7892SOL    HW135312   4.398   0.924   5.207  0.1283 -1.7858  0.0193
 7892SOL    HW235313   4.258   0.888   5.212  0.6383 -0.3417  1.1208
 7893SOL     OW35314   4.714   0.162   8.241  0.0086  0.5619  0.3452
 7893SOL    HW135315   0.027   0.154   8.161  3.0909  0.8392  2.2775
 7893SOL    HW235316   4.629   0.135   8.206  0.5745  0.7723 -1.1551
 7894SOL     OW35317   1.264   1.894  15.135  0.2003  0.2325  0.2094
 7894SOL    HW135318   1.277   1.801  15.118  0.0404  0.1855  0.3445
 7894SOL    HW235319   1.326   1.898  15.209  1.0825  2.3930 -0.6499
 7895SOL     OW35320   3.221   1.521  16.311 -0.0650 -0.8097 -0.1067
 7895SOL    HW135321   3.292   1.461  16.288 -0.1932 -1.1823  0.4502
 7895SOL    HW235322   3.240   1.527  16.405  1.7878 -0.1740 -0.5343
 7896SOL     OW35323   0.247   4.009   4.010 -0.0474 -0.3188 -0.5333
 7896SOL    HW135324   0.339   3.990   3.991  0.1133  0.3663 -0.4364
 7896SOL    HW235325   0.212   3.964   3.933 -0.9680  1.1984 -0.9888
 7897SOL     OW35326   1.128   4.515   0.859  0.2307 -0.0607  0.0270
 7897SOL    HW135327   1.050   4.487   0.906 -0.1886  1.8479  0.4465
 7897SOL    HW235328   1.125   4.610   0.869  0.8461 -0.0057 -0.3074
 7898SOL     OW35329   1.409   0.045   4.397 -0.6604  0.5718  0.7136
 7898SOL    HW135330   1.458   0.102   4.338 -1.2444 -1.4381 -1.6934
 7898SOL    HW235331   1.382   4.718   4.333  0.0558  0.2158  0.7711
 7899SOL     OW35332   3.677   2.974  14.246 -0.3683 -0.4006  0.7741
 7899SOL    HW135333   3.758   2.959  14.295  1.7570 -0.0334 -2.6717
 7899SOL    HW235334   3.697   2.926  14.166 -1.1999  1.1207 -0.3342
 7900SOL     OW35335   4.258   3.463   3.388  0.3441  0.0574  0.0847
 7900SOL    HW135336   4.196   3.533   3.364 -2.3669 -1.2430  3.4052
 7900SOL    HW235337   4.200   3.389   3.405 -1.8091  1.4862 -0.9088
 7901SOL     OW35338   2.449   0.846   9.246 -0.2709 -0.3189 -0.3796
 7901SOL    HW135339   2.510   0.840   9.171 -0.5742  2.3016 -0.8246
 7901SOL    HW235340   2.442   0.760   9.286  0.1828 -0.3545 -0.3741
 7902SOL     OW35341   1.137   2.737   4.008 -0.0396 -0.0308  0.7667
 7902SOL    HW135342   1.061   2.699   3.964  1.1035 -2.7034  1.1193
 7902SOL    HW235343   1.119   2.821   4.050  1.2734  0.1582  0.9638
 7903SOL     OW35344   0.025   2.203  17.437 -0.5784  0.2726 -0.1401
 7903SOL    HW135345   0.069   2.287  17.425 -0.2455  0.3113  1.3075
 7903SOL    HW235346   0.009   2.177  17.346 -1.5782 -2.0932  0.7051
 7904SOL     OW35347   4.443   0.807  14.103  0.0462 -0.3492  0.1038
 7904SOL    HW135348   4.464   0.898  14.084 -0.2416 -0.0319  1.3318
 7904SOL    HW235349   4.421   0.764  14.020 -0.7278  1.5407 -0.6656
 7905SOL     OW35350   2.687   0.088  14.762 -0.1080  0.2611  0.6170
 7905SOL    HW135351   2.711   4.737  14.788 -1.5561 -0.1225  0.6455
 7905SOL    HW235352   2.594   0.096  14.784 -0.5358 -1.4298 -0.6280
 7906SOL     OW35353   2.997   3.131   3.085 -0.0779  0.0920 -0.6416
 7906SOL    HW135354   3.023   3.064   3.023 -0.7833 -1.1824  0.4336
 7906SOL    HW235355   3.057   3.204   3.069  1.6151 -1.3542 -0.8505
 7907SOL     OW35356   4.731   2.037  15.252  0.0021  0.0421 -0.4893
 7907SOL    HW135357   0.083   2.005  15.258  0.7532  2.4163  0.5313
 7907SOL    HW235358   4.736   2.112  15.311 -1.2011  0.2144 -0.5945
 7908SOL     OW35359   4.703   3.671  10.310 -0.5728  0.0081  0.1332
 7908SOL    HW135360   4.634   3.631  10.258 -1.0873 -0.2671  1.0179
 7908SOL    HW235361   0.042   3.628  10.273 -0.4119 -0.5860  1.1647
 7909SOL     OW35362   1.098   0.896  17.255  0.3107 -0.3024  0.3733
 7909SOL    HW135363   1.091   0.864  17.165 -0.4218  3.7809 -1.0150
 7909SOL    HW235364   1.019   0.853  17.286  2.1074 -2.5122  1.8260
 7910SOL     OW35365   2.213   3.454   2.408 -1.0418  0.4966 -0.2423
 7910SOL    HW135366   2.129   3.416   2.384 -0.4379 -1.0686  0.0971
 7910SOL    HW235367   2.233   3.504   2.329 -2.2318  0.5078 -0.5264
 7911SOL     OW35368   1.897   2.005   3.894 -0.2757  0.5337  0.2829
 7911SOL    HW135369   1.867   2.096   3.892  1.4918  1.1116  0.2772
 7911SOL    HW235370   1.858   1.981   3.978  0.3067 -1.9993 -0.1721
 7912SOL     OW35371   4.250   2.290   4.737 -0.5259  0.1167 -0.4587
 7912SOL    HW135372   4.280   2.360   4.678 -1.5616  0.6175 -0.4105
 7912SOL    HW235373   4.174   2.337   4.773  1.0106 -1.7963  5.2574
 7913SOL     OW35374   2.402   1.062   8.963 -0.0055 -0.3467  0.4058
 7913SOL    HW135375   2.434   0.972   8.956 -1.2480 -0.9123  1.8710
 7913SOL    HW235376   2.444   1.106   8.889 -1.6754  2.1776  0.9463
 7914SOL     OW35377   3.394   1.268  16.903  0.0788  0.5255  0.7156
 7914SOL    HW135378   3.427   1.308  16.984  2.4856 -0.8891  0.4305
 7914SOL    HW235379   3.325   1.326  16.871  1.1187 -0.7208 -3.8175
 7915SOL     OW35380   3.159   1.461   4.051  0.1395  0.3228 -0.5944
 7915SOL    HW135381   3.070   1.497   4.050  0.0985  0.3934  2.9987
 7915SOL    HW235382   3.156   1.457   4.147  0.5273 -0.3300 -0.6106
 7916SOL     OW35383   1.857   0.229   0.136 -0.0848  0.0255 -0.1874
 7916SOL    HW135384   1.823   0.245   0.048  1.5227 -0.2600 -0.8600
 7916SOL    HW235385   1.951   0.240   0.118  0.1702 -1.7336  0.0950
 7917SOL     OW35386   0.382   2.968   2.420 -0.0713 -0.3953  0.0803
 7917SOL    HW135387   0.375   2.888   2.473  1.6539 -1.1371 -0.8108
 7917SOL    HW235388   0.314   2.940   2.360  0.9375 -1.6808 -0.4828
 7918SOL     OW35389   0.736   0.263   7.865  0.2849 -0.2122  0.0148
 7918SOL    HW135390   0.781   0.234   7.785  1.3206 -1.0405  0.9113
 7918SOL    HW235391   0.769   0.353   7.853 -1.0484  0.5638  2.1594
 7919SOL     OW35392   1.333   0.915   7.510  0.0185 -0.4833  0.0252
 7919SOL    HW135393   1.369   0.975   7.576  2.5687 -0.4736 -1.3675
 7919SOL    HW235394   1.388   0.838   7.524  3.4672  1.6624 -1.7800
 7920SOL     OW35395   3.572   3.351  17.071  0.2830  0.4548  0.1363
 7920SOL    HW135396   3.623   3.431  17.085 -0.9212  0.7353  2.9625
 7920SOL    HW235397   3.577   3.336  16.977 -2.0511  0.3880  0.0198
 7921SOL     OW35398   3.869   2.959   2.922  0.3824 -0.2360 -0.4204
 7921SOL    HW135399   3.946   3.007   2.892 -0.8276  1.9128 -0.0487
 7921SOL    HW235400   3.862   2.995   3.010  0.8820 -1.3048  0.0626
 7922SOL     OW35401   0.910   0.295   2.609 -0.4536  0.1343  0.6328
 7922SOL    HW135402   0.962   0.363   2.651  0.3662  0.6965 -1.3001
 7922SOL    HW235403   0.943   0.211   2.641 -0.0691 -0.7011 -1.9269
 7923SOL     OW35404   3.076   2.873  11.738  0.1471  0.3067  0.0429
 7923SOL    HW135405   3.098   2.779  11.742 -0.9099  0.0806  0.4297
 7923SOL    HW235406   3.135   2.902  11.808 -0.4028 -1.1710  1.1306
 7924SOL     OW35407   0.058   4.083  13.141  0.1850  0.2774 -0.3488
 7924SOL    HW135408   0.095   4.055  13.057  0.3537  1.4110 -0.6545
 7924SOL    HW235409   0.126   4.106  13.204 -1.9366  5.1550  0.1615
 7925SOL     OW35410   2.513   3.721   1.376 -0.2543  0.2256 -0.0958
 7925SOL    HW135411   2.489   3.811   1.354 -0.1653 -0.4017 -2.7946
 7925SOL    HW235412   2.480   3.680   1.296 -1.7140  0.1984  0.5161
 7926SOL     OW35413   0.050   3.405   7.697  0.3681 -0.5843 -0.1539
 7926SOL    HW135414   0.086   3.333   7.748  0.0471  0.0672  1.0128
 7926SOL    HW235415   0.111   3.403   7.623 -0.2659 -0.1363 -0.6910
 7927SOL     OW35416   3.887   3.268  11.915 -0.3487 -0.5113  0.7879
 7927SOL    HW135417   3.816   3.224  11.962 -1.0855 -0.8146 -0.5970
 7927SOL    HW235418   3.905   3.198  11.851 -0.0952 -0.3573  0.6902
 7928SOL     OW35419   1.166   0.239   5.502 -0.2214  0.2846 -0.2868
 7928SOL    HW135420   1.186   0.332   5.513 -1.8350  0.4963  0.7890
 7928SOL    HW235421   1.096   0.217   5.563  0.8884 -1.9964  0.1658
 7929SOL     OW35422   0.470   2.952  10.201  0.4979 -0.0035 -0.0442
 7929SOL    HW135423   0.433   2.871  10.167 -0.6581  0.3858  0.3091
 7929SOL    HW235424   0.429   2.965  10.286  2.7598 -0.0414  1.0513
 7930SOL     OW35425   2.016   2.362   3.831  0.2022  0.1932 -0.4508
 7930SOL    HW135426   1.965   2.370   3.751 -1.0161  0.5857  0.3614
 7930SOL    HW235427   1.966   2.423   3.884  0.7951  0.5080 -0.2514
 7931SOL     OW35428   2.175   3.724  13.366 -0.2798  0.1969 -0.0477
 7931SOL    HW135429   2.158   3.817  13.376 -1.0376 -0.0503  0.9363
 7931SOL    HW235430   2.088   3.702  13.333  0.1456 -0.7473 -0.5465
 7932SOL     OW35431   3.964   4.258   8.543 -0.0988  0.5456 -0.1586
 7932SOL    HW135432   4.052   4.264   8.506 -0.8462  1.8071 -1.7230
 7932SOL    HW235433   3.971   4.329   8.607  2.2745 -1.2891  1.5997
 7933SOL     OW35434   4.592   1.641   1.698  0.1899  0.1036  0.0206
 7933SOL    HW135435   4.580   1.571   1.634  1.0944  0.3044 -0.3641
 7933SOL    HW235436   4.567   1.607   1.784 -2.9742 -1.4411 -1.4903
 7934SOL     OW35437   1.139   1.156   7.056 -0.1706 -0.0777 -0.0232
 7934SOL    HW135438   1.058   1.163   7.107 -0.4667  4.0532 -1.0795
 7934SOL    HW235439   1.203   1.132   7.123 -0.0437 -0.8259 -0.4127
 7935SOL     OW35440   3.442   3.507   9.272  0.4220 -0.4470 -0.0412
 7935SOL    HW135441   3.392   3.585   9.295  1.9666  0.4633  0.2083
 7935SOL    HW235442   3.384   3.441   9.310  0.6788 -1.5175 -1.4892
 7936SOL     OW35443   3.625   2.106   3.070 -0.1313  0.0090  0.2974
 7936SOL    HW135444   3.631   2.071   3.159  0.1098 -0.6205  0.0319
 7936SOL    HW235445   3.539   2.067   3.051  0.1081  0.5026 -1.7983
 7937SOL     OW35446   1.898   0.595   8.753  0.2497 -0.4809  0.3842
 7937SOL    HW135447   1.868   0.570   8.666  2.1204 -1.3794 -0.0039
 7937SOL    HW235448   1.833   0.659   8.782 -0.6442 -0.2496 -2.1104
 7938SOL     OW35449   1.352   2.550   5.622  0.7070 -0.7048 -0.7195
 7938SOL    HW135450   1.407   2.602   5.681 -0.0129  0.4402 -1.0439
 7938SOL    HW235451   1.285   2.618   5.612 -0.0493 -1.1121  1.7762
 7939SOL     OW35452   3.832   2.905   3.799 -0.0726 -0.3885  0.0058
 7939SOL    HW135453   3.769   2.890   3.728  0.5985 -0.7704 -0.5143
 7939SOL    HW235454   3.799   2.839   3.860 -2.1911  1.4419  0.8545
 7940SOL     OW35455   3.621   1.666  10.350 -0.0947 -0.3567 -0.3443
 7940SOL    HW135456   3.607   1.635  10.439 -0.1614 -2.0704 -0.9498
 7940SOL    HW235457   3.717   1.669  10.348 -0.1971  1.5541 -1.9022
 7941SOL     OW35458   2.823   1.239   5.284 -0.1830  0.4786  0.0726
 7941SOL    HW135459   2.790   1.291   5.357 -2.2505  0.1134 -0.6262
 7941SOL    HW235460   2.737   1.208   5.258  0.8457 -1.0689 -1.4518
 7942SOL     OW35461   3.766   2.491  11.548 -0.5302 -0.1584  0.4797
 7942SOL    HW135462   3.766   2.581  11.516 -1.0402 -0.1365  0.5394
 7942SOL    HW235463   3.683   2.492  11.596  0.6380 -2.1405  2.5216
 7943SOL     OW35464   3.489   1.960   2.537  0.1591 -0.8764  0.1744
 7943SOL    HW135465   3.413   1.919   2.494 -0.3527  0.2398 -0.0023
 7943SOL    HW235466   3.482   1.936   2.629 -0.8095  1.2549  0.6806
 7944SOL     OW35467   0.271   1.350   2.053 -0.3167  0.6123  0.0185
 7944SOL    HW135468   0.185   1.351   2.013  0.9325  1.7235 -2.6121
 7944SOL    HW235469   0.304   1.413   1.989  0.3880  1.4977  1.2483
 7945SOL     OW35470   2.390   3.595   5.641 -0.0606 -0.0290  0.2215
 7945SOL    HW135471   2.460   3.542   5.679 -0.2361  0.8678  1.7393
 7945SOL    HW235472   2.337   3.602   5.720 -2.5464  1.7948 -1.6078
 7946SOL     OW35473   0.583   2.452   1.609 -0.3531  0.2008  0.2917
 7946SOL    HW135474   0.573   2.416   1.520 -0.7181 -2.5675  1.4370
 7946SOL    HW235475   0.550   2.372   1.651 -1.3848  0.0885 -0.7392
 7947SOL     OW35476   2.698   4.359   4.850  0.1060 -0.0751  0.8697
 7947SOL    HW135477   2.614   4.328   4.884 -0.9750  1.3694 -0.4687
 7947SOL    HW235478   2.703   4.446   4.889  2.0844  0.8323 -1.4069
 7948SOL     OW35479   4.195   2.065   4.433 -0.4303  0.0566  0.4125
 7948SOL    HW135480   4.252   2.092   4.361 -0.9553 -1.4824 -0.5797
 7948SOL    HW235481   4.173   1.974   4.415  1.2783 -0.1645 -0.5438
 7949SOL     OW35482   4.172   3.174  10.915 -0.3642  0.2280  0.3147
 7949SOL    HW135483   4.179   3.081  10.894 -2.2519  0.2966 -0.5652
 7949SOL    HW235484   4.082   3.185  10.946  0.2479  2.3538  1.3205
 7950SOL     OW35485   4.560   0.952   7.390 -0.2542  0.4997  0.0874
 7950SOL    HW135486   4.502   0.999   7.329  1.1753  1.2667 -0.6761
 7950SOL    HW235487   4.505   0.948   7.468  0.6738  2.8603  0.8678
 7951SOL     OW35488   2.492   0.651   3.240  0.0412 -0.0058 -0.1609
 7951SOL    HW135489   2.532   0.564   3.236 -3.1414 -1.4563 -0.5707
 7951SOL    HW235490   2.424   0.628   3.176 -1.3443  0.6179  1.1006
 7952SOL     OW35491   0.798   1.464  17.612  0.6099 -0.0192 -0.6631
 7952SOL    HW135492   0.819   1.473  17.519  1.1964  1.2174 -0.4125
 7952SOL    HW235493   0.771   1.372  17.612  1.2332 -0.2052 -0.1125
 7953SOL     OW35494   3.454   3.837   7.538 -0.3465  0.2566  0.6573
 7953SOL    HW135495   3.526   3.895   7.562 -0.7526  0.6478  0.9216
 7953SOL    HW235496   3.472   3.817   7.446  0.6949  0.1624  0.8824
 7954SOL     OW35497   2.533   3.524   7.629  0.1210  0.1005  0.0230
 7954SOL    HW135498   2.481   3.446   7.610  0.7038 -0.4165  0.5563
 7954SOL    HW235499   2.621   3.487   7.634  0.5009  1.0072  0.0832
 7955SOL     OW35500   0.830   4.427   6.922  0.3113  0.1647  0.3821
 7955SOL    HW135501   0.868   4.432   7.010  1.3089  1.3800 -0.1327
 7955SOL    HW235502   0.832   4.332   6.910 -0.3631 -0.1168  2.4571
 7956SOL     OW35503   3.655   3.894   5.727 -0.2676 -0.1969 -0.0183
 7956SOL    HW135504   3.659   3.888   5.631  1.7232  0.7066  0.0198
 7956SOL    HW235505   3.584   3.955   5.746  0.6174 -0.1620  3.0671
 7957SOL     OW35506   3.994   3.437   0.744 -0.1343  0.4525  0.3153
 7957SOL    HW135507   3.975   3.528   0.722 -0.6439  1.1598  3.6531
 7957SOL    HW235508   3.935   3.389   0.685  1.3872 -1.3730  0.2657
 7958SOL     OW35509   2.010   4.435   6.727 -0.4957 -0.3964  0.0781
 7958SOL    HW135510   2.077   4.467   6.787 -1.7098  0.8747  0.7743
 7958SOL    HW235511   1.950   4.392   6.789 -2.8655 -0.5502 -2.3227
 7959SOL     OW35512   1.560   2.329   1.029 -0.2680 -0.9023 -0.5186
 7959SOL    HW135513   1.618   2.298   0.960  1.1900  0.2093  0.2126
 7959SOL    HW235514   1.615   2.381   1.088  1.4879 -1.9855 -1.2296
 7960SOL     OW35515   1.406   1.868  15.367 -0.1592  0.0001 -0.0605
 7960SOL    HW135516   1.453   1.951  15.372  0.1955 -0.3703  2.4853
 7960SOL    HW235517   1.475   1.802  15.371 -0.7822 -0.9324 -4.8207
 7961SOL     OW35518   3.912   2.679  11.449  0.3671  0.5218  0.0060
 7961SOL    HW135519   3.901   2.597  11.401  0.1356  1.1533 -1.0058
 7961SOL    HW235520   4.005   2.698  11.462  0.6136 -1.0553  0.5511
 7962SOL     OW35521   4.295   1.673   4.307 -0.2642  0.7104  0.5193
 7962SOL    HW135522   4.353   1.746   4.287  1.3669 -0.9226 -0.6774
 7962SOL    HW235523   4.213   1.718   4.326  0.2198  1.7009  0.2451
 7963SOL     OW35524   1.435   3.611  10.422 -0.1203  0.0346  0.4082
 7963SOL    HW135525   1.522   3.652  10.425  1.1487 -2.5018 -1.5676
 7963SOL    HW235526   1.440   3.535  10.480 -0.7779 -0.2109  0.1398
 7964SOL     OW35527   0.019   0.904  11.744 -0.5140 -0.0411  0.3908
 7964SOL    HW135528   4.692   0.859  11.799  0.9148 -0.8693  1.3922
 7964SOL    HW235529   4.693   0.929  11.677 -1.0142  0.3290  1.0050
 7965SOL     OW35530   4.606   0.768   6.993 -0.7204  0.3729  0.3781
 7965SOL    HW135531   4.582   0.858   6.970  0.3330  0.5252 -0.1056
 7965SOL    HW235532   4.536   0.733   7.048  0.5461 -2.6662  0.0301
 7966SOL     OW35533   1.211   2.267  11.366  0.2932  0.0091  0.5449
 7966SOL    HW135534   1.221   2.355  11.402  0.8260  0.7790 -1.4488
 7966SOL    HW235535   1.229   2.286  11.273 -0.7248 -0.9661  0.1496
 7967SOL     OW35536   2.686   0.025  17.241 -0.5984 -0.0537 -0.2145
 7967SOL    HW135537   2.760   4.703  17.246  1.8998  3.0411 -0.1259
 7967SOL    HW235538   2.645   0.002  17.158 -1.8663  1.1395  0.0748
 7968SOL     OW35539   0.067   0.301  17.541  0.3301 -0.1378  0.0094
 7968SOL    HW135540   0.016   0.321  17.464 -0.1223  2.9290  1.1139
 7968SOL    HW235541   0.060   0.206  17.550 -1.2404  0.1888  2.1364
 7969SOL     OW35542   2.084   0.689   3.701 -0.2235  0.8141  0.1282
 7969SOL    HW135543   2.096   0.622   3.634  0.8042  1.4865 -0.3762
 7969SOL    HW235544   2.142   0.760   3.673 -0.0332 -0.3847 -2.5235
 7970SOL     OW35545   3.099   1.849  11.031  0.3101  0.0236 -0.2035
 7970SOL    HW135546   3.151   1.862  10.952  1.0069 -0.1999  0.2290
 7970SOL    HW235547   3.134   1.766  11.062 -0.1178 -0.3271 -0.6471
 7971SOL     OW35548   4.208   2.446   6.984 -0.3764 -0.3641 -0.1112
 7971SOL    HW135549   4.266   2.519   6.962  2.2344 -2.5009 -0.3364
 7971SOL    HW235550   4.124   2.471   6.946 -1.3591 -2.5325  0.6948
 7972SOL     OW35551   4.664   1.725   3.551 -0.1763  0.2458  0.0748
 7972SOL    HW135552   4.691   1.816   3.556 -1.0391  0.5520 -1.1606
 7972SOL    HW235553   4.665   1.702   3.458  1.0229  0.1105  0.1272
 7973SOL     OW35554   2.594   2.985   5.654  0.1815  0.4577 -0.2462
 7973SOL    HW135555   2.601   3.072   5.694 -0.4726  0.4737 -0.1733
 7973SOL    HW235556   2.578   2.930   5.730 -0.8330  0.6522 -0.3274
 7974SOL     OW35557   3.642   1.728   6.302 -0.5754  0.5381  0.1231
 7974SOL    HW135558   3.716   1.745   6.243 -0.8081  0.0427 -0.3181
 7974SOL    HW235559   3.572   1.688   6.251 -0.4107 -0.6812  0.8772
 7975SOL     OW35560   1.558   2.218   9.539 -0.0521 -0.3336  0.3883
 7975SOL    HW135561   1.584   2.203   9.630 -0.0631 -2.0156  0.1146
 7975SOL    HW235562   1.472   2.258   9.550 -0.6076 -0.9952 -1.5668
 7976SOL     OW35563   3.031   0.664   6.695 -0.0107  0.0655  0.3250
 7976SOL    HW135564   2.942   0.631   6.709 -0.7517  0.6872 -2.8463
 7976SOL    HW235565   3.056   0.592   6.637 -1.7668  0.1306 -0.5400
 7977SOL     OW35566   2.078   4.500   9.039 -0.4456  0.5282 -0.1153
 7977SOL    HW135567   2.107   4.554   8.965  1.9966  1.3055  1.4062
 7977SOL    HW235568   2.159   4.462   9.073 -0.0326  0.8014 -0.7747
 7978SOL     OW35569   1.589   0.588   3.552  0.3602  0.0419  0.0301
 7978SOL    HW135570   1.607   0.550   3.466  0.4318 -1.0888  0.5436
 7978SOL    HW235571   1.644   0.666   3.559  0.3350  0.1461 -0.8875
 7979SOL     OW35572   4.183   4.294   4.863  0.0801 -0.0598  0.0916
 7979SOL    HW135573   4.168   4.201   4.845 -0.5492  0.1296 -0.3596
 7979SOL    HW235574   4.172   4.290   4.958  0.2077  2.8574  0.2276
 7980SOL     OW35575   1.791   2.445   3.701  0.1462 -0.2247 -0.6837
 7980SOL    HW135576   1.764   2.522   3.750 -1.2678 -0.5317 -0.9759
 7980SOL    HW235577   1.718   2.402   3.656 -1.0127 -0.3762  1.3696
 7981SOL     OW35578   1.364   1.275   8.871 -0.4357  0.0001  0.3387
 7981SOL    HW135579   1.339   1.326   8.793 -0.4958 -0.9116 -0.2380
 7981SOL    HW235580   1.452   1.308   8.890  0.3189 -0.8920 -1.6010
 7982SOL     OW35581   0.721   2.776   0.435 -0.5846  0.2016  0.4316
 7982SOL    HW135582   0.674   2.764   0.352  0.0214 -0.2107  0.1546
 7982SOL    HW235583   0.655   2.821   0.489 -1.9941 -0.2232 -0.9217
 7983SOL     OW35584   1.234   1.207   4.373  0.2197 -0.2995  0.4441
 7983SOL    HW135585   1.279   1.214   4.288 -0.5284  3.1067  0.3195
 7983SOL    HW235586   1.308   1.206   4.435  0.6062 -0.4645 -0.0186
 7984SOL     OW35587   1.154   0.474   4.685  0.5021 -0.2222  0.2710
 7984SOL    HW135588   1.145   0.541   4.617  1.9730 -1.0837 -0.7740
 7984SOL    HW235589   1.066   0.437   4.676  0.9782 -1.0871 -0.8079
 7985SOL     OW35590   0.955   3.992  14.863 -0.3817 -0.2361 -0.1269
 7985SOL    HW135591   0.975   4.073  14.816  0.4323 -0.5600 -0.3503
 7985SOL    HW235592   0.859   3.992  14.867 -0.4229  0.7037 -1.2985
 7986SOL     OW35593   3.475   0.317  16.352  0.5294  0.0245 -0.8574
 7986SOL    HW135594   3.433   0.304  16.437  0.4942 -0.2902 -0.9232
 7986SOL    HW235595   3.472   0.412  16.354 -0.2681 -0.0318  0.8066
 7987SOL     OW35596   1.005   4.493   7.673 -0.1662 -0.0083  0.5105
 7987SOL    HW135597   0.917   4.454   7.666  0.5681 -1.7822  1.0407
 7987SOL    HW235598   1.001   4.550   7.749 -0.4827 -0.8955  1.1621
 7988SOL     OW35599   4.672   2.475  14.615  0.8648  0.2085 -1.1554
 7988SOL    HW135600   4.590   2.513  14.647  0.3062 -0.3942 -1.8617
 7988SOL    HW235601   4.733   2.522  14.671 -0.7469  2.1794 -1.0653
 7989SOL     OW35602   1.096   3.234   9.330 -0.2395  0.2055 -0.1886
 7989SOL    HW135603   1.127   3.189   9.408  1.9030  0.6131 -0.8066
 7989SOL    HW235604   1.055   3.164   9.279  0.8998 -1.3525  1.0168
 7990SOL     OW35605   2.941   3.680  12.851 -0.0685  0.1904 -0.4843
 7990SOL    HW135606   3.018   3.658  12.799  1.1291  4.4243 -0.4785
 7990SOL    HW235607   2.868   3.685  12.789 -0.8785 -1.9174  0.2950
 7991SOL     OW35608   1.776   0.312   0.377  0.3487 -0.0517 -0.0044
 7991SOL    HW135609   1.736   0.237   0.421  1.4777 -0.5110  0.2251
 7991SOL    HW235610   1.797   0.274   0.292  0.9206 -0.8185  0.4749
 7992SOL     OW35611   2.966   3.671   7.693 -0.0665  0.1252 -0.0476
 7992SOL    HW135612   3.005   3.599   7.644  0.7903  1.3101 -1.1165
 7992SOL    HW235613   2.882   3.641   7.727  0.0727 -1.2343 -0.9134
 7993SOL     OW35614   3.142   4.117   5.901  0.0174  0.0825  0.2593
 7993SOL    HW135615   3.097   4.074   5.973  1.3317  0.7438  1.4709
 7993SOL    HW235616   3.110   4.204   5.923  3.2483  0.7646  2.2981
 7994SOL     OW35617   1.123   0.565   5.001  0.2764  0.4981  0.3555
 7994SOL    HW135618   1.130   0.653   5.038 -0.6112  0.2310  1.1640
 7994SOL    HW235619   1.111   0.576   4.907  0.2638 -1.8971  0.0639
 7995SOL     OW35620   1.183   3.578   3.027 -0.4281  0.1250  0.0044
 7995SOL    HW135621   1.142   3.656   2.990  2.4499  0.5038 -2.4171
 7995SOL    HW235622   1.151   3.515   2.962 -0.9566 -1.0993  1.4524
 7996SOL     OW35623   3.299   3.680   8.461 -0.4538 -0.1665  0.1766
 7996SOL    HW135624   3.340   3.607   8.414 -0.5145  0.6360 -1.1192
 7996SOL    HW235625   3.242   3.639   8.526  1.4278 -1.8515  0.7617
 7997SOL     OW35626   2.605   1.229   6.915 -0.2793  0.1753 -0.0425
 7997SOL    HW135627   2.650   1.273   6.987 -1.8427  2.9625 -0.7918
 7997SOL    HW235628   2.658   1.253   6.839  0.9002  1.2271  1.1261
 7998SOL     OW35629   0.303   3.702   0.549  0.3972  0.0819 -0.1642
 7998SOL    HW135630   0.375   3.665   0.497 -0.2342 -4.0751  1.8690
 7998SOL    HW235631   0.333   3.786   0.583 -1.9008  0.2157  1.5267
 7999SOL     OW35632   0.248   2.701  10.884 -0.1887  0.4582  0.0655
 7999SOL    HW135633   0.250   2.706  10.980 -2.0363  0.2113  0.1181
 7999SOL    HW235634   0.320   2.642  10.861 -0.3884  0.2308  0.0238
 8000SOL     OW35635   1.226   2.849  11.719  0.1085  0.8232 -0.2954
 8000SOL    HW135636   1.162   2.778  11.723 -0.0595  0.9071 -1.5422
 8000SOL    HW235637   1.225   2.862  11.624 -0.0950 -1.9583 -0.6925
 8001SOL     OW35638   0.971   0.648   8.206 -0.2665  0.7584  0.2367
 8001SOL    HW135639   0.896   0.703   8.181  0.0292 -0.3906 -3.2328
 8001SOL    HW235640   1.041   0.709   8.185 -0.9525  2.1821  1.9935
 8002SOL     OW35641   2.329   0.389   0.883 -0.2685 -0.4688  0.0924
 8002SOL    HW135642   2.330   0.293   0.886 -0.9374 -0.4543  0.8065
 8002SOL    HW235643   2.422   0.395   0.861 -0.1900  0.3699  0.6594
 8003SOL     OW35644   0.238   4.155   1.897  0.4177  0.3286 -0.5085
 8003SOL    HW135645   0.229   4.214   1.822 -2.6615 -1.2555 -1.4006
 8003SOL    HW235646   0.155   4.107   1.906 -0.1306  1.4289  0.1510
 8004SOL     OW35647   2.796   1.931  12.322 -0.4654 -0.3684 -0.2620
 8004SOL    HW135648   2.734   1.887  12.380 -0.0047  0.8760  1.1864
 8004SOL    HW235649   2.733   1.957  12.256 -0.9431  1.4110  0.8888
 8005SOL     OW35650   3.111   4.390  11.623 -0.6100  0.2609 -0.3172
 8005SOL    HW135651   3.195   4.432  11.605 -1.3308  0.5444 -3.0629
 8005SOL    HW235652   3.048   4.448  11.580 -0.3500  0.2176 -0.7605
 8006SOL     OW35653   2.345   1.612   5.308  0.2881  0.1367 -0.1409
 8006SOL    HW135654   2.385   1.674   5.369  0.3952  1.8101 -1.8904
 8006SOL    HW235655   2.339   1.533   5.361  1.6804  0.5509  0.6373
 8007SOL     OW35656   0.502   0.974   7.114 -0.0966 -0.1379 -1.2400
 8007SOL    HW135657   0.451   0.918   7.173  1.6760  0.7640  1.1817
 8007SOL    HW235658   0.431   0.996   7.054 -0.4875  0.7720 -0.4492
 8008SOL     OW35659   2.331   4.663  12.602  0.0714 -0.0921 -0.0806
 8008SOL    HW135660   2.394   4.649  12.673  0.6870  0.1411 -0.5774
 8008SOL    HW235661   2.365   0.005  12.562 -0.1048 -0.3491 -0.7374
 8009SOL     OW35662   0.689   2.130   0.103 -0.3794  0.7932 -0.0736
 8009SOL    HW135663   0.652   2.187   0.170  0.3925 -0.0231  1.0711
 8009SOL    HW235664   0.733   2.063   0.157  0.4775  0.1725 -1.5417
 8010SOL     OW35665   3.515   3.054   6.714 -0.2762  0.1301 -0.2382
 8010SOL    HW135666   3.487   2.991   6.781 -1.4123  1.3636  0.4384
 8010SOL    HW235667   3.568   3.111   6.769 -1.3857  1.6345 -0.7526
 8011SOL     OW35668   3.444   0.349   3.494  0.2888  0.3569 -0.6226
 8011SOL    HW135669   3.535   0.359   3.519 -0.6566  1.2810  2.3692
 8011SOL    HW235670   3.425   0.258   3.516 -0.0620  0.4869 -0.3846
 8012SOL     OW35671   4.651   2.926  12.652  0.9917  0.1806  0.2225
 8012SOL    HW135672   4.567   2.881  12.649 -0.3612  2.6376  1.8868
 8012SOL    HW235673   4.608   3.007  12.679  0.3756 -0.4161  1.0212
 8013SOL     OW35674   1.675   0.943  10.968 -0.2149 -0.2127 -0.4373
 8013SOL    HW135675   1.723   1.003  11.025  0.7021 -1.3497 -0.0233
 8013SOL    HW235676   1.716   0.959  10.883  3.8388 -3.0552  0.9885
 8014SOL     OW35677   4.534   0.102  14.056 -0.9512 -0.4017  0.3245
 8014SOL    HW135678   4.441   0.114  14.075 -0.6872 -0.0601  1.4470
 8014SOL    HW235679   4.533   0.102  13.960 -2.1979  0.4487  0.3449
 8015SOL     OW35680   3.635   0.945   2.745 -0.3376  0.4885  0.0050
 8015SOL    HW135681   3.545   0.974   2.761  0.1917  1.3314  1.3772
 8015SOL    HW235682   3.644   0.885   2.819  0.1072 -0.4946 -0.8419
 8016SOL     OW35683   4.734   2.878   5.663  0.1081  0.3028  0.4590
 8016SOL    HW135684   4.674   2.949   5.642 -1.9867 -1.9048 -0.9230
 8016SOL    HW235685   0.063   2.933   5.705  0.2592 -2.6306  4.0746
 8017SOL     OW35686   3.504   3.351   8.548  0.0493 -0.2149 -0.2062
 8017SOL    HW135687   3.489   3.437   8.588 -1.7517 -0.4008 -0.5008
 8017SOL    HW235688   3.426   3.301   8.573 -1.6497  2.9754  0.8987
 8018SOL     OW35689   3.583   3.493   7.998 -0.1176 -0.0610  0.1947
 8018SOL    HW135690   3.500   3.459   7.965  0.2277 -0.9767  0.2815
 8018SOL    HW235691   3.546   3.565   8.050  0.2095  0.7662 -0.7123
 8019SOL     OW35692   4.369   0.655   4.692 -0.4262 -0.2101  0.1846
 8019SOL    HW135693   4.390   0.647   4.599  2.2953 -0.7037  0.8354
 8019SOL    HW235694   4.452   0.621   4.725 -1.0098 -1.8022 -0.0060
 8020SOL     OW35695   2.244   1.051   7.565 -0.3250  0.1855 -0.0756
 8020SOL    HW135696   2.306   1.032   7.496  1.4396  0.1898  1.5110
 8020SOL    HW235697   2.205   0.967   7.590  0.0742  0.4096  1.3373
 8021SOL     OW35698   1.608   2.209   6.573 -0.3544 -0.1311 -0.8279
 8021SOL    HW135699   1.595   2.137   6.512  0.4657 -0.2843 -0.8286
 8021SOL    HW235700   1.523   2.253   6.569  0.4940  1.6551  0.8107
 8022SOL     OW35701   2.672   3.542  13.777 -0.2780 -0.1776 -0.3013
 8022SOL    HW135702   2.757   3.516  13.812  0.3087 -1.6742 -2.8787
 8022SOL    HW235703   2.686   3.562  13.684  0.1685 -0.1029 -0.2164
 8023SOL     OW35704   2.054   3.985   4.638 -0.1441 -0.1855 -0.4033
 8023SOL    HW135705   2.083   3.996   4.548 -2.1575 -0.6916 -1.1221
 8023SOL    HW235706   2.025   4.076   4.651 -1.4793 -0.5112 -1.0590
 8024SOL     OW35707   3.295   0.478   5.408  0.1903  0.7240 -0.3847
 8024SOL    HW135708   3.356   0.510   5.342 -1.4161  0.0473 -2.1806
 8024SOL    HW235709   3.312   0.384   5.405 -1.2170  0.3868  1.8742
 8025SOL     OW35710   1.379   3.175  12.290  0.5220 -0.0260 -0.1728
 8025SOL    HW135711   1.413   3.181  12.201  0.2256 -1.9936 -0.4224
 8025SOL    HW235712   1.313   3.244  12.292  0.0682 -0.4059 -1.9468
 8026SOL     OW35713   0.344   2.274   1.607 -0.5023  0.1819 -0.6748
 8026SOL    HW135714   0.389   2.205   1.558  0.6642  0.1978  0.3619
 8026SOL    HW235715   0.331   2.331   1.530 -2.8535  0.3132 -0.1577
 8027SOL     OW35716   3.537   3.151  10.830  0.3818 -0.8598  0.0169
 8027SOL    HW135717   3.611   3.200  10.865  0.7087 -0.9143 -0.5942
 8027SOL    HW235718   3.541   3.154  10.734  1.2319  0.2320  0.0916
 8028SOL     OW35719   4.430   3.491  10.685 -0.1657  0.0175  0.2188
 8028SOL    HW135720   4.475   3.436  10.622  1.4560 -0.7086  2.0271
 8028SOL    HW235721   4.509   3.538  10.712 -0.0677  1.0564 -1.9054
 8029SOL     OW35722   1.959   1.973   3.072  0.2726 -0.3507  0.0837
 8029SOL    HW135723   1.874   1.973   3.028 -0.1351  1.4136  0.8691
 8029SOL    HW235724   1.940   1.939   3.159 -0.7415  3.0934  1.1987
 8030SOL     OW35725   3.414   2.424   8.524  0.2472  0.1760  0.3633
 8030SOL    HW135726   3.368   2.344   8.497  1.2515 -0.1863 -0.2953
 8030SOL    HW235727   3.396   2.484   8.452 -1.0963  0.8633  1.2749
 8031SOL     OW35728   0.662   3.309   8.713 -0.0724 -0.0733 -0.8990
 8031SOL    HW135729   0.722   3.328   8.641  2.0379 -2.0598  0.3369
 8031SOL    HW235730   0.619   3.233   8.674 -1.2775 -0.4041  1.0706
 8032SOL     OW35731   4.392   4.293   3.849  0.3768  0.3693  0.1219
 8032SOL    HW135732   4.437   4.260   3.772 -0.9490 -1.0117 -0.0636
 8032SOL    HW235733   4.464   4.317   3.907  0.9019 -1.3617  0.1825
 8033SOL     OW35734   2.004   0.017  17.715 -0.8806  0.2625 -0.3762
 8033SOL    HW135735   2.030   4.691  17.649  1.2253  1.0225 -0.2909
 8033SOL    HW235736   1.915   4.724  17.729 -1.0601  0.1602 -1.7852
 8034SOL     OW35737   4.260   1.880   2.133  0.0981 -0.1180  0.5049
 8034SOL    HW135738   4.343   1.846   2.167 -0.3992 -0.3042  1.5055
 8034SOL    HW235739   4.229   1.806   2.082  2.1393 -1.2671  0.9165
 8035SOL     OW35740   3.109   4.318  10.655  0.4066 -0.4314 -0.5914
 8035SOL    HW135741   3.139   4.249  10.715 -0.6228  0.1969  0.6315
 8035SOL    HW235742   3.015   4.327  10.669  0.4615 -1.2694  0.3704
 8036SOL     OW35743   3.000   4.522   7.747  0.3469 -0.0972 -0.6930
 8036SOL    HW135744   2.948   4.445   7.723  1.4144 -0.9751 -0.1807
 8036SOL    HW235745   2.964   4.525   7.836  0.9818  0.1875 -0.4457
 8037SOL     OW35746   2.382   2.484   5.927  0.1099 -0.5175  0.3161
 8037SOL    HW135747   2.347   2.449   5.845  0.0927  1.7232 -0.6547
 8037SOL    HW235748   2.361   2.577   5.916  2.8899 -0.0581 -1.0646
 8038SOL     OW35749   2.997   4.613   1.548 -0.3939  0.0491  0.4695
 8038SOL    HW135750   3.017   4.704   1.571 -1.0169 -0.2130  2.0475
 8038SOL    HW235751   3.066   4.568   1.598 -0.0563  0.0983  0.0526
 8039SOL     OW35752   2.101   0.876   0.263 -0.2633 -0.3944 -0.6047
 8039SOL    HW135753   2.074   0.918   0.182 -1.4148  1.0479  0.5409
 8039SOL    HW235754   2.109   0.950   0.323  0.7111  1.0998 -2.5832
 8040SOL     OW35755   1.788   3.297   5.178  0.6927 -0.0589 -0.9698
 8040SOL    HW135756   1.717   3.349   5.216  0.2225 -0.8507 -0.7595
 8040SOL    HW235757   1.869   3.347   5.190  1.8896 -2.1474 -0.3158
 8041SOL     OW35758   4.160   2.270  17.466 -0.2051 -0.5812  0.2128
 8041SOL    HW135759   4.067   2.267  17.488 -0.5057  1.4450 -0.8612
 8041SOL    HW235760   4.188   2.245  17.554 -2.3320 -1.1766  0.7179
 8042SOL     OW35761   3.950   1.221   9.567 -0.2358 -0.0422  0.0309
 8042SOL    HW135762   3.927   1.155   9.502  1.3128 -1.1428  0.6099
 8042SOL    HW235763   3.882   1.288   9.557 -0.3752 -0.2752 -0.6163
 8043SOL     OW35764   4.570   0.464  12.856 -0.1179 -0.1827 -0.1127
 8043SOL    HW135765   4.557   0.545  12.805  0.0501 -0.7295 -1.0283
 8043SOL    HW235766   4.620   0.502  12.928 -0.7975 -1.0918  0.8243
 8044SOL     OW35767   0.792   1.042   0.864 -0.5729  0.0111 -0.3506
 8044SOL    HW135768   0.826   1.126   0.832  0.6006 -1.0209 -1.8191
 8044SOL    HW235769   0.740   1.005   0.792 -1.1245 -0.0201  0.0654
 8045SOL     OW35770   0.018   0.532  14.051  0.1807 -0.2780  0.3725
 8045SOL    HW135771   4.686   0.550  14.115 -0.2885 -1.8224  0.2736
 8045SOL    HW235772   0.095   0.563  14.099  1.1794 -1.3516 -0.5518
 8046SOL     OW35773   4.283   3.719   5.566 -0.0009  0.6696 -0.1891
 8046SOL    HW135774   4.298   3.765   5.649 -0.2986  0.2200  0.1161
 8046SOL    HW235775   4.338   3.772   5.508 -1.9850  2.8354 -0.0910
 8047SOL     OW35776   3.083   1.797   1.111 -0.1544  0.3086  0.0144
 8047SOL    HW135777   3.015   1.861   1.130 -2.7481 -1.2259 -4.0711
 8047SOL    HW235778   3.061   1.745   1.188  0.3141 -0.3474 -0.2907
 8048SOL     OW35779   3.021   4.709  12.086 -0.3109 -0.4861  0.1678
 8048SOL    HW135780   2.967   4.701  12.007 -2.3385  1.4152  1.3640
 8048SOL    HW235781   3.101   0.007  12.048  0.6660 -0.4823  2.2699
 8049SOL     OW35782   0.271   2.826   6.044 -0.5299  0.3189  0.0700
 8049SOL    HW135783   0.294   2.914   6.073  0.0558  0.1890  0.0158
 8049SOL    HW235784   0.198   2.835   5.984 -1.0586 -1.5475  0.4099
 8050SOL     OW35785   3.134   3.747   3.477  0.0976 -1.1035 -0.2480
 8050SOL    HW135786   3.130   3.680   3.545  1.2138 -0.0340  0.8654
 8050SOL    HW235787   3.197   3.719   3.410 -0.8946  1.8569 -2.4155
 8051SOL     OW35788   1.897   4.512   0.701 -0.1674 -0.0163  0.3611
 8051SOL    HW135789   1.841   4.468   0.766 -1.3188 -2.5902 -2.3709
 8051SOL    HW235790   1.910   4.598   0.740 -2.7358 -1.2627  4.0269
 8052SOL     OW35791   3.947   3.481   2.218 -0.1378  0.7000 -0.1916
 8052SOL    HW135792   3.918   3.397   2.253  1.1776  0.0500 -0.6884
 8052SOL    HW235793   3.883   3.547   2.245  0.0151  0.6562  0.2784
 8053SOL     OW35794   2.066   0.758  11.706  0.3252  0.7183  0.6635
 8053SOL    HW135795   2.008   0.717  11.770  0.0267  0.4183  0.2061
 8053SOL    HW235796   2.114   0.818  11.762 -0.2489  1.2229  0.6199
 8054SOL     OW35797   0.227   0.719   3.783  0.4384  0.5707 -0.2924
 8054SOL    HW135798   0.281   0.797   3.771  0.9373  0.2861  0.1102
 8054SOL    HW235799   0.205   0.727   3.876 -1.0626  0.0384 -0.5968
 8055SOL     OW35800   2.787   3.596   9.092 -0.5350  0.4281 -0.5575
 8055SOL    HW135801   2.833   3.565   9.170 -1.7555 -0.5061 -0.2027
 8055SOL    HW235802   2.707   3.635   9.127  0.1822 -0.9460  2.5578
 8056SOL     OW35803   4.346   2.504   5.734  0.0272 -0.3739 -0.0024
 8056SOL    HW135804   4.327   2.546   5.817  1.3134 -0.5289  0.3731
 8056SOL    HW235805   4.382   2.583   5.694 -3.0825  0.7150 -0.6638
 8057SOL     OW35806   4.180   4.694   6.360  0.4548  0.2537  0.0995
 8057SOL    HW135807   4.228   4.643   6.294  0.0935 -1.7583  1.3694
 8057SOL    HW235808   4.239   0.030   6.373 -0.0534  0.6321  0.2607
 8058SOL     OW35809   3.032   1.226   7.318 -0.0519 -0.1481  0.4469
 8058SOL    HW135810   3.010   1.275   7.239  0.9387 -1.2489 -0.5102
 8058SOL    HW235811   3.127   1.234   7.330 -0.3409 -1.5973  3.8876
 8059SOL     OW35812   3.083   2.041  15.971 -0.0287 -0.6100 -0.0588
 8059SOL    HW135813   3.061   2.124  15.929 -0.5107 -0.8437 -0.2717
 8059SOL    HW235814   3.017   2.041  16.040 -1.0815 -1.1650 -1.0523
 8060SOL     OW35815   3.667   1.470   4.957 -0.0589  0.2304 -0.5983
 8060SOL    HW135816   3.743   1.494   5.009  0.0001  0.3929 -0.7573
 8060SOL    HW235817   3.635   1.560   4.955 -0.6493  0.0050 -1.4265
 8061SOL     OW35818   3.635   0.240   2.091 -0.4248  0.0053  0.2980
 8061SOL    HW135819   3.593   0.204   2.169  1.1653 -3.1652 -0.3033
 8061SOL    HW235820   3.676   0.316   2.132 -1.2815 -0.2314  1.5998
 8062SOL     OW35821   3.634   2.274   5.895  0.3377 -0.3956  1.5618
 8062SOL    HW135822   3.655   2.312   5.810 -0.5808 -0.8999  1.1091
 8062SOL    HW235823   3.541   2.292   5.888  0.8304  1.4134 -0.5087
 8063SOL     OW35824   1.941   2.720   5.684 -0.2062  0.1682 -0.1088
 8063SOL    HW135825   1.994   2.725   5.604 -0.6094  0.8308 -0.3366
 8063SOL    HW235826   1.856   2.719   5.639 -0.0367 -0.1049 -0.4336
 8064SOL     OW35827   0.825   3.421   9.510  0.2593  0.5309 -0.2641
 8064SOL    HW135828   0.812   3.363   9.435 -1.3646  1.8065 -0.9762
 8064SOL    HW235829   0.738   3.455   9.532  1.4941  2.3784  1.8095
 8065SOL     OW35830   2.838   1.043   4.884  0.0829 -0.3535  0.1939
 8065SOL    HW135831   2.806   0.956   4.861 -0.2600  0.2946 -1.7949
 8065SOL    HW235832   2.796   1.100   4.820  1.6932  1.7361  0.9733
 8066SOL     OW35833   1.427   2.612   0.059 -0.2210  0.0093 -0.2885
 8066SOL    HW135834   1.460   2.698   0.032 -0.4180 -0.0757 -0.7907
 8066SOL    HW235835   1.338   2.615   0.026 -0.5257  2.0402  0.7184
 8067SOL     OW35836   2.085   4.399   5.153 -0.1609 -0.2153 -0.2433
 8067SOL    HW135837   2.076   4.342   5.230  1.7709  1.4725  1.2540
 8067SOL    HW235838   2.148   4.354   5.097 -0.1266  1.8736 -1.8526
 8068SOL     OW35839   1.249   2.545  13.443 -0.2002 -0.1983  0.4619
 8068SOL    HW135840   1.249   2.568  13.350 -0.8772  3.5394  1.3829
 8068SOL    HW235841   1.335   2.507  13.458 -0.8500 -0.4817  3.4749
 8069SOL     OW35842   2.290   3.743   2.491 -0.1683  0.6030  0.4841
 8069SOL    HW135843   2.336   3.667   2.457  0.8378  0.7206  1.5830
 8069SOL    HW235844   2.214   3.709   2.539 -1.1803  2.6188  0.3350
 8070SOL     OW35845   2.708   3.782  12.632 -0.3174  0.2072  0.4914
 8070SOL    HW135846   2.719   3.846  12.561  1.1547  0.5612  1.0291
 8070SOL    HW235847   2.745   3.701  12.596  0.7217  0.0865  1.8389
 8071SOL     OW35848   3.611   3.243   3.239  0.0128 -0.0763  0.0980
 8071SOL    HW135849   3.574   3.165   3.279 -1.4251  1.6300  2.1167
 8071SOL    HW235850   3.670   3.276   3.306 -0.9671  2.1079 -0.1047
 8072SOL     OW35851   0.176   2.826  10.439  0.2000 -0.5347 -0.0867
 8072SOL    HW135852   0.142   2.798  10.354 -0.0600  1.8675 -0.7813
 8072SOL    HW235853   0.267   2.798  10.447 -0.1161 -1.3469  0.6551
 8073SOL     OW35854   1.671   4.391   7.796  0.1286  0.4717 -0.5273
 8073SOL    HW135855   1.647   4.326   7.729 -0.6998 -0.2044  0.4370
 8073SOL    HW235856   1.588   4.437   7.808 -0.5873 -0.8854 -0.2671
 8074SOL     OW35857   3.115   4.351   9.869  0.0050 -0.4828  0.3071
 8074SOL    HW135858   3.073   4.265   9.865 -0.0788 -0.3846 -1.0398
 8074SOL    HW235859   3.049   4.410   9.831  0.9158  1.2495  1.4353
 8075SOL     OW35860   2.963   4.342   1.068  0.6213 -0.4147 -0.5790
 8075SOL    HW135861   2.885   4.317   1.018 -0.7393  1.1213  0.8035
 8075SOL    HW235862   3.011   4.260   1.061  0.1953 -0.6054 -1.2817
 8076SOL     OW35863   2.227   1.427  15.737 -0.9049  0.2287  0.2552
 8076SOL    HW135864   2.197   1.518  15.734  0.9773  0.7875 -2.0035
 8076SOL    HW235865   2.303   1.428  15.678 -1.8080  0.1333 -0.9080
 8077SOL     OW35866   4.206   4.289  13.444  0.2965  0.3843  0.2024
 8077SOL    HW135867   4.298   4.261  13.441  0.7397  1.8707 -0.2859
 8077SOL    HW235868   4.169   4.201  13.449 -0.3108  0.6492  0.3540
 8078SOL     OW35869   1.719   2.524   6.327 -0.6297  0.0834  0.0682
 8078SOL    HW135870   1.710   2.542   6.234 -0.1583  1.0243  0.2014
 8078SOL    HW235871   1.741   2.431   6.329 -1.6392 -0.1558  0.0407
 8079SOL     OW35872   1.297   4.202   7.421 -0.4737  0.0361  0.0623
 8079SOL    HW135873   1.324   4.121   7.465  1.8288 -0.5853 -2.4265
 8079SOL    HW235874   1.281   4.259   7.496 -1.4403 -0.7078  0.4265
 8080SOL     OW35875   3.599   1.511   3.966  0.3547  0.6717  0.0778
 8080SOL    HW135876   3.551   1.471   3.893  0.9259  1.2528 -0.6183
 8080SOL    HW235877   3.596   1.604   3.945  0.9012  0.8945  0.9808
 8081SOL     OW35878   2.981   4.237   0.661 -0.1035 -0.3609 -0.3650
 8081SOL    HW135879   2.993   4.318   0.612 -1.2123  0.2051  0.2817
 8081SOL    HW235880   3.071   4.212   0.679  0.0716 -1.0931 -2.2897
 8082SOL     OW35881   1.692   1.277   3.944  0.4424  0.1385  0.5455
 8082SOL    HW135882   1.761   1.282   4.009  1.2021 -1.0188 -0.1667
 8082SOL    HW235883   1.637   1.213   3.991  0.7406 -1.0697 -0.7504
 8083SOL     OW35884   3.199   0.063   8.408 -0.1559  0.1233  0.3199
 8083SOL    HW135885   3.111   0.053   8.370 -0.5464  1.0101  0.9893
 8083SOL    HW235886   3.240   0.098   8.330 -0.8349 -2.0189 -1.0151
 8084SOL     OW35887   3.885   0.815   8.704  0.1562  0.5634  0.5031
 8084SOL    HW135888   3.883   0.750   8.633  0.8034 -0.4333  1.4027
 8084SOL    HW235889   3.798   0.853   8.693 -0.5018 -1.5301 -1.7476
 8085SOL     OW35890   2.686   0.217  16.404  0.1537 -0.0131  0.6652
 8085SOL    HW135891   2.735   0.249  16.328 -0.5630 -1.4164 -0.4021
 8085SOL    HW235892   2.707   0.292  16.459  2.0030 -0.3528  0.4309
 8086SOL     OW35893   2.461   2.882   7.096  0.4643 -0.6720 -0.1756
 8086SOL    HW135894   2.491   2.803   7.052  0.1920 -0.3068 -1.0220
 8086SOL    HW235895   2.387   2.908   7.042 -1.3859 -0.3122  2.5171
 8087SOL     OW35896   3.974   2.728   0.477  0.3104  0.1222 -0.4389
 8087SOL    HW135897   4.027   2.655   0.512  2.2217  1.2684 -0.9256
 8087SOL    HW235898   3.934   2.755   0.560  1.2898 -0.4866  0.2485
 8088SOL     OW35899   1.505   2.168   7.490  0.1612  0.0150 -0.1900
 8088SOL    HW135900   1.453   2.218   7.426 -1.7861 -0.2515  1.1721
 8088SOL    HW235901   1.559   2.114   7.433  0.9829 -0.0027  0.6053
 8089SOL     OW35902   0.990   3.913  11.562 -0.8415  0.2257  0.5919
 8089SOL    HW135903   1.079   3.877  11.564 -1.8168 -2.1620  1.2924
 8089SOL    HW235904   0.999   3.981  11.628  2.0209 -0.5956  1.0676
 8090SOL     OW35905   4.005   3.882   5.799 -0.3584  0.0817 -0.1478
 8090SOL    HW135906   3.947   3.849   5.868 -0.5651 -0.1009 -0.4125
 8090SOL    HW235907   4.088   3.850   5.834 -1.0387 -1.0669  0.4011
 8091SOL     OW35908   1.301   1.768  11.964  0.4374 -0.2220  0.2122
 8091SOL    HW135909   1.326   1.732  11.879  0.6478 -1.0454  0.6223
 8091SOL    HW235910   1.279   1.858  11.939 -0.4271 -0.7845 -0.9698
 8092SOL     OW35911   1.969   1.579   4.109 -0.2352  0.6259 -0.3211
 8092SOL    HW135912   1.981   1.617   4.022 -1.6105  0.6618 -0.4853
 8092SOL    HW235913   1.984   1.486   4.087  1.7532  0.7588  0.4698
 8093SOL     OW35914   2.974   3.280   9.270 -0.0678 -0.2590  0.2691
 8093SOL    HW135915   2.890   3.270   9.225  0.6522  0.5211 -1.2500
 8093SOL    HW235916   3.014   3.193   9.278  0.4768  0.0041  0.3840
 8094SOL     OW35917   3.295   1.299   8.833 -0.2485  0.2366 -0.0966
 8094SOL    HW135918   3.340   1.363   8.778  1.1576  1.5500  2.5703
 8094SOL    HW235919   3.211   1.343   8.846  0.8663  2.4810 -0.5733
 8095SOL     OW35920   3.993   0.030   8.466 -0.3836 -0.5208 -0.6318
 8095SOL    HW135921   3.981   0.125   8.459  1.4267 -0.3102 -0.9971
 8095SOL    HW235922   3.901   0.008   8.479 -0.1976 -0.7466  0.3300
 8096SOL     OW35923   0.883   2.912   4.060 -0.0593  0.1578  0.3229
 8096SOL    HW135924   0.868   2.885   4.151 -0.1390  2.7298  1.0765
 8096SOL    HW235925   0.865   3.005   4.075  0.3324  0.2939 -0.0463
 8097SOL     OW35926   2.981   4.627   9.974 -0.2402 -0.0017 -0.3673
 8097SOL    HW135927   3.002   4.601   9.885  1.7256 -1.9962  0.6688
 8097SOL    HW235928   3.067   4.634  10.017 -0.7009 -1.8509  0.8286
 8098SOL     OW35929   3.917   0.714   4.532 -0.3306  0.7047  0.8381
 8098SOL    HW135930   3.896   0.796   4.487 -0.1536 -0.2379 -0.9600
 8098SOL    HW235931   3.920   0.753   4.619  1.6622  0.8179  0.7086
 8099SOL     OW35932   2.611   1.530  14.928  0.0954 -0.2834 -0.3919
 8099SOL    HW135933   2.548   1.496  14.865  0.4554  2.3059 -2.1580
 8099SOL    HW235934   2.554   1.592  14.973 -1.0697 -0.1958 -1.9718
 8100SOL     OW35935   3.784   3.240   9.320  0.1791 -0.7210 -0.5775
 8100SOL    HW135936   3.807   3.172   9.383 -0.5147  0.0428  0.5155
 8100SOL    HW235937   3.748   3.182   9.253 -0.5292 -0.9322 -0.0224
 8101SOL     OW35938   1.868   1.846   5.469  0.1145  0.2988  0.3266
 8101SOL    HW135939   1.945   1.890   5.433  0.4369 -1.5470 -1.2077
 8101SOL    HW235940   1.895   1.833   5.560  0.3399 -3.1592 -0.2601
 8102SOL     OW35941   3.773   4.709  14.232  0.2253 -0.3741  0.2933
 8102SOL    HW135942   3.795   4.692  14.324  0.7865 -0.6412  0.1094
 8102SOL    HW235943   3.708   4.642  14.217  0.9490 -0.6259 -1.7246
 8103SOL     OW35944   0.060   0.030  13.517  0.1305  0.0490 -0.1204
 8103SOL    HW135945   0.072   0.049  13.423 -1.6381  0.7555 -0.2034
 8103SOL    HW235946   4.728   0.090  13.540 -0.9140 -0.9974 -0.5819
 8104SOL     OW35947   2.148   4.431   3.625 -0.0666  0.4166 -0.1325
 8104SOL    HW135948   2.143   4.523   3.601 -0.8862  1.1109  2.6987
 8104SOL    HW235949   2.111   4.378   3.554 -1.5046 -0.4944  1.3089
 8105SOL     OW35950   2.079   2.909   0.792  0.5595 -0.0332 -0.5641
 8105SOL    HW135951   1.994   2.878   0.824  0.8929 -0.9635 -0.5844
 8105SOL    HW235952   2.050   2.935   0.704 -0.2609  1.0186  0.0107
 8106SOL     OW35953   4.066   3.463   8.006 -0.6134 -0.0136  0.7420
 8106SOL    HW135954   4.039   3.455   8.097 -2.1280  0.3232  0.3352
 8106SOL    HW235955   3.978   3.456   7.967 -0.3537  0.1466  0.1170
 8107SOL     OW35956   4.726   4.111   8.044  0.2626  0.4227  0.0981
 8107SOL    HW135957   4.635   4.139   8.031  0.5587 -0.0630 -2.8332
 8107SOL    HW235958   0.032   4.184   8.089  1.0710  0.3808 -0.6166
 8108SOL     OW35959   0.049   0.963   3.239  0.1463 -0.2119  0.2536
 8108SOL    HW135960   0.080   1.011   3.316 -0.3615  2.3278 -1.1185
 8108SOL    HW235961   0.125   0.971   3.181  1.5542 -0.9001  1.9939
 8109SOL     OW35962   2.536   4.101   1.724  0.6258  0.2021 -0.0608
 8109SOL    HW135963   2.566   4.030   1.667 -0.6636 -2.2557  2.3003
 8109SOL    HW235964   2.619   4.146   1.741  0.8892 -0.2728 -0.0619
 8110SOL     OW35965   0.675   3.385   9.114  0.7606 -0.3457  0.1933
 8110SOL    HW135966   0.686   3.455   9.179  0.3864  0.4339 -0.5762
 8110SOL    HW235967   0.681   3.432   9.031  1.0379 -1.0775 -0.1987
 8111SOL     OW35968   1.031   4.211   3.736 -0.1579  0.1809  0.0306
 8111SOL    HW135969   1.123   4.225   3.762 -0.5169  0.3198  1.2412
 8111SOL    HW235970   1.000   4.171   3.817  1.0521  1.0309  0.9254
 8112SOL     OW35971   3.906   1.921  10.480  0.4706  0.2963 -0.5926
 8112SOL    HW135972   3.968   1.988  10.451  3.9346 -3.2671 -1.4095
 8112SOL    HW235973   3.841   1.934  10.411 -1.3561 -0.8756  0.8939
 8113SOL     OW35974   3.429   4.007   6.633  0.4554  0.4413  0.4629
 8113SOL    HW135975   3.370   4.022   6.707  0.0018 -0.0627  0.2070
 8113SOL    HW235976   3.479   4.088   6.626  0.5766  0.4095  0.9769
 8114SOL     OW35977   1.247   0.576   8.617  0.5054 -0.1099  0.7345
 8114SOL    HW135978   1.160   0.536   8.616  0.4003  0.0733  2.7473
 8114SOL    HW235979   1.281   0.523   8.689 -1.6962 -0.9426  1.1510
 8115SOL     OW35980   4.093   4.261  13.114  0.1826  0.2884  0.1356
 8115SOL    HW135981   4.149   4.190  13.145  2.1202  1.0465 -1.5468
 8115SOL    HW235982   4.013   4.210  13.110 -0.8773  1.8770  1.2578
 8116SOL     OW35983   4.648   1.937   6.860  0.2037  0.2530 -0.0162
 8116SOL    HW135984   4.726   1.979   6.896 -0.1467  0.4037  0.5732
 8116SOL    HW235985   4.576   1.966   6.916  0.0078  1.7337 -1.0111
 8117SOL     OW35986   4.215   1.172   9.296 -0.4597 -0.3141 -0.3256
 8117SOL    HW135987   4.289   1.117   9.269  1.0417  0.8650  1.3676
 8117SOL    HW235988   4.264   1.242   9.340  0.2791 -0.8191 -0.3435
 8118SOL     OW35989   4.134   0.450   2.888  0.6584  0.2981  0.4372
 8118SOL    HW135990   4.127   0.381   2.954 -2.6133 -1.7987 -2.0761
 8118SOL    HW235991   4.065   0.508   2.920 -1.8564 -3.0615  1.1462
 8119SOL     OW35992   4.735   3.699  16.567  0.5967 -0.2915  0.1533
 8119SOL    HW135993   0.033   3.675  16.482  4.0081  1.1749  1.1608
 8119SOL    HW235994   0.072   3.747  16.602 -0.4633 -0.0634  2.0870
 8120SOL     OW35995   0.995   4.642  13.332  0.2924  0.2331 -0.5821
 8120SOL    HW135996   0.967   4.727  13.299 -0.3550 -0.5296 -1.9745
 8120SOL    HW235997   1.070   4.624  13.275 -1.2423 -1.2492 -2.1402
 8121SOL     OW35998   4.544   1.651   3.244  0.3223 -0.2891  0.3158
 8121SOL    HW135999   4.488   1.587   3.287 -0.2505  1.4388  2.1382
 8121SOL    HW236000   4.496   1.659   3.162 -0.1617 -1.3697  0.4951
 8122SOL     OW36001   0.240   1.951   3.398  0.4800  0.2055  0.3586
 8122SOL    HW136002   0.302   1.971   3.328 -2.4502  0.6070 -2.0936
 8122SOL    HW236003   0.182   1.895   3.346  0.6609  0.8126 -0.4893
 8123SOL     OW36004   0.057   3.429  16.589  0.1590  0.1400  0.0013
 8123SOL    HW136005   0.016   3.509  16.620  0.0175  0.5036 -1.1239
 8123SOL    HW236006   0.067   3.452  16.497 -2.2770 -0.8918 -0.5174
 8124SOL     OW36007   4.044   2.666   5.649 -0.6986 -0.6828 -0.0776
 8124SOL    HW136008   4.088   2.633   5.570 -1.3576 -0.2747 -0.6103
 8124SOL    HW236009   4.074   2.598   5.709 -1.5843 -0.3955  0.6839
 8125SOL     OW36010   0.359   3.428  13.865 -0.0277 -0.7436  0.2910
 8125SOL    HW136011   0.313   3.493  13.812 -0.0594 -1.2814 -0.3393
 8125SOL    HW236012   0.358   3.352  13.807 -0.9115  1.0950 -2.1180
 8126SOL     OW36013   1.621   4.218   6.531  0.1433  0.0191  0.0973
 8126SOL    HW136014   1.535   4.260   6.542 -0.1915 -1.0645  1.5886
 8126SOL    HW236015   1.598   4.126   6.522  0.5611 -0.1760  1.0478
 8127SOL     OW36016   3.573   3.234   5.649  0.6079  0.1503  0.4262
 8127SOL    HW136017   3.531   3.318   5.668 -0.1341  0.1225 -1.0379
 8127SOL    HW236018   3.577   3.199   5.738  1.1476 -1.3159 -0.1804
 8128SOL     OW36019   2.171   1.356   2.124 -0.7445  0.2907 -0.1905
 8128SOL    HW136020   2.121   1.292   2.176 -1.5442  1.0058 -0.0828
 8128SOL    HW236021   2.103   1.424   2.129  2.6561  3.7282 -1.0446
 8129SOL     OW36022   1.235   4.555   8.033 -0.0937 -0.6185  0.3646
 8129SOL    HW136023   1.181   4.500   8.089 -0.9419  0.8575  0.9857
 8129SOL    HW236024   1.196   4.637   8.063 -0.6031 -0.3520 -1.0072
 8130SOL     OW36025   2.066   0.126  13.274 -0.4380  0.5871  0.3387
 8130SOL    HW136026   2.072   0.211  13.317  1.3452  1.0407 -0.8281
 8130SOL    HW236027   2.106   0.137  13.188  0.2661 -1.6123  0.3731
 8131SOL     OW36028   0.108   3.235   7.960 -0.5870  0.5910 -0.5179
 8131SOL    HW136029   0.182   3.187   7.997  0.0472  2.4689  0.6402
 8131SOL    HW236030   0.129   3.327   7.978  1.0660 -0.1164  1.2101
 8132SOL     OW36031   4.295   2.622   4.885 -0.6024 -0.0253 -0.2926
 8132SOL    HW136032   4.246   2.701   4.907  1.6495  1.0586  0.8038
 8132SOL    HW236033   4.382   2.643   4.917 -0.8470 -0.7185  0.8406
 8133SOL     OW36034   3.373   0.929   1.757  0.2078  0.3607 -0.0408
 8133SOL    HW136035   3.413   1.009   1.789  0.2021  0.4727 -0.3112
 8133SOL    HW236036   3.455   0.889   1.728 -0.7470 -0.7744 -1.1835
 8134SOL     OW36037   0.413   2.036   1.488  0.2554 -0.2267  0.6594
 8134SOL    HW136038   0.493   1.996   1.452 -1.0733 -2.5351  0.2892
 8134SOL    HW236039   0.346   1.993   1.434  0.6826 -1.5703  1.2021
 8135SOL     OW36040   0.600   0.863  15.030 -0.3021  0.4863 -0.3566
 8135SOL    HW136041   0.527   0.812  14.996  0.1626 -1.0368  0.9260
 8135SOL    HW236042   0.663   0.820  14.973 -0.8416 -1.7684  0.7421
 8136SOL     OW36043   1.919   4.543  13.817  0.2542 -0.3760  0.1337
 8136SOL    HW136044   1.916   4.552  13.722  0.7568 -1.6641 -0.0084
 8136SOL    HW236045   1.885   4.454  13.824 -2.5595  0.8114  1.7165
 8137SOL     OW36046   4.417   2.017   8.842 -0.8928 -0.1151 -0.6287
 8137SOL    HW136047   4.478   2.078   8.883  0.0243 -0.1468 -1.9677
 8137SOL    HW236048   4.440   1.937   8.889 -2.2716 -0.3242 -0.2908
 8138SOL     OW36049   0.298   0.573   2.040  0.2700 -0.0178  0.6698
 8138SOL    HW136050   0.208   0.606   2.041  0.4979  0.5551  1.6107
 8138SOL    HW236051   0.350   0.644   2.002  1.9367 -2.2725 -1.2816
 8139SOL     OW36052   0.895   1.957  17.148 -0.1393 -0.1830  0.3785
 8139SOL    HW136053   0.818   1.901  17.151  0.0551 -0.3538  2.0950
 8139SOL    HW236054   0.857   2.038  17.183 -0.5657  0.2444 -1.0450
 8140SOL     OW36055   4.601   2.539  11.620 -0.7059  0.2216  0.4319
 8140SOL    HW136056   4.601   2.453  11.663 -0.1014 -0.2727 -0.5400
 8140SOL    HW236057   4.641   2.600  11.681 -1.3338  1.8744 -0.8112
 8141SOL     OW36058   1.034   0.840   4.381  0.1120 -0.1310  0.1890
 8141SOL    HW136059   1.080   0.864   4.301  2.8101  0.5405  1.9498
 8141SOL    HW236060   1.069   0.755   4.408  3.8652  1.1495 -0.6341
 8142SOL     OW36061   2.873   0.158   4.362 -0.1892  0.6336  0.0788
 8142SOL    HW136062   2.871   0.249   4.333 -1.7216  0.8586  0.9269
 8142SOL    HW236063   2.806   0.108   4.315  2.3875 -1.0193 -1.8634
 8143SOL     OW36064   2.728   2.285   5.690 -0.2501  0.7248  0.3971
 8143SOL    HW136065   2.678   2.350   5.641 -0.2113  0.3291 -0.1774
 8143SOL    HW236066   2.736   2.212   5.628  1.5656  1.1672  0.1119
 8144SOL     OW36067   3.730   4.132   4.096  0.4659  0.3802 -0.2939
 8144SOL    HW136068   3.662   4.078   4.137  0.4455 -0.3112 -1.2136
 8144SOL    HW236069   3.684   4.212   4.070 -1.0346  0.7279  3.5022
 8145SOL     OW36070   3.678   1.702   5.506 -0.0222 -0.0655 -0.0479
 8145SOL    HW136071   3.763   1.730   5.539  0.5247  0.0736 -1.5808
 8145SOL    HW236072   3.616   1.753   5.559  0.5196  0.2027  0.3309
 8146SOL     OW36073   3.953   2.824   4.262  0.0937 -0.0937  0.3121
 8146SOL    HW136074   3.899   2.903   4.265 -0.4956 -0.5127  0.6151
 8146SOL    HW236075   4.018   2.853   4.197 -0.6309 -1.1492 -0.8924
 8147SOL     OW36076   1.877   1.884   6.614  0.5116 -0.3128  0.7453
 8147SOL    HW136077   1.829   1.936   6.678  0.7720  1.4899 -0.5371
 8147SOL    HW236078   1.966   1.892   6.648  0.7517  1.3246 -0.2614
 8148SOL     OW36079   4.528   1.021  16.092  0.1694 -0.2360 -0.0674
 8148SOL    HW136080   4.437   1.043  16.110  0.3998 -0.0489  0.8575
 8148SOL    HW236081   4.568   1.107  16.100  0.9141 -0.4898 -1.0532
 8149SOL     OW36082   0.757   1.813  14.116 -0.5959  0.6279 -0.2414
 8149SOL    HW136083   0.677   1.865  14.107 -0.2008  1.6711  2.0796
 8149SOL    HW236084   0.797   1.819  14.030 -0.2889  0.0803 -0.1348
 8150SOL     OW36085   2.582   0.558  16.876 -0.4271  0.1377 -0.0884
 8150SOL    HW136086   2.506   0.612  16.850  0.2085  0.4851 -1.2399
 8150SOL    HW236087   2.652   0.623  16.877 -1.0838  0.8940 -1.9231
 8151SOL     OW36088   1.298   1.478  14.805  0.2450 -0.0397 -0.3140
 8151SOL    HW136089   1.209   1.492  14.838  0.5011 -1.5936  1.0446
 8151SOL    HW236090   1.287   1.494  14.712 -0.6721  0.0424 -0.1922
 8152SOL     OW36091   0.691   3.878  13.648 -0.2381  0.2707  0.7738
 8152SOL    HW136092   0.779   3.907  13.673  0.7528 -0.3282 -2.0724
 8152SOL    HW236093   0.643   3.961  13.643 -0.3048  0.0698 -1.8123
 8153SOL     OW36094   1.392   0.732  10.345  0.0221 -0.6947  0.2394
 8153SOL    HW136095   1.471   0.687  10.313  1.2021  0.6257  1.3250
 8153SOL    HW236096   1.353   0.761  10.263  2.0138 -0.1812 -0.5389
 8154SOL     OW36097   0.838   2.367  12.610  0.4852 -0.1211  0.4458
 8154SOL    HW136098   0.917   2.334  12.567  0.2051 -1.7627  1.1900
 8154SOL    HW236099   0.797   2.423  12.545  1.2992  1.1429  1.0183
 8155SOL     OW36100   3.398   4.507  10.451  0.2643 -0.1455  0.2737
 8155SOL    HW136101   3.402   4.516  10.356 -0.3588 -0.6636  0.1896
 8155SOL    HW236102   3.350   4.427  10.473  1.4814 -0.9743 -0.1055
 8156SOL     OW36103   1.616   2.970   2.814  0.1638  0.2501  0.0920
 8156SOL    HW136104   1.595   3.051   2.767 -0.9479 -0.2800 -0.3012
 8156SOL    HW236105   1.577   2.910   2.751  1.0221  0.2660 -0.4497
 8157SOL     OW36106   2.477   3.177  13.858 -0.1542  0.0369  0.8977
 8157SOL    HW136107   2.442   3.092  13.884  0.4330 -1.6547 -3.8194
 8157SOL    HW236108   2.534   3.190  13.933  0.4007  0.7464  0.3575
 8158SOL     OW36109   3.487   2.812  16.189  0.1585 -0.1450  0.0380
 8158SOL    HW136110   3.449   2.746  16.132 -1.0063  2.1370 -1.8293
 8158SOL    HW236111   3.463   2.898  16.154 -0.0621 -0.7800 -1.3708
 8159SOL     OW36112   3.209   1.310   4.952 -0.4812 -0.5817  0.2772
 8159SOL    HW136113   3.162   1.360   5.020  0.0670  1.9507 -1.2223
 8159SOL    HW236114   3.298   1.324   4.984  0.1297  2.2167 -2.6749
 8160SOL     OW36115   0.059   1.611   1.915 -0.4573 -0.5699 -0.1913
 8160SOL    HW136116   0.069   1.556   1.837  3.0119 -2.0677  1.2953
 8160SOL    HW236117   4.718   1.579   1.959  0.2230  1.0519  2.1484
 8161SOL     OW36118   1.392   4.091  13.582  0.0589  0.1333 -0.1402
 8161SOL    HW136119   1.377   4.132  13.497 -0.6895 -0.1325 -0.1373
 8161SOL    HW236120   1.462   4.139  13.626  0.1143  0.4535 -0.5723
 8162SOL     OW36121   0.191   3.410  17.624 -0.3250  0.1572  0.4195
 8162SOL    HW136122   0.132   3.361  17.681 -2.0508  0.0007 -1.4773
 8162SOL    HW236123   0.235   3.342  17.573  0.3622  0.0418  1.1629
 8163SOL     OW36124   1.287   2.346   1.138  0.2021 -0.3172 -0.0135
 8163SOL    HW136125   1.266   2.290   1.213  0.1409 -1.1730 -0.6724
 8163SOL    HW236126   1.377   2.318   1.122  0.0060 -2.2623  2.2349
 8164SOL     OW36127   2.865   4.125   9.094 -0.1091 -0.4128 -0.2508
 8164SOL    HW136128   2.877   4.073   9.173 -2.3682 -0.1662  0.2344
 8164SOL    HW236129   2.955   4.123   9.061 -0.4943 -1.9289 -1.2210
 8165SOL     OW36130   0.189   3.914   8.530  0.6441 -0.4035  0.3607
 8165SOL    HW136131   0.263   3.951   8.578 -1.0353  0.6785  2.0901
 8165SOL    HW236132   0.234   3.859   8.466 -0.5009  1.1151 -1.7446
 8166SOL     OW36133   0.192   3.264   4.377 -0.5706 -0.1933  0.4870
 8166SOL    HW136134   0.215   3.290   4.288  0.3600  1.4831  1.2112
 8166SOL    HW236135   0.200   3.349   4.420 -1.7936 -0.5732  1.4783
 8167SOL     OW36136   2.228   3.601   9.991 -0.0790  0.1733  0.5967
 8167SOL    HW136137   2.137   3.593   9.963 -0.5121  0.2937  1.9746
 8167SOL    HW236138   2.265   3.646   9.915  1.9668 -1.8757  0.3416
 8168SOL     OW36139   0.406   4.175   0.240  0.0049  0.0668 -0.7065
 8168SOL    HW136140   0.374   4.086   0.254  2.1293 -0.5174  0.3025
 8168SOL    HW236141   0.407   4.204   0.331  0.2974 -0.4415 -0.5494
 8169SOL     OW36142   3.308   0.136   4.246 -0.2522 -0.0552 -0.4106
 8169SOL    HW136143   3.328   0.045   4.264 -0.6594  0.3299  1.9782
 8169SOL    HW236144   3.387   0.157   4.196 -1.0317 -1.9465 -2.4211
 8170SOL     OW36145   0.655   0.455  10.012  0.7745 -0.1300  0.3880
 8170SOL    HW136146   0.704   0.384  10.054  2.3191  0.4783 -0.4067
 8170SOL    HW236147   0.720   0.501   9.959  1.4357  0.4997  1.7308
 8171SOL     OW36148   1.877   2.855  12.888 -0.4320 -0.5246 -0.3132
 8171SOL    HW136149   1.856   2.848  12.981  3.2600 -1.0458  0.4769
 8171SOL    HW236150   1.878   2.768  12.849  1.9372  0.0541 -1.5820
 8172SOL     OW36151   1.741   0.046  13.531 -0.7613  0.6015  0.6951
 8172SOL    HW136152   1.808   0.113  13.518  0.0773 -0.7252 -1.7777
 8172SOL    HW236153   1.742   0.047  13.627  0.7962  0.1544  0.6812
 8173SOL     OW36154   4.450   4.596   7.975 -0.4812 -0.2752 -0.3421
 8173SOL    HW136155   4.508   4.527   8.009  1.4607  0.7787 -1.5063
 8173SOL    HW236156   4.371   4.564   8.018 -1.6251  1.0927 -1.4651
 8174SOL     OW36157   3.631   0.686   7.215 -0.0172 -0.2273  0.0965
 8174SOL    HW136158   3.700   0.746   7.187  0.5929 -0.9401  0.0708
 8174SOL    HW236159   3.621   0.618   7.149 -1.2696 -0.3174  0.3615
 8175SOL     OW36160   0.894   1.687   7.933  0.0562  0.2943  0.0151
 8175SOL    HW136161   0.903   1.741   8.011 -1.3149 -0.1011  0.4554
 8175SOL    HW236162   0.867   1.755   7.872  0.6215 -0.4967 -1.1118
 8176SOL     OW36163   4.249   4.459   8.108 -0.1091  0.0263 -0.4901
 8176SOL    HW136164   4.188   4.493   8.174 -2.5630 -1.6940 -1.8693
 8176SOL    HW236165   4.191   4.415   8.046  2.8319 -0.1598 -3.1146
 8177SOL     OW36166   1.276   0.183   4.815 -0.5485 -0.5482 -0.3317
 8177SOL    HW136167   1.184   0.161   4.798 -0.4233 -1.7638  0.5700
 8177SOL    HW236168   1.330   0.162   4.739  1.1308 -0.7204  0.9135
 8178SOL     OW36169   1.816   0.346   7.248 -0.0014  0.1540 -0.5652
 8178SOL    HW136170   1.894   0.304   7.285 -0.7621  0.3157  1.1823
 8178SOL    HW236171   1.819   0.426   7.300  1.7364  0.9463 -1.8522
 8179SOL     OW36172   1.399   0.688  13.434  0.6159  0.1459  0.2872
 8179SOL    HW136173   1.447   0.605  13.436  0.2635 -0.1285 -2.3234
 8179SOL    HW236174   1.428   0.721  13.349  0.7140  0.3187  0.3864
 8180SOL     OW36175   0.445   2.280   6.981  0.5492 -0.2788 -0.5097
 8180SOL    HW136176   0.375   2.286   6.916 -0.3258  0.0741  0.4642
 8180SOL    HW236177   0.444   2.364   7.027 -3.3005 -1.3491  1.3735
 8181SOL     OW36178   1.084   4.675   4.205 -0.3081 -0.4931 -0.1626
 8181SOL    HW136179   1.049   4.702   4.290 -0.0059 -0.8128  0.0673
 8181SOL    HW236180   1.133   0.014   4.174  1.7219 -1.8112 -0.2173
 8182SOL     OW36181   0.211   0.653   4.221 -0.3153 -0.0670 -0.4399
 8182SOL    HW136182   0.135   0.659   4.278  0.3747 -0.2243  0.4842
 8182SOL    HW236183   0.229   0.559   4.216  1.7300  0.3800 -1.5006
 8183SOL     OW36184   4.029   3.642   0.938  0.4868  0.0026  0.3778
 8183SOL    HW136185   3.934   3.647   0.935  0.6733  2.5163 -0.7670
 8183SOL    HW236186   4.038   3.547   0.951  1.3926  0.1809  1.0513
 8184SOL     OW36187   3.152   2.698   2.357 -0.4165  0.1090 -0.3292
 8184SOL    HW136188   3.100   2.641   2.300  0.1576 -1.3258  0.5969
 8184SOL    HW236189   3.239   2.706   2.319 -0.2591  0.7344  0.1518
 8185SOL     OW36190   3.825   2.556   6.618  0.0276 -0.2702  0.2550
 8185SOL    HW136191   3.859   2.494   6.554 -1.2395  1.5000 -2.1238
 8185SOL    HW236192   3.797   2.635   6.572 -2.1694 -0.2207  1.6526
 8186SOL     OW36193   3.832   4.033  14.590 -0.6302 -0.6394  0.0107
 8186SOL    HW136194   3.890   3.964  14.621  0.4613  0.2771  0.0083
 8186SOL    HW236195   3.832   4.090  14.667  3.2453 -0.1104 -0.3998
 8187SOL     OW36196   2.286   1.686   4.072  0.1230  0.3525 -0.7468
 8187SOL    HW136197   2.352   1.754   4.059  1.4082 -0.8690 -0.5207
 8187SOL    HW236198   2.219   1.692   4.003 -0.4362 -0.0728 -0.2348
 8188SOL     OW36199   0.724   2.240  13.598 -0.1974 -0.3914 -0.2006
 8188SOL    HW136200   0.802   2.235  13.653 -0.7904 -3.2818  0.3637
 8188SOL    HW236201   0.764   2.197  13.522 -1.1474 -0.7729 -0.4796
 8189SOL     OW36202   3.363   2.376   5.835  0.0064 -0.6120  0.5183
 8189SOL    HW136203   3.303   2.424   5.778  1.7338  0.4421 -0.4138
 8189SOL    HW236204   3.303   2.342   5.901 -0.8629 -0.0129  0.0430
 8190SOL     OW36205   2.953   0.135   1.678  0.3386  0.1980 -0.0751
 8190SOL    HW136206   2.970   0.211   1.623  0.6679 -1.6894 -2.5667
 8190SOL    HW236207   3.036   0.099   1.709 -0.7284 -1.2476  1.1427
 8191SOL     OW36208   3.960   0.367   7.743  0.2709  0.2206 -0.2569
 8191SOL    HW136209   3.877   0.353   7.697  0.0828  2.1273 -0.4977
 8191SOL    HW236210   3.932   0.400   7.829 -0.3994  1.6517 -1.0220
 8192SOL     OW36211   3.510   0.743   0.025  0.5746 -0.5943 -0.5031
 8192SOL    HW136212   3.461   0.677   0.075 -0.5231  1.4243  1.0695
 8192SOL    HW236213   3.575   0.764   0.092 -0.6735  1.8085 -0.0455
 8193SOL     OW36214   2.789   0.413   5.219  0.8003 -0.4378  0.6820
 8193SOL    HW136215   2.699   0.440   5.240  0.4672 -1.0017 -0.0488
 8193SOL    HW236216   2.848   0.461   5.278  1.0687 -0.3895  0.3717
 8194SOL     OW36217   2.032   0.248   9.995 -0.0498  0.0460 -0.6514
 8194SOL    HW136218   2.011   0.244  10.088  2.1462  1.4947 -0.0861
 8194SOL    HW236219   1.969   0.311   9.961 -1.0322 -1.7308 -2.0690
 8195SOL     OW36220   0.327   1.885  11.709 -0.1115  0.5821 -0.0548
 8195SOL    HW136221   0.344   1.936  11.788  1.4783 -0.0908  0.0393
 8195SOL    HW236222   0.243   1.917  11.676  0.2471 -0.3366 -1.8714
 8196SOL     OW36223   1.041   1.272   6.265  0.0412 -0.0231  0.2036
 8196SOL    HW136224   1.122   1.313   6.297  0.5616  0.1128 -1.2570
 8196SOL    HW236225   1.002   1.227   6.339 -2.1244  2.2600  0.4289
 8197SOL     OW36226   1.654   3.550   7.734  0.0311  0.1876 -0.6443
 8197SOL    HW136227   1.567   3.536   7.696 -1.1605  5.1474  0.2625
 8197SOL    HW236228   1.718   3.541   7.664  0.3717  2.8927 -0.6782
 8198SOL     OW36229   3.213   0.575   9.972 -0.3326  0.1704  0.3843
 8198SOL    HW136230   3.145   0.523  10.015 -0.8865  1.5736  1.1846
 8198SOL    HW236231   3.169   0.653   9.939 -0.7381  0.1170  0.8095
 8199SOL     OW36232   1.590   4.428   6.083  0.3438 -0.0507  0.0726
 8199SOL    HW136233   1.684   4.436   6.067  0.7916  1.2632  3.4030
 8199SOL    HW236234   1.558   4.471   6.004  0.7074 -1.0110 -0.6021
 8200SOL     OW36235   0.185   0.097  11.008  0.2754  0.5400 -0.5476
 8200SOL    HW136236   0.228   0.060  10.930 -0.4285 -0.1869 -0.5877
 8200SOL    HW236237   0.241   0.051  11.071  0.8653 -0.1772 -1.5837
 8201SOL     OW36238   1.756   3.864   6.933 -0.2417  0.0010 -0.1010
 8201SOL    HW136239   1.804   3.937   6.895  0.5731 -1.1133 -1.2386
 8201SOL    HW236240   1.783   3.798   6.868  3.6892  1.2207  0.2637
 8202SOL     OW36241   0.283   2.803  14.463  0.3323 -0.2421  0.3081
 8202SOL    HW136242   0.370   2.783  14.497  0.1979 -0.8252  0.3147
 8202SOL    HW236243   0.264   2.720  14.419  1.3018  0.0913 -0.7300
 8203SOL     OW36244   3.306   1.701  12.223  0.1610  0.0062  0.5308
 8203SOL    HW136245   3.396   1.729  12.205 -0.4868  1.5909 -0.2324
 8203SOL    HW236246   3.304   1.742  12.310 -0.7746 -0.4693  0.7359
 8204SOL     OW36247   4.160   0.082   0.112 -0.6307 -0.0909  0.0329
 8204SOL    HW136248   4.127   0.000   0.073  0.7503 -0.7322  0.2013
 8204SOL    HW236249   4.140   0.144   0.042  1.3583  0.7384  0.2133
 8205SOL     OW36250   0.630   0.239   6.292 -0.4471  0.4293 -0.1617
 8205SOL    HW136251   0.582   0.157   6.301  1.9348 -0.9323  0.1375
 8205SOL    HW236252   0.697   0.213   6.230 -0.3739 -0.2056  0.1898
 8206SOL     OW36253   2.564   1.642   7.525 -0.0528 -0.4599  0.1495
 8206SOL    HW136254   2.562   1.727   7.569  1.4139  0.8228 -2.2824
 8206SOL    HW236255   2.490   1.600   7.570 -0.2986  0.8069  0.9312
 8207SOL     OW36256   1.220   1.243   8.262  0.2636  0.0414 -0.2163
 8207SOL    HW136257   1.143   1.194   8.233 -0.7495  2.3399 -1.4114
 8207SOL    HW236258   1.275   1.168   8.284  0.5369  0.5847  0.9879
 8208SOL     OW36259   1.896   1.964  17.492 -0.4501 -0.2398 -0.0976
 8208SOL    HW136260   1.959   1.974  17.564 -3.5344 -0.8962  2.6669
 8208SOL    HW236261   1.950   1.921  17.426  0.7335 -0.3938  0.9645
 8209SOL     OW36262   3.143   0.657  14.616  0.1273 -0.0354 -0.1377
 8209SOL    HW136263   3.093   0.593  14.564  0.8652 -2.2395  1.8513
 8209SOL    HW236264   3.085   0.733  14.616  1.0709  0.6811  0.2079
 8210SOL     OW36265   3.297   2.750  13.501  0.1888 -0.2534 -0.0016
 8210SOL    HW136266   3.342   2.820  13.548  1.4013 -1.0409 -0.0111
 8210SOL    HW236267   3.352   2.738  13.423 -0.6132 -0.0169 -0.6042
 8211SOL     OW36268   3.849   4.135   9.787  0.1202  0.2260  0.3116
 8211SOL    HW136269   3.935   4.174   9.768  0.4356  0.3906  2.1448
 8211SOL    HW236270   3.785   4.184   9.736 -0.1020  2.0337  2.3395
 8212SOL     OW36271   2.498   0.340   3.074 -0.3769 -0.0251  0.4493
 8212SOL    HW136272   2.416   0.379   3.104 -0.5555 -1.4889  1.8308
 8212SOL    HW236273   2.485   0.253   3.112 -1.7815 -0.5201 -1.1883
 8213SOL     OW36274   3.520   4.551   9.404 -0.0893 -0.3015  0.0771
 8213SOL    HW136275   3.505   4.632   9.356  2.5301 -0.1511 -0.5165
 8213SOL    HW236276   3.596   4.521   9.353 -0.8817 -2.5527  0.2036
 8214SOL     OW36277   3.967   3.745   4.833  0.2044  0.1585 -0.0533
 8214SOL    HW136278   3.916   3.818   4.798 -2.6547 -1.0625  1.5857
 8214SOL    HW236279   3.916   3.737   4.914 -2.0696  0.1306 -1.4890
 8215SOL     OW36280   0.486   3.690   3.828 -0.2345 -0.3764 -0.6806
 8215SOL    HW136281   0.468   3.596   3.835  1.2027 -0.6193 -0.4286
 8215SOL    HW236282   0.552   3.688   3.759  2.1705 -1.2141  1.6772
 8216SOL     OW36283   2.672   0.564   8.407 -0.2150 -0.1162 -0.2797
 8216SOL    HW136284   2.702   0.624   8.475 -0.0046 -1.8705  1.1648
 8216SOL    HW236285   2.757   0.548   8.366 -0.2836 -2.2138  0.4303
 8217SOL     OW36286   0.091   1.789   5.374 -0.4024  0.4081 -0.3197
 8217SOL    HW136287   0.171   1.830   5.341  0.4598 -0.8642  0.1676
 8217SOL    HW236288   0.069   1.740   5.295  1.6574 -0.6251 -0.2785
 8218SOL     OW36289   2.767   4.575   2.398 -0.0524 -0.0727  0.5847
 8218SOL    HW136290   2.749   4.669   2.400 -2.1005 -0.4431 -0.6913
 8218SOL    HW236291   2.786   4.570   2.491 -0.4044 -0.4259  0.6385
 8219SOL     OW36292   1.994   0.180   5.301 -0.0486 -0.3336 -0.5651
 8219SOL    HW136293   1.904   0.200   5.325  0.7918  3.0906 -0.3895
 8219SOL    HW236294   1.992   0.091   5.264 -1.8419  0.1043 -1.5517
 8220SOL     OW36295   3.280   3.869   1.311  0.1081 -0.7618 -0.2878
 8220SOL    HW136296   3.365   3.827   1.321  1.1681  1.7511  1.0973
 8220SOL    HW236297   3.241   3.829   1.389  2.8929 -1.5506  0.6839
 8221SOL     OW36298   0.131   2.493   2.169 -0.2852 -0.4028 -1.1310
 8221SOL    HW136299   0.090   2.415   2.132  0.2266 -0.7915 -0.8833
 8221SOL    HW236300   0.055   2.534   2.209  0.7004  0.4492 -0.1173
 8222SOL     OW36301   3.323   3.717   5.863 -0.1391  0.7306  0.1789
 8222SOL    HW136302   3.232   3.691   5.857  0.4902 -0.8709 -2.2190
 8222SOL    HW236303   3.329   3.797   5.810  1.2782 -0.3888 -1.3685
 8223SOL     OW36304   1.937   0.201   4.813 -0.2102  0.0598 -0.1066
 8223SOL    HW136305   1.916   0.131   4.750 -1.9463 -1.3425  2.0224
 8223SOL    HW236306   1.890   0.179   4.893  1.7352 -0.5368  0.8533
 8224SOL     OW36307   3.564   4.028   3.784  0.4157 -0.8204  0.1437
 8224SOL    HW136308   3.523   3.969   3.721  0.4215  0.5225 -1.1031
 8224SOL    HW236309   3.503   4.022   3.858  1.8615  4.3754  1.7258
 8225SOL     OW36310   0.989   3.745   3.316 -0.6595  0.1414 -0.5741
 8225SOL    HW136311   1.024   3.818   3.265  1.5253 -1.0563 -0.7950
 8225SOL    HW236312   1.001   3.791   3.399 -3.0166 -1.3434  0.5711
 8226SOL     OW36313   1.810   2.384   4.931  0.8824  0.1330 -0.0962
 8226SOL    HW136314   1.793   2.454   4.869  0.3243  1.0494  1.1007
 8226SOL    HW236315   1.773   2.421   5.011 -2.6292 -4.4003  0.3859
 8227SOL     OW36316   3.226   4.550  13.525 -0.6097  0.8582  0.3782
 8227SOL    HW136317   3.186   4.625  13.480 -2.1522  0.7389  1.5412
 8227SOL    HW236318   3.149   4.519  13.572 -0.0920 -0.5483  0.2840
 8228SOL     OW36319   1.037   2.521  16.941  0.1883 -0.7115  0.5028
 8228SOL    HW136320   1.113   2.462  16.932 -1.3773 -2.4614 -1.4702
 8228SOL    HW236321   1.008   2.541  16.852  0.0468  0.6275  0.8513
 8229SOL     OW36322   0.057   3.210   1.951 -0.5250  0.7870  0.1838
 8229SOL    HW136323   4.724   3.236   1.892 -0.1142 -0.4471 -0.8229
 8229SOL    HW236324   0.045   3.283   2.013 -0.1504  0.3364  0.7869
 8230SOL     OW36325   0.380   4.062  14.163 -0.1736  0.5009 -0.4878
 8230SOL    HW136326   0.297   4.066  14.115  0.5968 -0.7431 -1.9384
 8230SOL    HW236327   0.421   3.988  14.118 -1.9470 -1.0326  0.4014
 8231SOL     OW36328   1.333   1.843   2.882  0.2731 -0.3064  0.3978
 8231SOL    HW136329   1.415   1.830   2.930  0.3997  1.4247  0.6730
 8231SOL    HW236330   1.313   1.937   2.880 -0.1819 -0.4070  0.2345
 8232SOL     OW36331   1.003   0.150   4.802 -0.2297  0.1534  0.2345
 8232SOL    HW136332   0.950   0.189   4.732 -0.5902 -1.8714 -0.6543
 8232SOL    HW236333   0.928   0.102   4.838 -0.6573  1.6823  1.3628
 8233SOL     OW36334   4.560   1.365  17.175 -0.2314 -0.4070  0.4534
 8233SOL    HW136335   4.573   1.438  17.115 -1.7556 -2.2679 -2.1385
 8233SOL    HW236336   4.479   1.400  17.212 -0.1034  1.9012 -1.4381
 8234SOL     OW36337   3.773   3.851  11.678 -0.3878  0.0963 -0.3122
 8234SOL    HW136338   3.712   3.916  11.645 -1.3884 -0.6453  0.0992
 8234SOL    HW236339   3.790   3.803  11.597 -0.4169 -1.8464  0.8367
 8235SOL     OW36340   4.648   4.182   8.639 -0.4928  0.4322 -0.0794
 8235SOL    HW136341   4.577   4.198   8.701 -0.9739 -0.9099 -0.2610
 8235SOL    HW236342   4.693   4.107   8.678 -0.7708  0.5295  0.4207
 8236SOL     OW36343   0.549   1.697   5.048 -0.1910 -0.1118 -0.0393
 8236SOL    HW136344   0.555   1.714   5.142 -1.3034  2.5740 -0.4260
 8236SOL    HW236345   0.489   1.623   5.038 -0.9942  0.4145  0.8867
 8237SOL     OW36346   3.527   4.003   1.409 -0.0765 -0.1918 -0.0404
 8237SOL    HW136347   3.530   3.912   1.378 -0.3725  0.4840 -2.0626
 8237SOL    HW236348   3.432   4.012   1.415 -0.3570 -2.0802 -1.3634
 8238SOL     OW36349   4.478   2.574   5.505 -0.8457 -0.2665 -0.2173
 8238SOL    HW136350   4.556   2.533   5.542  1.1025 -0.0649 -4.1147
 8238SOL    HW236351   4.514   2.655   5.471 -0.7672 -0.2814 -0.1708
 8239SOL     OW36352   1.590   1.203   5.328  0.4171 -0.3798  0.2258
 8239SOL    HW136353   1.580   1.111   5.303 -1.1725 -0.4652  1.1761
 8239SOL    HW236354   1.625   1.200   5.417  0.2854  1.4448  0.3467
 8240SOL     OW36355   1.358   0.942   1.548 -0.0710 -0.1234  0.1006
 8240SOL    HW136356   1.448   0.975   1.549 -0.4869  0.9744  1.1924
 8240SOL    HW236357   1.324   0.987   1.471  2.1375  1.5554  0.1154
 8241SOL     OW36358   0.510   3.981   8.645  0.5501  0.2567 -0.2754
 8241SOL    HW136359   0.468   4.064   8.668 -1.6429 -0.4386 -1.6925
 8241SOL    HW236360   0.514   3.991   8.550  1.3976 -2.1679 -0.4910
 8242SOL     OW36361   1.720   1.882   2.621  0.2415 -0.7511  0.2341
 8242SOL    HW136362   1.646   1.830   2.589 -0.3701  0.0342  0.3802
 8242SOL    HW236363   1.785   1.871   2.552 -0.0296  1.8086 -0.4210
 8243SOL     OW36364   3.681   2.257   8.172 -0.2431  0.4462 -0.7073
 8243SOL    HW136365   3.720   2.326   8.118  2.2913 -0.1453  0.3969
 8243SOL    HW236366   3.633   2.214   8.101 -2.6690  0.0181  1.1825
 8244SOL     OW36367   3.282   3.945  17.503 -0.4185 -0.1831 -0.5468
 8244SOL    HW136368   3.371   3.909  17.493  0.3548  1.4653  0.4406
 8244SOL    HW236369   3.257   3.941  17.410  1.1450  1.8594 -1.0680
 8245SOL     OW36370   1.084   2.974   5.516  0.2102 -0.4675  0.1219
 8245SOL    HW136371   0.994   2.992   5.489  0.3799  0.6623  0.3148
 8245SOL    HW236372   1.142   2.990   5.441  0.3195 -1.0258  0.0852
 8246SOL     OW36373   3.293   0.134  12.503  0.0058  0.6167  0.0656
 8246SOL    HW136374   3.336   0.151  12.419  2.4756 -0.7130  1.0811
 8246SOL    HW236375   3.359   0.089  12.555  0.8613 -1.6228 -2.9074
 8247SOL     OW36376   2.243   3.463   3.067 -0.3477  0.1831  0.1960
 8247SOL    HW136377   2.333   3.483   3.092 -0.4005  0.0901  0.4526
 8247SOL    HW236378   2.250   3.495   2.977  2.8388 -2.0809 -0.3764
 8248SOL     OW36379   0.670   4.132   9.238  1.0711  0.1636 -0.0186
 8248SOL    HW136380   0.709   4.128   9.151 -0.6469 -1.3582 -0.7335
 8248SOL    HW236381   0.616   4.210   9.222  0.5450  0.2031  1.9700
 8249SOL     OW36382   2.017   2.717  16.755 -0.4716  0.4738 -0.8298
 8249SOL    HW136383   2.058   2.632  16.773 -1.8517 -0.4415 -2.0001
 8249SOL    HW236384   1.978   2.708  16.668  0.9135 -0.5359 -1.3492
 8250SOL     OW36385   0.937   3.606   8.695  0.2862 -0.0673  0.4223
 8250SOL    HW136386   1.020   3.565   8.720  0.7981  0.3074 -0.6983
 8250SOL    HW236387   0.874   3.579   8.763  0.5823 -0.9861  0.3258
 8251SOL     OW36388   1.834   2.879   7.408  0.6983  0.3730  0.2499
 8251SOL    HW136389   1.778   2.932   7.464 -0.6563 -1.0007  0.1705
 8251SOL    HW236390   1.909   2.866   7.467  1.8879 -2.2642 -1.8540
 8252SOL     OW36391   2.347   2.391   8.066 -0.0128 -0.1203  0.0468
 8252SOL    HW136392   2.365   2.429   8.152  1.3870  0.9851 -0.7469
 8252SOL    HW236393   2.391   2.306   8.066  0.4419  0.1110 -0.5423
 8253SOL     OW36394   1.819   4.460   3.207 -0.0175 -0.3169  0.6235
 8253SOL    HW136395   1.818   4.398   3.134  1.0187 -0.5615  0.8218
 8253SOL    HW236396   1.734   4.457   3.250  0.3899 -0.8781  1.3752
 8254SOL     OW36397   0.349   0.441   3.956  0.0596  0.5747 -0.2835
 8254SOL    HW136398   0.418   0.455   3.891 -0.7202  1.2853 -0.9530
 8254SOL    HW236399   0.280   0.470   3.896 -0.9753  0.0631  0.6551
 8255SOL     OW36400   0.003   3.040   8.977 -0.0181 -0.2900 -0.2470
 8255SOL    HW136401   0.087   3.083   8.995  1.1856 -2.4354 -0.7884
 8255SOL    HW236402   4.697   3.092   8.910  2.5262  2.4088  0.1910
 8256SOL     OW36403   0.546   3.112  16.638 -0.3883  0.0557 -0.1112
 8256SOL    HW136404   0.581   3.199  16.657  0.4045  0.4908 -3.4666
 8256SOL    HW236405   0.472   3.135  16.580  1.2650  1.7185 -1.5712
 8257SOL     OW36406   0.356   3.375   8.772 -0.0787 -0.5108 -0.0755
 8257SOL    HW136407   0.420   3.338   8.833  0.3407  0.4499  0.0671
 8257SOL    HW236408   0.409   3.417   8.704  1.2219  2.1370  2.5532
 8258SOL     OW36409   4.203   0.774   4.849  0.1256 -0.5085  0.1500
 8258SOL    HW136410   4.253   0.726   4.783 -0.1575 -2.0561  1.0607
 8258SOL    HW236411   4.268   0.844   4.859 -0.6197  0.2676 -0.4503
 8259SOL     OW36412   2.631   3.443   2.542 -0.0496  0.5059  0.5325
 8259SOL    HW136413   2.718   3.477   2.562  1.0065 -0.9894 -1.5257
 8259SOL    HW236414   2.641   3.350   2.521 -2.0666  0.3040  0.3858
 8260SOL     OW36415   3.235   3.093  15.977 -0.2164 -0.7767  0.1190
 8260SOL    HW136416   3.319   3.094  16.023  0.0665 -4.5155 -0.3171
 8260SOL    HW236417   3.206   3.002  15.983  2.1881 -1.6049 -0.8886
 8261SOL     OW36418   2.015   4.058   7.102  0.2234 -0.2043 -0.3362
 8261SOL    HW136419   1.938   4.014   7.139 -0.2553  1.2505  0.3864
 8261SOL    HW236420   2.025   4.131   7.162  2.3006 -1.9021  1.3820
 8262SOL     OW36421   3.687   3.423  13.489  0.1941  0.3122  0.1981
 8262SOL    HW136422   3.661   3.480  13.417  0.1670 -1.3303 -1.0987
 8262SOL    HW236423   3.777   3.396  13.469 -0.3464 -2.0025  0.8468
 8263SOL     OW36424   3.391   1.365  16.562  0.2161 -0.0035 -0.1673
 8263SOL    HW136425   3.338   1.442  16.583 -1.1504 -0.8942 -0.3462
 8263SOL    HW236426   3.328   1.300  16.596  0.4875 -0.0254  0.3051
 8264SOL     OW36427   2.623   1.844   7.739  0.1928 -0.1708  0.2519
 8264SOL    HW136428   2.529   1.839   7.722  0.2221  1.4116 -0.3525
 8264SOL    HW236429   2.643   1.935   7.716  1.0739 -0.8072 -1.5279
 8265SOL     OW36430   4.111   1.242   3.936  0.1401 -0.3633 -0.0389
 8265SOL    HW136431   4.129   1.200   3.852  0.3290 -0.7981  0.2133
 8265SOL    HW236432   4.070   1.165   3.976  0.1052 -0.2794  0.0884
 8266SOL     OW36433   1.724   1.578   8.630 -0.2628  0.2906  0.3575
 8266SOL    HW136434   1.665   1.549   8.560 -1.1681 -0.3097  1.3605
 8266SOL    HW236435   1.786   1.506   8.638 -2.6101 -1.9952 -1.8001
 8267SOL     OW36436   2.166   2.160   3.340  0.4957 -0.2656  0.4207
 8267SOL    HW136437   2.086   2.206   3.311  1.1408  0.6020  0.0211
 8267SOL    HW236438   2.233   2.228   3.339 -0.0076  0.2026 -1.1702
 8268SOL     OW36439   2.734   1.806   3.985  0.4009  0.0617  0.0561
 8268SOL    HW136440   2.695   1.789   3.899  1.2430 -0.2387 -0.2726
 8268SOL    HW236441   2.675   1.876   4.010  0.2508 -0.1545  0.3009
 8269SOL     OW36442   3.268   1.946  15.794  0.5126  0.5332 -0.0482
 8269SOL    HW136443   3.263   1.856  15.825 -0.3425  0.5348 -0.1811
 8269SOL    HW236444   3.207   1.981  15.859  0.5086  0.9800 -0.2876
 8270SOL     OW36445   0.965   3.990   3.111 -0.6783 -0.4770  0.0433
 8270SOL    HW136446   1.025   4.065   3.118 -0.3196 -0.6399 -1.1846
 8270SOL    HW236447   1.002   3.922   3.055 -0.3463 -1.6749  1.7079
 8271SOL     OW36448   1.767   1.302  12.908 -0.3097 -0.0509  0.3101
 8271SOL    HW136449   1.837   1.256  12.863  1.8757  1.4643  2.1453
 8271SOL    HW236450   1.699   1.235  12.908 -1.4424  1.0575  4.7545
 8272SOL     OW36451   2.373   4.038   3.252  0.0134 -0.4762  0.0004
 8272SOL    HW136452   2.464   4.069   3.244  0.1841 -1.2257 -0.9162
 8272SOL    HW236453   2.336   4.095   3.185 -1.9963 -0.3142  1.2569
 8273SOL     OW36454   1.188   2.157   5.919 -0.1989  0.0070 -0.4246
 8273SOL    HW136455   1.154   2.106   5.992  1.2177 -0.2764  0.0321
 8273SOL    HW236456   1.245   2.096   5.871  2.5332  2.4738 -0.3073
 8274SOL     OW36457   3.971   3.522   4.282  0.0209  0.0228 -0.1155
 8274SOL    HW136458   3.966   3.610   4.321  0.7392  0.2724 -0.5788
 8274SOL    HW236459   4.011   3.545   4.198  2.1511 -1.3677  0.5257
 8275SOL     OW36460   4.515   0.199   2.548  0.1805 -0.3113  0.5011
 8275SOL    HW136461   4.442   0.154   2.505 -0.1643 -0.4116  1.1884
 8275SOL    HW236462   4.494   0.291   2.535  1.8523 -0.1335 -0.9533
 8276SOL     OW36463   3.834   4.113   6.274  0.2943  0.6913 -0.1091
 8276SOL    HW136464   3.765   4.092   6.211  0.6322  0.7071 -0.4881
 8276SOL    HW236465   3.821   4.054   6.348  0.9020 -2.1494 -2.2943
 8277SOL     OW36466   4.471   3.776  13.569 -0.5911 -0.0402  0.2902
 8277SOL    HW136467   4.446   3.718  13.641  1.3303 -0.8762  0.2905
 8277SOL    HW236468   4.448   3.860  13.608  0.1054  0.2712  0.0288
 8278SOL     OW36469   2.037   0.843   6.920  0.1612 -0.0577 -0.3277
 8278SOL    HW136470   2.128   0.816   6.910  0.0602 -0.5740  0.1365
 8278SOL    HW236471   2.048   0.927   6.965  0.4021 -1.1404  1.6422
 8279SOL     OW36472   1.849   2.845   5.971  0.6203  0.0066 -0.2522
 8279SOL    HW136473   1.918   2.863   5.907  0.3114  2.3710  0.0619
 8279SOL    HW236474   1.793   2.918   5.944 -0.3012 -0.6224 -0.0187
 8280SOL     OW36475   0.356   2.931   3.948 -0.2852 -0.3486  0.0140
 8280SOL    HW136476   0.321   2.902   3.863 -1.0734  2.6170 -0.6630
 8280SOL    HW236477   0.439   2.883   3.952 -1.3147 -2.2131 -0.8077
 8281SOL     OW36478   3.412   1.074  12.441  0.2355  0.0286  0.2582
 8281SOL    HW136479   3.362   0.999  12.473 -3.4407  1.5482 -1.9339
 8281SOL    HW236480   3.424   1.051  12.349 -1.8728  3.5452 -0.8770
 8282SOL     OW36481   3.587   4.029  11.585  0.3252  0.5097 -0.0093
 8282SOL    HW136482   3.503   3.985  11.566 -0.0914  0.3337  2.2899
 8282SOL    HW236483   3.584   4.101  11.523 -2.8035 -2.1323 -2.9733
 8283SOL     OW36484   1.672   2.204   3.321  0.1062 -0.2289 -0.5674
 8283SOL    HW136485   1.681   2.277   3.260 -1.3689  0.4693  0.0630
 8283SOL    HW236486   1.765   2.180   3.314  0.2649  0.6453 -1.3464
 8284SOL     OW36487   4.613   2.631   8.423  0.0880 -0.3631 -0.0050
 8284SOL    HW136488   4.698   2.675   8.426  0.1312 -0.4747  0.3993
 8284SOL    HW236489   4.555   2.706   8.413  0.7838 -0.0375 -1.5665
 8285SOL     OW36490   4.358   0.594   3.092  0.5466  0.2375 -0.1633
 8285SOL    HW136491   4.321   0.606   3.004  1.7603  0.0183 -0.6937
 8285SOL    HW236492   4.396   0.509   3.071 -3.0749 -1.4104 -0.1741
 8286SOL     OW36493   2.878   2.734   0.451 -0.1708 -0.6415  0.0207
 8286SOL    HW136494   2.877   2.749   0.545 -0.7786 -0.1109 -0.0658
 8286SOL    HW236495   2.958   2.682   0.441  0.6500  0.5161  0.4901
 8287SOL     OW36496   3.191   4.136   1.435  0.8479 -0.3135 -0.3149
 8287SOL    HW136497   3.168   4.105   1.347  0.2970  0.0730 -0.3116
 8287SOL    HW236498   3.230   4.221   1.414  0.3163 -0.3404 -1.4258
 8288SOL     OW36499   0.719   0.815   3.298  0.0121  0.6882  0.6498
 8288SOL    HW136500   0.727   0.901   3.338 -1.8592 -0.0054  2.5011
 8288SOL    HW236501   0.737   0.839   3.207  1.1452  2.0088  1.2294
 8289SOL     OW36502   3.556   0.782  11.406  0.7299  1.0217  0.3068
 8289SOL    HW136503   3.465   0.796  11.379  1.3017  0.4263 -1.9199
 8289SOL    HW236504   3.601   0.866  11.421  0.2578  1.4959 -0.9428
 8290SOL     OW36505   3.544   2.790   4.068 -0.3471  0.3686  0.6224
 8290SOL    HW136506   3.497   2.717   4.107  0.9799 -1.0508 -0.3976
 8290SOL    HW236507   3.608   2.744   4.013 -1.2414  0.0872 -0.1743
 8291SOL     OW36508   2.636   4.466  16.251  0.4573 -0.1834 -0.3943
 8291SOL    HW136509   2.617   4.534  16.315  0.8362  0.2051 -0.6970
 8291SOL    HW236510   2.547   4.440  16.230  0.3774 -1.0722  0.9963
 8292SOL     OW36511   2.102   4.465  14.962  0.0950  0.0463  0.3907
 8292SOL    HW136512   2.033   4.486  14.899  2.3172  0.0827 -2.0528
 8292SOL    HW236513   2.081   4.372  14.968  1.3055 -0.2756 -0.3449
 8293SOL     OW36514   0.912   2.548   0.827  0.0530 -0.4336 -0.2527
 8293SOL    HW136515   0.972   2.564   0.754  0.4407 -1.0326 -0.0678
 8293SOL    HW236516   0.859   2.627   0.826  1.9220  0.8194 -0.5182
 8294SOL     OW36517   0.747   1.193   2.057 -0.2114  0.0741 -0.2861
 8294SOL    HW136518   0.729   1.110   2.102  0.4578  0.4664  0.6860
 8294SOL    HW236519   0.771   1.160   1.970 -1.2962  0.4913 -0.7509
 8295SOL     OW36520   2.372   3.922   6.176 -0.5757 -0.0032 -0.1797
 8295SOL    HW136521   2.443   3.916   6.112  1.3947 -2.3168  2.2178
 8295SOL    HW236522   2.357   4.016   6.171 -0.6316 -0.1823 -2.9157
 8296SOL     OW36523   2.781   3.596   6.280 -0.3420  0.1137 -0.9457
 8296SOL    HW136524   2.757   3.549   6.360 -2.4873  2.5273 -0.1214
 8296SOL    HW236525   2.745   3.682   6.303  1.3952  1.0020 -1.5630
 8297SOL     OW36526   1.776   1.043   9.151 -0.1649 -0.2451 -0.8819
 8297SOL    HW136527   1.695   1.075   9.191 -1.1062 -1.8434 -1.4782
 8297SOL    HW236528   1.820   1.128   9.147 -1.5381  0.4368 -1.4545
 8298SOL     OW36529   4.289   0.976   4.010  0.3235 -0.3309  0.0376
 8298SOL    HW136530   4.196   0.997   4.023  1.0441  1.2976  2.5944
 8298SOL    HW236531   4.308   1.050   3.952 -0.6959  1.4974  2.0220
 8299SOL     OW36532   0.116   4.409   3.837 -0.2696 -0.3009  0.0632
 8299SOL    HW136533   0.154   4.325   3.862  3.9878  1.6858  0.1934
 8299SOL    HW236534   0.029   4.394   3.874 -0.7801  2.8922  0.1721
 8300SOL     OW36535   4.473   2.961   5.162  0.1087 -0.2253 -0.2054
 8300SOL    HW136536   4.486   3.027   5.230  0.4218  0.1662 -0.6358
 8300SOL    HW236537   4.421   2.896   5.208 -0.8768  1.2989  0.8153
 8301SOL     OW36538   1.865   4.212   6.235 -0.3761  0.0753 -0.8374
 8301SOL    HW136539   1.916   4.261   6.171 -1.3131  0.8027 -1.0267
 8301SOL    HW236540   1.887   4.263   6.313 -2.2208 -0.2256 -0.1014
 8302SOL     OW36541   3.343   2.702  12.030 -0.1474 -0.5254  0.7560
 8302SOL    HW136542   3.317   2.769  11.966  1.0178 -2.0328 -1.2834
 8302SOL    HW236543   3.390   2.747  12.100 -0.2353 -1.3353  1.3355
 8303SOL     OW36544   4.410   1.875   8.462  0.7276 -0.1191  0.1495
 8303SOL    HW136545   4.452   1.809   8.407 -0.9661 -2.0913  1.2590
 8303SOL    HW236546   4.441   1.840   8.546 -0.0385  1.9523  1.3028
 8304SOL     OW36547   2.896   4.266   2.827 -0.3129 -0.0016 -0.1234
 8304SOL    HW136548   2.963   4.330   2.800  0.0374  0.2033  1.2223
 8304SOL    HW236549   2.886   4.215   2.747  1.3197 -0.4251 -0.0590
 8305SOL     OW36550   3.654   2.293   3.412 -0.1185 -0.1350 -0.5127
 8305SOL    HW136551   3.655   2.201   3.384  0.1030 -0.8061  1.6933
 8305SOL    HW236552   3.565   2.322   3.390  0.3117  1.8382  0.3817
 8306SOL     OW36553   3.932   3.496   3.623  0.1857 -0.1410  0.5214
 8306SOL    HW136554   4.022   3.464   3.620  0.5526  1.0356 -0.6810
 8306SOL    HW236555   3.951   3.586   3.650  0.5601 -0.1752  0.3729
 8307SOL     OW36556   0.432   3.216  12.159  0.6551  0.2583  0.2193
 8307SOL    HW136557   0.484   3.295  12.175  1.5248 -0.3064  0.1532
 8307SOL    HW236558   0.497   3.161  12.115 -0.1609 -0.2598 -0.3291
 8308SOL     OW36559   2.959   3.656   2.340  0.5615  0.4643 -0.3784
 8308SOL    HW136560   3.013   3.735   2.343  2.4075 -0.8218  0.0612
 8308SOL    HW236561   2.875   3.688   2.307  0.3380  1.3686  1.0483
 8309SOL     OW36562   0.054   2.022  13.747 -0.2782  0.1008 -0.6687
 8309SOL    HW136563   0.106   2.082  13.802 -1.5513  1.0878 -0.5501
 8309SOL    HW236564   0.009   1.967  13.811 -0.7645 -0.4382 -1.4732
 8310SOL     OW36565   4.092   3.173  14.591 -0.1379  0.2832 -0.1295
 8310SOL    HW136566   4.058   3.251  14.547 -0.0318 -1.0329 -2.5192
 8310SOL    HW236567   4.173   3.162  14.541  0.5243  1.3639  0.7011
 8311SOL     OW36568   2.462   2.820  12.581 -0.0888  0.0686 -0.1764
 8311SOL    HW136569   2.443   2.913  12.594  1.8188  0.4974 -0.5439
 8311SOL    HW236570   2.393   2.788  12.640 -0.4621  1.1856 -0.0015
 8312SOL     OW36571   1.529   3.852   2.226  0.0868  0.2010  0.3590
 8312SOL    HW136572   1.478   3.802   2.163 -0.0434  0.7009  0.0615
 8312SOL    HW236573   1.601   3.791   2.243 -1.3633 -2.0341 -1.5997
 8313SOL     OW36574   3.278   0.216  10.948 -0.2794  0.5955 -0.6129
 8313SOL    HW136575   3.302   0.294  10.898 -0.0201 -0.7070 -2.5269
 8313SOL    HW236576   3.184   0.221  10.931 -0.8682  0.8602  2.8245
 8314SOL     OW36577   1.576   0.356   3.995  0.1095 -0.2690  0.0811
 8314SOL    HW136578   1.614   0.355   3.907 -0.5820  1.5842 -0.2359
 8314SOL    HW236579   1.635   0.422   4.031  1.4373 -1.5587  0.2915
 8315SOL     OW36580   4.257   4.036   6.788  0.2611  0.5083 -0.0370
 8315SOL    HW136581   4.207   4.063   6.865  1.9080 -1.3976  1.7182
 8315SOL    HW236582   4.208   4.088   6.725 -1.2902 -0.6582  0.2120
 8316SOL     OW36583   1.794   2.384  12.515 -0.5267 -0.1987 -0.4169
 8316SOL    HW136584   1.761   2.445  12.449  0.6754  2.4765  1.4873
 8316SOL    HW236585   1.800   2.445  12.588  1.4982 -1.2504  0.3031
 8317SOL     OW36586   0.509   4.710   2.615  0.0905  0.7677 -0.2159
 8317SOL    HW136587   0.463   0.024   2.549 -1.8296 -2.9808 -1.8270
 8317SOL    HW236588   0.452   4.713   2.691 -0.1047  0.0084 -0.3290
 8318SOL     OW36589   2.524   1.096   5.924 -0.5397  0.3096  0.0441
 8318SOL    HW136590   2.447   1.145   5.952 -1.9487 -1.8404 -0.0967
 8318SOL    HW236591   2.530   1.036   5.998 -2.0575  0.5031  0.3144
 8319SOL     OW36592   0.854   0.654   2.362  0.0271  0.0878  0.0609
 8319SOL    HW136593   0.860   0.564   2.332  0.5454  0.2544 -0.3313
 8319SOL    HW236594   0.809   0.641   2.446 -1.2469  1.3906 -0.4261
 8320SOL     OW36595   4.432   1.609   5.956  0.3936 -0.2115 -0.2031
 8320SOL    HW136596   4.413   1.645   6.043  1.3272 -0.3590  0.0658
 8320SOL    HW236597   4.385   1.679   5.911  1.0753  1.1339  1.2074
 8321SOL     OW36598   0.117   4.223  13.838  0.1757 -0.0011 -0.8142
 8321SOL    HW136599   0.106   4.145  13.894  3.6931 -0.9338 -1.4374
 8321SOL    HW236600   0.138   4.185  13.752 -1.3140 -3.5862  0.3781
 8322SOL     OW36601   2.685   3.161   9.418  0.1317  0.3334 -0.4836
 8322SOL    HW136602   2.598   3.193   9.442 -0.3852  0.1042 -2.0972
 8322SOL    HW236603   2.658   3.069   9.429 -0.6537  0.7009  0.6402
 8323SOL     OW36604   0.768   0.859   0.411 -0.2955  0.4179 -0.4074
 8323SOL    HW136605   0.858   0.842   0.383  0.3834  1.5039  1.1300
 8323SOL    HW236606   0.732   0.774   0.435  0.4286 -0.5297 -2.6793
 8324SOL     OW36607   4.304   0.753   0.570  0.0381  0.5044 -1.0186
 8324SOL    HW136608   4.208   0.759   0.575  0.0769  0.4413 -0.1864
 8324SOL    HW236609   4.323   0.674   0.621  0.2355  0.0100 -1.8743
 8325SOL     OW36610   3.179   3.123   2.612 -0.3672 -0.0471  0.7770
 8325SOL    HW136611   3.100   3.168   2.642 -0.0893 -0.3979  2.0080
 8325SOL    HW236612   3.180   3.150   2.520  0.4695 -1.5165  0.3637
 8326SOL     OW36613   4.605   1.549   4.767 -0.5751  0.2102 -0.8430
 8326SOL    HW136614   4.670   1.481   4.750 -1.7125 -0.9150 -0.6970
 8326SOL    HW236615   4.537   1.508   4.714  0.3307 -0.0769 -1.7809
 8327SOL     OW36616   0.419   1.533   7.270  0.0954 -0.1865 -0.7352
 8327SOL    HW136617   0.325   1.525   7.288  0.8107 -0.9807  2.7704
 8327SOL    HW236618   0.411   1.562   7.179  1.1663 -0.2147 -0.8383
 8328SOL     OW36619   4.426   0.277   3.341  0.0253  0.7975 -0.5685
 8328SOL    HW136620   4.395   0.200   3.293  0.7684 -0.4755  0.9762
 8328SOL    HW236621   4.473   0.237   3.414 -0.8477 -1.0665 -1.0324
 8329SOL     OW36622   2.701   1.371   5.858 -0.3918 -0.2180  0.4220
 8329SOL    HW136623   2.780   1.319   5.847 -0.0388  0.5105 -0.5434
 8329SOL    HW236624   2.690   1.354   5.951  0.8318  3.5925  1.2502
 8330SOL     OW36625   3.251   3.760   3.771 -0.0026 -0.1438 -0.5862
 8330SOL    HW136626   3.321   3.751   3.707  0.6300  2.2715 -0.2129
 8330SOL    HW236627   3.242   3.854   3.783  0.6979 -0.3998  2.0192
 8331SOL     OW36628   2.797   1.075   3.804 -0.1838 -0.3366  0.1993
 8331SOL    HW136629   2.796   1.068   3.708  0.4777 -2.1730  0.3356
 8331SOL    HW236630   2.842   0.994   3.828  0.3660  0.0661  0.5161
 8332SOL     OW36631   1.690   2.763   4.048 -0.1806 -0.4287 -0.3251
 8332SOL    HW136632   1.717   2.819   4.121 -0.0689  2.0811 -2.3004
 8332SOL    HW236633   1.688   2.831   3.980  2.0546 -0.4711 -0.4345
 8333SOL     OW36634   2.117   2.056   1.992  0.7807 -0.0877 -0.4665
 8333SOL    HW136635   2.059   2.131   1.999  1.4855  0.2230  2.1431
 8333SOL    HW236636   2.189   2.085   2.048  1.2629  1.4055 -1.9001
 8334SOL     OW36637   2.874   3.126   7.570 -0.2010 -0.4973 -0.4097
 8334SOL    HW136638   2.918   3.041   7.580 -0.0625 -0.3463  0.2309
 8334SOL    HW236639   2.896   3.140   7.478  0.7603  0.9762  0.0476
 8335SOL     OW36640   0.622   2.981  13.643 -0.5279 -0.4373  0.0190
 8335SOL    HW136641   0.690   3.029  13.690 -0.3515 -0.5005 -0.1685
 8335SOL    HW236642   0.551   3.036  13.674  1.7726  2.2690  0.5503
 8336SOL     OW36643   0.619   4.623   6.885 -0.5365  0.5781 -0.1076
 8336SOL    HW136644   0.708   4.589   6.877 -1.0215 -0.4502 -1.2491
 8336SOL    HW236645   0.616   4.695   6.947 -0.9838  0.2190  0.2911
 8337SOL     OW36646   0.294   3.760   5.886 -1.0532 -0.4794  0.3151
 8337SOL    HW136647   0.308   3.814   5.808 -0.0883  0.8532  1.3911
 8337SOL    HW236648   0.247   3.682   5.858  0.3323 -2.1423  2.6063
 8338SOL     OW36649   1.854   0.754  11.061  0.5307 -0.3305  0.1340
 8338SOL    HW136650   1.775   0.800  11.032  1.1754  0.6003 -0.1709
 8338SOL    HW236651   1.854   0.778  11.154  0.4543 -4.0260  1.0769
 8339SOL     OW36652   1.204   3.146   9.025  0.5002 -0.1478 -0.8049
 8339SOL    HW136653   1.128   3.178   8.975  0.0021  1.3046  0.8718
 8339SOL    HW236654   1.272   3.213   9.017  2.0846 -1.6150  0.3789
 8340SOL     OW36655   4.285   0.367   8.261  0.3451  0.1980 -0.3229
 8340SOL    HW136656   4.336   0.447   8.274  1.3417 -0.6512  1.0208
 8340SOL    HW236657   4.338   0.316   8.200 -0.6501 -0.7417 -0.4060
 8341SOL     OW36658   0.002   1.024   8.095  0.3892  0.3230 -0.2124
 8341SOL    HW136659   0.043   0.939   8.110 -0.8990 -0.1861  0.4436
 8341SOL    HW236660   4.686   1.034   8.173 -1.0969 -0.1861 -1.1762
 8342SOL     OW36661   2.045   3.006   7.700 -0.0508  0.3445 -0.0384
 8342SOL    HW136662   2.036   2.915   7.672 -0.0420  0.2502  0.2617
 8342SOL    HW236663   2.106   2.997   7.774  1.1895 -1.3630 -1.2520
 8343SOL     OW36664   0.309   1.258   8.110 -0.0670 -0.4383  0.2723
 8343SOL    HW136665   0.404   1.269   8.109 -0.4561  2.8645  0.2519
 8343SOL    HW236666   0.304   1.232   8.017  1.6249  1.8847 -0.4567
 8344SOL     OW36667   2.990   4.456   0.519  0.4630 -0.3237 -0.3538
 8344SOL    HW136668   3.022   4.547   0.516  1.4965 -0.6300  1.1969
 8344SOL    HW236669   2.918   4.457   0.456 -0.1958 -0.5098  0.4020
 8345SOL     OW36670   2.663   1.404  16.875 -0.5317  0.2090 -0.3697
 8345SOL    HW136671   2.749   1.435  16.905 -0.9809 -1.2423  2.4741
 8345SOL    HW236672   2.671   1.309  16.889  2.4977  0.5056  0.0336
 8346SOL     OW36673   4.459   2.807   0.863 -0.3667 -0.8727 -0.1263
 8346SOL    HW136674   4.438   2.820   0.956  1.6340  2.0386 -0.0595
 8346SOL    HW236675   4.414   2.887   0.834  0.7127 -0.0307  0.4833
 8347SOL     OW36676   3.597   4.630   5.571 -0.7525  0.2460  0.0715
 8347SOL    HW136677   3.525   4.665   5.517 -1.9812  0.2149  1.6890
 8347SOL    HW236678   3.560   4.553   5.613  1.8018 -1.2631 -0.4688
 8348SOL     OW36679   1.016   1.968  16.878  0.8887  0.1015  0.0240
 8348SOL    HW136680   1.017   1.990  16.972 -2.1035  0.1971  0.0281
 8348SOL    HW236681   0.925   1.971  16.852  1.2330 -1.1304 -1.2856
 8349SOL     OW36682   0.637   3.888  16.068 -0.0214 -0.4930  0.4056
 8349SOL    HW136683   0.616   3.957  16.131  2.1514  0.5800 -0.0408
 8349SOL    HW236684   0.662   3.930  15.986 -0.4265  0.4637  0.7769
 8350SOL     OW36685   0.673   4.213   0.467 -0.1727 -0.5799  0.0386
 8350SOL    HW136686   0.577   4.222   0.472 -0.1953 -0.4360 -0.6047
 8350SOL    HW236687   0.676   4.126   0.429  0.9150  0.1229 -1.4946
 8351SOL     OW36688   0.311   0.938   1.806  0.5250 -0.3997 -0.1560
 8351SOL    HW136689   0.241   0.997   1.834 -1.2285 -2.9381  0.7548
 8351SOL    HW236690   0.261   0.858   1.793  0.1649 -0.2323  0.2018
 8352SOL     OW36691   4.445   1.490  14.513 -0.1270 -0.3053  0.0068
 8352SOL    HW136692   4.387   1.456  14.580  0.7460 -2.4426 -0.3323
 8352SOL    HW236693   4.382   1.516  14.445  1.3630 -0.5391 -1.4689
 8353SOL     OW36694   4.446   0.633   4.360  0.2416  0.1804 -0.5553
 8353SOL    HW136695   4.413   0.717   4.328 -0.1418  0.4659  0.5851
 8353SOL    HW236696   4.364   0.585   4.371  1.1726 -1.1302  0.7402
 8354SOL     OW36697   3.776   4.253   5.863 -0.7944 -0.1478  0.0420
 8354SOL    HW136698   3.868   4.229   5.869 -1.2451 -1.5136  1.5636
 8354SOL    HW236699   3.758   4.252   5.769  1.2830 -0.5347 -0.3332
 8355SOL     OW36700   0.484   1.874  11.304  0.2579  0.1694 -0.3143
 8355SOL    HW136701   0.561   1.921  11.274 -0.2306  1.0409 -0.2157
 8355SOL    HW236702   0.431   1.899  11.228 -0.9868 -1.2826  0.0618
 8356SOL     OW36703   0.233   2.797   2.190  0.6284  0.1800 -0.1571
 8356SOL    HW136704   0.226   2.765   2.101 -0.7254  1.6387 -0.5756
 8356SOL    HW236705   0.323   2.831   2.182  0.6695 -0.1573 -1.1360
 8357SOL     OW36706   1.276   0.335  15.490 -0.4072  0.1518  0.5072
 8357SOL    HW136707   1.182   0.330  15.505 -0.4911 -2.2529 -0.9238
 8357SOL    HW236708   1.279   0.326  15.395 -0.2840 -0.0359  0.5289
 8358SOL     OW36709   3.799   3.964  12.345  0.6809 -0.1809 -0.2546
 8358SOL    HW136710   3.718   3.951  12.394  1.5019 -0.2252  1.0730
 8358SOL    HW236711   3.770   3.986  12.256 -2.2022 -2.9744 -0.0041
 8359SOL     OW36712   2.119   3.327   7.330  0.0768  0.6192  0.2072
 8359SOL    HW136713   2.044   3.386   7.321  0.9559  1.5604 -0.8353
 8359SOL    HW236714   2.097   3.270   7.404 -0.7662  1.5901  0.7085
 8360SOL     OW36715   0.196   4.574   0.959  0.2245  0.0547 -0.0084
 8360SOL    HW136716   0.124   4.520   0.990  0.0424 -0.1212 -0.7381
 8360SOL    HW236717   0.151   4.617   0.886  0.9395  1.8141  0.5997
 8361SOL     OW36718   4.578   4.151   7.055  0.0334  0.1301  0.0419
 8361SOL    HW136719   4.563   4.056   7.060  1.4263 -0.1094 -0.0938
 8361SOL    HW236720   4.618   4.166   7.141  1.4084  2.0035 -0.9243
 8362SOL     OW36721   3.954   3.485   5.932  0.0643 -0.1588 -0.1980
 8362SOL    HW136722   3.980   3.519   5.847  0.9358  1.1476  0.6009
 8362SOL    HW236723   3.862   3.510   5.933  0.1024 -0.1234  1.6549
 8363SOL     OW36724   2.396   1.154   3.957  0.4591 -0.6609  0.7358
 8363SOL    HW136725   2.308   1.119   3.939 -0.3187  0.6573  1.8776
 8363SOL    HW236726   2.396   1.133   4.051 -1.4541  2.2561  1.4051
 8364SOL     OW36727   1.688   1.299   6.259 -0.0250  0.1834 -0.2619
 8364SOL    HW136728   1.661   1.313   6.350 -2.8629 -0.4394 -1.0040
 8364SOL    HW236729   1.667   1.383   6.218 -0.8028 -0.0601 -0.3656
 8365SOL     OW36730   4.660   2.940   1.902  0.5941  0.2924 -0.1682
 8365SOL    HW136731   4.705   3.009   1.950 -0.3841  1.8482 -1.4709
 8365SOL    HW236732   4.732   2.877   1.896  0.8157  0.6166 -1.0247
 8366SOL     OW36733   1.923   4.606   7.562 -0.5373 -0.5607  0.7111
 8366SOL    HW136734   1.875   4.530   7.527  0.2901  0.2638 -2.2561
 8366SOL    HW236735   1.879   4.680   7.521  0.6951 -1.0834 -1.5977
 8367SOL     OW36736   0.463   2.854   7.340  0.7008  0.0044 -0.0436
 8367SOL    HW136737   0.428   2.766   7.355 -1.4743  0.6116 -1.5110
 8367SOL    HW236738   0.381   2.901   7.326  1.9618  2.1355 -0.3484
 8368SOL     OW36739   4.719   2.392   2.502  0.7599 -0.0534  0.1459
 8368SOL    HW136740   4.711   2.487   2.501  0.9287 -0.0431 -0.2591
 8368SOL    HW236741   4.704   2.369   2.410 -0.3973 -2.0453  0.8463
 8369SOL     OW36742   0.000   2.127   5.674 -0.0820 -0.1440  0.1615
 8369SOL    HW136743   0.083   2.096   5.638 -0.0300 -1.8913  1.7883
 8369SOL    HW236744   0.024   2.183   5.747  0.1904  1.2611 -1.0082
 8370SOL     OW36745   3.050   3.623   6.485  0.1338  0.0845 -0.7331
 8370SOL    HW136746   2.970   3.670   6.461 -0.2112  0.1740  0.5904
 8370SOL    HW236747   3.027   3.530   6.481 -0.4250  0.2316 -0.9902
 8371SOL     OW36748   4.460   3.603   3.490  0.2918 -0.0709  0.6948
 8371SOL    HW136749   4.449   3.567   3.577 -0.2694 -2.3608 -0.3273
 8371SOL    HW236750   4.403   3.545   3.438 -0.7401  1.3088  0.2658
 8372SOL     OW36751   4.235   1.788  13.375 -0.6122  0.0835  0.0059
 8372SOL    HW136752   4.245   1.777  13.281  0.9026  1.0091  0.0555
 8372SOL    HW236753   4.208   1.701  13.405  0.2087 -0.0879  0.2483
 8373SOL     OW36754   0.580   0.240   8.546 -0.0395 -0.2243 -0.2255
 8373SOL    HW136755   0.498   0.288   8.534  1.4457  2.2703 -0.4733
 8373SOL    HW236756   0.593   0.212   8.455  2.7065  0.9529 -0.2085
 8374SOL     OW36757   2.794   4.257   5.394  0.1370  0.6630  0.1129
 8374SOL    HW136758   2.797   4.220   5.482  0.1153  2.4067  0.8334
 8374SOL    HW236759   2.715   4.309   5.406 -0.1182  0.2213  0.3477
 8375SOL     OW36760   1.507   1.807   1.854  0.2687  0.2434  0.4027
 8375SOL    HW136761   1.425   1.846   1.824  0.5906  1.3094  0.9357
 8375SOL    HW236762   1.494   1.774   1.943 -2.2277 -0.3483 -0.1855
 8376SOL     OW36763   3.058   4.702   0.503  0.4440  0.2484  0.0490
 8376SOL    HW136764   2.991   0.029   0.525  1.1166  0.0650  2.6272
 8376SOL    HW236765   3.141   0.011   0.514  0.2193  0.1018  2.3485
 8377SOL     OW36766   1.571   2.620   3.659  0.2500 -0.2775  0.0039
 8377SOL    HW136767   1.515   2.569   3.718  0.3447  0.0244  0.3553
 8377SOL    HW236768   1.552   2.572   3.578 -0.6179  0.8720 -0.4651
 8378SOL     OW36769   3.375   2.918   5.872 -0.2309  0.1643  0.1723
 8378SOL    HW136770   3.397   2.916   5.779 -0.2825  0.2849  0.1583
 8378SOL    HW236771   3.407   2.830   5.893  0.3738  0.5903  1.0430
 8379SOL     OW36772   1.836   3.498   9.702  0.0437 -0.4368 -0.2328
 8379SOL    HW136773   1.914   3.554   9.711  0.2424 -0.5133 -1.5139
 8379SOL    HW236774   1.766   3.555   9.732  0.1265 -0.7912  0.6282
 8380SOL     OW36775   4.450   4.637   3.923 -0.1241 -0.0004  0.0951
 8380SOL    HW136776   4.359   4.661   3.906 -0.0789 -0.4153 -0.7185
 8380SOL    HW236777   4.448   4.649   4.018  0.4600  0.4299  0.0500
 8381SOL     OW36778   4.480   1.629   3.723  0.0039 -0.4006 -0.1228
 8381SOL    HW136779   4.558   1.655   3.673  0.5896  0.8120  1.4356
 8381SOL    HW236780   4.483   1.535   3.740  0.8915 -0.3345  0.0872
 8382SOL     OW36781   0.124   3.771  17.675  0.4528 -0.2481 -0.0836
 8382SOL    HW136782   0.055   3.798  17.736  1.4618  2.1287 -0.0147
 8382SOL    HW236783   0.062   3.723  17.619 -1.6522  2.1271  0.1928
 8383SOL     OW36784   2.085   1.940   0.532  0.4585 -0.4049  0.5977
 8383SOL    HW136785   1.996   1.969   0.512  1.2389  1.5482 -0.0794
 8383SOL    HW236786   2.084   1.859   0.481  0.5683 -1.3553  2.1318
 8384SOL     OW36787   3.892   1.240   3.622  0.0424 -0.1341  0.0544
 8384SOL    HW136788   3.947   1.225   3.545 -2.5456  0.5000 -1.9141
 8384SOL    HW236789   3.846   1.157   3.639  0.0282 -0.1184  0.0920
 8385SOL     OW36790   2.955   0.943   4.138  0.1683 -0.2026  0.0926
 8385SOL    HW136791   3.031   0.961   4.194  0.0845 -0.2443  0.2194
 8385SOL    HW236792   2.878   0.972   4.187  1.1093 -0.6688  1.8396
 8386SOL     OW36793   2.997   2.071   3.019 -0.4363  0.7186 -0.2311
 8386SOL    HW136794   2.904   2.048   3.015 -0.2675 -0.0799  0.3862
 8386SOL    HW236795   3.023   2.062   2.927 -1.3752  1.1956 -0.5348
 8387SOL     OW36796   3.032   1.139   6.781  0.1163  0.9443 -0.1219
 8387SOL    HW136797   3.119   1.103   6.760 -0.1949  0.8659 -1.3046
 8387SOL    HW236798   3.008   1.095   6.862  0.4529 -1.6927 -1.4365
 8388SOL     OW36799   1.317   3.748   6.676  0.2503  0.5054  0.6354
 8388SOL    HW136800   1.388   3.792   6.724  0.6061  1.2932 -0.6122
 8388SOL    HW236801   1.252   3.725   6.742  0.0843  2.3497  1.1122
 8389SOL     OW36802   3.395   4.092   8.732 -0.0906 -0.1617 -0.0399
 8389SOL    HW136803   3.479   4.086   8.685 -0.1383  1.6127 -0.3496
 8389SOL    HW236804   3.397   4.005   8.772 -0.6114 -1.0830 -2.0230
 8390SOL     OW36805   0.297   1.048   8.280 -0.1392 -0.4267  0.1840
 8390SOL    HW136806   0.283   1.131   8.235 -1.1025 -0.0411  1.1989
 8390SOL    HW236807   0.213   1.041   8.324 -0.1380  1.4531  0.4624
 8391SOL     OW36808   0.462   1.531   8.296  0.4102 -0.2628  0.2444
 8391SOL    HW136809   0.450   1.491   8.210  0.1292 -0.7777  0.5178
 8391SOL    HW236810   0.376   1.518   8.336 -0.1618 -0.5064 -1.0763
 8392SOL     OW36811   2.868   0.732   7.877  0.3470 -0.0782 -0.0080
 8392SOL    HW136812   2.795   0.773   7.830 -0.5319 -0.8910  0.6376
 8392SOL    HW236813   2.922   0.683   7.815  1.3256  1.9175 -0.7195
 8393SOL     OW36814   2.393   1.873   2.158  0.4694 -0.1581 -0.3130
 8393SOL    HW136815   2.387   1.967   2.139  0.1375 -0.2402 -0.5974
 8393SOL    HW236816   2.426   1.835   2.077  1.0687 -2.1866  0.8867
 8394SOL     OW36817   0.741   3.414   1.158  0.1190 -0.2852  0.3302
 8394SOL    HW136818   0.811   3.438   1.219  0.5035 -0.7899  0.0874
 8394SOL    HW236819   0.788   3.339   1.122  0.4179 -0.3742  0.9088
 8395SOL     OW36820   0.087   1.314  17.245  0.6680  0.6147  0.4733
 8395SOL    HW136821   4.731   1.324  17.228  0.7049  2.3860  1.3413
 8395SOL    HW236822   0.108   1.382  17.309  0.3029  0.1399  1.0938
 8396SOL     OW36823   1.479   1.185  11.564 -0.2709  0.0559  0.3536
 8396SOL    HW136824   1.501   1.097  11.533 -2.7479 -0.1160 -0.9414
 8396SOL    HW236825   1.567   1.204  11.596  0.6739 -1.7309 -1.1284
 8397SOL     OW36826   2.449   2.017   7.418  0.3210  0.0618  0.5352
 8397SOL    HW136827   2.505   1.957   7.367  2.8347  1.7140  1.3706
 8397SOL    HW236828   2.416   1.964   7.490 -2.1975  0.3990 -0.3896
 8398SOL     OW36829   0.727   2.139   8.464 -0.4153 -0.0170  0.4418
 8398SOL    HW136830   0.812   2.100   8.443 -0.3623  0.7333 -0.7146
 8398SOL    HW236831   0.727   2.118   8.558 -2.1106 -3.8563 -0.3969
 8399SOL     OW36832   1.869   2.763   1.361  0.0985  0.6603  0.3514
 8399SOL    HW136833   1.792   2.730   1.408 -0.2729  0.1827 -0.5944
 8399SOL    HW236834   1.930   2.689   1.364 -0.6739  0.0605  1.3267
 8400SOL     OW36835   3.647   1.276   4.754  0.6823  0.0038 -0.4113
 8400SOL    HW136836   3.647   1.359   4.802  1.7627  0.1317 -0.6327
 8400SOL    HW236837   3.738   1.272   4.725  0.7296 -0.3870 -0.2000
 8401SOL     OW36838   3.680   3.503   8.989  0.0410  0.6242  0.5465
 8401SOL    HW136839   3.602   3.451   8.971  0.0938  0.0415  2.0288
 8401SOL    HW236840   3.694   3.498   9.083  2.9133  0.4926  0.1264
 8402SOL     OW36841   0.358   0.634  14.002 -0.0784 -0.0961 -0.0637
 8402SOL    HW136842   0.360   0.729  14.019 -1.6553 -0.2221  0.7946
 8402SOL    HW236843   0.314   0.605  14.082  2.1188  1.6284  1.7854
 8403SOL     OW36844   0.191   3.852  16.651 -0.1806 -0.5484 -0.2805
 8403SOL    HW136845   0.131   3.924  16.670  1.6197  0.1107  2.8237
 8403SOL    HW236846   0.256   3.893  16.707 -0.4040  0.5499 -0.8325
 8404SOL     OW36847   2.413   2.914   4.269  0.6737 -0.1460 -0.1445
 8404SOL    HW136848   2.431   2.888   4.359 -0.8138 -1.8678 -0.3507
 8404SOL    HW236849   2.497   2.900   4.226  0.6614  1.2760 -0.6135
 8405SOL     OW36850   1.907   2.072   5.204 -0.0418 -0.1210  0.1577
 8405SOL    HW136851   1.838   2.015   5.170 -1.2559  1.2709  0.2931
 8405SOL    HW236852   1.928   2.105   5.116  2.0959 -0.2087  0.6205
 8406SOL     OW36853   4.614   0.549   4.739  1.0553  0.3705  0.0502
 8406SOL    HW136854   4.612   0.458   4.767  2.3177  0.8846  1.8214
 8406SOL    HW236855   4.652   0.543   4.651  1.3142 -1.2644  0.2842
 8407SOL     OW36856   1.910   3.274  12.964 -0.0924  0.1174  0.3353
 8407SOL    HW136857   1.900   3.352  12.909 -2.5577  0.1104  0.7845
 8407SOL    HW236858   1.904   3.210  12.893  2.0580 -0.1966  0.4303
 8408SOL     OW36859   2.656   4.173   9.504  0.2472  0.3877 -0.2099
 8408SOL    HW136860   2.744   4.191   9.535  1.5121 -1.9241 -2.4615
 8408SOL    HW236861   2.671   4.181   9.410 -4.3960  0.1984 -0.9888
 8409SOL     OW36862   4.212   4.413   5.756  0.1044 -0.6180 -0.0635
 8409SOL    HW136863   4.145   4.468   5.798 -0.8939 -0.5609 -1.7147
 8409SOL    HW236864   4.157   4.335   5.759  1.5483 -1.6161  0.0918
 8410SOL     OW36865   2.567   4.253   3.635  0.3024 -0.1105 -0.1257
 8410SOL    HW136866   2.655   4.214   3.641  0.8125  1.0032 -0.2628
 8410SOL    HW236867   2.518   4.192   3.690 -0.5791  0.7771  0.0601
 8411SOL     OW36868   2.569   2.917   1.213  0.3395  0.3637 -0.3448
 8411SOL    HW136869   2.558   2.911   1.308 -0.7915  2.3231 -0.3623
 8411SOL    HW236870   2.497   2.860   1.186  0.9339 -0.3906 -0.3657
 8412SOL     OW36871   2.178   1.999   8.114  0.4609  0.0192 -0.4482
 8412SOL    HW136872   2.153   2.079   8.066 -1.7379 -0.5164 -0.2089
 8412SOL    HW236873   2.140   2.003   8.202 -0.9796  0.7523 -1.0941
 8413SOL     OW36874   4.516   1.863   5.785 -0.3273 -0.3677  0.2986
 8413SOL    HW136875   4.573   1.865   5.708  1.8152  0.5994  1.9269
 8413SOL    HW236876   4.430   1.842   5.747  0.6055 -1.6121 -1.0947
 8414SOL     OW36877   0.932   0.061   2.774  0.1763  0.2157 -0.2242
 8414SOL    HW136878   0.884   4.724   2.741  1.3703 -0.4421 -0.4805
 8414SOL    HW236879   0.890   0.062   2.860  0.5780 -1.1979 -0.0065
 8415SOL     OW36880   1.043   0.129   5.278  0.6284 -0.4027  0.1634
 8415SOL    HW136881   1.103   0.173   5.338  0.3737 -1.8811  1.4946
 8415SOL    HW236882   1.047   0.178   5.195  0.6558  0.2025  0.5228
 8416SOL     OW36883   3.749   2.957   5.820  0.4876 -0.0131 -0.5865
 8416SOL    HW136884   3.785   2.912   5.896 -2.9128  2.3473  2.4018
 8416SOL    HW236885   3.685   3.021   5.850  0.1115  0.1199 -1.6755
 8417SOL     OW36886   0.989   0.489   8.583  0.4874 -0.1838  0.1266
 8417SOL    HW136887   0.959   0.459   8.497 -1.8478  1.3826  0.4043
 8417SOL    HW236888   0.926   0.436   8.632  1.3057 -1.0393  0.2501
 8418SOL     OW36889   3.897   2.943   0.919  0.1175  0.0676 -0.3707
 8418SOL    HW136890   3.845   2.963   0.997 -0.9751 -0.7515 -0.8846
 8418SOL    HW236891   3.976   2.907   0.958 -0.7820 -3.7476 -1.9771
 8419SOL     OW36892   3.252   0.516  11.106  0.4546 -0.3477 -0.8640
 8419SOL    HW136893   3.331   0.514  11.160  0.3832 -1.1744 -0.7977
 8419SOL    HW236894   3.274   0.493  11.016 -0.8413 -2.4222 -0.6513
 8420SOL     OW36895   2.486   3.592   1.620 -0.0044  0.1700  0.4207
 8420SOL    HW136896   2.498   3.655   1.549 -0.0722  2.4979  2.4445
 8420SOL    HW236897   2.390   3.588   1.629  0.1722 -1.2926  1.5915
 8421SOL     OW36898   3.887   4.485   1.607  0.4216 -0.5910  0.0120
 8421SOL    HW136899   3.846   4.409   1.647  1.0581 -1.4657 -1.0013
 8421SOL    HW236900   3.971   4.439   1.614  0.8568  0.3284  0.8176
 8422SOL     OW36901   1.494   2.292   3.659  0.0626 -0.2459  0.5574
 8422SOL    HW136902   1.468   2.265   3.747  1.4701  0.6535  1.2570
 8422SOL    HW236903   1.494   2.206   3.617 -0.3843 -0.9674  2.0174
 8423SOL     OW36904   1.238   1.774   4.674 -0.0335  0.7290 -0.2343
 8423SOL    HW136905   1.236   1.855   4.623  3.9598 -0.3092 -1.9902
 8423SOL    HW236906   1.176   1.808   4.739 -0.7418 -0.5176 -0.2365
 8424SOL     OW36907   0.162   2.761   8.522  0.0038  0.5647 -0.2005
 8424SOL    HW136908   0.113   2.827   8.573  1.9606  1.1653  0.8870
 8424SOL    HW236909   0.155   2.804   8.436 -1.6965 -1.2096 -0.9547
 8425SOL     OW36910   1.968   2.121   1.177  0.4871 -0.2075  0.3827
 8425SOL    HW136911   2.062   2.142   1.182  0.2593  0.8097  0.4245
 8425SOL    HW236912   1.971   2.117   1.081  0.2308 -0.9340  0.4015
 8426SOL     OW36913   2.578   3.676   9.237 -0.0098  0.3442  0.6510
 8426SOL    HW136914   2.587   3.638   9.324 -3.2853  2.8981  2.0862
 8426SOL    HW236915   2.567   3.769   9.252  2.2133  0.9492 -1.4696
 8427SOL     OW36916   0.006   0.989   1.883 -0.2594  0.4233  0.0778
 8427SOL    HW136917   4.658   0.964   1.849  0.3589  1.1482 -2.0213
 8427SOL    HW236918   0.018   0.927   1.955  2.5352  0.4603 -0.3198
 8428SOL     OW36919   3.297   0.578   3.501  0.5801 -0.0243  0.2065
 8428SOL    HW136920   3.222   0.573   3.560  0.0213  1.8060 -0.3643
 8428SOL    HW236921   3.341   0.493   3.501  0.5716 -0.0273  0.3822
 8429SOL     OW36922   3.677   0.318   5.237 -0.2995  0.2535 -0.2382
 8429SOL    HW136923   3.695   0.262   5.162 -1.8283 -1.0663  0.3908
 8429SOL    HW236924   3.756   0.302   5.290 -1.7995 -1.6070  1.4303
 8430SOL     OW36925   2.804   0.520  10.793 -0.2219 -0.3265 -0.3203
 8430SOL    HW136926   2.794   0.464  10.716  4.0179  0.0385 -1.1377
 8430SOL    HW236927   2.743   0.478  10.853 -1.1144 -0.1085 -1.0722
 8431SOL     OW36928   3.517   2.549  17.639  0.7565 -0.3426  0.1906
 8431SOL    HW136929   3.460   2.622  17.663  1.9295 -0.0690  2.1880
 8431SOL    HW236930   3.605   2.585  17.623  0.7549  0.1075  1.1646
 8432SOL     OW36931   2.196   3.575   6.748  0.1769  0.5185  0.1597
 8432SOL    HW136932   2.261   3.505   6.750 -1.0132 -0.5987 -0.0213
 8432SOL    HW236933   2.143   3.548   6.673 -0.4117 -1.6356  1.3349
 8433SOL     OW36934   4.357   0.659  14.502  0.2307 -0.0463 -0.2410
 8433SOL    HW136935   4.391   0.570  14.505 -1.8590 -0.8334  0.1613
 8433SOL    HW236936   4.308   0.669  14.420 -0.9846 -1.1847  0.3558
 8434SOL     OW36937   2.163   3.030   3.456 -0.6907 -0.1900 -0.2244
 8434SOL    HW136938   2.197   2.979   3.529 -0.2743  0.2474 -0.1041
 8434SOL    HW236939   2.166   3.117   3.497 -3.2673  1.3108 -3.1964
 8435SOL     OW36940   2.161   4.606   8.329 -0.2388 -0.5623 -0.4464
 8435SOL    HW136941   2.222   4.607   8.255  1.1332  0.5428  0.7048
 8435SOL    HW236942   2.223   4.578   8.396 -0.2165  0.2803 -0.1152
 8436SOL     OW36943   4.565   0.006  14.316  0.4827 -0.6082  0.3739
 8436SOL    HW136944   4.552   0.014  14.222  0.3705 -3.2220  0.1630
 8436SOL    HW236945   4.580   0.096  14.346  1.6009 -0.6425 -0.0930
 8437SOL     OW36946   3.543   0.474   3.773  0.2336 -0.0641  0.0568
 8437SOL    HW136947   3.545   0.384   3.806  0.5824 -0.1081 -0.0958
 8437SOL    HW236948   3.595   0.466   3.693  1.2904  0.7474  0.6635
 8438SOL     OW36949   4.484   0.992   7.935  0.1457 -0.5131  0.7265
 8438SOL    HW136950   4.461   0.917   7.991 -2.0365 -0.6028 -0.2962
 8438SOL    HW236951   4.573   1.011   7.964  0.2281  2.6858 -1.6808
 8439SOL     OW36952   4.310   0.899   2.392 -0.1953  0.2123 -0.5615
 8439SOL    HW136953   4.271   0.811   2.383  1.2002 -0.3439 -1.1054
 8439SOL    HW236954   4.351   0.913   2.307 -0.1590  2.0330 -0.2501
 8440SOL     OW36955   1.293   1.769   0.806 -0.3560 -0.0055  0.7450
 8440SOL    HW136956   1.302   1.693   0.749 -1.3075  2.1004 -2.2085
 8440SOL    HW236957   1.238   1.818   0.745 -0.4777  0.1174  0.9534
 8441SOL     OW36958   4.374   4.419   8.362 -0.3057 -0.1610 -0.0702
 8441SOL    HW136959   4.363   4.424   8.267  1.6890 -0.2411 -0.3187
 8441SOL    HW236960   4.465   4.448   8.373 -0.4090  0.0391  0.2265
 8442SOL     OW36961   1.492   0.358   9.424 -0.4131  0.6257 -0.1011
 8442SOL    HW136962   1.463   0.368   9.514 -1.5454 -0.6969 -0.3111
 8442SOL    HW236963   1.443   0.418   9.367 -1.1758 -0.7102 -0.8577
 8443SOL     OW36964   0.983   3.448   7.520 -0.1285 -0.0671  0.1798
 8443SOL    HW136965   1.074   3.477   7.526  0.1006 -0.1516 -3.0710
 8443SOL    HW236966   1.000   3.354   7.524  0.0917 -0.0416 -0.1005
 8444SOL     OW36967   0.738   2.279   2.834  0.9545  0.5363 -0.5218
 8444SOL    HW136968   0.724   2.193   2.874  0.1514  1.4560  1.1595
 8444SOL    HW236969   0.647   2.309   2.836  0.3354 -1.3319 -1.1004
 8445SOL     OW36970   2.016   3.548   5.250  0.5017  0.7486  0.0653
 8445SOL    HW136971   1.962   3.563   5.327 -1.8165  0.8589 -1.5734
 8445SOL    HW236972   1.956   3.574   5.179 -2.6720  2.0929  3.2525
 8446SOL     OW36973   4.721   3.483   4.072 -0.8357  0.6394 -0.8791
 8446SOL    HW136974   4.669   3.427   4.015 -0.5237  0.8163 -1.3408
 8446SOL    HW236975   0.009   3.551   4.009 -0.1296  2.8285  1.7777
 8447SOL     OW36976   0.779   1.693   4.896 -0.0710  0.3426 -0.3257
 8447SOL    HW136977   0.846   1.713   4.962 -0.8784 -2.5434  1.3948
 8447SOL    HW236978   0.701   1.706   4.949  1.5433  2.0238  1.6419
 8448SOL     OW36979   1.180   4.112  16.145  0.0826 -0.4157 -0.4546
 8448SOL    HW136980   1.119   4.183  16.127  0.2636  0.3705  2.0910
 8448SOL    HW236981   1.244   4.161  16.197 -0.5550  0.4619 -0.5025
 8449SOL     OW36982   2.248   2.954   1.852 -0.3288  0.0500  0.0059
 8449SOL    HW136983   2.214   3.037   1.887 -1.0076  0.7639 -2.3706
 8449SOL    HW236984   2.163   2.909   1.851 -1.2723  1.8550 -0.2267
 8450SOL     OW36985   3.478   4.506   1.844 -0.0774  0.0910 -0.6260
 8450SOL    HW136986   3.448   4.597   1.838 -1.0266 -0.1150  1.0586
 8450SOL    HW236987   3.510   4.483   1.756  3.2612  3.1977 -0.2591
 8451SOL     OW36988   0.741   4.186   1.988  0.0870 -0.4528 -0.1276
 8451SOL    HW136989   0.660   4.135   1.994 -0.3194  0.0393 -1.3538
 8451SOL    HW236990   0.747   4.206   2.081  0.2458  1.0099 -0.4462
 8452SOL     OW36991   2.636   0.027   2.811  0.0519 -0.5285 -0.6440
 8452SOL    HW136992   2.599   4.715   2.884  0.4106 -1.1978 -0.9204
 8452SOL    HW236993   2.571   0.097   2.805 -1.6027 -1.7157  3.0963
 8453SOL     OW36994   4.257   3.065   8.907 -0.6210  0.5932 -0.5533
 8453SOL    HW136995   4.302   2.981   8.893 -1.2390  0.0529  0.7921
 8453SOL    HW236996   4.299   3.117   8.838 -1.9209  0.9456 -1.0765
 8454SOL     OW36997   2.438   2.335   4.857  0.2988 -0.1006  0.2417
 8454SOL    HW136998   2.349   2.301   4.858  0.4862 -0.7346 -2.8434
 8454SOL    HW236999   2.463   2.315   4.766  1.0344  0.2713  0.3675
 8455SOL     OW37000   4.160   4.158   6.076 -0.1267 -0.2266 -0.2306
 8455SOL    HW137001   4.113   4.133   6.155  1.3445 -1.4885  0.2483
 8455SOL    HW237002   4.240   4.194   6.115  0.3788 -1.0335 -0.5465
 8456SOL     OW37003   0.157   2.207   7.750 -0.1346  0.0652 -0.7689
 8456SOL    HW137004   0.069   2.239   7.731 -0.0887  0.4385 -0.3680
 8456SOL    HW237005   0.146   2.157   7.831 -3.1594  0.8986 -0.6762
 8457SOL     OW37006   3.278   4.340   1.947  0.1853 -0.9399  0.1775
 8457SOL    HW137007   3.215   4.355   1.876 -0.9622 -0.6561  1.2458
 8457SOL    HW237008   3.348   4.399   1.920  0.3616 -1.6334 -0.9031
 8458SOL     OW37009   1.895   3.241   2.794  0.6564 -0.4760  0.2042
 8458SOL    HW137010   1.872   3.222   2.885  1.6382  0.7484  0.7110
 8458SOL    HW237011   1.985   3.211   2.783 -0.1745 -2.6941 -0.3841
 8459SOL     OW37012   1.413   0.387   7.776 -0.0776  0.2729 -0.0548
 8459SOL    HW137013   1.366   0.381   7.693  0.3456 -2.0365 -0.1366
 8459SOL    HW237014   1.354   0.447   7.821 -2.6310 -2.0045 -0.4107
 8460SOL     OW37015   4.178   3.790   4.407  0.2016 -0.0501 -0.9610
 8460SOL    HW137016   4.207   3.867   4.358 -1.7098 -0.2216 -2.3686
 8460SOL    HW237017   4.084   3.796   4.393 -0.0434  1.2440  1.2180
 8461SOL     OW37018   2.053   2.042   8.389 -0.1150 -0.1447  0.0720
 8461SOL    HW137019   2.025   2.027   8.480  0.5580  1.0857  0.4793
 8461SOL    HW237020   2.142   2.076   8.398 -0.7913  0.5035  4.7204
 8462SOL     OW37021   3.999   4.182  10.800 -0.2271 -0.3847 -0.3901
 8462SOL    HW137022   4.017   4.103  10.850 -0.8259 -0.0447  0.3773
 8462SOL    HW237023   4.031   4.252  10.858 -3.9450  1.7016 -0.8169
 8463SOL     OW37024   2.218   0.249   6.223  0.0218  0.0415  0.0498
 8463SOL    HW137025   2.311   0.270   6.228  0.6060 -2.3518 -0.6752
 8463SOL    HW237026   2.197   0.264   6.315 -2.2513 -1.3000 -0.2460
 8464SOL     OW37027   4.417   3.431   8.018 -0.2046  0.1567 -0.0503
 8464SOL    HW137028   4.439   3.338   8.015 -0.5173  0.0760  0.0992
 8464SOL    HW237029   4.405   3.443   8.113 -0.6156 -1.8214  0.1466
 8465SOL     OW37030   2.356   0.172   7.521 -0.2280 -0.4392 -0.5291
 8465SOL    HW137031   2.288   0.105   7.520 -0.3973 -0.3100  1.2617
 8465SOL    HW237032   2.401   0.159   7.438 -1.3349  2.7220 -1.6136
 8466SOL     OW37033   3.509   0.662   8.439 -0.0250 -0.5821 -0.1089
 8466SOL    HW137034   3.597   0.654   8.476 -0.0274  0.8973  0.2191
 8466SOL    HW237035   3.509   0.734   8.376 -3.5650 -2.6727 -2.4896
 8467SOL     OW37036   2.622   4.178   3.249  0.1207  0.0468 -0.2614
 8467SOL    HW137037   2.708   4.177   3.208  0.6300 -1.2111  0.8722
 8467SOL    HW237038   2.629   4.166   3.344 -0.6203 -1.1862 -0.3652
 8468SOL     OW37039   1.430   0.695   5.243  0.2051 -0.4027 -0.2224
 8468SOL    HW137040   1.407   0.604   5.228 -0.8707 -0.4674  1.8675
 8468SOL    HW237041   1.496   0.697   5.174  1.1061 -0.7681  0.6338
 8469SOL     OW37042   3.106   1.121   3.009 -0.4247 -0.3880  0.2448
 8469SOL    HW137043   3.088   1.123   2.915 -1.6505  1.1550  0.5172
 8469SOL    HW237044   3.122   1.216   3.009  2.0753 -0.8034 -1.3918
 8470SOL     OW37045   1.000   4.348   2.882  0.2709  0.3275 -0.3643
 8470SOL    HW137046   0.934   4.396   2.932  0.3175 -1.6909  1.6272
 8470SOL    HW237047   1.055   4.324   2.957 -3.0130 -2.0881  1.2304
 8471SOL     OW37048   1.002   0.405   2.270 -0.0150  0.3367 -0.1261
 8471SOL    HW137049   1.060   0.456   2.327 -0.2498 -1.1315  1.4285
 8471SOL    HW237050   1.011   0.451   2.187 -1.2353  2.0226  0.6454
 8472SOL     OW37051   3.770   2.947   6.133  0.3903 -0.0141  0.1075
 8472SOL    HW137052   3.689   2.979   6.173  0.0815 -0.1528 -0.4143
 8472SOL    HW237053   3.824   3.026   6.122 -1.5054  1.0887 -1.2096
 8473SOL     OW37054   0.015   1.967  16.213 -0.9802 -0.1909  0.2077
 8473SOL    HW137055   4.666   1.977  16.173 -1.9126 -0.3063  2.2143
 8473SOL    HW237056   4.730   1.929  16.298  3.0823 -3.0865  0.0086
 8474SOL     OW37057   3.853   2.753   3.345  0.1770  0.1965  0.0836
 8474SOL    HW137058   3.875   2.661   3.359  1.6240  0.3546 -1.0863
 8474SOL    HW237059   3.895   2.755   3.258  1.5521 -0.0437  0.7439
 8475SOL     OW37060   2.429   0.677   6.468  0.0052  0.0472 -0.2817
 8475SOL    HW137061   2.333   0.673   6.475  0.1754  0.2100  2.1232
 8475SOL    HW237062   2.439   0.583   6.486  0.9908  0.2467  0.1760
 8476SOL     OW37063   1.548   0.524   8.905  0.3033  0.8746 -0.2616
 8476SOL    HW137064   1.600   0.454   8.946 -0.4085 -0.0715 -0.9862
 8476SOL    HW237065   1.612   0.595   8.915 -0.3725  1.3296  0.7914
 8477SOL     OW37066   1.452   3.477   9.451 -0.0044  0.1948 -0.3149
 8477SOL    HW137067   1.422   3.389   9.427 -3.0348  0.4183  2.6757
 8477SOL    HW237068   1.366   3.517   9.465  0.3287  1.9675 -3.3986
 8478SOL     OW37069   0.022   1.908  13.491 -0.2568  0.1283 -0.5950
 8478SOL    HW137070   0.023   1.945  13.579 -2.8961  0.1381 -0.5764
 8478SOL    HW237071   4.665   1.905  13.476 -0.5657 -1.4154  1.7487
 8479SOL     OW37072   0.693   2.334   6.560  0.0048  0.0273  0.4860
 8479SOL    HW137073   0.628   2.390   6.517  0.8762  0.6251 -0.0552
 8479SOL    HW237074   0.681   2.362   6.651  0.9289 -1.2605  1.0091
 8480SOL     OW37075   1.171   4.231   1.112 -0.3347 -0.3641  0.2590
 8480SOL    HW137076   1.242   4.261   1.055  2.1176 -2.0977  2.3979
 8480SOL    HW237077   1.180   4.136   1.110 -0.2831 -0.2570 -3.4671
 8481SOL     OW37078   1.763   0.323   9.848  0.1248 -0.5697  0.0220
 8481SOL    HW137079   1.841   0.371   9.821  0.9942 -1.0143  1.7462
 8481SOL    HW237080   1.759   0.265   9.771 -1.1180 -0.1881 -0.1989
 8482SOL     OW37081   0.380   4.294   6.078 -0.0613  0.5935  0.8341
 8482SOL    HW137082   0.419   4.214   6.113 -0.2749  1.3526  2.8039
 8482SOL    HW237083   0.337   4.261   5.999  0.3982 -0.3979  1.0035
 8483SOL     OW37084   3.149   0.760  13.989  0.0314  0.1853 -0.7530
 8483SOL    HW137085   3.154   0.817  13.913  1.0386  1.6920  0.4478
 8483SOL    HW237086   3.175   0.823  14.056 -2.1488  0.3223 -0.0265
 8484SOL     OW37087   3.030   2.134   2.551 -0.1291 -0.3240  0.6735
 8484SOL    HW137088   3.077   2.199   2.499 -0.2534 -3.3267 -3.1975
 8484SOL    HW237089   2.985   2.081   2.485  1.0792 -0.9406  0.3434
 8485SOL     OW37090   0.120   1.184   3.387 -0.2886  0.3335 -0.2741
 8485SOL    HW137091   0.075   1.267   3.372 -2.4382 -1.1100 -1.7321
 8485SOL    HW237092   0.209   1.204   3.356 -0.6712 -0.8564 -2.1150
 8486SOL     OW37093   3.961   4.082   9.099  0.0236  0.3072  0.1307
 8486SOL    HW137094   3.908   4.041   9.031  1.7536 -0.7176 -0.5851
 8486SOL    HW237095   3.980   4.158   9.043  1.4403  0.9491  1.4902
 8487SOL     OW37096   0.077   2.144   1.459  0.4780  0.4049  0.3933
 8487SOL    HW137097   0.015   2.202   1.416 -0.0957 -0.2616  0.3153
 8487SOL    HW237098   0.031   2.062   1.439  1.3589  0.4424 -1.8236
 8488SOL     OW37099   0.804   3.651   2.823  0.0360  0.6025 -0.3700
 8488SOL    HW137100   0.798   3.555   2.821 -1.3957  0.7377 -2.3713
 8488SOL    HW237101   0.774   3.663   2.733 -0.3656 -1.7114 -0.5526
 8489SOL     OW37102   4.606   4.612  10.088  0.1368 -0.0745  0.8789
 8489SOL    HW137103   4.542   4.604  10.017  0.4828  0.3262  0.5224
 8489SOL    HW237104   4.657   4.692  10.075 -1.2474  0.7426  0.5433
 8490SOL     OW37105   3.384   3.340   3.016  0.0747 -0.5684 -0.0868
 8490SOL    HW137106   3.291   3.351   3.039 -0.8021  0.4225 -4.1542
 8490SOL    HW237107   3.417   3.260   3.059 -1.7493 -1.7511 -0.8748
 8491SOL     OW37108   3.519   0.843   9.082 -0.4546 -0.3412  0.2768
 8491SOL    HW137109   3.578   0.804   9.018 -0.5697  0.7240 -0.4751
 8491SOL    HW237110   3.431   0.806   9.073 -0.3589 -0.2507 -1.0438
 8492SOL     OW37111   2.686   2.130   4.817  0.0583 -0.2833  0.2361
 8492SOL    HW137112   2.732   2.153   4.897 -0.6976 -0.2264  0.6596
 8492SOL    HW237113   2.642   2.213   4.795  0.1263  0.0300  1.2859
 8493SOL     OW37114   2.325   1.897   5.729  0.2800 -0.5353 -0.2088
 8493SOL    HW137115   2.249   1.841   5.746 -2.2453  2.7648 -0.6593
 8493SOL    HW237116   2.310   1.969   5.790  0.5871  0.1314 -0.9317
 8494SOL     OW37117   3.096   3.579   5.773  0.4508 -0.1084 -0.0855
 8494SOL    HW137118   3.076   3.485   5.776 -1.3150  0.3010  0.6044
 8494SOL    HW237119   3.099   3.590   5.678  0.0850  1.2792  0.0634
 8495SOL     OW37120   0.433   4.478  12.311 -0.2741 -0.3520 -0.2861
 8495SOL    HW137121   0.438   4.573  12.304 -0.0734 -0.4447 -1.3213
 8495SOL    HW237122   0.338   4.473  12.305 -0.2894 -0.7808  0.2759
 8496SOL     OW37123   3.059   2.282   0.728  0.2481 -0.2011  0.1699
 8496SOL    HW137124   3.113   2.246   0.658  1.0727  2.6409 -0.6567
 8496SOL    HW237125   3.119   2.303   0.799 -2.3436  1.4319  1.9033
 8497SOL     OW37126   4.187   1.152   2.845 -0.3949 -0.4577 -0.1634
 8497SOL    HW137127   4.123   1.150   2.773 -2.6535 -0.1076  1.8152
 8497SOL    HW237128   4.134   1.111   2.914  0.6205 -1.6234 -0.0832
 8498SOL     OW37129   4.018   4.343  12.854  0.3473  0.3686 -0.8666
 8498SOL    HW137130   4.058   4.259  12.833  0.4059  0.2337 -0.2107
 8498SOL    HW237131   4.045   4.344  12.945 -0.6317  1.6024 -0.5770
 8499SOL     OW37132   0.672   3.249  14.608  0.2206  0.3141 -0.1689
 8499SOL    HW137133   0.629   3.167  14.632 -1.4411  1.3356  0.3494
 8499SOL    HW237134   0.734   3.217  14.542 -0.5827  0.4780 -1.0139
 8500SOL     OW37135   1.503   3.783   9.152 -0.7109 -0.4988 -0.2836
 8500SOL    HW137136   1.508   3.796   9.057 -0.5557  3.1357  0.2202
 8500SOL    HW237137   1.486   3.871   9.186  0.2389 -0.1253 -0.7889
 8501SOL     OW37138   3.927   0.396   0.551  0.0240  0.2175  0.2584
 8501SOL    HW137139   3.869   0.452   0.498  0.6354  0.9771  0.3945
 8501SOL    HW237140   3.997   0.386   0.487 -0.0087 -2.0154  0.5752
 8502SOL     OW37141   4.600   4.277   5.065  0.0924  0.1193  0.0957
 8502SOL    HW137142   4.555   4.328   5.133  1.3952  0.2877  0.8389
 8502SOL    HW237143   4.681   4.327   5.053  0.8109 -1.9955 -3.5018
 8503SOL     OW37144   3.212   1.425   5.820 -0.2148 -0.1468  0.6003
 8503SOL    HW137145   3.168   1.443   5.903 -0.6917 -0.2471  0.3693
 8503SOL    HW237146   3.197   1.331   5.808  0.2548 -0.3722  1.7927
 8504SOL     OW37147   0.568   1.221   0.545  0.2679  0.1073  0.3509
 8504SOL    HW137148   0.593   1.133   0.573  1.1836 -0.0135 -0.8297
 8504SOL    HW237149   0.633   1.242   0.479 -1.1213  1.3594 -0.6153
 8505SOL     OW37150   0.542   2.035  17.450  0.2858 -0.1824  0.1859
 8505SOL    HW137151   0.619   2.013  17.503  0.7097 -0.1776 -0.4244
 8505SOL    HW237152   0.470   1.993  17.498  0.1472 -1.0247 -0.7588
 8506SOL     OW37153   4.041   3.575   6.179 -0.6711  0.7226  0.0838
 8506SOL    HW137154   4.024   3.545   6.089 -0.5084  0.7625  0.0401
 8506SOL    HW237155   4.133   3.547   6.180 -1.1090 -0.7932 -1.5967
 8507SOL     OW37156   1.214   1.152  16.985  0.3623 -0.4298  0.0351
 8507SOL    HW137157   1.300   1.126  16.950  0.5037 -0.1804  0.1974
 8507SOL    HW237158   1.164   1.071  16.992 -2.6985  1.3401 -1.6904
 8508SOL     OW37159   4.109   1.832   0.385  0.5986 -0.2283  0.1621
 8508SOL    HW137160   4.017   1.837   0.358  0.4840  0.3546  0.6463
 8508SOL    HW237161   4.118   1.737   0.387  0.5456 -0.2599 -1.8314
 8509SOL     OW37162   2.551   0.049   7.320  0.1343  0.1600 -0.4054
 8509SOL    HW137163   2.558   0.093   7.235 -0.7307 -0.8893 -1.0250
 8509SOL    HW237164   2.641   0.043   7.350 -0.2921 -0.1628  0.7985
 8510SOL     OW37165   0.184   2.779  17.716 -0.1820  0.1624  0.0808
 8510SOL    HW137166   0.118   2.763  17.648  0.2277 -0.1295 -0.2508
 8510SOL    HW237167   0.132   2.811   0.040  2.7912 -1.5860  2.8958
 8511SOL     OW37168   3.462   1.789   7.426 -0.3452 -0.2433  0.3158
 8511SOL    HW137169   3.406   1.863   7.449 -1.8584 -2.0562  2.3876
 8511SOL    HW237170   3.518   1.766   7.501  0.0286 -1.2016 -0.2456
 8512SOL     OW37171   3.564   2.251   9.888  0.3037  0.9867 -0.1332
 8512SOL    HW137172   3.646   2.288   9.857  0.9591 -2.0317 -2.0094
 8512SOL    HW237173   3.515   2.328   9.917 -0.8462 -0.2121  1.1519
 8513SOL     OW37174   0.135   2.661   7.840  0.3906 -0.5111 -0.5392
 8513SOL    HW137175   0.230   2.673   7.833  0.4078 -0.3458  0.0397
 8513SOL    HW237176   0.121   2.614   7.922  0.3433  0.1439 -0.1754
 8514SOL     OW37177   4.578   2.062   0.186 -0.2198 -0.2786  0.1236
 8514SOL    HW137178   4.494   2.017   0.188 -0.5994  0.4743  1.6162
 8514SOL    HW237179   4.592   2.091   0.096  2.2127  1.8796  1.1846
 8515SOL     OW37180   3.282   3.196  14.085 -0.3419 -0.5302 -0.4488
 8515SOL    HW137181   3.275   3.145  14.004 -0.2070  0.3210 -0.9907
 8515SOL    HW237182   3.289   3.127  14.151  1.8978  1.3124  1.2741
 8516SOL     OW37183   1.786   0.250   6.698 -1.0216  0.4947  0.5518
 8516SOL    HW137184   1.820   0.161   6.699 -0.2516  0.8109  1.7847
 8516SOL    HW237185   1.820   0.286   6.616  0.4435 -0.3459  0.7967
 8517SOL     OW37186   2.680   0.935   0.100 -0.2597  0.5309 -0.3020
 8517SOL    HW137187   2.773   0.940   0.125  0.8100 -2.4061 -3.7093
 8517SOL    HW237188   2.697   0.941   0.006 -0.0179  0.2626 -0.2774
 8518SOL     OW37189   3.528   0.108   1.121  0.1075  0.3144 -0.2142
 8518SOL    HW137190   3.543   0.203   1.121  2.4681 -0.0417 -1.4436
 8518SOL    HW237191   3.459   0.099   1.056  0.3779 -1.5657 -0.2214
 8519SOL     OW37192   1.970   1.382  16.659 -0.6467 -0.8829  0.0361
 8519SOL    HW137193   1.980   1.477  16.652 -2.5471 -0.4756  3.3819
 8519SOL    HW237194   1.932   1.379  16.746  0.6695  2.4915  0.7153
 8520SOL     OW37195   0.028   1.077   8.375 -0.1144 -0.8674 -0.1175
 8520SOL    HW137196   0.017   1.171   8.361 -0.8386 -1.0959 -1.0221
 8520SOL    HW237197   4.678   1.056   8.407 -0.8527 -2.6829 -3.3666
 8521SOL     OW37198   2.142   4.008  10.038  0.2578 -0.4678  0.4100
 8521SOL    HW137199   2.107   3.952  10.107 -0.0076  0.0211  0.6762
 8521SOL    HW237200   2.227   4.035  10.071  0.0833  1.2086 -0.4913
 8522SOL     OW37201   0.580   1.991   5.406  0.2076 -0.3435 -0.7510
 8522SOL    HW137202   0.536   2.074   5.388  1.3286  1.6165  5.4670
 8522SOL    HW237203   0.657   2.024   5.453 -1.3652  1.0571  0.8162
 8523SOL     OW37204   0.694   0.280  17.055  0.2624 -0.4849  0.2807
 8523SOL    HW137205   0.769   0.237  17.014  0.4858 -0.7513  0.9721
 8523SOL    HW237206   0.634   0.277  16.981  0.8023 -0.1079 -0.1760
 8524SOL     OW37207   4.617   3.552   8.448  0.0842 -0.1474  0.0049
 8524SOL    HW137208   4.690   3.566   8.509 -1.2155 -2.0199  1.9891
 8524SOL    HW237209   4.666   3.550   8.366 -0.8767  0.5086 -0.5777
 8525SOL     OW37210   3.903   2.922  17.061  0.0371 -0.5319 -0.0395
 8525SOL    HW137211   3.909   2.859  17.133  1.0403 -0.4272 -0.0359
 8525SOL    HW237212   3.846   2.986  17.103  1.3928 -0.6766  1.9828
 8526SOL     OW37213   0.691   1.001   2.229  0.0704 -0.1320  0.0096
 8526SOL    HW137214   0.737   1.054   2.294  3.2955 -1.6383 -1.0558
 8526SOL    HW237215   0.612   0.975   2.275 -0.3491  2.7389  0.9313
 8527SOL     OW37216   2.590   4.112   5.067 -0.0581 -0.0991  0.3669
 8527SOL    HW137217   2.579   4.152   5.153 -1.7394  0.1406  0.0245
 8527SOL    HW237218   2.686   4.111   5.073 -0.0563 -1.1572  0.2771
 8528SOL     OW37219   1.457   4.163  10.617  0.7392  0.7388 -0.2086
 8528SOL    HW137220   1.532   4.223  10.620  1.5869 -0.1843 -2.8283
 8528SOL    HW237221   1.467   4.102  10.544  2.5797 -0.0689  0.7008
 8529SOL     OW37222   0.294   0.593   3.059  0.3142  0.6687  0.3021
 8529SOL    HW137223   0.352   0.579   3.134 -1.2552  0.3096  1.4606
 8529SOL    HW237224   0.215   0.591   3.113  1.9621 -1.9901  2.6008
 8530SOL     OW37225   1.984   1.171   1.953  0.4389  0.7739  0.0154
 8530SOL    HW137226   2.062   1.204   1.909  0.7651 -0.1367 -0.1060
 8530SOL    HW237227   1.918   1.230   1.916  1.5693  0.2807 -2.8354
 8531SOL     OW37228   3.219   4.292   4.860  0.1798 -0.2961  0.7816
 8531SOL    HW137229   3.161   4.368   4.857  0.2584 -0.2369  0.7582
 8531SOL    HW237230   3.154   4.222   4.867 -0.0517  0.0024  1.6374
 8532SOL     OW37231   0.440   0.181   4.336 -0.1051 -0.0921  0.0315
 8532SOL    HW137232   0.437   0.258   4.278  0.0756 -0.8950 -1.0368
 8532SOL    HW237233   0.536   0.174   4.330 -0.0923 -0.4476  0.6873
 8533SOL     OW37234   2.070   2.519  11.483  0.1389 -0.0103 -0.5332
 8533SOL    HW137235   2.056   2.501  11.390 -1.8040  1.1110 -0.4640
 8533SOL    HW237236   2.051   2.612  11.473 -2.2788 -0.3601  0.8448
 8534SOL     OW37237   2.746   0.969   5.137 -0.0461 -0.1473  0.0809
 8534SOL    HW137238   2.815   0.987   5.201 -0.6673 -2.3574  1.3450
 8534SOL    HW237239   2.786   0.997   5.054 -0.5805 -1.0352 -0.4774
 8535SOL     OW37240   2.752   2.432   4.468  0.3678 -0.0920 -0.3390
 8535SOL    HW137241   2.728   2.458   4.379  1.7463 -1.7006 -1.1848
 8535SOL    HW237242   2.847   2.422   4.460  0.1661 -0.0701 -2.6404
 8536SOL     OW37243   0.596   1.492  10.298 -0.0109  0.1423  0.7131
 8536SOL    HW137244   0.686   1.462  10.315 -0.2618 -0.8262  0.3529
 8536SOL    HW237245   0.554   1.443  10.369  2.0631 -1.3478  0.9132
 8537SOL     OW37246   0.426   0.949   5.311 -0.0766  0.2615  0.1976
 8537SOL    HW137247   0.370   0.881   5.274  0.2312  0.4308 -0.5788
 8537SOL    HW237248   0.507   0.934   5.263  1.1618 -1.6879  2.8910
 8538SOL     OW37249   3.961   2.344   6.320  0.0319 -0.3562 -0.1805
 8538SOL    HW137250   3.880   2.394   6.334  1.6271  1.3954  2.6798
 8538SOL    HW237251   3.987   2.381   6.235  0.3215  1.7814  0.8365
 8539SOL     OW37252   3.475   2.346   4.729  0.2000  0.2825  0.5887
 8539SOL    HW137253   3.457   2.422   4.784  0.4928 -0.5290  1.8191
 8539SOL    HW237254   3.545   2.375   4.670 -0.5225  1.7652  0.4638
 8540SOL     OW37255   4.184   1.421  11.837 -0.5716  0.3901 -0.0937
 8540SOL    HW137256   4.254   1.376  11.884 -2.1551 -1.5841  0.3910
 8540SOL    HW237257   4.220   1.510  11.841  3.2139 -1.1195 -0.3879
 8541SOL     OW37258   4.213   0.768  11.343 -0.1969  1.0427  0.9498
 8541SOL    HW137259   4.150   0.733  11.407 -0.4054 -0.9438 -0.3217
 8541SOL    HW237260   4.294   0.752  11.392 -0.6599  1.1565  1.7473
 8542SOL     OW37261   2.460   2.234  11.998  0.2477 -0.2042  0.6869
 8542SOL    HW137262   2.367   2.248  11.978 -0.1674  0.8907  3.2761
 8542SOL    HW237263   2.499   2.318  11.973 -1.5887  0.3109 -0.5280
 8543SOL     OW37264   1.838   4.610   2.157 -0.3993 -0.0987 -0.1790
 8543SOL    HW137265   1.900   4.653   2.216 -0.8012 -1.0615  0.9373
 8543SOL    HW237266   1.896   4.567   2.095 -0.1690 -1.6101  1.1002
 8544SOL     OW37267   3.006   0.684   4.184  0.7930 -0.1771 -0.1394
 8544SOL    HW137268   2.976   0.775   4.187 -1.3836 -0.9059  0.1670
 8544SOL    HW237269   3.097   0.699   4.212  0.8764 -0.1548 -0.4226
 8545SOL     OW37270   0.508   1.643  15.992 -0.3319  0.2343 -0.4419
 8545SOL    HW137271   0.576   1.575  15.998  0.4759  1.0226 -0.6871
 8545SOL    HW237272   0.484   1.653  16.084  2.5671 -1.8288  0.5404
 8546SOL     OW37273   2.908   1.581   3.960 -0.9025 -0.1647 -0.0612
 8546SOL    HW137274   2.843   1.510   3.951  0.3889 -0.8613 -3.8987
 8546SOL    HW237275   2.860   1.653   4.001  1.2537  1.8560 -1.1177
 8547SOL     OW37276   3.824   4.538   0.113  0.0582  0.6036 -1.1717
 8547SOL    HW137277   3.906   4.492   0.094 -0.0375 -0.3126  0.6633
 8547SOL    HW237278   3.779   4.529   0.029 -1.0815 -0.7957 -0.4186
 8548SOL     OW37279   0.068   0.352   6.897  0.0400 -0.2920 -0.2497
 8548SOL    HW137280   0.122   0.371   6.974  0.5371 -0.3707 -0.5816
 8548SOL    HW237281   0.094   0.263   6.871 -0.0988 -0.2878 -0.3994
 8549SOL     OW37282   0.357   3.150   5.334 -0.0027  0.0213  0.1080
 8549SOL    HW137283   0.408   3.138   5.414 -0.3075 -0.5714  0.2163
 8549SOL    HW237284   0.438   3.151   5.284  1.0006  1.8903  1.7702
 8550SOL     OW37285   3.685   2.671   2.957  0.7438  0.1621  0.0718
 8550SOL    HW137286   3.725   2.696   2.874 -1.3425  1.2307 -0.6033
 8550SOL    HW237287   3.648   2.585   2.937  0.9940  0.4664 -1.6805
 8551SOL     OW37288   1.241   2.119  14.553  0.4223 -0.0859  0.7734
 8551SOL    HW137289   1.308   2.158  14.607 -1.5959 -1.5122  4.3166
 8551SOL    HW237290   1.186   2.071  14.615 -0.5706  0.6837  0.4824
 8552SOL     OW37291   3.140   0.999   5.317 -0.4820  0.0117  0.5360
 8552SOL    HW137292   3.047   0.994   5.338 -0.7962 -1.1491 -1.1161
 8552SOL    HW237293   3.127   1.004   5.223  0.7807  0.1047  0.3630
 8553SOL     OW37294   1.369   3.981   7.540 -0.2349  0.4515 -0.2195
 8553SOL    HW137295   1.370   3.985   7.636  0.2889 -0.9556 -0.1538
 8553SOL    HW237296   1.432   3.911   7.520  0.4153  0.9950 -0.0808
 8554SOL     OW37297   3.420   3.623   5.136  0.4709  0.2764 -0.2129
 8554SOL    HW137298   3.423   3.708   5.179 -0.0779  1.3649 -2.3778
 8554SOL    HW237299   3.365   3.578   5.200 -0.6928  0.5666 -1.0264
 8555SOL     OW37300   0.371   1.149   2.208  0.0779 -0.2166 -0.3988
 8555SOL    HW137301   0.452   1.159   2.159  0.0961  0.4292 -0.2316
 8555SOL    HW237302   0.318   1.205   2.151  3.7241  2.9442 -0.6642
 8556SOL     OW37303   0.570   0.200  16.811 -0.3909 -0.1957 -0.6744
 8556SOL    HW137304   0.610   0.154  16.737  2.0450  1.1243 -0.2016
 8556SOL    HW237305   0.569   0.294  16.793 -3.0123 -0.0526  0.2694
 8557SOL     OW37306   2.616   1.744   3.729 -0.1729 -0.4587 -0.0578
 8557SOL    HW137307   2.526   1.736   3.696 -0.2621 -0.8998  0.2921
 8557SOL    HW237308   2.658   1.816   3.682  0.9270  0.5494  2.4760
 8558SOL     OW37309   3.826   4.190  10.590 -0.2052  0.0544  0.3203
 8558SOL    HW137310   3.889   4.188  10.662 -0.0225  1.3668  0.1937
 8558SOL    HW237311   3.805   4.283  10.592 -1.9942 -0.3101 -1.1635
 8559SOL     OW37312   1.613   4.076   6.242 -0.1886  0.0962  0.1533
 8559SOL    HW137313   1.606   4.032   6.327  3.4232 -1.7403 -0.5389
 8559SOL    HW237314   1.695   4.124   6.252 -0.1876  0.1847 -0.2951
 8560SOL     OW37315   3.497   3.793   3.611 -0.1076  0.6731 -0.1722
 8560SOL    HW137316   3.551   3.715   3.620  0.4987  1.2243  0.9573
 8560SOL    HW237317   3.519   3.806   3.519  0.1622  0.4588 -0.1391
 8561SOL     OW37318   4.486   3.131  11.530 -0.3718 -0.0089 -0.1134
 8561SOL    HW137319   4.481   3.190  11.455  0.6229 -0.3075 -0.4176
 8561SOL    HW237320   4.505   3.184  11.608 -0.7904  0.9566 -0.6658
 8562SOL     OW37321   0.984   0.480  10.216 -0.2210  0.2838 -0.6194
 8562SOL    HW137322   0.943   0.494  10.131 -1.9724  1.0080  0.3605
 8562SOL    HW237323   0.909   0.471  10.274  0.2635  0.5524  0.0486
 8563SOL     OW37324   1.314   1.315   6.908  0.2294 -0.1976 -0.2923
 8563SOL    HW137325   1.313   1.335   7.001  1.5666  1.4704 -0.6458
 8563SOL    HW237326   1.243   1.250   6.911 -0.4922  0.5826 -0.6239
 8564SOL     OW37327   1.250   4.461  17.572 -0.5078  0.5819  0.1600
 8564SOL    HW137328   1.228   4.418  17.489 -0.2410  0.2976  0.2383
 8564SOL    HW237329   1.177   4.419  17.618  0.4217 -0.7427  0.4208
 8565SOL     OW37330   4.700   3.182  12.912 -1.0012  0.4471 -0.2907
 8565SOL    HW137331   4.659   3.101  12.941  1.1899 -0.5026  0.1504
 8565SOL    HW237332   0.047   3.179  12.957 -0.1105 -0.8792 -2.0618
 8566SOL     OW37333   2.985   0.178  16.102  0.1009 -0.0124  0.1604
 8566SOL    HW137334   3.072   0.213  16.122  0.0930 -0.4924  1.0568
 8566SOL    HW237335   2.970   0.133  16.186  1.3803 -3.0492 -1.2209
 8567SOL     OW37336   2.539   3.394   9.119  0.0818  0.3169 -0.5157
 8567SOL    HW137337   2.530   3.451   9.042 -0.2143  0.3515 -0.4551
 8567SOL    HW237338   2.556   3.453   9.192 -1.2670  1.9432 -1.5341
 8568SOL     OW37339   3.355   2.812   8.701 -1.0003  0.1268 -0.0592
 8568SOL    HW137340   3.312   2.806   8.616 -1.9042  0.9268  0.3280
 8568SOL    HW237341   3.380   2.722   8.719  1.8530  1.2184  1.4768
 8569SOL     OW37342   0.342   2.331  11.058 -0.2903  0.2615 -0.0697
 8569SOL    HW137343   0.393   2.262  11.014  1.7173  2.6183 -1.4036
 8569SOL    HW237344   0.253   2.294  11.059 -0.4683  0.7116  0.6230
 8570SOL     OW37345   1.360   1.638   4.471  0.0974 -0.4158 -0.3008
 8570SOL    HW137346   1.312   1.661   4.551  1.0867  0.9149 -0.0777
 8570SOL    HW237347   1.326   1.688   4.397  2.4917  0.3307 -0.9080
 8571SOL     OW37348   0.872   2.381   7.956 -0.3257  0.4234  0.0902
 8571SOL    HW137349   0.781   2.403   7.935 -0.5900  0.4930  1.3245
 8571SOL    HW237350   0.880   2.286   7.962 -3.2924  0.2218  1.1046
 8572SOL     OW37351   0.362   1.512   1.843  0.6212 -0.0928  0.3975
 8572SOL    HW137352   0.397   1.573   1.779  0.3957 -1.2657 -0.8682
 8572SOL    HW237353   0.383   1.427   1.804 -0.6727  0.4390 -1.4969
 8573SOL     OW37354   0.683   3.558  15.993 -0.1434 -0.0167 -0.0614
 8573SOL    HW137355   0.645   3.645  15.987 -0.7445 -0.1394  1.8578
 8573SOL    HW237356   0.634   3.514  15.924 -1.0596 -1.9581  1.8132
 8574SOL     OW37357   2.007   1.774   4.286 -0.5149 -0.2415  0.1807
 8574SOL    HW137358   2.051   1.724   4.355 -1.9878  0.3399  1.5401
 8574SOL    HW237359   2.021   1.712   4.215  1.8853  1.6220 -0.9993
 8575SOL     OW37360   1.181   3.727   4.666  0.2181  0.7378  0.2107
 8575SOL    HW137361   1.184   3.809   4.618 -0.3212  1.5942  1.6549
 8575SOL    HW237362   1.101   3.686   4.635  0.8965 -0.9658  0.6980
 8576SOL     OW37363   0.153   2.479   7.000  0.3077  0.1026  0.5975
 8576SOL    HW137364   0.197   2.504   6.919 -1.2664 -2.6705 -1.1206
 8576SOL    HW237365   0.080   2.432   6.958  2.2080 -1.0637 -1.3763
 8577SOL     OW37366   1.173   2.915   3.298 -0.0399  1.0519 -0.1558
 8577SOL    HW137367   1.122   2.872   3.366  1.0019 -0.4766 -0.3428
 8577SOL    HW237368   1.223   2.838   3.273  0.0510  0.8787  0.5818
 8578SOL     OW37369   3.879   1.148   4.424  0.3474 -0.0536  0.5662
 8578SOL    HW137370   3.798   1.177   4.382  0.2187  1.4492  1.8271
 8578SOL    HW237371   3.950   1.208   4.400 -0.1443  0.5179  0.5184
 8579SOL     OW37372   0.115   2.489   3.849  0.6966 -0.4183 -0.1237
 8579SOL    HW137373   0.133   2.434   3.773 -0.6549  0.7018 -1.2562
 8579SOL    HW237374   0.041   2.542   3.818 -0.4087 -1.8379  0.0875
 8580SOL     OW37375   4.723   4.188  10.990 -0.4632 -0.2593  0.5143
 8580SOL    HW137376   4.725   4.283  10.978  0.6524 -0.3462  0.0005
 8580SOL    HW237377   4.635   4.175  11.024 -0.6531 -0.3292  0.0046
 8581SOL     OW37378   2.912   3.756   1.616  0.3755  0.0676  0.3979
 8581SOL    HW137379   2.990   3.775   1.668  1.3192  0.6964 -1.2460
 8581SOL    HW237380   2.869   3.693   1.675 -0.9315  2.3755  1.9258
 8582SOL     OW37381   2.324   1.469  11.430  0.2748 -0.1003 -0.9090
 8582SOL    HW137382   2.363   1.381  11.425  1.3804  0.3778 -0.7794
 8582SOL    HW237383   2.346   1.507  11.515  0.1402 -2.4727  0.1872
 8583SOL     OW37384   2.927   0.113  16.691  0.1772  0.1780 -0.2971
 8583SOL    HW137385   2.911   0.203  16.719 -2.4831 -0.0992 -0.8758
 8583SOL    HW237386   3.012   0.124  16.649  0.3295  1.5977  0.3712
 8584SOL     OW37387   1.779   1.110   7.532 -0.3496  0.1042  0.2766
 8584SOL    HW137388   1.857   1.070   7.494 -1.6951 -1.4556 -0.8843
 8584SOL    HW237389   1.782   1.080   7.623  4.3443 -0.1095  0.0363
 8585SOL     OW37390   1.737   4.519   4.449  0.1884 -0.4195 -0.6569
 8585SOL    HW137391   1.718   4.612   4.443  1.4921 -0.2726 -2.4554
 8585SOL    HW237392   1.832   4.525   4.459  0.2167  0.1816 -1.3537
 8586SOL     OW37393   2.495   4.558   2.455  0.0423  0.6538 -0.5174
 8586SOL    HW137394   2.589   4.544   2.446  0.2379  1.2196  0.7348
 8586SOL    HW237395   2.478   4.545   2.548 -1.0039  0.0405 -0.7996
 8587SOL     OW37396   4.721   1.434   6.420 -0.0287 -0.0515 -0.6253
 8587SOL    HW137397   4.723   1.356   6.364  0.9416  0.2418 -1.0042
 8587SOL    HW237398   4.660   1.402   6.487  0.0068 -0.3496 -0.7316
 8588SOL     OW37399   3.846   2.760   7.684 -0.0972 -0.1643 -0.0802
 8588SOL    HW137400   3.778   2.697   7.662  1.1626 -0.7424 -2.2907
 8588SOL    HW237401   3.881   2.720   7.764  1.2498  0.0186 -0.5873
 8589SOL     OW37402   4.367   3.469   6.790 -0.1557  0.1195  0.2517
 8589SOL    HW137403   4.365   3.529   6.865 -1.2817  0.3901  0.0001
 8589SOL    HW237404   4.358   3.532   6.718  2.4897  1.4484  1.0689
 8590SOL     OW37405   0.216   2.183  15.050 -0.1893  0.4976 -0.1189
 8590SOL    HW137406   0.192   2.090  15.051  0.8850  0.2240  1.5482
 8590SOL    HW237407   0.162   2.217  15.122 -1.4825  0.7066 -1.1820
 8591SOL     OW37408   4.680   3.492   4.386 -0.1336  0.1561 -0.0514
 8591SOL    HW137409   4.721   3.497   4.300 -1.6376 -2.2070 -0.9059
 8591SOL    HW237410   4.601   3.440   4.368 -0.4354  0.0970  1.4407
 8592SOL     OW37411   2.097   0.833  13.781 -0.0424 -0.7189  0.3873
 8592SOL    HW137412   2.188   0.849  13.806  0.5883 -0.3900 -2.0847
 8592SOL    HW237413   2.049   0.895  13.836  0.5005  0.2217 -0.2008
 8593SOL     OW37414   0.158   1.772  16.074 -0.1279 -0.0598 -0.8034
 8593SOL    HW137415   0.148   1.794  15.981 -2.9954 -1.5252 -0.8510
 8593SOL    HW237416   0.115   1.842  16.123  1.5504  0.1831  0.3236
 8594SOL     OW37417   0.322   0.920  13.959 -0.2052  0.2016 -0.1174
 8594SOL    HW137418   0.342   1.009  13.988  1.1407 -0.1672  0.0709
 8594SOL    HW237419   0.356   0.931  13.870 -0.1225  1.3082  0.0580
 8595SOL     OW37420   2.113   1.735   5.780 -0.3596  0.0197  0.2577
 8595SOL    HW137421   2.113   1.714   5.873  1.9113 -1.4977 -0.1016
 8595SOL    HW237422   2.154   1.655   5.747 -0.7667 -0.0781 -0.0125
 8596SOL     OW37423   3.154   4.712   6.898  0.2214 -0.5847  0.6368
 8596SOL    HW137424   3.196   0.020   6.826 -0.4525 -1.3108 -0.2103
 8596SOL    HW237425   3.150   0.043   6.965  1.5979 -1.0027  1.1392
 8597SOL     OW37426   3.031   4.675  10.705  0.3452  0.2321 -0.1406
 8597SOL    HW137427   3.081   4.616  10.650  0.1752 -1.8941  1.9751
 8597SOL    HW237428   2.949   4.625  10.701 -1.1338  2.6181  0.1163
 8598SOL     OW37429   1.665   3.340  10.942 -0.3350 -0.2513  0.3750
 8598SOL    HW137430   1.647   3.403  10.871  1.1722 -1.1913 -0.8161
 8598SOL    HW237431   1.759   3.346  10.954 -0.3959 -0.8925  1.1340
 8599SOL     OW37432   3.577   4.013   7.862  0.3142  0.0589  0.1349
 8599SOL    HW137433   3.523   4.091   7.853 -0.0882 -0.1442  0.7605
 8599SOL    HW237434   3.634   4.024   7.787  2.4482  1.4977  1.9738
 8600SOL     OW37435   4.471   3.999   3.753  0.1340 -0.3043  0.6007
 8600SOL    HW137436   4.477   4.034   3.842 -1.8913  0.7382  0.3198
 8600SOL    HW237437   4.465   3.906   3.775 -0.2793 -0.4056  0.0440
 8601SOL     OW37438   0.695   0.001   8.718 -1.0766 -0.3709 -0.1053
 8601SOL    HW137439   0.785   0.031   8.730 -0.9068 -0.1001 -2.0193
 8601SOL    HW237440   0.654   0.083   8.689 -2.0505 -0.0335  2.2387
 8602SOL     OW37441   3.123   4.124   8.652  0.3209 -0.3092 -0.7206
 8602SOL    HW137442   3.217   4.136   8.662 -0.1061 -0.2166  3.5477
 8602SOL    HW237443   3.112   4.031   8.673 -0.3458  0.1584  1.0050
 8603SOL     OW37444   0.917   1.209   7.196  0.1745 -0.3069  0.3078
 8603SOL    HW137445   0.827   1.240   7.201  0.2379  0.6068 -4.1687
 8603SOL    HW237446   0.943   1.265   7.269 -0.5787 -0.9253  1.0481
 8604SOL     OW37447   3.635   0.348  14.338 -0.0041  0.2914 -0.2051
 8604SOL    HW137448   3.593   0.433  14.337  1.1970  0.8927  0.2291
 8604SOL    HW237449   3.591   0.296  14.270  0.2946 -0.3728  0.1104
 8605SOL     OW37450   4.727   4.047   4.148 -0.3088  0.3511  0.2484
 8605SOL    HW137451   0.068   4.003   4.116 -0.4909  0.1393  0.0926
 8605SOL    HW237452   0.020   4.098   4.223 -0.8401  0.9655  0.0435
 8606SOL     OW37453   0.006   1.193   7.426  0.1584  0.0068  0.4902
 8606SOL    HW137454   4.707   1.272   7.387  1.2591  1.1459  1.7390
 8606SOL    HW237455   4.698   1.129   7.373  1.1733 -0.3641  0.0622
 8607SOL     OW37456   0.139   3.559  10.109  0.4783 -0.0215  0.3323
 8607SOL    HW137457   0.208   3.534  10.048  0.8088 -1.1624  1.1667
 8607SOL    HW237458   0.169   3.650  10.114  0.8926 -0.0937 -0.6791
 8608SOL     OW37459   3.848   4.668   7.410 -0.0408  0.5155  0.2215
 8608SOL    HW137460   3.795   4.658   7.331  0.8753 -1.7658 -0.1023
 8608SOL    HW237461   3.817   0.018   7.432  2.1879  1.4715 -0.4310
 8609SOL     OW37462   2.943   0.571   3.933  0.9584  0.0069  0.1660
 8609SOL    HW137463   2.880   0.629   3.891 -0.5413 -4.3023 -3.6101
 8609SOL    HW237464   2.989   0.619   4.002  0.6207 -1.3452  1.3230
 8610SOL     OW37465   1.258   3.857   2.368  0.2892 -0.1316  0.2618
 8610SOL    HW137466   1.349   3.853   2.340  0.4449  1.3658  0.5907
 8610SOL    HW237467   1.218   3.891   2.288 -0.0247  0.9627  0.8929
 8611SOL     OW37468   0.164   3.780   2.115  0.2297  0.5103 -0.7820
 8611SOL    HW137469   0.194   3.807   2.028  0.3976 -2.7029 -1.6922
 8611SOL    HW237470   0.225   3.712   2.142 -0.7972 -0.3246 -0.5931
 8612SOL     OW37471   4.367   1.981   5.410  0.0765 -0.1328  0.0787
 8612SOL    HW137472   4.425   1.908   5.432  0.7770  0.5226  0.4092
 8612SOL    HW237473   4.397   2.050   5.469 -3.9633  2.0116 -0.4283
 8613SOL     OW37474   2.148   3.586   7.654 -0.0711  0.1020  0.3983
 8613SOL    HW137475   2.223   3.640   7.681  0.7479 -0.8605  0.0627
 8613SOL    HW237476   2.143   3.626   7.567  0.0181 -1.9046 -0.5289
 8614SOL     OW37477   1.816   2.233   5.437 -0.4465  0.2578  0.0466
 8614SOL    HW137478   1.853   2.170   5.375 -1.6677 -0.6395  0.2425
 8614SOL    HW237479   1.891   2.235   5.496 -1.5322  0.6259  1.4045
 8615SOL     OW37480   1.948   4.291   5.902 -0.2006  0.5286  0.3343
 8615SOL    HW137481   1.972   4.203   5.873 -0.3029  0.9067 -0.8880
 8615SOL    HW237482   2.010   4.343   5.852 -0.7802  0.0104 -0.9349
 8616SOL     OW37483   3.191   1.685   6.727 -0.6198 -0.3026  0.3116
 8616SOL    HW137484   3.259   1.638   6.680 -1.5057 -0.9398 -0.3279
 8616SOL    HW237485   3.203   1.777   6.704 -0.1624 -0.6665 -0.9004
 8617SOL     OW37486   0.090   0.500  10.380 -0.1769  0.0656 -0.1484
 8617SOL    HW137487   0.091   0.512  10.475 -1.4246  0.3352 -0.1638
 8617SOL    HW237488   0.008   0.533  10.343 -0.3729 -3.1562 -2.6416
 8618SOL     OW37489   4.696   2.158  14.057  0.2437  0.1358  0.6502
 8618SOL    HW137490   4.711   2.240  14.010 -0.4030  0.2862  0.7056
 8618SOL    HW237491   4.602   2.157  14.038 -0.0062 -0.2585  1.9332
 8619SOL     OW37492   2.133   0.147   9.236 -0.1795 -0.0338  0.2678
 8619SOL    HW137493   2.165   0.064   9.271 -0.8066  0.2524  1.5415
 8619SOL    HW237494   2.206   0.178   9.182  0.6588 -1.7921  0.3884
 8620SOL     OW37495   0.455   0.713   7.800  0.0851 -0.0426  0.4372
 8620SOL    HW137496   0.369   0.671   7.791  1.1031 -1.8703 -0.7242
 8620SOL    HW237497   0.486   0.678   7.883  0.6076  1.4873  0.8656
 8621SOL     OW37498   0.059   0.995   1.014 -0.1039 -0.0466  0.9684
 8621SOL    HW137499   0.113   0.961   1.085  0.8928 -2.1481 -0.8213
 8621SOL    HW237500   0.005   0.921   0.985 -0.2431 -0.4418  2.2077
 8622SOL     OW37501   1.823   0.620   5.688  0.1187 -0.0472  0.1853
 8622SOL    HW137502   1.860   0.540   5.651 -2.6944 -0.4488 -1.7679
 8622SOL    HW237503   1.826   0.605   5.783 -0.8797  0.4704  0.2984
 8623SOL     OW37504   3.279   4.220  17.529  0.1349  0.1171  0.1795
 8623SOL    HW137505   3.349   4.268  17.484 -0.8153 -0.2917 -1.7263
 8623SOL    HW237506   3.317   4.132  17.531 -2.4372 -0.9096  2.5057
 8624SOL     OW37507   2.625   1.651   7.074 -0.4711 -0.2276  0.2188
 8624SOL    HW137508   2.705   1.693   7.107 -0.6581  0.7403 -0.5595
 8624SOL    HW237509   2.600   1.704   6.999 -3.6294 -2.9448 -0.6307
 8625SOL     OW37510   1.618   2.625  12.419  1.0038  0.0805  0.4115
 8625SOL    HW137511   1.661   2.699  12.462  3.6393 -1.3251  0.1946
 8625SOL    HW237512   1.541   2.618  12.476  0.0023  0.9099 -0.8585
 8626SOL     OW37513   1.274   1.653  11.721 -0.2153 -0.3101 -0.2836
 8626SOL    HW137514   1.261   1.559  11.737 -0.0943 -0.3482 -0.4185
 8626SOL    HW237515   1.260   1.666  11.628 -1.8420  0.2015  0.0203
 8627SOL     OW37516   3.798   4.338   5.007 -0.3604 -0.1821 -0.1688
 8627SOL    HW137517   3.873   4.383   5.045  1.1697 -2.5933 -0.3596
 8627SOL    HW237518   3.727   4.398   5.030 -0.1699 -0.8913  2.2609
 8628SOL     OW37519   2.362   2.974   5.814 -0.4390  0.6467  0.1164
 8628SOL    HW137520   2.397   3.059   5.788  0.4376 -0.0306 -0.9649
 8628SOL    HW237521   2.343   2.941   5.726  1.8442 -0.4952  0.0222
 8629SOL     OW37522   4.006   4.638   2.508 -0.1520  0.0174 -0.5168
 8629SOL    HW137523   3.925   4.679   2.475 -1.0724 -0.9321  0.5621
 8629SOL    HW237524   4.074   4.705   2.502  0.5640 -0.7118 -0.5011
 8630SOL     OW37525   4.587   1.089  10.842 -0.6095 -0.1300 -0.0083
 8630SOL    HW137526   4.613   1.179  10.820 -1.9615  0.3230  0.2204
 8630SOL    HW237527   4.595   1.087  10.938 -1.5161  1.2785  0.1017
 8631SOL     OW37528   2.264   3.130   7.837 -0.7421  0.4899 -0.2352
 8631SOL    HW137529   2.356   3.110   7.823 -0.7081  1.2219 -1.0499
 8631SOL    HW237530   2.264   3.143   7.932  1.0907  0.2994 -0.2014
 8632SOL     OW37531   2.818   1.135   8.737  0.0056 -0.1773 -0.3276
 8632SOL    HW137532   2.857   1.117   8.651  1.4649  0.6558  0.1605
 8632SOL    HW237533   2.842   1.054   8.782 -1.6175  1.0182  2.7086
 8633SOL     OW37534   1.073   3.011   2.656 -0.1991  0.1011 -0.1669
 8633SOL    HW137535   0.999   3.009   2.595 -0.4409  2.8422  0.0293
 8633SOL    HW237536   1.094   2.918   2.662  1.2137  0.4994  1.0536
 8634SOL     OW37537   4.173   0.799   9.710  0.0246  0.4900  0.0003
 8634SOL    HW137538   4.156   0.889   9.684  0.7307  0.8882  0.9052
 8634SOL    HW237539   4.236   0.813   9.781 -1.4254 -1.2290  1.6366
 8635SOL     OW37540   0.328   1.764  17.075  0.3254  0.4010 -0.2924
 8635SOL    HW137541   0.252   1.806  17.117  0.0090 -3.2247  2.7757
 8635SOL    HW237542   0.327   1.681  17.123 -0.7597  0.3701 -0.3638
 8636SOL     OW37543   1.052   1.037   3.423  0.4003 -0.2280  0.0465
 8636SOL    HW137544   1.126   1.014   3.367  0.2046 -0.0955 -0.2692
 8636SOL    HW237545   1.090   1.031   3.511 -0.0507  1.2122  0.3493
 8637SOL     OW37546   1.881   3.641   5.537  0.2672 -0.1005 -0.1393
 8637SOL    HW137547   1.918   3.579   5.600  0.2095  2.0299  1.9833
 8637SOL    HW237548   1.789   3.653   5.561  0.6409  1.3513  0.5629
 8638SOL     OW37549   4.325   0.050   3.196 -0.7598  0.2242 -0.2773
 8638SOL    HW137550   4.378   4.727   3.248 -2.2073 -0.2614  0.6275
 8638SOL    HW237551   4.236   0.016   3.203 -1.0407  1.0260  0.1236
 8639SOL     OW37552   4.412   4.162   2.531 -0.1923  0.0869 -0.3943
 8639SOL    HW137553   4.385   4.222   2.601  2.4978  0.3773  0.4281
 8639SOL    HW237554   4.493   4.126   2.568  0.5250  1.3478 -0.7302
 8640SOL     OW37555   4.521   3.734   3.865 -0.0470 -0.0623 -0.5319
 8640SOL    HW137556   4.595   3.677   3.844  0.1591  0.0972 -0.2288
 8640SOL    HW237557   4.551   3.752   3.954  1.1186 -3.8622 -0.1522
 8641SOL     OW37558   4.086   3.244   5.467 -0.4328 -0.1897 -0.3148
 8641SOL    HW137559   3.993   3.261   5.484 -0.6664 -0.0570 -1.7531
 8641SOL    HW237560   4.122   3.329   5.441 -0.1626 -0.2192 -0.0312
 8642SOL     OW37561   0.780   2.242  14.997 -0.2411 -0.2654 -0.1660
 8642SOL    HW137562   0.721   2.253  14.923 -0.4836  0.4556  0.1384
 8642SOL    HW237563   0.720   2.198  15.057  0.9036 -0.6237  0.7212
 8643SOL     OW37564   0.715   3.915  11.911 -0.0472 -0.0299  0.1017
 8643SOL    HW137565   0.686   3.995  11.867  0.6173  0.7177  1.0176
 8643SOL    HW237566   0.644   3.887  11.970 -0.2091 -1.4894 -0.7885
 8644SOL     OW37567   1.635   3.663  16.614  0.1091  0.5040  0.3295
 8644SOL    HW137568   1.604   3.752  16.603  2.7587  1.2617 -1.0178
 8644SOL    HW237569   1.579   3.635  16.686  1.8089 -2.4623  0.5258
 8645SOL     OW37570   2.576   3.143   6.913 -0.2650  0.0013 -0.1419
 8645SOL    HW137571   2.624   3.207   6.965 -1.9177  0.9407  0.2078
 8645SOL    HW237572   2.493   3.128   6.958 -0.2428 -3.1063 -1.1141
 8646SOL     OW37573   1.124   2.024   0.000 -0.0405 -0.2283 -0.3870
 8646SOL    HW137574   1.062   1.990  17.685 -0.6142  0.5765 -0.2581
 8646SOL    HW237575   1.203   1.987  17.712  0.2662  2.2586 -2.1830
 8647SOL     OW37576   4.405   2.283   5.882 -0.1667 -0.4613 -0.1366
 8647SOL    HW137577   4.389   2.361   5.829 -2.9439 -0.5968  0.4852
 8647SOL    HW237578   4.338   2.298   5.949 -1.9132 -0.0482 -1.9774
 8648SOL     OW37579   4.419   3.130   4.672 -0.2697  0.4011 -0.0923
 8648SOL    HW137580   4.414   3.114   4.766  1.1127 -1.9203 -0.4252
 8648SOL    HW237581   4.340   3.081   4.651 -0.9913  0.5966  2.2055
 8649SOL     OW37582   4.439   1.591   0.270 -0.2516 -0.2177  0.4603
 8649SOL    HW137583   4.381   1.516   0.272 -1.0789  0.3547 -1.6827
 8649SOL    HW237584   4.497   1.557   0.201 -0.3019  0.1199  0.2481
 8650SOL     OW37585   0.037   3.420  14.282 -0.1845  0.2640 -0.6700
 8650SOL    HW137586   0.090   3.348  14.248  2.5039  2.2091 -0.6221
 8650SOL    HW237587   0.083   3.491  14.236 -0.3648  0.0477 -1.1818
 8651SOL     OW37588   0.628   2.600  16.280  0.3201  0.0417  0.1808
 8651SOL    HW137589   0.675   2.520  16.305 -1.1575 -1.0610 -0.6027
 8651SOL    HW237590   0.569   2.582  16.206  0.5408  0.5751 -0.1224
 8652SOL     OW37591   0.875   4.453   3.736  0.1412  0.1579 -0.0957
 8652SOL    HW137592   0.946   4.406   3.693 -0.6917  0.5715 -1.9275
 8652SOL    HW237593   0.802   4.392   3.723  1.1487 -1.4181  1.5659
 8653SOL     OW37594   0.339   3.332   7.599  0.5152 -0.3325  0.5447
 8653SOL    HW137595   0.384   3.345   7.683 -0.3824 -0.0656  0.9886
 8653SOL    HW237596   0.349   3.237   7.594  1.1805 -0.3080  1.3201
 8654SOL     OW37597   0.672   2.792  10.055 -1.5228  0.1885  0.8034
 8654SOL    HW137598   0.665   2.760  10.145 -1.9320  1.5183  1.2402
 8654SOL    HW237599   0.662   2.887  10.064 -1.1983  0.4662 -1.8600
 8655SOL     OW37600   0.847   0.996   4.494 -0.2153  0.1780  0.2182
 8655SOL    HW137601   0.900   1.073   4.477  0.0380 -0.2329 -0.8712
 8655SOL    HW237602   0.903   0.932   4.449 -2.8123 -1.8706 -0.0911
 8656SOL     OW37603   2.810   3.328   7.357 -0.4660  0.5468  0.0439
 8656SOL    HW137604   2.785   3.421   7.357 -0.8025  0.4476 -1.4990
 8656SOL    HW237605   2.903   3.345   7.365 -0.6313  1.2842  0.4132
 8657SOL     OW37606   0.727   0.658   4.269  0.4889 -0.4300 -0.3611
 8657SOL    HW137607   0.795   0.681   4.206  0.2308 -1.4393 -0.9987
 8657SOL    HW237608   0.660   0.715   4.232 -0.7199 -0.6664  1.4669
 8658SOL     OW37609   4.522   3.049  12.377  0.3843  0.0324  0.1420
 8658SOL    HW137610   4.478   2.966  12.392 -2.0518  0.7689 -2.7486
 8658SOL    HW237611   4.443   3.103  12.379 -0.1478 -0.7225 -0.5552
 8659SOL     OW37612   1.334   3.161  13.683  0.2544  0.1578  0.0186
 8659SOL    HW137613   1.417   3.209  13.687  1.4160 -1.6267 -3.0372
 8659SOL    HW237614   1.362   3.070  13.673  1.0994  0.3534  0.5875
 8660SOL     OW37615   3.700   3.886  15.477  0.3943 -0.1817 -0.3486
 8660SOL    HW137616   3.672   3.854  15.391 -0.2444 -1.0611  0.1907
 8660SOL    HW237617   3.630   3.852  15.532 -0.7124  1.8461 -0.5016
 8661SOL     OW37618   3.470   0.042   0.329 -0.0133  0.3149 -0.5993
 8661SOL    HW137619   3.549   0.008   0.371  0.3958  0.2164 -1.4574
 8661SOL    HW237620   3.501   0.066   0.242  2.8893  0.6120  0.5067
 8662SOL     OW37621   1.686   0.853   1.291 -0.2877  0.6877 -0.5559
 8662SOL    HW137622   1.670   0.794   1.218  2.1936 -0.4400 -0.1707
 8662SOL    HW237623   1.763   0.815   1.334 -1.5958 -1.3810 -0.0484
 8663SOL     OW37624   1.021   4.060   4.667  0.1329 -0.3085 -0.0229
 8663SOL    HW137625   1.047   4.067   4.575  0.6738  0.6246  0.2002
 8663SOL    HW237626   0.936   4.104   4.655 -0.2164 -0.0867  3.2185
 8664SOL     OW37627   0.540   4.302   3.395  0.1938  0.1615 -0.1075
 8664SOL    HW137628   0.542   4.207   3.391 -0.7762  0.1780 -1.1113
 8664SOL    HW237629   0.458   4.313   3.443  0.8546 -0.4359  1.1346
 8665SOL     OW37630   4.104   4.080  12.809 -0.5058 -0.3211  0.3100
 8665SOL    HW137631   4.035   4.031  12.764 -2.0446  2.5793 -0.5589
 8665SOL    HW237632   4.162   4.006  12.827  1.4290  0.9185 -0.8666
 8666SOL     OW37633   1.562   2.015   6.382  0.4041 -0.7326  0.1345
 8666SOL    HW137634   1.554   1.923   6.408  0.8715  0.1403  3.4450
 8666SOL    HW237635   1.637   2.015   6.323 -1.6444  1.8012 -2.4394
 8667SOL     OW37636   2.866   4.213   6.799 -0.7278 -0.9784  0.0619
 8667SOL    HW137637   2.876   4.117   6.799 -0.9887 -1.0068  0.0323
 8667SOL    HW237638   2.866   4.226   6.704 -2.6715 -0.8526  0.0686
 8668SOL     OW37639   1.321   0.519   9.291 -0.4041  0.5363  0.0639
 8668SOL    HW137640   1.339   0.610   9.315 -0.1687  0.3628  0.5350
 8668SOL    HW237641   1.325   0.530   9.196  1.6430  0.3883  0.1305
 8669SOL     OW37642   3.279   0.303  16.541  0.2566  0.2824  0.0709
 8669SOL    HW137643   3.207   0.363  16.561  1.8926  1.4492  2.4564
 8669SOL    HW237644   3.227   0.227  16.516  1.0089  1.0317 -3.7774
 8670SOL     OW37645   1.560   0.433   1.450 -0.1767  0.1785  0.0712
 8670SOL    HW137646   1.573   0.419   1.544  0.0110  1.2703  0.2101
 8670SOL    HW237647   1.503   0.360   1.426  1.3229 -1.2214  0.7257
 8671SOL     OW37648   4.188   2.855   4.958  0.3939 -0.0600  0.2239
 8671SOL    HW137649   4.196   2.864   5.053  0.4966 -0.4611  0.2520
 8671SOL    HW237650   4.241   2.932   4.938  1.1765 -0.5410  0.4346
 8672SOL     OW37651   0.988   3.890   3.538 -0.2383 -0.1145 -0.3523
 8672SOL    HW137652   0.953   3.967   3.493  0.2705  0.9614  1.1080
 8672SOL    HW237653   0.919   3.870   3.602  1.4929 -0.2235  1.4948
 8673SOL     OW37654   1.687   0.214   2.720  0.3500  0.6140 -0.0571
 8673SOL    HW137655   1.607   0.169   2.749  0.5447  0.5949  0.4465
 8673SOL    HW237656   1.667   0.229   2.627  1.1773  0.5357 -0.2441
 8674SOL     OW37657   3.154   2.046   9.575  0.5211 -0.7056  0.3409
 8674SOL    HW137658   3.223   2.083   9.631  1.3703 -0.4934 -0.8384
 8674SOL    HW237659   3.125   1.968   9.622  0.5024  0.5435  2.3937
 8675SOL     OW37660   0.589   4.289   6.923  0.0207  0.1043 -0.0956
 8675SOL    HW137661   0.554   4.340   6.995 -0.6850 -1.1657  0.4579
 8675SOL    HW237662   0.659   4.344   6.888  0.5840 -0.1130  0.7102
 8676SOL     OW37663   1.113   2.717   8.373 -0.4259  0.2134 -0.4845
 8676SOL    HW137664   1.066   2.799   8.359  1.8977  1.4188 -1.0473
 8676SOL    HW237665   1.097   2.688   8.463  0.9674  0.5796 -0.1186
 8677SOL     OW37666   1.033   3.001   8.738 -0.2338  0.0110 -0.3279
 8677SOL    HW137667   0.985   3.057   8.799 -1.2274 -3.8504  2.4236
 8677SOL    HW237668   1.070   3.067   8.679 -0.8818  0.0839 -0.6579
 8678SOL     OW37669   0.290   2.578   8.252  0.0141  0.3152  0.2004
 8678SOL    HW137670   0.223   2.526   8.297  0.5381  0.0746  0.7127
 8678SOL    HW237671   0.338   2.609   8.330  0.0295  3.4345 -1.0579
 8679SOL     OW37672   3.516   3.737   7.288 -0.1264 -0.4213  0.3917
 8679SOL    HW137673   3.533   3.646   7.265  0.5613 -0.3861  0.7478
 8679SOL    HW237674   3.520   3.771   7.198 -2.5471  1.6385  1.0591
 8680SOL     OW37675   0.081   4.413   4.981  0.2492  0.0502  0.6784
 8680SOL    HW137676   0.152   4.416   5.045  0.4042  1.0745  0.4627
 8680SOL    HW237677   0.030   4.486   5.017  1.5139  1.3913 -0.2630
 8681SOL     OW37678   0.666   3.374   6.277  0.3917  0.2061 -0.6162
 8681SOL    HW137679   0.606   3.401   6.347 -1.3495 -2.7761 -0.9750
 8681SOL    HW237680   0.696   3.287   6.306 -0.8743  0.4299  1.3581
 8682SOL     OW37681   2.554   4.594   8.369  0.3529  0.2795 -0.1194
 8682SOL    HW137682   2.546   4.570   8.277 -2.2373  1.0610 -0.0914
 8682SOL    HW237683   2.639   4.551   8.382  0.3184  0.1663 -0.2783
 8683SOL     OW37684   0.047   0.099   3.221 -0.0227 -0.0083  0.4551
 8683SOL    HW137685   0.113   0.040   3.258  0.9651 -0.8588 -2.6392
 8683SOL    HW237686   0.071   0.186   3.253  0.3049 -0.0154  0.2325
 8684SOL     OW37687   3.836   3.721   8.113  0.3390 -0.1663 -0.3180
 8684SOL    HW137688   3.921   3.752   8.081  0.7444  0.2622  1.1885
 8684SOL    HW237689   3.839   3.767   8.197 -0.9965 -0.4262 -0.1286
 8685SOL     OW37690   3.199   1.944  17.473  0.0724 -0.1937 -1.1429
 8685SOL    HW137691   3.240   2.009  17.415 -0.4185 -0.3490 -1.6539
 8685SOL    HW237692   3.204   1.989  17.558 -1.1989 -0.9407 -0.6746
 8686SOL     OW37693   0.937   0.807   5.256  0.1633 -0.2127  0.1473
 8686SOL    HW137694   1.030   0.808   5.231 -0.6114 -2.8609 -2.7915
 8686SOL    HW237695   0.940   0.736   5.319  0.1618 -0.6640 -0.3615
 8687SOL     OW37696   3.775   1.788  15.724  0.2849 -0.5776  0.3135
 8687SOL    HW137697   3.686   1.789  15.689  0.2759  1.9805  0.4437
 8687SOL    HW237698   3.807   1.878  15.714 -0.9394 -0.2434 -0.5275
 8688SOL     OW37699   0.872   4.675   3.530 -0.3591 -0.2083  0.1964
 8688SOL    HW137700   0.842   4.614   3.463  0.0407 -0.0888 -0.0858
 8688SOL    HW237701   0.911   4.616   3.594 -0.0477 -0.7536 -0.5102
 8689SOL     OW37702   1.478   0.228   2.383 -0.7617  0.0989  0.1472
 8689SOL    HW137703   1.444   0.191   2.464 -0.5943  0.0437  0.1913
 8689SOL    HW237704   1.568   0.196   2.379 -0.6860  0.6315 -2.3598
 8690SOL     OW37705   0.479   3.768   9.070  0.0360 -0.8685 -0.9386
 8690SOL    HW137706   0.473   3.768   8.974 -0.0220 -2.2799 -0.9437
 8690SOL    HW237707   0.396   3.724   9.090 -0.7836  1.2269  0.2130
 8691SOL     OW37708   2.404   0.157   7.789 -0.8458 -0.3119  0.2648
 8691SOL    HW137709   2.496   0.131   7.802 -0.5772 -0.2324 -1.4833
 8691SOL    HW237710   2.393   0.168   7.695  0.9897  1.6899  0.2967
 8692SOL     OW37711   1.430   1.720   5.542 -0.2005  0.1728  0.6073
 8692SOL    HW137712   1.378   1.762   5.474 -0.4660 -0.2557  0.5488
 8692SOL    HW237713   1.435   1.630   5.510  1.2796  0.0835  1.0925
 8693SOL     OW37714   2.222   1.287   0.594  0.0839 -0.2593 -0.4856
 8693SOL    HW137715   2.229   1.264   0.686  2.3041  2.1447 -0.0409
 8693SOL    HW237716   2.289   1.354   0.580  2.7051 -2.1375  3.1050
 8694SOL     OW37717   3.703   0.281  10.023 -0.1531 -1.0091  0.0737
 8694SOL    HW137718   3.787   0.236  10.034  1.4270  1.8709 -0.3656
 8694SOL    HW237719   3.729   0.365  10.061 -1.8139 -1.1228  1.4418
 8695SOL     OW37720   0.974   2.515   7.034  0.1460  0.0824 -0.5263
 8695SOL    HW137721   1.023   2.456   7.091  2.5715 -0.3346 -3.0377
 8695SOL    HW237722   0.904   2.556   7.085  1.2193  1.1205  0.0933
 8696SOL     OW37723   2.215   2.925   4.692  0.3201  0.1140  0.2047
 8696SOL    HW137724   2.293   2.910   4.746  0.3104  1.2394  0.5302
 8696SOL    HW237725   2.151   2.855   4.710  0.1748  0.6243  1.6806
 8697SOL     OW37726   0.447   2.272   5.694  0.3912  0.3368  0.3321
 8697SOL    HW137727   0.481   2.295   5.781  1.4098  1.2873 -0.3095
 8697SOL    HW237728   0.431   2.364   5.673 -2.3299  0.0420  1.1385
 8698SOL     OW37729   1.258   3.170  16.753  0.5769 -0.9443 -0.4540
 8698SOL    HW137730   1.220   3.125  16.678 -1.3663 -0.4567  0.2181
 8698SOL    HW237731   1.352   3.173  16.736  0.7726  0.7311  0.8576
 8699SOL     OW37732   4.152   0.082   4.373  0.4287 -0.1443 -0.3654
 8699SOL    HW137733   4.140   0.117   4.285 -2.9802  2.5257  1.1619
 8699SOL    HW237734   4.239   0.114   4.399  1.3017 -0.5724 -2.8325
 8700SOL     OW37735   3.209   1.145   5.836 -0.6157  0.1400 -0.6231
 8700SOL    HW137736   3.218   1.066   5.783  2.5694  0.7629 -1.0023
 8700SOL    HW237737   3.290   1.135   5.886 -0.6758  1.5011 -0.2727
 8701SOL     OW37738   4.264   3.650   7.889 -0.6910 -0.0989 -0.2113
 8701SOL    HW137739   4.332   3.598   7.932 -0.3965  1.4447  1.1969
 8701SOL    HW237740   4.189   3.598   7.917 -0.0203 -0.7310  0.4192
 8702SOL     OW37741   1.663   1.891   3.777  0.2243  0.1521 -0.2132
 8702SOL    HW137742   1.753   1.922   3.788  0.7140 -1.4772  0.4122
 8702SOL    HW237743   1.611   1.963   3.742 -1.6769 -0.8101  0.6513
 8703SOL     OW37744   0.291   2.300  15.356 -0.0817 -0.4471 -0.6235
 8703SOL    HW137745   0.232   2.375  15.346  0.3910  0.1370  1.1390
 8703SOL    HW237746   0.334   2.317  15.439  1.2220 -0.9567 -1.2031
 8704SOL     OW37747   3.176   3.265   8.977  0.2959 -0.2016  0.2004
 8704SOL    HW137748   3.097   3.311   8.949 -0.4266 -0.5787  1.6290
 8704SOL    HW237749   3.151   3.173   8.983  0.6990 -0.3520 -0.4399
 8705SOL     OW37750   2.473   2.463   6.697 -0.0187 -0.1836  0.1162
 8705SOL    HW137751   2.491   2.405   6.622 -1.0065 -0.4985  0.1270
 8705SOL    HW237752   2.389   2.421   6.717 -0.4318 -0.0048 -1.2364
 8706SOL     OW37753   4.527   2.730   2.939 -0.3406  0.1007 -0.2991
 8706SOL    HW137754   4.503   2.751   2.849 -1.9597  0.1797  0.1380
 8706SOL    HW237755   4.618   2.703   2.928 -0.4296  0.6266 -2.4431
 8707SOL     OW37756   3.077   3.380   6.123 -0.9995 -0.6785 -0.3488
 8707SOL    HW137757   3.032   3.434   6.189 -0.9977 -0.6164 -0.3983
 8707SOL    HW237758   3.161   3.422   6.108 -0.2509 -2.1989 -0.4277
 8708SOL     OW37759   4.007   1.915   7.187  0.1248 -0.3069  0.3436
 8708SOL    HW137760   3.932   1.931   7.129  1.0113  1.1426 -0.4236
 8708SOL    HW237761   4.027   1.829   7.151 -2.2046 -1.2770  1.3964
 8709SOL     OW37762   4.036   3.523   6.793  0.2413 -0.4905 -0.3146
 8709SOL    HW137763   4.035   3.618   6.810  1.2476 -0.3747 -0.8626
 8709SOL    HW237764   4.015   3.502   6.884  2.5885 -0.3377  0.2774
 8710SOL     OW37765   3.962   1.848  17.549 -0.5650  0.6294  0.1423
 8710SOL    HW137766   4.053   1.865  17.577 -0.0199 -1.0117 -0.6396
 8710SOL    HW237767   3.941   1.899  17.471 -1.7277  2.4864  1.6603
 8711SOL     OW37768   2.944   2.221   7.368 -0.1802 -0.1142  1.1873
 8711SOL    HW137769   2.962   2.173   7.287 -0.4152  2.5262 -0.4308
 8711SOL    HW237770   2.992   2.165   7.429  0.7914 -0.7411 -0.1445
 8712SOL     OW37771   4.721   3.306   9.147 -0.2293 -0.4111  0.3415
 8712SOL    HW137772   0.055   3.249   9.117 -1.4070 -2.4430  1.4000
 8712SOL    HW237773   4.677   3.249   9.210  0.3483 -3.0428 -1.6243
 8713SOL     OW37774   3.403   3.844   0.359 -0.9641 -0.0615  0.4954
 8713SOL    HW137775   3.361   3.762   0.383 -0.6507 -0.2708  0.3429
 8713SOL    HW237776   3.367   3.895   0.431 -1.2935 -1.2249  1.1542
 8714SOL     OW37777   0.407   0.195   2.490  0.3680 -0.5633 -0.2963
 8714SOL    HW137778   0.340   0.246   2.445  1.3840 -0.2845 -1.4799
 8714SOL    HW237779   0.492   0.238   2.485  0.0306  0.3875  1.9879
 8715SOL     OW37780   3.888   4.120  14.335  0.0482  0.3192  0.4916
 8715SOL    HW137781   3.890   4.097  14.428 -3.5463  0.3164  0.5647
 8715SOL    HW237782   3.973   4.082  14.312 -0.1716 -0.8396  1.5372
 8716SOL     OW37783   3.248   0.963  17.432  0.0501  0.1195  0.2387
 8716SOL    HW137784   3.219   1.049  17.464 -1.9727 -0.5933  0.3303
 8716SOL    HW237785   3.324   0.945  17.488 -2.3639 -3.0690  2.5296
 8717SOL     OW37786   0.925   0.912  16.628  0.4716 -0.0333 -0.6749
 8717SOL    HW137787   0.997   0.975  16.629 -0.3527  0.9134 -0.8959
 8717SOL    HW237788   0.851   0.969  16.650  0.4867 -0.7685  1.2264
 8718SOL     OW37789   3.196   0.363   7.648 -0.1238 -0.6034 -0.1640
 8718SOL    HW137790   3.118   0.318   7.681  0.4139 -2.4719 -1.4597
 8718SOL    HW237791   3.237   0.379   7.733 -0.9511 -0.8543  0.2861
 8719SOL     OW37792   0.592   4.284  15.684  0.3687 -0.3193 -0.6582
 8719SOL    HW137793   0.641   4.356  15.724 -0.5767 -0.2929  0.4572
 8719SOL    HW237794   0.504   4.320  15.697 -0.3016 -2.0390 -0.4460
 8720SOL     OW37795   1.347   1.426   7.178  0.4195  0.4027  0.0849
 8720SOL    HW137796   1.328   1.507   7.227 -1.4990  0.2027 -0.3187
 8720SOL    HW237797   1.356   1.364   7.250  0.7274 -0.5003 -0.7448
 8721SOL     OW37798   2.397   1.878   1.425 -0.2611  0.2283  0.3735
 8721SOL    HW137799   2.303   1.886   1.443 -0.3624  0.4848 -0.2584
 8721SOL    HW237800   2.407   1.885   1.330  0.0741  1.2490  0.4869
 8722SOL     OW37801   4.531   0.967   7.665 -0.2748  0.2135 -0.6897
 8722SOL    HW137802   4.500   0.936   7.750 -0.4246  1.1688 -0.3954
 8722SOL    HW237803   4.620   0.934   7.659 -0.3787 -0.7696  3.2166
 8723SOL     OW37804   4.601   2.587   5.105  0.5366  0.5386 -0.0681
 8723SOL    HW137805   4.696   2.584   5.103  0.4452 -2.2879  1.0242
 8723SOL    HW237806   4.586   2.677   5.075 -1.5142 -0.2427 -1.3925
 8724SOL     OW37807   3.147   0.167   3.466 -0.3908  0.5014 -0.0542
 8724SOL    HW137808   3.118   0.228   3.533  3.5711  2.0349  0.2476
 8724SOL    HW237809   3.139   0.214   3.383  1.5719 -0.3354 -0.7284
 8725SOL     OW37810   3.280   4.577  16.448 -0.1244 -0.2145 -0.5947
 8725SOL    HW137811   3.241   4.492  16.430  0.8856 -0.9318  0.5714
 8725SOL    HW237812   3.351   4.580  16.384 -2.2756 -0.1566 -2.9900
 8726SOL     OW37813   0.888   3.569   1.383  0.6735  0.3474 -0.1378
 8726SOL    HW137814   0.909   3.634   1.451 -0.2321  0.9418 -0.4243
 8726SOL    HW237815   0.965   3.561   1.327  1.1226  3.0350  0.0603
 8727SOL     OW37816   1.032   4.548   9.475  0.0467  0.2832  0.2048
 8727SOL    HW137817   1.020   4.557   9.380  1.1451  2.1683  0.2402
 8727SOL    HW237818   1.107   4.605   9.494  1.5081 -1.4456 -0.4196
 8728SOL     OW37819   0.316   1.935   5.324 -0.1099 -0.3088  0.4573
 8728SOL    HW137820   0.322   1.987   5.245  1.5460  0.5578  1.1537
 8728SOL    HW237821   0.409   1.933   5.348 -0.3854  0.2787  1.5889
 8729SOL     OW37822   2.065   0.001   4.995 -0.4837 -0.3337 -0.0545
 8729SOL    HW137823   1.993   4.689   4.956  1.4851 -2.3877 -1.0545
 8729SOL    HW237824   2.046   0.002   5.089  0.5004  0.3468  0.1356
 8730SOL     OW37825   2.713   2.309   3.523 -0.2623 -0.5205 -0.4426
 8730SOL    HW137826   2.719   2.374   3.454 -1.4358 -1.5130 -1.4874
 8730SOL    HW237827   2.619   2.315   3.543  0.0027  0.4466  0.5106
 8731SOL     OW37828   4.540   2.965   8.624 -0.0203  0.2786 -0.4113
 8731SOL    HW137829   4.497   3.043   8.660  1.4245 -0.7131  3.5550
 8731SOL    HW237830   4.515   2.898   8.687  2.2127 -0.9735 -0.8627
 8732SOL     OW37831   2.133   4.011   6.417  0.6771 -0.4222  0.1494
 8732SOL    HW137832   2.102   4.045   6.501  0.5800  0.4195 -0.2268
 8732SOL    HW237833   2.191   4.081   6.387 -0.3758  0.1513 -0.5306
 8733SOL     OW37834   2.116   3.400   0.801 -0.0739 -0.2475  0.1822
 8733SOL    HW137835   2.021   3.391   0.807  0.0732 -1.3702  0.8037
 8733SOL    HW237836   2.146   3.358   0.720 -1.0724  0.4808 -0.5645
 8734SOL     OW37837   1.674   0.877   7.342 -0.4442 -0.8111 -0.7591
 8734SOL    HW137838   1.754   0.899   7.388 -0.8315 -2.2773  0.6237
 8734SOL    HW237839   1.636   0.812   7.401 -1.0085 -0.1992 -0.4474
 8735SOL     OW37840   0.664   1.268   4.408 -0.0346  0.0276 -0.0449
 8735SOL    HW137841   0.757   1.277   4.429 -0.1587 -0.2713  0.6429
 8735SOL    HW237842   0.663   1.231   4.320  0.3169 -0.6005  0.2071
 8736SOL     OW37843   4.535   2.067   7.782 -0.5675  0.0212  0.4295
 8736SOL    HW137844   4.445   2.085   7.809 -0.5918  2.4928 -1.2693
 8736SOL    HW237845   4.577   2.154   7.783 -3.5436  1.4521  1.0559
 8737SOL     OW37846   1.143   2.725   2.962  0.5876  0.1125 -0.1400
 8737SOL    HW137847   1.049   2.710   2.969  0.7249 -1.2529 -0.9935
 8737SOL    HW237848   1.142   2.790   2.892 -0.4945 -0.1885 -0.4091
 8738SOL     OW37849   0.853   2.662   3.660  0.5516  0.0305  0.3301
 8738SOL    HW137850   0.836   2.743   3.708 -1.5315 -1.1832  1.6192
 8738SOL    HW237851   0.911   2.618   3.723  0.3676  0.2547  0.6564
 8739SOL     OW37852   0.180   3.313  13.497 -0.3679 -0.1240 -0.5129
 8739SOL    HW137853   0.124   3.259  13.553 -0.7783 -0.5725 -1.3438
 8739SOL    HW237854   0.216   3.374  13.561  0.0648  0.4946 -1.3289
 8740SOL     OW37855   2.187   2.221   1.521  0.6867  0.9842  0.6049
 8740SOL    HW137856   2.216   2.176   1.441  2.1780  1.7247  0.7159
 8740SOL    HW237857   2.098   2.189   1.533  1.0325 -0.4842 -0.6098
 8741SOL     OW37858   3.063   0.619  10.559 -0.0740 -0.1822 -0.2721
 8741SOL    HW137859   3.084   0.528  10.580  2.9223  0.9326  1.6288
 8741SOL    HW237860   3.075   0.613  10.464  0.8471  0.8811 -0.2186
 8742SOL     OW37861   1.626   2.981   6.948  0.2308 -0.2980  0.3702
 8742SOL    HW137862   1.713   2.941   6.956  0.1417 -0.7083 -0.8092
 8742SOL    HW237863   1.573   2.917   6.901 -0.2950  0.8314 -0.5930
 8743SOL     OW37864   1.419   2.192   3.906  0.2064  0.2776  0.4964
 8743SOL    HW137865   1.498   2.204   3.959  0.9752 -0.1643 -0.5397
 8743SOL    HW237866   1.377   2.120   3.953 -1.2790  0.6861 -0.2146
 8744SOL     OW37867   0.137   3.866   4.429 -0.5504  0.2246 -0.7218
 8744SOL    HW137868   0.159   3.814   4.506  1.3628  0.9448 -0.7877
 8744SOL    HW237869   0.044   3.844   4.427 -0.0650 -1.7855 -1.3635
 8745SOL     OW37870   2.205   4.460   6.095 -0.3458  0.7982 -0.1024
 8745SOL    HW137871   2.181   4.543   6.136 -0.0720  0.3646  0.9213
 8745SOL    HW237872   2.280   4.498   6.048 -1.8853  2.4470 -1.2144
 8746SOL     OW37873   2.948   2.929   5.795 -0.6874 -0.5873 -0.2057
 8746SOL    HW137874   2.911   2.968   5.875 -1.4132 -3.2144  0.7604
 8746SOL    HW237875   3.015   2.993   5.772  0.2017 -1.7406 -0.8155
 8747SOL     OW37876   4.675   1.829   6.197  0.1731 -0.3832 -0.1562
 8747SOL    HW137877   4.719   1.838   6.113  1.5915  0.7181  0.7073
 8747SOL    HW237878   4.689   1.917   6.231 -2.0808  0.2909 -0.9995
 8748SOL     OW37879   3.135   1.852  16.546  0.5199 -0.2748  0.5770
 8748SOL    HW137880   3.195   1.919  16.513 -0.1456 -0.5882 -1.2843
 8748SOL    HW237881   3.107   1.889  16.630  1.0284  1.0255  0.1838
 8749SOL     OW37882   3.502   0.990  15.533  0.2457  0.1181 -0.6490
 8749SOL    HW137883   3.563   1.061  15.553  0.0956 -0.4206  1.6745
 8749SOL    HW237884   3.522   0.964  15.443 -0.2646 -0.2189 -0.6680
 8750SOL     OW37885   3.841   3.047   4.302 -0.1227  0.9404  0.5110
 8750SOL    HW137886   3.856   3.117   4.366 -3.4677  2.6039 -0.5287
 8750SOL    HW237887   3.747   3.055   4.286  0.4442  1.1225 -2.7073
 8751SOL     OW37888   3.605   4.498   1.549 -0.1310  0.4271  0.4939
 8751SOL    HW137889   3.600   4.402   1.546 -0.2510  0.4333  0.4885
 8751SOL    HW237890   3.697   4.512   1.525 -0.2241 -2.1815 -1.4453
 8752SOL     OW37891   4.611   1.843   7.606  0.6012 -0.3680  0.3410
 8752SOL    HW137892   4.575   1.915   7.658  0.6284 -0.1383  0.0377
 8752SOL    HW237893   4.700   1.839   7.639  0.4829  1.4513  0.8837
 8753SOL     OW37894   0.944   1.968   0.961 -0.4182  0.6974  0.3311
 8753SOL    HW137895   0.959   2.043   0.905  1.9748 -0.2296 -0.2727
 8753SOL    HW237896   0.966   1.903   0.894  1.6835 -0.7827  2.4144
 8754SOL     OW37897   0.875   1.363  11.518 -0.1799 -0.1267  0.2345
 8754SOL    HW137898   0.951   1.334  11.568  0.0640  0.9336  0.4725
 8754SOL    HW237899   0.815   1.290  11.534 -0.4196 -0.1204 -0.6036
 8755SOL     OW37900   1.415   0.765   6.814  0.5478 -0.0538 -0.1141
 8755SOL    HW137901   1.334   0.727   6.781  1.2368 -0.7918 -0.9415
 8755SOL    HW237902   1.459   0.799   6.736 -2.6001 -0.5502 -2.0701
 8756SOL     OW37903   0.286   1.432   0.066 -0.1102  0.3092 -0.1556
 8756SOL    HW137904   0.277   1.516   0.021 -0.3666  0.3270 -0.0703
 8756SOL    HW237905   0.351   1.401   0.002  0.9945  1.3557  0.4413
 8757SOL     OW37906   0.655   0.203   1.941  0.3712 -0.0136  0.2454
 8757SOL    HW137907   0.734   0.170   1.898  0.7503  1.0996  0.0836
 8757SOL    HW237908   0.687   0.290   1.966  0.5744 -0.5062  1.6782
 8758SOL     OW37909   1.058   2.001   5.628 -0.6954 -0.1888 -1.1135
 8758SOL    HW137910   1.115   2.029   5.556 -0.1958  2.3326  0.2991
 8758SOL    HW237911   1.119   1.956   5.686  0.2428  2.6209  0.0345
 8759SOL     OW37912   0.398   3.563   4.351  0.3241  0.8214  0.7988
 8759SOL    HW137913   0.454   3.524   4.418 -1.4668  0.5824  2.1796
 8759SOL    HW237914   0.324   3.580   4.410  0.6847  1.5816  1.0389
 8760SOL     OW37915   0.633   4.041   7.425  0.1198 -0.4558 -0.0765
 8760SOL    HW137916   0.597   4.043   7.336  2.2549 -0.4466 -0.9470
 8760SOL    HW237917   0.645   4.135   7.437  2.9222 -0.9799  1.0889
 8761SOL     OW37918   2.989   1.893  13.958  0.2601  0.2719 -0.1547
 8761SOL    HW137919   3.047   1.897  13.882  1.5580  0.6585  0.8541
 8761SOL    HW237920   2.941   1.976  13.949  0.7434  0.6141  0.4210
 8762SOL     OW37921   2.488   4.216  13.735 -0.0822 -0.0936 -0.1801
 8762SOL    HW137922   2.487   4.139  13.791 -2.1131  1.3852  1.8671
 8762SOL    HW237923   2.414   4.269  13.767 -0.5372  0.2404 -1.7755
 8763SOL     OW37924   4.713   1.246   5.002  0.2037 -0.7192 -0.3347
 8763SOL    HW137925   4.632   1.270   5.048 -1.0616 -2.5121 -1.6052
 8763SOL    HW237926   4.720   1.319   4.940 -0.3004  0.6085  1.1640
 8764SOL     OW37927   3.960   1.491  11.690  0.0676  0.0706  0.5224
 8764SOL    HW137928   4.038   1.457  11.734  0.5942 -1.7465 -1.8317
 8764SOL    HW237929   3.912   1.409  11.676  0.2633  0.2183 -1.0400
 8765SOL     OW37930   1.385   2.672   7.850  0.5771 -0.1364 -0.0196
 8765SOL    HW137931   1.468   2.649   7.891  1.9529  0.0680 -2.7148
 8765SOL    HW237932   1.330   2.595   7.864  0.2436 -0.3467 -2.4299
 8766SOL     OW37933   1.320   2.859   5.852  0.1417  0.0223  0.1479
 8766SOL    HW137934   1.329   2.945   5.812 -2.1593  0.6494  0.9915
 8766SOL    HW237935   1.253   2.816   5.799 -0.8904  0.9222  0.7465
 8767SOL     OW37936   1.584   3.131   3.232 -0.4923 -0.5527 -0.4586
 8767SOL    HW137937   1.678   3.126   3.216 -0.6711 -0.3501 -1.5531
 8767SOL    HW237938   1.586   3.115   3.327  1.9451  0.3791 -0.3684
 8768SOL     OW37939   1.779   2.635  15.916  0.0763 -0.3009 -0.1157
 8768SOL    HW137940   1.850   2.575  15.938 -0.0726  0.4579  2.5014
 8768SOL    HW237941   1.721   2.572  15.873 -0.9161 -0.5318  1.5341
 8769SOL     OW37942   4.275   2.851  14.542  0.8740  0.1764  0.2573
 8769SOL    HW137943   4.361   2.820  14.572 -0.3011 -0.0874  3.3610
 8769SOL    HW237944   4.292   2.944  14.529 -2.4573  0.5384 -1.4179
 8770SOL     OW37945   4.455   2.760   1.823 -0.2876 -0.1599  0.4599
 8770SOL    HW137946   4.519   2.693   1.798  0.2682  0.3210  0.5952
 8770SOL    HW237947   4.520   2.828   1.837 -1.3855  1.1424 -0.7838
 8771SOL     OW37948   0.372   2.728   6.559 -0.7217  0.0780  0.3592
 8771SOL    HW137949   0.396   2.815   6.528  1.4984 -0.9545 -0.8115
 8771SOL    HW237950   0.281   2.724   6.531 -0.8180  0.3027  0.6445
 8772SOL     OW37951   3.969   1.919   4.101  1.2360 -0.0935  0.0446
 8772SOL    HW137952   3.904   1.980   4.136  1.8482  0.4521  0.2467
 8772SOL    HW237953   3.924   1.885   4.024  1.9955 -1.2555  0.1178
 8773SOL     OW37954   2.833   4.064   2.641 -0.1780 -0.4778 -0.2555
 8773SOL    HW137955   2.876   3.983   2.667  2.9869  1.4921  0.6992
 8773SOL    HW237956   2.744   4.053   2.673 -0.3828  1.4400 -0.1581
 8774SOL     OW37957   3.199   1.560   3.795  0.1412 -0.1475 -0.3131
 8774SOL    HW137958   3.195   1.536   3.888 -0.4088 -1.8860 -0.7922
 8774SOL    HW237959   3.290   1.550   3.765  0.4305 -1.8651  1.1558
 8775SOL     OW37960   4.515   1.564   1.965 -0.0798 -0.4761  0.3378
 8775SOL    HW137961   4.562   1.606   2.037 -2.1362  1.6569  0.4197
 8775SOL    HW237962   4.424   1.566   1.994 -0.7365 -1.1474 -1.6491
 8776SOL     OW37963   1.087   1.132   6.780 -0.1105  0.2496  0.4006
 8776SOL    HW137964   1.103   1.115   6.873  0.5489 -1.2302  0.0204
 8776SOL    HW237965   1.037   1.213   6.786  1.1239  1.0555 -0.0898
 8777SOL     OW37966   0.577   1.108   9.099 -0.1665  0.0730  0.2427
 8777SOL    HW137967   0.608   1.191   9.135  2.3166 -0.6807 -0.1288
 8777SOL    HW237968   0.654   1.051   9.106  0.1242  0.4725  0.2814
 8778SOL     OW37969   2.549   3.880   7.181 -0.6014  0.2216 -0.5600
 8778SOL    HW137970   2.503   3.810   7.226  0.3570 -0.3022 -0.3918
 8778SOL    HW237971   2.473   3.925   7.144  0.0239  0.3707 -1.6579
 8779SOL     OW37972   2.550   0.018  17.486 -0.4973 -0.2664 -0.3619
 8779SOL    HW137973   2.489   0.086  17.457  1.8138  0.8541 -2.5885
 8779SOL    HW237974   2.603   0.024  17.407  0.6193  0.5525  0.4510
 8780SOL     OW37975   4.522   1.670   4.977 -0.1419  0.0137 -0.1697
 8780SOL    HW137976   4.557   1.625   4.900 -0.0740  2.6441 -1.6946
 8780SOL    HW237977   4.434   1.633   4.987 -0.0368  0.6956  3.1325
 8781SOL     OW37978   1.392   2.470   6.319  0.8314  0.0827 -0.2758
 8781SOL    HW137979   1.476   2.491   6.359  0.5108  2.3276 -0.7967
 8781SOL    HW237980   1.426   2.420   6.245 -2.5065 -0.2203 -1.5982
 8782SOL     OW37981   0.430   2.600   4.896 -1.1055  0.2088  0.4369
 8782SOL    HW137982   0.403   2.531   4.836 -0.5644  1.4803 -1.2847
 8782SOL    HW237983   0.492   2.652   4.845  1.3967 -2.1922  1.0596
 8783SOL     OW37984   3.756   3.485  11.993  0.0213 -0.0068  0.3838
 8783SOL    HW137985   3.803   3.417  11.945 -2.1305 -1.2392  0.0341
 8783SOL    HW237986   3.784   3.563  11.945  0.4104 -1.3318 -1.5692
 8784SOL     OW37987   0.881   0.775   7.872  0.7236  0.0407 -0.1119
 8784SOL    HW137988   0.815   0.819   7.925 -1.5351 -0.1401 -2.7793
 8784SOL    HW237989   0.961   0.808   7.913 -0.5664  0.9735  1.6540
 8785SOL     OW37990   4.206   2.947   3.752 -0.0460 -0.2376  0.1579
 8785SOL    HW137991   4.266   3.021   3.739 -0.4197  0.0744  0.2116
 8785SOL    HW237992   4.192   2.919   3.661 -1.0302 -0.3664  0.3489
 8786SOL     OW37993   0.397   2.978   7.773  0.1341  0.6523 -0.1668
 8786SOL    HW137994   0.413   2.884   7.788  1.1363  0.9175  0.4369
 8786SOL    HW237995   0.370   3.006   7.861  0.8716  1.0185 -0.0576
 8787SOL     OW37996   3.373   2.302   2.220  0.2059 -0.0084 -0.7489
 8787SOL    HW137997   3.305   2.352   2.176 -2.3518 -0.1086  3.1356
 8787SOL    HW237998   3.325   2.294   2.302  1.9220  0.7644  0.3398
 8788SOL     OW37999   4.503   1.949   9.937  0.3489 -0.1007  0.1024
 8788SOL    HW138000   4.540   1.868   9.901 -0.6744  0.0744 -1.3000
 8788SOL    HW238001   4.552   1.956  10.019  3.8905  1.1757 -2.1238
 8789SOL     OW38002   0.902   0.969  11.481 -0.4487  0.6107  0.5081
 8789SOL    HW138003   0.888   0.878  11.509 -1.3222  0.7693  0.5599
 8789SOL    HW238004   0.821   0.989  11.435 -0.3479  0.0227  0.0672
 8790SOL     OW38005   1.538   2.546   2.526  0.4884 -0.8141  0.3509
 8790SOL    HW138006   1.576   2.558   2.613 -0.5562  1.6344  0.4521
 8790SOL    HW238007   1.590   2.473   2.493  1.7061 -0.2493  1.0081
 8791SOL     OW38008   4.408   1.963   2.485  0.5686 -0.4603  0.7300
 8791SOL    HW138009   4.385   2.018   2.560 -3.0610 -2.4763  1.0972
 8791SOL    HW238010   4.482   2.017   2.456 -0.7548  1.4338  0.8170
 8792SOL     OW38011   0.737   4.253   4.869  0.4296  0.2505 -0.0287
 8792SOL    HW138012   0.782   4.169   4.875 -0.3687 -0.0421  1.7549
 8792SOL    HW238013   0.747   4.255   4.773  0.7875 -0.0076  0.0025
 8793SOL     OW38014   4.404   2.620   0.407 -0.0985  0.5535 -0.2331
 8793SOL    HW138015   4.361   2.631   0.323 -0.7147 -2.1840 -0.2593
 8793SOL    HW238016   4.461   2.697   0.403  0.5061  0.1320  0.2762
 8794SOL     OW38017   4.432   1.261   2.611 -0.4203 -0.0006  0.1231
 8794SOL    HW138018   4.435   1.206   2.689 -0.6214 -0.7101 -0.3815
 8794SOL    HW238019   4.359   1.227   2.560 -1.0550  0.7009  0.5571
 8795SOL     OW38020   3.122   2.551   4.638  0.1068  0.0857 -0.3266
 8795SOL    HW138021   3.209   2.590   4.649  0.4347 -1.2224  1.7806
 8795SOL    HW238022   3.128   2.520   4.548 -1.9797 -2.5069  0.4558
 8796SOL     OW38023   3.704   0.399   2.948  0.0043  0.0107  0.2031
 8796SOL    HW138024   3.692   0.381   2.854 -3.2283  0.8570  0.4617
 8796SOL    HW238025   3.724   0.310   2.977 -0.6076 -0.3510 -0.4789
 8797SOL     OW38026   2.520   4.079  11.262 -0.0682  0.3947  0.3834
 8797SOL    HW138027   2.524   4.026  11.342  1.2633 -1.0680 -0.6764
 8797SOL    HW238028   2.534   4.171  11.287  2.0349  0.0102  0.6270
 8798SOL     OW38029   3.952   0.747  17.064 -0.5556 -0.1974 -0.2037
 8798SOL    HW138030   3.972   0.734  16.971 -0.4896 -0.1472 -0.1970
 8798SOL    HW238031   3.887   0.816  17.055 -1.6048 -1.1187  0.2749
 8799SOL     OW38032   4.735   4.354   2.945  0.1586 -0.1126  0.1794
 8799SOL    HW138033   4.707   4.326   3.032  1.6104  1.1594  1.0569
 8799SOL    HW238034   4.709   4.447   2.947  0.1387 -0.0708 -1.6727
 8800SOL     OW38035   3.829   2.421   7.693 -0.0991 -0.3876 -0.4468
 8800SOL    HW138036   3.751   2.466   7.662 -0.7285  0.1850  1.9967
 8800SOL    HW238037   3.892   2.465   7.635  0.3995 -1.0832 -0.4400
 8801SOL     OW38038   1.662   1.022   2.319 -0.0090  0.2592 -0.0368
 8801SOL    HW138039   1.637   1.063   2.236 -2.1479 -1.9449 -0.4767
 8801SOL    HW238040   1.577   0.982   2.336  0.2664 -0.3757 -0.1520
 8802SOL     OW38041   3.424   2.835  15.090 -0.2268 -0.5411 -0.1294
 8802SOL    HW138042   3.425   2.740  15.103 -0.6239 -0.4965  0.2149
 8802SOL    HW238043   3.497   2.860  15.148  0.2710  0.1077 -1.0302
 8803SOL     OW38044   0.090   2.628   7.563  0.1521 -0.3514 -0.0674
 8803SOL    HW138045   0.087   2.627   7.658 -0.5731  0.2782 -0.0854
 8803SOL    HW238046   0.007   2.582   7.557  1.3742 -2.7510  1.5459
 8804SOL     OW38047   3.227   4.054   0.205 -0.2111 -0.0823  0.2904
 8804SOL    HW138048   3.205   4.071   0.296  3.1423  0.7694  0.9501
 8804SOL    HW238049   3.225   3.959   0.207 -0.4574 -0.0776  0.2069
 8805SOL     OW38050   2.782   2.919   6.907 -0.6043  0.0908 -0.4679
 8805SOL    HW138051   2.711   2.983   6.905 -1.8065 -1.2442 -0.5530
 8805SOL    HW238052   2.844   2.973   6.956  1.3783 -2.5371 -0.0706
 8806SOL     OW38053   0.768   2.647   4.992 -0.2334 -0.4915 -0.4395
 8806SOL    HW138054   0.724   2.587   5.052 -3.5079  1.0946 -1.2465
 8806SOL    HW238055   0.768   2.601   4.908  0.5486 -0.8916 -0.2217
 8807SOL     OW38056   1.659   2.633  14.875 -0.0846 -0.2433  0.1593
 8807SOL    HW138057   1.708   2.698  14.824 -0.9862 -0.9109 -1.5543
 8807SOL    HW238058   1.641   2.682  14.955 -0.2417  0.6175 -0.4007
 8808SOL     OW38059   3.078   4.414  12.070 -0.3889  0.4708  0.0335
 8808SOL    HW138060   3.089   4.498  12.115 -1.9045  0.6642  0.0489
 8808SOL    HW238061   2.990   4.423  12.033  0.3703  0.8262 -1.6836
 8809SOL     OW38062   2.908   3.505   2.560  0.4439  0.1588 -0.5253
 8809SOL    HW138063   2.921   3.524   2.467  0.5518  0.6250 -0.4170
 8809SOL    HW238064   2.986   3.547   2.595 -1.2832  0.8406  2.4865
 8810SOL     OW38065   0.075   1.339   1.282  0.5225 -0.6059  0.7389
 8810SOL    HW138066   0.104   1.258   1.240 -1.8511 -1.0700 -0.0233
 8810SOL    HW238067   0.145   1.403   1.276 -1.1705  0.9406 -3.2302
 8811SOL     OW38068   0.360   1.464   2.302  0.0051  0.1842 -0.4596
 8811SOL    HW138069   0.455   1.456   2.292 -0.0508 -2.7139  1.4970
 8811SOL    HW238070   0.342   1.439   2.211 -1.8685 -0.2542  0.0428
 8812SOL     OW38071   2.141   1.754  12.698 -0.2165 -0.0770 -0.3509
 8812SOL    HW138072   2.164   1.682  12.639 -1.5442 -0.8155  0.0339
 8812SOL    HW238073   2.076   1.720  12.760  2.6182 -2.1341  1.5349
 8813SOL     OW38074   3.374   3.888   2.823 -0.3112  0.1408  0.3095
 8813SOL    HW138075   3.299   3.920   2.873  0.2831  1.1717  0.5645
 8813SOL    HW238076   3.371   3.800   2.860  1.3526  0.7492  1.9151
 8814SOL     OW38077   2.725   0.510   2.246  0.0476 -0.5849  0.4710
 8814SOL    HW138078   2.645   0.502   2.298  0.3481  0.8535  1.1729
 8814SOL    HW238079   2.690   0.564   2.175  1.5139 -1.2344 -0.7305
 8815SOL     OW38080   2.925   0.976   3.158 -0.1386  0.1950  0.1637
 8815SOL    HW138081   3.004   1.017   3.124 -0.7527  1.2294 -0.0165
 8815SOL    HW238082   2.901   0.923   3.082  1.9785 -0.2421 -0.2210
 8816SOL     OW38083   1.763   1.386   7.562 -0.1813 -0.3023 -0.3587
 8816SOL    HW138084   1.753   1.386   7.657 -3.2747  0.2034 -0.7060
 8816SOL    HW238085   1.753   1.292   7.545 -1.4901  0.5500 -4.2046
 8817SOL     OW38086   3.255   3.355   1.204  0.1058  0.4489  0.0549
 8817SOL    HW138087   3.269   3.394   1.118 -0.3878 -0.8079 -0.6150
 8817SOL    HW238088   3.164   3.322   1.200  0.6502 -1.1612  0.6798
 8818SOL     OW38089   0.098   1.762  16.826 -0.0435 -0.3795 -0.2185
 8818SOL    HW138090   0.127   1.700  16.759 -0.5741  0.1667 -0.9564
 8818SOL    HW238091   0.159   1.731  16.893  1.2720 -0.2835 -1.3682
 8819SOL     OW38092   2.768   1.882  11.871 -0.2378  0.6759  0.2863
 8819SOL    HW138093   2.741   1.973  11.859  1.7605  1.0806 -0.9856
 8819SOL    HW238094   2.854   1.885  11.829  0.3982 -0.9209  1.4613
 8820SOL     OW38095   0.693   0.083   3.248 -0.0720  0.2055 -0.0745
 8820SOL    HW138096   0.742   0.062   3.169 -0.4573  0.8657 -0.4825
 8820SOL    HW238097   0.766   0.120   3.299 -0.4282  1.1508 -0.2669
 8821SOL     OW38098   3.240   4.565   9.256 -0.0360 -0.1141  0.1996
 8821SOL    HW138099   3.284   4.614   9.186 -0.3668 -0.7101 -0.4291
 8821SOL    HW238100   3.310   4.568   9.322  0.5891 -0.2191 -0.4521
 8822SOL     OW38101   3.543   2.246   8.723 -0.5859 -0.1392 -0.2120
 8822SOL    HW138102   3.518   2.313   8.660  0.6389 -0.1157 -0.6682
 8822SOL    HW238103   3.572   2.302   8.795  0.8250  0.4480 -1.2393
 8823SOL     OW38104   0.784   4.192   8.981 -0.1437  0.3815 -0.0757
 8823SOL    HW138105   0.877   4.178   8.998 -0.5649 -1.1397  0.9910
 8823SOL    HW238106   0.773   4.130   8.909  2.4322 -0.0558 -0.0573
 8824SOL     OW38107   1.452   2.396   9.219 -0.2559 -0.6185 -0.4296
 8824SOL    HW138108   1.470   2.488   9.198 -2.1879  0.3253  1.9804
 8824SOL    HW238109   1.440   2.355   9.134 -1.1314 -0.5354 -0.3539
 8825SOL     OW38110   3.047   1.672   5.576  0.6516  0.6407  0.1017
 8825SOL    HW138111   3.015   1.757   5.548  2.0681  0.3067 -2.5025
 8825SOL    HW238112   2.978   1.647   5.638 -0.8086 -1.4397 -2.3369
 8826SOL     OW38113   0.738   1.155  16.922 -0.4691  0.3148 -0.1123
 8826SOL    HW138114   0.682   1.110  16.859  0.8680 -1.3495 -0.0961
 8826SOL    HW238115   0.808   1.200  16.876 -1.0700  2.9192  1.5292
 8827SOL     OW38116   0.572   2.436  14.180  0.5433 -0.0253 -0.4200
 8827SOL    HW138117   0.550   2.428  14.273 -0.2249  1.5485 -0.4754
 8827SOL    HW238118   0.528   2.515  14.148  0.9785  1.1373  1.8787
 8828SOL     OW38119   4.712   3.143   2.403 -0.1155 -0.3742  0.2582
 8828SOL    HW138120   4.705   3.073   2.339  1.6218 -0.9147  0.6536
 8828SOL    HW238121   4.622   3.160   2.430 -0.8824 -2.0590 -1.2761
 8829SOL     OW38122   4.001   0.032  14.030 -0.2424 -0.0736  0.4934
 8829SOL    HW138123   3.933   0.023  14.097  0.1703 -1.4497  0.7237
 8829SOL    HW238124   3.950   0.044  13.951  2.0676 -2.7174 -1.3861
 8830SOL     OW38125   1.737   4.670   6.287  0.0995  0.1622  0.5106
 8830SOL    HW138126   1.714   4.600   6.226  0.5121  0.7593 -0.3345
 8830SOL    HW238127   1.677   0.003   6.264 -0.0231  0.3863  1.5404
 8831SOL     OW38128   1.984   1.314  15.932 -0.2770  0.9141  0.1100
 8831SOL    HW138129   2.037   1.357  15.866 -1.1414  0.9363 -0.5789
 8831SOL    HW238130   1.935   1.254  15.875  3.5214 -1.2711 -0.8385
 8832SOL     OW38131   0.958   2.401  17.224 -0.3482 -0.9077 -0.3300
 8832SOL    HW138132   0.980   2.436  17.137 -0.5431  0.7016  0.2696
 8832SOL    HW238133   0.962   2.478  17.279  0.5745  0.0634 -1.7493
 8833SOL     OW38134   2.826   2.161   5.453  0.5309  0.1909 -0.0830
 8833SOL    HW138135   2.916   2.129   5.459 -0.3015 -1.6849  2.3278
 8833SOL    HW238136   2.781   2.086   5.415 -0.9414  1.1713 -0.2486
 8834SOL     OW38137   1.224   1.338   2.871  0.4903  0.0859  0.2572
 8834SOL    HW138138   1.137   1.304   2.852  1.4063 -0.8398 -2.3620
 8834SOL    HW238139   1.292   1.296   2.819  1.9771  2.4799  0.2523
 8835SOL     OW38140   3.514   0.625   1.692  0.4651 -0.6978 -0.6402
 8835SOL    HW138141   3.570   0.563   1.739  0.5390 -0.1244  0.0315
 8835SOL    HW238142   3.482   0.578   1.615 -0.3214  0.1369 -0.8160
 8836SOL     OW38143   1.888   3.112   5.826  0.3959 -0.3177  0.1975
 8836SOL    HW138144   1.961   3.054   5.849 -0.1660  0.8936  5.0804
 8836SOL    HW238145   1.906   3.182   5.889 -3.6873 -0.2790  1.3367
 8837SOL     OW38146   1.937   2.453   4.640  0.1480  0.2554  0.3342
 8837SOL    HW138147   1.942   2.358   4.645  1.7255  0.3514  0.5214
 8837SOL    HW238148   2.026   2.482   4.659 -0.2312  1.4817  0.2333
 8838SOL     OW38149   2.744   3.985   7.012 -0.1451  0.3355 -0.1275
 8838SOL    HW138150   2.696   3.951   7.087  1.4126 -0.8781  0.3255
 8838SOL    HW238151   2.698   3.944   6.939  0.5075 -2.4464  1.0051
 8839SOL     OW38152   2.965   3.009   7.298  0.4518  0.3473  0.4312
 8839SOL    HW138153   3.029   2.987   7.366  0.0951 -2.1699 -0.0466
 8839SOL    HW238154   2.933   2.922   7.273 -0.6272  0.5325  1.1619
 8840SOL     OW38155   0.480   1.519   8.589 -0.3240 -0.2541 -0.2878
 8840SOL    HW138156   0.463   1.610   8.562  0.8128  0.3140  0.9005
 8840SOL    HW238157   0.488   1.483   8.501 -0.9660  0.1335 -0.5035
 8841SOL     OW38158   3.783   2.284  11.333  0.2014 -0.4681  0.3002
 8841SOL    HW138159   3.751   2.358  11.384 -0.0217  0.7620 -1.6543
 8841SOL    HW238160   3.852   2.314  11.274  1.0539 -0.2527  1.3908
 8842SOL     OW38161   0.191   0.230   3.972 -0.1230  0.1074 -0.5463
 8842SOL    HW138162   0.264   0.285   4.001  0.3456 -1.0145  0.3995
 8842SOL    HW238163   0.123   0.297   3.966  2.1821  2.5872  0.8133
 8843SOL     OW38164   2.647   0.494  12.411 -0.2173 -0.0989 -0.0873
 8843SOL    HW138165   2.575   0.469  12.353  0.0584  0.4769 -0.6784
 8843SOL    HW238166   2.669   0.406  12.443  2.0539 -0.5280 -2.8182
 8844SOL     OW38167   1.032   0.353   7.972  0.1736  0.5361  0.3988
 8844SOL    HW138168   0.967   0.284   7.989  0.9083 -0.4888 -1.0336
 8844SOL    HW238169   0.977   0.411   7.919 -2.2565  0.4023  2.7824
 8845SOL     OW38170   2.409   3.857   2.863  0.0630  0.1385 -0.5452
 8845SOL    HW138171   2.355   3.806   2.923  0.5724  1.8711  1.3696
 8845SOL    HW238172   2.438   3.785   2.807 -0.1469 -0.0816 -0.3681
 8846SOL     OW38173   3.734   2.571   8.867  0.2594  0.0360 -0.0962
 8846SOL    HW138174   3.778   2.486   8.871 -0.5815 -0.4714 -1.5049
 8846SOL    HW238175   3.739   2.590   8.773  0.1358  2.4099  0.3745
 8847SOL     OW38176   1.283   0.574   7.927 -0.6691  0.4025  0.0328
 8847SOL    HW138177   1.200   0.541   7.961  0.0057 -0.9435  0.3732
 8847SOL    HW238178   1.300   0.651   7.980 -4.4198 -0.7214  2.8770
 8848SOL     OW38179   2.638   4.111   6.306  0.1047  0.1679  0.2850
 8848SOL    HW138180   2.575   4.162   6.256  0.2282  1.4816  1.4511
 8848SOL    HW238181   2.595   4.080   6.387  0.0216 -1.0048 -0.2044
 8849SOL     OW38182   4.158   0.555  11.584  0.2516 -0.4031 -1.2758
 8849SOL    HW138183   4.116   0.549  11.670  2.8028  0.8113  0.0718
 8849SOL    HW238184   4.079   0.544  11.531 -0.0805 -0.5792 -0.7383
 8850SOL     OW38185   0.253   2.198   6.747  0.0225 -0.2996 -0.4024
 8850SOL    HW138186   0.315   2.143   6.699  1.2217  1.2030 -0.5434
 8850SOL    HW238187   0.173   2.184   6.695  0.1371 -2.8450  0.1098
 8851SOL     OW38188   4.571   2.507   3.200  0.0284 -0.1437  0.5805
 8851SOL    HW138189   4.512   2.564   3.152  0.0344 -0.6620 -0.0340
 8851SOL    HW238190   4.590   2.443   3.132 -1.0218  0.5114 -0.3197
 8852SOL     OW38191   0.535   0.697   2.813  0.1777  0.1089 -0.5927
 8852SOL    HW138192   0.493   0.768   2.861  0.3792  0.6329 -1.2062
 8852SOL    HW238193   0.577   0.648   2.884 -0.0927 -2.1708 -2.0020
 8853SOL     OW38194   4.205   0.526   6.691 -0.6595  0.1651  0.4886
 8853SOL    HW138195   4.222   0.447   6.744  1.6841  0.9844  0.9884
 8853SOL    HW238196   4.293   0.562   6.699 -0.6960  0.8250 -2.1235
 8854SOL     OW38197   4.062   4.458   6.053 -0.3604  0.3651 -0.4816
 8854SOL    HW138198   4.072   4.550   6.029  1.5814  0.6890  1.5006
 8854SOL    HW238199   4.153   4.432   6.066 -0.7436 -2.8425 -4.1429
 8855SOL     OW38200   4.224   0.242   8.497 -0.2273  0.1299 -0.0240
 8855SOL    HW138201   4.289   0.179   8.528 -0.6263  0.3459  1.2811
 8855SOL    HW238202   4.258   0.266   8.411  0.1232 -1.5340 -0.3609
 8856SOL     OW38203   2.916   2.791  12.793  0.5625  0.1910  0.1470
 8856SOL    HW138204   2.880   2.797  12.705 -1.4694  1.0944  1.0243
 8856SOL    HW238205   2.980   2.720  12.788  1.3288  0.8731  0.2933
 8857SOL     OW38206   4.542   4.514   0.706 -0.2435  0.2284  0.0415
 8857SOL    HW138207   4.522   4.520   0.612 -0.3413  1.5535  0.1559
 8857SOL    HW238208   4.489   4.575   0.757  0.9739 -1.6298  3.5017
 8858SOL     OW38209   2.692   3.631  14.229 -0.4665 -0.0886 -0.7342
 8858SOL    HW138210   2.611   3.583  14.213  0.1082 -1.3716  0.1906
 8858SOL    HW238211   2.729   3.579  14.300  0.1827 -0.2872 -1.2157
 8859SOL     OW38212   3.900   3.805   4.336  0.0254  0.3319 -0.0239
 8859SOL    HW138213   3.831   3.831   4.396  0.2643 -2.5580  1.5033
 8859SOL    HW238214   3.846   3.797   4.257 -0.0453 -1.1735  0.1830
 8860SOL     OW38215   0.491   3.072   4.751 -0.3528  0.1882  0.1407
 8860SOL    HW138216   0.442   2.991   4.765 -1.5149  0.8556 -0.1325
 8860SOL    HW238217   0.580   3.038   4.759 -0.4421 -0.2879 -0.8667
 8861SOL     OW38218   4.463   2.842   8.376  0.3783 -0.7979 -0.6124
 8861SOL    HW138219   4.471   2.885   8.461 -1.3113 -0.6714 -0.5071
 8861SOL    HW238220   4.368   2.829   8.373  0.3807 -0.9104 -0.0738
 8862SOL     OW38221   2.094   2.756   5.481 -0.4913 -0.4426  0.0186
 8862SOL    HW138222   2.133   2.841   5.464 -0.5375 -0.5744 -0.7447
 8862SOL    HW238223   2.133   2.700   5.415 -1.5095 -0.4573 -0.5640
 8863SOL     OW38224   4.459   3.000   7.567  0.4629 -0.0227  0.0647
 8863SOL    HW138225   4.524   3.044   7.622 -0.1908  1.6194 -0.4886
 8863SOL    HW238226   4.416   2.950   7.637  2.3242 -1.0708  0.4720
 8864SOL     OW38227   2.038   1.710  14.721  0.1809 -0.1169  0.2475
 8864SOL    HW138228   1.962   1.712  14.663 -1.8773 -0.5097  2.9074
 8864SOL    HW238229   2.098   1.685  14.651  0.9607  1.5948  0.3200
 8865SOL     OW38230   0.333   4.483   4.131 -0.9323 -0.1263  0.0538
 8865SOL    HW138231   0.277   4.559   4.114 -0.7285  0.3566  1.4863
 8865SOL    HW238232   0.270   4.442   4.190 -1.5951  0.0090 -0.5642
 8866SOL     OW38233   2.585   3.075  13.588 -0.7945 -0.0167  0.0177
 8866SOL    HW138234   2.542   2.992  13.609 -0.4772 -0.2582 -0.3114
 8866SOL    HW238235   2.521   3.131  13.633 -0.2041  0.6403  0.0278
 8867SOL     OW38236   2.375   2.146   2.073  0.2206  0.1746 -0.4289
 8867SOL    HW138237   2.461   2.171   2.040  0.4753  0.0455  0.1395
 8867SOL    HW238238   2.330   2.231   2.073 -1.2467 -0.5836  1.9430
 8868SOL     OW38239   2.228   3.567   3.328  0.3231  0.3576  0.3688
 8868SOL    HW138240   2.192   3.536   3.245  0.9785 -0.8061  0.5116
 8868SOL    HW238241   2.276   3.644   3.297 -0.0587  0.3816 -0.1551
 8869SOL     OW38242   1.514   2.963   2.306  0.3117 -0.1469  0.0425
 8869SOL    HW138243   1.527   3.057   2.323 -0.1352  0.1125 -1.0481
 8869SOL    HW238244   1.588   2.963   2.245  1.6723 -2.9825  1.6798
 8870SOL     OW38245   0.345   2.010  11.973 -0.6290 -0.4896  0.0979
 8870SOL    HW138246   0.360   2.104  11.965  0.2910 -1.0127 -4.5701
 8870SOL    HW238247   0.429   1.969  11.994 -1.2424 -2.1246 -0.6116
 8871SOL     OW38248   3.053   1.582   7.317 -0.0208 -0.2436 -0.6088
 8871SOL    HW138249   2.997   1.562   7.392 -0.1522  2.0716 -0.0848
 8871SOL    HW238250   3.132   1.601   7.367  0.4331  0.6227 -1.6287
 8872SOL     OW38251   1.926   4.288  16.438 -0.0577 -0.1967  0.0567
 8872SOL    HW138252   2.015   4.267  16.464 -0.7996 -2.4050  0.7686
 8872SOL    HW238253   1.921   4.227  16.365  3.6836 -1.2361  0.6979
 8873SOL     OW38254   4.370   0.584   8.514  0.0044 -0.0498  0.0215
 8873SOL    HW138255   4.356   0.635   8.594 -0.6471  1.7367 -1.2436
 8873SOL    HW238256   4.399   0.498   8.545  0.5187 -0.1006 -0.6107
 8874SOL     OW38257   0.919   3.397   7.125 -0.7573  0.0243 -0.0426
 8874SOL    HW138258   0.904   3.470   7.066 -0.6469  0.5332  0.5628
 8874SOL    HW238259   1.010   3.412   7.151 -0.8985  1.7830 -0.5807
 8875SOL     OW38260   4.129   4.370   6.916 -0.2060 -0.4249 -0.3676
 8875SOL    HW138261   4.116   4.286   6.960 -1.2369  0.2033  0.5094
 8875SOL    HW238262   4.222   4.375   6.895  0.2828  2.5327  2.3771
 8876SOL     OW38263   3.566   1.016   3.546 -0.5025  0.5904  0.2319
 8876SOL    HW138264   3.491   1.076   3.542  0.7561  1.9985 -1.7669
 8876SOL    HW238265   3.519   0.933   3.560 -1.9114  1.6948  2.1546
 8877SOL     OW38266   1.537   4.675   6.544  0.4677  0.4711  0.9034
 8877SOL    HW138267   1.451   4.644   6.572 -0.0358  2.1758  1.2153
 8877SOL    HW238268   1.526   4.634   6.458 -2.5520  1.5581  0.7760
 8878SOL     OW38269   0.146   1.169   1.682 -0.0400  0.2850 -0.1975
 8878SOL    HW138270   0.181   1.250   1.645 -1.4584  0.3053 -1.5210
 8878SOL    HW238271   0.081   1.191   1.749 -0.6760  1.3763 -1.1613
 8879SOL     OW38272   4.673   2.117   0.696 -0.1076  0.2385 -0.7467
 8879SOL    HW138273   4.717   2.032   0.688  1.2590  0.8371  0.3402
 8879SOL    HW238274   4.630   2.113   0.611 -0.9804 -0.3862 -0.2799
 8880SOL     OW38275   2.825   2.149  13.526  0.1629  0.1949  0.2500
 8880SOL    HW138276   2.907   2.103  13.508 -1.2454 -2.1696 -0.0263
 8880SOL    HW238277   2.855   2.239  13.514 -0.3386  0.4997  1.3213
 8881SOL     OW38278   0.943   4.556   5.822  0.0565  0.6100 -0.2724
 8881SOL    HW138279   0.879   4.577   5.754  0.8347  3.1995 -0.2228
 8881SOL    HW238280   1.011   4.504   5.780  0.6434 -0.2144  1.7068
 8882SOL     OW38281   3.263   0.982   8.788  0.6049 -0.2365 -0.4278
 8882SOL    HW138282   3.206   1.019   8.856  3.9171  0.4251  1.9861
 8882SOL    HW238283   3.201   0.937   8.731  0.9744  0.3897 -1.3249
 8883SOL     OW38284   3.571   2.993   9.076 -0.0075 -0.0394 -0.1225
 8883SOL    HW138285   3.646   3.007   9.017  1.2000  0.7852  1.6121
 8883SOL    HW238286   3.502   3.023   9.017  0.4346 -0.0713 -0.6637
 8884SOL     OW38287   2.845   0.569   1.517 -0.3154 -0.2752 -0.0086
 8884SOL    HW138288   2.770   0.611   1.476  0.6811  0.8015 -0.7231
 8884SOL    HW238289   2.834   0.554   1.611  0.3659 -4.0763 -0.5165
 8885SOL     OW38290   0.605   1.883  10.945 -0.4798  0.1459 -0.1405
 8885SOL    HW138291   0.653   1.914  11.022  0.3847  1.8987 -1.3866
 8885SOL    HW238292   0.513   1.890  10.971 -1.1466 -1.9640 -1.9548
 8886SOL     OW38293   4.469   4.153   3.176  0.3403 -0.1716  0.5060
 8886SOL    HW138294   4.484   4.059   3.172  0.3850 -0.2732  3.0461
 8886SOL    HW238295   4.439   4.160   3.086  0.9637  1.3869  0.4092
 8887SOL     OW38296   2.789   3.406   7.646  0.1444  0.0637 -0.5747
 8887SOL    HW138297   2.825   3.445   7.565  1.1362  1.7570  0.6782
 8887SOL    HW238298   2.819   3.316   7.635  0.2088 -0.1731  1.6725
 8888SOL     OW38299   3.688   3.809  16.937  0.2468 -0.0212 -0.4036
 8888SOL    HW138300   3.629   3.818  16.862  0.6328  0.6504 -0.6241
 8888SOL    HW238301   3.630   3.851  16.999  3.0245  1.7972  0.9380
 8889SOL     OW38302   0.941   4.138  15.585 -0.2984 -0.0782  0.2056
 8889SOL    HW138303   1.033   4.135  15.558 -1.1774 -1.1413 -2.7225
 8889SOL    HW238304   0.965   4.106  15.672  0.9405 -0.1874 -0.1755
 8890SOL     OW38305   1.936   1.776   1.919  0.3097 -0.0814 -0.3857
 8890SOL    HW138306   1.928   1.723   1.840 -3.6968  0.3233 -0.2535
 8890SOL    HW238307   2.017   1.824   1.902 -0.2111  0.5016 -1.2292
 8891SOL     OW38308   4.655   2.566  15.975 -0.1500 -0.0800  0.0898
 8891SOL    HW138309   4.737   2.598  15.937 -0.0658 -1.6040 -1.0291
 8891SOL    HW238310   4.692   2.537  16.058 -0.0900  0.7499  0.3487
 8892SOL     OW38311   1.121   4.007   1.877 -0.6018  0.2071 -0.0053
 8892SOL    HW138312   1.140   4.100   1.886 -0.5939  0.3543 -1.4659
 8892SOL    HW238313   1.042   4.009   1.823 -0.3985  1.4286 -0.2552
 8893SOL     OW38314   3.945   4.126   4.520 -0.3946 -0.4806  0.0999
 8893SOL    HW138315   3.958   4.220   4.506  1.2193 -0.8222 -0.7319
 8893SOL    HW238316   3.966   4.102   4.429  0.2594  0.8124 -0.0975
 8894SOL     OW38317   1.790   0.990   4.535  0.1172 -0.4153  0.2618
 8894SOL    HW138318   1.822   0.949   4.616  1.8099 -1.3179 -0.8687
 8894SOL    HW238319   1.845   1.068   4.538  0.2970 -0.5541  0.5713
 8895SOL     OW38320   2.243   4.672   5.532  0.0944  0.5829 -0.5082
 8895SOL    HW138321   2.244   4.629   5.447  3.9693 -0.2183 -0.0390
 8895SOL    HW238322   2.322   4.643   5.577 -0.3874  0.8185  0.5186
 8896SOL     OW38323   3.433   3.084   7.223  0.0843 -0.4205 -1.1475
 8896SOL    HW138324   3.448   3.020   7.153  2.0756 -1.9187  0.6487
 8896SOL    HW238325   3.519   3.085   7.265 -0.3712 -1.6816 -0.1749
 8897SOL     OW38326   0.645   1.403   2.223  0.9427  0.0436  0.3318
 8897SOL    HW138327   0.655   1.482   2.170  0.5594 -0.9631 -1.2182
 8897SOL    HW238328   0.661   1.342   2.152  0.0781  0.3860 -0.1597
 8898SOL     OW38329   1.602   3.165   4.567  0.2240 -0.5268 -0.5655
 8898SOL    HW138330   1.691   3.179   4.535  0.8351  1.3994  1.9545
 8898SOL    HW238331   1.556   3.121   4.495  1.1845 -0.2247 -1.3655
 8899SOL     OW38332   0.742   0.033   3.912  0.3690 -0.0689  0.0643
 8899SOL    HW138333   0.694   4.722   3.979  0.7920 -0.6247 -0.0394
 8899SOL    HW238334   0.673   0.046   3.848 -0.1380  1.7731  0.9830
 8900SOL     OW38335   3.442   2.725  10.394  0.4528 -0.1401 -0.4489
 8900SOL    HW138336   3.520   2.768  10.429 -0.4125  2.3088 -1.6048
 8900SOL    HW238337   3.374   2.791  10.408 -0.1447 -1.0296  0.8771
 8901SOL     OW38338   4.134   1.830   7.801 -0.1083 -0.0849 -0.5932
 8901SOL    HW138339   4.141   1.779   7.882 -2.5657  0.4679 -0.0455
 8901SOL    HW238340   4.154   1.760   7.739 -0.9101 -0.8031 -0.0392
 8902SOL     OW38341   4.058   0.293   1.863  0.3664  0.3594 -0.0048
 8902SOL    HW138342   4.153   0.291   1.872  0.3151 -0.6316  0.3880
 8902SOL    HW238343   4.045   0.199   1.851 -0.4565  0.4133  0.4298
 8903SOL     OW38344   3.000   0.210   6.440 -0.2102  0.4769  0.3497
 8903SOL    HW138345   2.948   0.258   6.375 -0.0958 -0.9292 -0.8016
 8903SOL    HW238346   3.047   0.139   6.396 -2.5852 -0.7121 -0.2840
 8904SOL     OW38347   3.320   1.925   1.034  0.1350 -0.0468 -0.3872
 8904SOL    HW138348   3.240   1.875   1.053 -0.8800  1.7536  0.1035
 8904SOL    HW238349   3.307   1.919   0.940 -2.5768 -0.7972  0.0311
 8905SOL     OW38350   1.752   3.762   2.626 -0.1963 -0.3697 -0.3356
 8905SOL    HW138351   1.695   3.687   2.645 -0.9739  0.0706 -0.9412
 8905SOL    HW238352   1.739   3.815   2.705  3.0004 -1.7405  1.1567
 8906SOL     OW38353   4.622   0.717   8.419  0.1439  0.3694  0.3677
 8906SOL    HW138354   4.578   0.801   8.431  0.0557  0.0261  2.4802
 8906SOL    HW238355   4.550   0.660   8.448  1.0690 -0.0160  1.9054
 8907SOL     OW38356   0.476   3.235   3.463 -0.4792  0.0761 -0.3513
 8907SOL    HW138357   0.463   3.306   3.400 -1.3060 -0.9324 -1.3230
 8907SOL    HW238358   0.570   3.232   3.476 -0.4983  2.2177  0.3824
 8908SOL     OW38359   1.562   2.238   1.941 -0.2085 -0.3454  0.9514
 8908SOL    HW138360   1.517   2.316   1.973 -0.9864 -1.0255  1.4943
 8908SOL    HW238361   1.518   2.173   1.996 -0.0591 -0.3204  1.1009
 8909SOL     OW38362   2.080   3.721   4.989 -0.3110  0.2432 -1.2086
 8909SOL    HW138363   2.038   3.746   4.907  2.1268  2.2553 -1.8381
 8909SOL    HW238364   2.074   3.627   4.968  0.5244 -0.2116  0.5325
 8910SOL     OW38365   2.484   2.703   9.681 -0.0699  0.6825  0.3691
 8910SOL    HW138366   2.506   2.716   9.589  0.3650  1.1616  0.5431
 8910SOL    HW238367   2.566   2.660   9.707 -0.0838 -0.1976 -1.0561
 8911SOL     OW38368   1.625   3.332   2.915 -0.1112 -0.0574 -0.5123
 8911SOL    HW138369   1.692   3.286   2.966 -1.0898 -1.5571 -0.5902
 8911SOL    HW238370   1.563   3.361   2.982 -1.1641 -0.4904 -1.3201
 8912SOL     OW38371   3.950   1.137   7.606 -0.4049 -0.3333 -0.1771
 8912SOL    HW138372   3.996   1.220   7.592  2.9028 -1.3212  4.6685
 8912SOL    HW238373   3.942   1.095   7.521  1.1347 -1.3733  0.2072
 8913SOL     OW38374   0.626   1.831  10.125  0.1528 -0.1276 -0.2198
 8913SOL    HW138375   0.661   1.876  10.202  2.0010 -0.5138 -0.8349
 8913SOL    HW238376   0.694   1.838  10.058  0.3826  0.6062  0.0872
 8914SOL     OW38377   2.961   3.384   2.193  0.0041  1.0371 -0.0261
 8914SOL    HW138378   2.989   3.383   2.101  1.9199 -2.5731  0.6199
 8914SOL    HW238379   3.010   3.457   2.230  1.8966 -1.4787  2.3988
 8915SOL     OW38380   2.215   1.303   4.754 -0.4119  0.2664  0.1915
 8915SOL    HW138381   2.272   1.375   4.726 -1.9425  0.9074 -1.2649
 8915SOL    HW238382   2.248   1.297   4.844 -0.2630  3.1646  0.3276
 8916SOL     OW38383   3.947   2.821   6.298  0.2751  0.2854  0.5707
 8916SOL    HW138384   4.010   2.890   6.321 -1.0070  0.9530  2.1227
 8916SOL    HW238385   3.892   2.852   6.226 -0.1909  1.4315  1.4225
 8917SOL     OW38386   4.379   3.634   1.280 -0.6627 -0.0651 -0.0835
 8917SOL    HW138387   4.457   3.581   1.264  0.6280  2.7245 -3.1430
 8917SOL    HW238388   4.362   3.684   1.200 -0.7250  0.5413  0.3146
 8918SOL     OW38389   4.475   1.838   3.910 -0.3235 -0.2309 -0.1311
 8918SOL    HW138390   4.456   1.765   3.851 -2.0915 -0.5001  0.7707
 8918SOL    HW238391   4.399   1.841   3.968  1.0315  0.5301  1.6086
 8919SOL     OW38392   2.261   3.555  11.069 -0.1930 -0.4835  0.5885
 8919SOL    HW138393   2.244   3.534  10.977  0.3198  1.5213  0.0328
 8919SOL    HW238394   2.295   3.644  11.061  0.3954 -0.8061 -0.4844
 8920SOL     OW38395   4.038   3.128   2.807 -0.3818 -0.0702 -0.4592
 8920SOL    HW138396   4.037   3.224   2.800 -1.8861 -0.0854 -0.5053
 8920SOL    HW238397   4.126   3.116   2.844 -1.8675 -1.9084  2.5415
 8921SOL     OW38398   1.277   0.482   5.876 -0.2349 -0.0048  0.5031
 8921SOL    HW138399   1.334   0.518   5.944 -1.1562  0.2051  1.1618
 8921SOL    HW238400   1.305   0.529   5.798  0.9862  0.9310  1.5003
 8922SOL     OW38401   1.661   0.678   1.833 -0.1883 -0.0294 -0.4144
 8922SOL    HW138402   1.587   0.674   1.894 -0.5941  3.2399 -0.7003
 8922SOL    HW238403   1.628   0.739   1.767  0.2108  0.7737  0.1253
 8923SOL     OW38404   0.911   0.274  12.897 -0.1320  0.4670  0.0923
 8923SOL    HW138405   0.924   0.348  12.838  0.7576  0.1672 -0.0930
 8923SOL    HW238406   0.825   0.244  12.868 -0.8727  2.9986 -0.2888
 8924SOL     OW38407   3.274   3.013   8.842  0.4848 -0.4886  0.4426
 8924SOL    HW138408   3.247   2.955   8.913 -0.2919 -1.6602 -0.8073
 8924SOL    HW238409   3.311   2.942   8.789 -0.6040 -0.0083 -0.9530
 8925SOL     OW38410   2.553   1.544  15.721  0.1251 -0.3325  0.0054
 8925SOL    HW138411   2.502   1.527  15.641  1.1510  0.5794 -0.8437
 8925SOL    HW238412   2.630   1.577  15.675  1.2175  0.5709  2.4801
 8926SOL     OW38413   1.558   2.627   4.229 -0.1525 -0.1870 -0.5354
 8926SOL    HW138414   1.472   2.601   4.197 -0.5508  0.3224  0.1296
 8926SOL    HW238415   1.591   2.687   4.162 -1.4473  0.8048 -0.2701
 8927SOL     OW38416   1.524   2.469   8.304 -0.0697  0.4456 -0.1186
 8927SOL    HW138417   1.486   2.397   8.355  1.9341 -2.5221 -2.8139
 8927SOL    HW238418   1.447   2.525   8.308  0.0383  0.4258  2.3354
 8928SOL     OW38419   3.575   2.923   3.005  0.5323  0.4906  0.3299
 8928SOL    HW138420   3.647   2.864   3.025 -0.1251 -0.8540 -1.2918
 8928SOL    HW238421   3.616   2.995   2.958  0.2752 -0.2655 -1.0523
 8929SOL     OW38422   3.501   1.814  16.069 -0.3088 -0.0168  0.0640
 8929SOL    HW138423   3.572   1.833  16.008  1.6396  2.1719  3.0794
 8929SOL    HW238424   3.473   1.727  16.039  0.3159 -0.8586  1.9183
 8930SOL     OW38425   3.552   0.106   9.045 -0.4052 -0.4516  0.0128
 8930SOL    HW138426   3.590   0.192   9.032  0.5927 -0.6796  1.4555
 8930SOL    HW238427   3.544   0.098   9.140  1.6661  3.9643  0.5593
 8931SOL     OW38428   0.891   1.351   8.526  0.1243 -0.0130  0.2959
 8931SOL    HW138429   0.842   1.285   8.576 -2.6535  1.8885  0.1013
 8931SOL    HW238430   0.840   1.431   8.540 -2.3844 -1.2383 -1.8061
 8932SOL     OW38431   0.514   0.476  13.513 -0.3551 -0.5698  0.0196
 8932SOL    HW138432   0.494   0.382  13.521 -1.9797 -0.1896  0.5282
 8932SOL    HW238433   0.598   0.467  13.470 -1.6238 -0.5227 -2.4453
 8933SOL     OW38434   0.793   0.625   2.620  0.0215  0.1229  0.3339
 8933SOL    HW138435   0.731   0.569   2.666 -0.4231  0.3075 -0.0432
 8933SOL    HW238436   0.758   0.712   2.639 -1.9161 -0.5325 -0.2844
 8934SOL     OW38437   1.149   3.367  12.963 -0.1415 -0.4331 -0.2231
 8934SOL    HW138438   1.104   3.439  13.009  0.0043  0.2405 -1.1426
 8934SOL    HW238439   1.241   3.379  12.983 -0.2082 -2.0274  1.0629
 8935SOL     OW38440   3.483   1.799  10.010 -0.0508  0.3648  0.0372
 8935SOL    HW138441   3.476   1.880  10.061 -0.6924  1.4325 -1.7247
 8935SOL    HW238442   3.437   1.830   9.932  0.8776  0.7341 -0.3688
 8936SOL     OW38443   1.546   2.228   5.522 -0.4015 -0.2697  0.2489
 8936SOL    HW138444   1.585   2.143   5.544  1.3434  0.6856  0.8391
 8936SOL    HW238445   1.627   2.270   5.494 -0.5906 -0.5555 -0.7541
 8937SOL     OW38446   2.746   3.487   6.010  0.1955  0.7750  0.1037
 8937SOL    HW138447   2.753   3.398   6.043 -1.1372  1.2624  1.7213
 8937SOL    HW238448   2.749   3.539   6.091 -0.0448  0.1468  0.5206
 8938SOL     OW38449   2.481   0.281   6.303 -0.3884  0.3118  0.8867
 8938SOL    HW138450   2.553   0.335   6.337 -0.6401 -0.0053  1.9203
 8938SOL    HW238451   2.480   0.214   6.372  3.2677  0.2591  0.8939
 8939SOL     OW38452   4.437   3.835   6.810  0.6803  0.1486 -0.4258
 8939SOL    HW138453   4.372   3.905   6.808  0.9239  0.4017  0.3056
 8939SOL    HW238454   4.413   3.792   6.892  0.7282 -1.9431 -1.5044
 8940SOL     OW38455   2.258   4.536   5.305 -0.0676  1.0594  0.2866
 8940SOL    HW138456   2.243   4.489   5.223  2.4352 -0.9074  0.9538
 8940SOL    HW238457   2.302   4.614   5.272  2.0420 -0.3720 -0.2825
 8941SOL     OW38458   1.795   4.693   4.744 -0.0200  0.4159  0.0741
 8941SOL    HW138459   1.732   4.663   4.810  1.9734 -1.8925  0.8940
 8941SOL    HW238460   1.728   4.728   4.686 -1.5945 -0.3160  1.4340
 8942SOL     OW38461   3.421   0.261   2.766  0.1065 -0.1749  0.2528
 8942SOL    HW138462   3.337   0.255   2.811  0.0171 -0.7997  0.0047
 8942SOL    HW238463   3.424   0.185   2.708 -2.0898  0.0020 -0.0960
 8943SOL     OW38464   3.089   0.120   8.002 -0.0444  0.2077 -0.2311
 8943SOL    HW138465   3.182   0.098   8.002  0.0134  0.4801  1.3183
 8943SOL    HW238466   3.064   0.078   8.085 -0.7043 -1.5523 -1.3086
 8944SOL     OW38467   4.272   4.441   8.638  0.4956 -0.0157  0.0439
 8944SOL    HW138468   4.291   4.414   8.548  0.0606 -1.3177  0.3352
 8944SOL    HW238469   4.185   4.480   8.630  0.6931  0.1347 -1.3623
 8945SOL     OW38470   2.799   1.164  13.323  0.0598  0.1879  0.3679
 8945SOL    HW138471   2.721   1.119  13.290 -0.3379  0.1505  1.3588
 8945SOL    HW238472   2.781   1.175  13.416  0.1073 -0.0619  0.4066
 8946SOL     OW38473   3.427   2.576   4.959  0.3192 -0.0279 -0.3485
 8946SOL    HW138474   3.412   2.615   4.872 -1.2592 -2.0663 -0.9877
 8946SOL    HW238475   3.426   2.654   5.013  0.4334 -0.1291 -0.2027
 8947SOL     OW38476   3.104   3.132  11.223 -0.1631  0.2461 -0.7665
 8947SOL    HW138477   3.169   3.182  11.175  1.5548 -0.5337  0.7278
 8947SOL    HW238478   3.102   3.182  11.305  0.0644  1.0199 -1.2322
 8948SOL     OW38479   0.519   1.406   0.239 -0.1003  0.0198  0.0300
 8948SOL    HW138480   0.432   1.387   0.205  0.8703 -2.7298 -0.9624
 8948SOL    HW238481   0.521   1.502   0.240 -0.2267  0.0242 -0.1789
 8949SOL     OW38482   2.583   0.405   4.046 -0.1241  0.4027 -0.5469
 8949SOL    HW138483   2.617   0.322   4.013 -1.8672 -0.6818  0.3521
 8949SOL    HW238484   2.508   0.360   4.087  2.2865 -1.7737  1.4799
 8950SOL     OW38485   1.941   2.100   7.250 -0.2465  0.2747 -0.2181
 8950SOL    HW138486   1.887   2.179   7.251 -1.0255 -0.2585 -0.4919
 8950SOL    HW238487   1.998   2.126   7.323  0.2774  1.5288 -1.0669
 8951SOL     OW38488   1.989   0.390  16.796 -0.2197  0.0981  0.6066
 8951SOL    HW138489   1.902   0.377  16.758  0.1905  1.1597 -0.7348
 8951SOL    HW238490   2.033   0.338  16.729  1.4232  1.1220  0.8827
 8952SOL     OW38491   2.194   3.633   5.830  0.1800 -0.1710 -0.2786
 8952SOL    HW138492   2.177   3.648   5.923  1.5775  2.1704 -0.3889
 8952SOL    HW238493   2.121   3.581   5.798  0.5900 -2.1501  2.0449
 8953SOL     OW38494   0.191   4.013   9.207  0.0490 -0.7505 -0.7367
 8953SOL    HW138495   0.237   3.938   9.244 -0.2246 -0.5381  0.0272
 8953SOL    HW238496   0.217   4.066   9.282  1.3800 -0.0422 -1.7015
 8954SOL     OW38497   2.993   2.461  16.794  0.4116 -0.3425 -0.7985
 8954SOL    HW138498   3.077   2.486  16.754  1.1293  0.7860  1.3929
 8954SOL    HW238499   2.968   2.377  16.756  0.2561 -0.9844  0.7293
 8955SOL     OW38500   4.571   0.684   2.506 -0.7285  0.2276  0.4115
 8955SOL    HW138501   4.618   0.623   2.562 -2.6363 -1.8363 -0.2254
 8955SOL    HW238502   4.606   0.767   2.538  0.9170  0.7608 -2.7623
 8956SOL     OW38503   4.565   0.400  13.911 -0.1298  0.4498  0.6528
 8956SOL    HW138504   4.642   0.426  13.961  0.3392  2.6879 -1.2006
 8956SOL    HW238505   4.500   0.388  13.980 -0.5912 -0.4840  0.0585
 8957SOL     OW38506   2.725   0.928   2.459  0.1722 -0.1069  0.0527
 8957SOL    HW138507   2.747   1.001   2.518 -2.3842 -0.1513  1.0616
 8957SOL    HW238508   2.807   0.929   2.410 -1.4660  0.1176 -2.6635
 8958SOL     OW38509   1.059   1.002   1.905  0.0885 -0.4512  0.1950
 8958SOL    HW138510   1.154   1.012   1.912  0.3052 -0.5766 -2.6361
 8958SOL    HW238511   1.042   1.021   1.998  0.9047 -1.9180  0.6404
 8959SOL     OW38512   1.286   1.822   2.102 -0.0187  0.0329  0.1896
 8959SOL    HW138513   1.215   1.833   2.038  0.2625  0.8281  0.0167
 8959SOL    HW238514   1.284   1.726   2.105 -1.9401  0.0653  0.3920
 8960SOL     OW38515   3.687   0.354   9.002 -0.2249  0.2475  0.0484
 8960SOL    HW138516   3.630   0.420   9.041  2.2225  1.3369  1.8248
 8960SOL    HW238517   3.762   0.378   9.057 -1.1317 -0.5465  1.6203
 8961SOL     OW38518   2.711   3.916   1.150 -0.7540 -0.0055 -0.1065
 8961SOL    HW138519   2.776   3.861   1.194 -2.9807 -1.6377  1.1058
 8961SOL    HW238520   2.628   3.871   1.163 -2.6750  2.9401 -2.1800
 8962SOL     OW38521   1.827   2.812   2.839  0.1626 -0.2575 -0.2667
 8962SOL    HW138522   1.877   2.866   2.900  1.2615  0.1966 -1.5801
 8962SOL    HW238523   1.761   2.874   2.808 -2.0666 -2.4775  0.0264
 8963SOL     OW38524   2.404   2.842  10.870  0.0756  0.4018  0.2219
 8963SOL    HW138525   2.332   2.782  10.848 -0.3014  1.2276 -0.8039
 8963SOL    HW238526   2.478   2.781  10.874 -0.6038 -0.1637  4.2633
 8964SOL     OW38527   2.124   2.041  17.050  0.1431 -0.2813  0.2448
 8964SOL    HW138528   2.071   2.100  17.103  1.0527 -0.1487  1.0056
 8964SOL    HW238529   2.112   1.960  17.101  4.5420 -0.4983  0.8960
 8965SOL     OW38530   1.169   2.406   4.318 -0.3423 -0.4152 -0.3610
 8965SOL    HW138531   1.242   2.366   4.365  2.4747  2.6937 -2.0271
 8965SOL    HW238532   1.131   2.332   4.270  0.6492 -2.1000  1.4510
 8966SOL     OW38533   3.243   1.448  12.151 -0.5864  0.3119 -0.0916
 8966SOL    HW138534   3.266   1.533  12.188 -0.8202  1.5660 -2.8315
 8966SOL    HW238535   3.159   1.426  12.191 -0.5568  0.4575  0.0519
 8967SOL     OW38536   2.750   0.192  10.962 -0.3533 -0.2358 -0.0914
 8967SOL    HW138537   2.681   0.249  10.996 -0.2092  0.5596 -1.1578
 8967SOL    HW238538   2.750   0.117  11.022  0.0957  1.5173  2.0606
 8968SOL     OW38539   0.913   0.508   7.792 -1.1424 -0.5223 -1.1715
 8968SOL    HW138540   0.966   0.512   7.713 -1.4208  0.4673 -1.3096
 8968SOL    HW238541   0.895   0.602   7.795 -0.1508 -0.4566  2.6786
 8969SOL     OW38542   1.825   1.527  17.489  0.0022  0.3951  0.2226
 8969SOL    HW138543   1.915   1.552  17.506  0.6512  0.1588 -2.7699
 8969SOL    HW238544   1.832   1.432  17.501  0.2830  0.5130  0.9594
 8970SOL     OW38545   0.207   2.826   9.327  0.2502  0.3364 -0.1470
 8970SOL    HW138546   0.129   2.770   9.329 -0.5503  1.3682 -2.8761
 8970SOL    HW238547   0.163   2.911   9.330 -0.7604 -0.1995  0.1886
 8971SOL     OW38548   3.936   0.555  11.743  0.2196  0.4739  0.3998
 8971SOL    HW138549   3.878   0.630  11.752 -1.6993 -0.7525 -1.8025
 8971SOL    HW238550   3.927   0.507  11.826  1.7742  0.8381  0.7804
 8972SOL     OW38551   3.451   0.042   1.733  0.7746 -0.6298  0.1503
 8972SOL    HW138552   3.476   0.045   1.640  1.1108  2.3837  0.3401
 8972SOL    HW238553   3.465   0.133   1.759 -0.3283 -0.2550 -0.5785
 8973SOL     OW38554   3.268   4.019   0.562 -0.6187  0.4762  0.3033
 8973SOL    HW138555   3.261   4.074   0.640 -1.3548 -0.0592  0.6164
 8973SOL    HW238556   3.201   4.064   0.511  0.0673 -0.2172 -1.2302
 8974SOL     OW38557   0.675   4.136  16.877 -0.1580  0.4219 -0.0859
 8974SOL    HW138558   0.737   4.168  16.812 -0.4085 -2.4215 -1.7403
 8974SOL    HW238559   0.630   4.219  16.889  0.6008  0.8094  0.0655
 8975SOL     OW38560   3.190   3.876   1.735  0.0027  0.0275  0.1288
 8975SOL    HW138561   3.278   3.911   1.749  1.4852 -3.3715 -0.5922
 8975SOL    HW238562   3.209   3.807   1.672 -1.5070  1.5286 -1.9687
 8976SOL     OW38563   0.384   4.700  17.322 -0.6848 -0.0523 -0.2742
 8976SOL    HW138564   0.316   0.021  17.356 -1.5010 -0.1236 -1.7755
 8976SOL    HW238565   0.439   0.035  17.293  0.2136 -0.0259  1.5048
 8977SOL     OW38566   0.502   1.441   4.015 -0.2497 -0.2646 -0.2547
 8977SOL    HW138567   0.529   1.522   4.059 -2.8468  0.1042  0.6643
 8977SOL    HW238568   0.407   1.438   4.025 -0.1418 -2.2542  0.1478
 8978SOL     OW38569   4.545   0.063   5.655 -0.1293 -0.2184 -0.4542
 8978SOL    HW138570   4.568   4.709   5.643  0.7276 -0.4874  3.2655
 8978SOL    HW238571   4.625   0.110   5.631 -0.3415  1.1495  1.4897
 8979SOL     OW38572   2.946   3.429   8.919  0.4630  0.0757  0.0359
 8979SOL    HW138573   2.851   3.423   8.926  0.5139 -0.1448  0.6128
 8979SOL    HW238574   2.967   3.506   8.972  0.0590  0.2899 -0.1157
 8980SOL     OW38575   4.571   1.777   7.131  0.6298  0.6421 -0.2146
 8980SOL    HW138576   4.491   1.748   7.089  0.6787 -0.2672  0.3175
 8980SOL    HW238577   4.638   1.708   7.136  0.3361  0.3483 -0.4025
 8981SOL     OW38578   3.344   0.215  14.102 -0.3081  0.0484 -0.0982
 8981SOL    HW138579   3.439   0.222  14.099 -0.2202 -0.9986  0.4403
 8981SOL    HW238580   3.332   0.207  14.196  0.7077 -2.1539 -0.1484
 8982SOL     OW38581   0.924   0.801  15.681 -0.0320  0.1041 -0.1783
 8982SOL    HW138582   0.967   0.755  15.609  1.7387 -1.1287  1.6591
 8982SOL    HW238583   0.938   0.891  15.651  1.1731 -0.2338 -0.6167
 8983SOL     OW38584   3.124   0.674   6.307  0.0641  0.1461 -0.1992
 8983SOL    HW138585   3.082   0.637   6.230 -3.3292  0.1434  1.6415
 8983SOL    HW238586   3.200   0.616   6.315 -0.0311 -0.0533 -0.7291
 8984SOL     OW38587   1.287   1.599   8.873  0.4898 -0.1471 -0.0129
 8984SOL    HW138588   1.322   1.688   8.871 -1.6287  0.6521 -1.1336
 8984SOL    HW238589   1.348   1.554   8.814  1.1125  0.5508  0.0871
 8985SOL     OW38590   1.207   4.608  13.113 -0.4580 -0.1556  0.0764
 8985SOL    HW138591   1.198   4.697  13.079 -0.8462  1.7231  5.1199
 8985SOL    HW238592   1.290   4.614  13.159 -0.7426 -2.2160  0.8290
 8986SOL     OW38593   3.052   4.656   3.354  0.7520 -0.3041  0.5788
 8986SOL    HW138594   3.143   4.641   3.329  2.2013  2.8734  3.8801
 8986SOL    HW238595   3.058   0.003   3.399  0.3776 -0.5613  1.1129
 8987SOL     OW38596   1.974   4.723   8.656 -0.3743 -0.2416 -0.0869
 8987SOL    HW138597   1.892   0.032   8.671  0.1649  0.0434  1.9979
 8987SOL    HW238598   1.957   4.654   8.592 -0.7532 -0.7310  0.5381
 8988SOL     OW38599   2.960   2.905   4.677 -0.1485 -0.8232 -0.0575
 8988SOL    HW138600   2.924   2.817   4.664 -0.4279 -0.5857 -0.8548
 8988SOL    HW238601   3.003   2.911   4.592 -1.6130  1.0105 -0.6721
 8989SOL     OW38602   1.904   1.125   6.748 -0.0740  0.5436 -0.2944
 8989SOL    HW138603   1.934   1.108   6.838  2.0573 -0.9715 -1.2920
 8989SOL    HW238604   1.947   1.056   6.698 -0.6490 -1.6625  2.2253
 8990SOL     OW38605   2.356   3.104   8.622  0.0666  0.6590  0.1329
 8990SOL    HW138606   2.307   3.186   8.616  0.6929  1.0451  0.3558
 8990SOL    HW238607   2.300   3.037   8.582  0.3788  0.2877  0.3098
 8991SOL     OW38608   2.419   4.334   6.564 -0.2633  0.0024 -0.0956
 8991SOL    HW138609   2.355   4.273   6.526 -1.1927  3.4486 -3.9985
 8991SOL    HW238610   2.454   4.361   6.479  0.7999  1.6185  0.8692
 8992SOL     OW38611   3.067   4.042   7.479  0.1890 -0.0806 -0.9603
 8992SOL    HW138612   3.101   3.985   7.548 -2.5682  0.7028  1.0390
 8992SOL    HW238613   2.997   3.981   7.456 -0.0775 -0.1814  0.0960
 8993SOL     OW38614   2.232   1.704  11.310 -0.1934  0.7734  0.1153
 8993SOL    HW138615   2.247   1.611  11.324  1.4236  0.7133 -2.1071
 8993SOL    HW238616   2.136   1.704  11.308 -0.1745 -1.0189 -0.7637
 8994SOL     OW38617   4.541   1.177   6.158 -0.9325 -0.6821  0.6492
 8994SOL    HW138618   4.514   1.186   6.249 -0.2435 -0.0809  0.7924
 8994SOL    HW238619   4.625   1.132   6.163 -0.4176  0.7291  4.5069
 8995SOL     OW38620   3.190   3.223   7.675 -0.2223  0.1946  0.4018
 8995SOL    HW138621   3.226   3.225   7.586 -0.1549 -1.2788  0.3981
 8995SOL    HW238622   3.271   3.223   7.725 -0.4999 -0.1029  0.8510
 8996SOL     OW38623   1.397   2.795   2.089 -0.1847 -0.4431 -0.1098
 8996SOL    HW138624   1.443   2.837   2.162 -2.1323  0.6745  0.4786
 8996SOL    HW238625   1.319   2.765   2.135  0.9547 -0.4948  1.7938
 8997SOL     OW38626   0.764   4.194   4.142  0.3123 -0.1622 -0.1440
 8997SOL    HW138627   0.839   4.231   4.095 -1.3528  2.3427 -0.8110
 8997SOL    HW238628   0.712   4.261   4.186  0.0975  0.3703 -1.2180
 8998SOL     OW38629   3.716   3.447   2.461 -0.2523 -0.0881  0.7644
 8998SOL    HW138630   3.804   3.484   2.465 -1.6374  3.3163  0.0540
 8998SOL    HW238631   3.725   3.373   2.522 -0.1971 -0.4002  0.3731
 8999SOL     OW38632   0.042   0.852   7.260 -0.9282 -0.2858 -0.4525
 8999SOL    HW138633   0.041   0.913   7.186  0.7046 -0.7376 -0.8500
 8999SOL    HW238634   4.712   0.890   7.315 -0.7844 -1.7987  0.7625
 9000SOL     OW38635   2.881   0.006   0.283 -0.7748 -0.1993  0.2386
 9000SOL    HW138636   2.832   4.661   0.281  0.3146 -0.8758  1.8946
 9000SOL    HW238637   2.955   4.707   0.331 -0.1003  1.0151  0.1078
 9001SOL     OW38638   1.377   1.678  15.948  0.5509 -0.0803 -0.5325
 9001SOL    HW138639   1.437   1.734  15.997  0.0841  2.4065 -2.8656
 9001SOL    HW238640   1.354   1.607  16.008 -1.1061  0.2790 -0.7395
 9002SOL     OW38641   4.284   0.619   3.582 -0.3669 -0.0299 -0.2948
 9002SOL    HW138642   4.227   0.657   3.649 -0.1442 -0.1265 -0.0518
 9002SOL    HW238643   4.314   0.698   3.536  0.7803 -0.4445 -0.2618
 9003SOL     OW38644   2.492   1.538   4.816  0.1848 -0.4754  0.0874
 9003SOL    HW138645   2.528   1.452   4.836 -0.0907 -0.2437  1.5144
 9003SOL    HW238646   2.560   1.599   4.846  0.2248 -0.1977 -0.5508
 9004SOL     OW38647   0.112   1.854  17.169 -0.1093 -0.0991 -0.1370
 9004SOL    HW138648   0.019   1.829  17.169 -0.2241  0.3207 -2.7179
 9004SOL    HW238649   0.098   1.945  17.195  1.7706 -0.3650  1.7763
 9005SOL     OW38650   0.350   0.750   5.876 -0.1636 -0.0246  0.0081
 9005SOL    HW138651   0.391   0.667   5.902  0.4732 -0.2405 -1.6586
 9005SOL    HW238652   0.374   0.779   5.788  2.1434 -1.8966  0.0281
 9006SOL     OW38653   3.344   1.239   6.417  0.7337 -0.0264 -0.0292
 9006SOL    HW138654   3.348   1.243   6.321  0.8887 -0.0395 -0.0219
 9006SOL    HW238655   3.253   1.264   6.432  0.8820 -0.0543  0.8763
 9007SOL     OW38656   0.855   0.900   5.696 -0.4381 -0.4545  0.0282
 9007SOL    HW138657   0.922   0.835   5.676  1.2739  0.9930  1.0188
 9007SOL    HW238658   0.865   0.896   5.791 -0.6090  1.7110  0.1392
 9008SOL     OW38659   0.381   3.317   0.275 -0.5394  0.5901  0.8423
 9008SOL    HW138660   0.340   3.403   0.265 -0.5714  0.2408 -1.9674
 9008SOL    HW238661   0.307   3.258   0.268 -2.4197  2.9580  0.9817
 9009SOL     OW38662   4.150   4.528   6.584  0.2162 -0.6390 -0.0180
 9009SOL    HW138663   4.204   4.452   6.562  0.2995 -0.3671 -0.7545
 9009SOL    HW238664   4.159   4.585   6.507  1.8591 -1.0889 -0.1678
 9010SOL     OW38665   2.833   2.166  13.826  0.1799 -0.0276 -0.4921
 9010SOL    HW138666   2.808   2.160  13.733  3.0141 -1.2538 -1.1753
 9010SOL    HW238667   2.844   2.260  13.839  1.3990  0.0095 -1.7255
 9011SOL     OW38668   2.203   4.655   4.721 -0.1694 -0.2686  0.1471
 9011SOL    HW138669   2.126   4.603   4.744 -0.4451  1.4049  2.9509
 9011SOL    HW238670   2.202   4.692   4.809  4.1047 -0.2006  0.2055
 9012SOL     OW38671   1.151   3.872   5.812  0.2380  0.0207 -0.1013
 9012SOL    HW138672   1.129   3.957   5.848  1.1747  0.0258  0.4394
 9012SOL    HW238673   1.074   3.819   5.834  0.8574  0.1946  2.3683
 9013SOL     OW38674   1.235   2.483   3.630 -0.9475  0.3576 -0.5104
 9013SOL    HW138675   1.215   2.490   3.537  0.1573  1.7435 -0.6406
 9013SOL    HW238676   1.296   2.410   3.637  1.1977  2.2176  0.3192
 9014SOL     OW38677   0.384   2.611   9.301  0.0809 -0.4293 -0.1287
 9014SOL    HW138678   0.332   2.692   9.302 -0.5051 -0.7779 -2.5169
 9014SOL    HW238679   0.421   2.615   9.390  0.4926  1.3240 -0.3745
 9015SOL     OW38680   0.355   3.702   2.814  0.1464  0.2368  0.4108
 9015SOL    HW138681   0.361   3.797   2.818  1.9886  0.0753  1.4922
 9015SOL    HW238682   0.407   3.688   2.734 -0.2381  3.1370 -0.3522
 9016SOL     OW38683   4.632   1.359  14.339 -0.1771  0.2274  0.5518
 9016SOL    HW138684   4.589   1.420  14.400  2.9102  1.3761  1.5770
 9016SOL    HW238685   4.633   1.283  14.397  1.7856 -0.1344  0.0572
 9017SOL     OW38686   2.770   1.331   3.909  0.4624 -0.0541  0.2594
 9017SOL    HW138687   2.819   1.268   3.857 -0.0097  0.3686 -0.6856
 9017SOL    HW238688   2.682   1.309   3.879  0.1045  0.7371  0.7129
 9018SOL     OW38689   1.227   1.122   9.367  0.0674 -0.3489  0.6832
 9018SOL    HW138690   1.174   1.189   9.409  0.9053  1.8197 -1.7544
 9018SOL    HW238691   1.164   1.053   9.345  0.1681 -0.1094 -0.3712
 9019SOL     OW38692   0.418   3.277   6.148  0.0669  0.4168 -0.3417
 9019SOL    HW138693   0.387   3.367   6.136  2.8353  1.5235  0.7925
 9019SOL    HW238694   0.505   3.294   6.184 -0.6225  1.9909  0.5953
 9020SOL     OW38695   0.563   2.136   7.490 -0.2131  0.5229  0.0282
 9020SOL    HW138696   0.562   2.219   7.538 -0.8335  0.6124 -0.1406
 9020SOL    HW238697   0.512   2.081   7.551  0.1234  2.5458  2.1497
 9021SOL     OW38698   2.081   1.738   3.899 -0.0433 -0.3458 -0.2809
 9021SOL    HW138699   2.090   1.711   3.808  1.0851 -0.8278 -0.0258
 9021SOL    HW238700   2.072   1.833   3.890 -0.9096 -0.2920  1.2758
 9022SOL     OW38701   0.454   3.898   3.516 -0.3349  0.5842 -0.1897
 9022SOL    HW138702   0.539   3.942   3.507  0.6859 -1.7367 -2.0054
 9022SOL    HW238703   0.395   3.969   3.489  0.1246 -0.3413 -3.6731
 9023SOL     OW38704   0.625   4.042  15.847  0.1495  0.1009 -0.1329
 9023SOL    HW138705   0.675   4.112  15.891 -1.4533  0.4688  1.1161
 9023SOL    HW238706   0.592   4.092  15.773 -1.5898  0.8695  1.1650
 9024SOL     OW38707   2.895   1.168   9.146  0.0685  0.7743 -0.0093
 9024SOL    HW138708   2.837   1.239   9.122 -0.3722  0.5629  0.4329
 9024SOL    HW238709   2.840   1.128   9.213 -1.6795  2.5747 -0.3789
 9025SOL     OW38710   2.732   1.399   8.708 -0.6090 -0.5276 -0.0744
 9025SOL    HW138711   2.731   1.370   8.800 -1.3215 -0.3221 -0.0198
 9025SOL    HW238712   2.739   1.310   8.673 -0.5945  0.0986 -1.6638
 9026SOL     OW38713   3.528   2.825  16.466 -0.0399 -0.7021  0.3891
 9026SOL    HW138714   3.509   2.837  16.373  0.6098 -0.2030  0.3245
 9026SOL    HW238715   3.451   2.780  16.501  1.0179 -0.4566  3.0235
 9027SOL     OW38716   2.120   1.137   3.930  0.1261  0.4969  0.4805
 9027SOL    HW138717   2.026   1.119   3.930  0.3996 -0.9618  2.4252
 9027SOL    HW238718   2.115   1.174   3.842 -0.4231 -0.0479  0.2767
 9028SOL     OW38719   4.286   3.632   3.747 -0.8246  0.0230  0.3519
 9028SOL    HW138720   4.356   3.675   3.796 -1.1055  0.6712  0.1870
 9028SOL    HW238721   4.220   3.693   3.780 -1.8790 -0.5658 -0.6647
 9029SOL     OW38722   4.029   1.320  13.450  0.3959 -0.4889 -0.3578
 9029SOL    HW138723   3.937   1.305  13.475  0.1495 -0.1272 -1.0672
 9029SOL    HW238724   4.034   1.253  13.382 -2.1452  0.6121 -1.6271
 9030SOL     OW38725   0.829   0.467   7.363  0.0870 -0.0605  0.1047
 9030SOL    HW138726   0.871   0.446   7.280 -1.0773 -2.2580  0.0734
 9030SOL    HW238727   0.803   0.559   7.354 -1.9493 -0.6347  0.1759
 9031SOL     OW38728   4.296   0.218   3.009  0.2216  0.6604  0.1724
 9031SOL    HW138729   4.202   0.227   2.995  0.4449  1.2839 -0.9667
 9031SOL    HW238730   4.312   0.155   3.079  1.8867  0.4621 -0.3825
 9032SOL     OW38731   0.531   4.393   8.763 -0.3438 -0.0854 -0.6226
 9032SOL    HW138732   0.617   4.400   8.723  0.1995 -3.1180  0.0458
 9032SOL    HW238733   0.556   4.396   8.855  1.2544 -0.2001 -1.0612
 9033SOL     OW38734   4.016   0.701   0.632 -0.4403  0.0695  0.1998
 9033SOL    HW138735   3.981   0.612   0.640 -1.7807  0.6471  0.7289
 9033SOL    HW238736   3.959   0.734   0.563 -0.8286  2.5176  1.6982
 9034SOL     OW38737   3.588   3.713   6.939 -0.7054 -0.3038  0.1394
 9034SOL    HW138738   3.523   3.781   6.955  1.1898  1.0150  2.1608
 9034SOL    HW238739   3.675   3.750   6.947 -1.9911  3.1193 -1.9110
 9035SOL     OW38740   0.087   3.027   4.444  0.2336  0.3144  0.3256
 9035SOL    HW138741   0.114   3.111   4.405 -1.3205  1.2434  1.2521
 9035SOL    HW238742   0.172   2.985   4.459  1.2613  1.7248 -1.4700
 9036SOL     OW38743   1.495   3.620   8.282  0.9487 -0.3244 -0.0776
 9036SOL    HW138744   1.470   3.573   8.362  1.5602 -1.7824 -0.7618
 9036SOL    HW238745   1.414   3.653   8.243  0.8899  0.1196  0.4138
 9037SOL     OW38746   0.859   4.493   2.123 -0.7460  0.0348 -0.2093
 9037SOL    HW138747   0.923   4.437   2.167 -1.3073  1.0014  1.8225
 9037SOL    HW238748   0.879   4.490   2.029  0.5356 -1.3755  0.1205
 9038SOL     OW38749   4.278   0.317   6.834  0.4034  0.5543 -0.0804
 9038SOL    HW138750   4.292   0.266   6.914 -3.4446  0.1065  0.3141
 9038SOL    HW238751   4.330   0.261   6.776  2.1879  1.1273  0.9589
 9039SOL     OW38752   4.312   0.988  17.281 -0.4918  0.1468  0.0952
 9039SOL    HW138753   4.291   1.059  17.220  1.8638 -0.0669 -0.9772
 9039SOL    HW238754   4.291   0.905  17.239  0.8187 -0.6852  1.0830
 9040SOL     OW38755   3.587   2.758   7.401 -0.2753  0.2931  0.7088
 9040SOL    HW138756   3.654   2.827   7.401  0.0766 -0.0636 -1.4011
 9040SOL    HW238757   3.520   2.810   7.357  0.2101 -0.7000 -1.1796
 9041SOL     OW38758   3.675   0.675   8.908  0.2048 -0.1887  0.3361
 9041SOL    HW138759   3.736   0.607   8.938  0.4946 -0.2567 -0.4020
 9041SOL    HW238760   3.709   0.684   8.819  0.9273 -1.1882  0.5046
 9042SOL     OW38761   0.093   2.340  17.748 -0.1143  0.2444 -0.4038
 9042SOL    HW138762   0.150   2.294   0.061 -1.5806 -0.8636  0.1230
 9042SOL    HW238763   0.160   2.341  17.680 -0.3264  0.4213 -0.6124
 9043SOL     OW38764   1.518   2.775   9.546  0.4253 -0.4764  0.3448
 9043SOL    HW138765   1.498   2.692   9.591  0.0285 -0.6758 -0.1933
 9043SOL    HW238766   1.612   2.771   9.563  0.6355 -1.1813 -0.9263
 9044SOL     OW38767   1.263   2.448   3.299  0.1014 -0.6247 -0.3177
 9044SOL    HW138768   1.275   2.543   3.289  1.2831 -0.7422 -0.0613
 9044SOL    HW238769   1.246   2.422   3.209 -0.8005  1.1511 -0.6584
 9045SOL     OW38770   2.033   0.013  14.452 -0.2533 -0.4284  0.0385
 9045SOL    HW138771   2.035   4.725  14.360 -2.4140  0.5343 -0.2867
 9045SOL    HW238772   1.937   0.008  14.458 -0.3199  1.4562  0.5973
 9046SOL     OW38773   0.370   1.414   7.646 -0.4589  0.5164 -0.6025
 9046SOL    HW138774   0.444   1.401   7.587 -0.5049 -2.1460 -0.0900
 9046SOL    HW238775   0.316   1.338   7.625 -1.4955  0.6770  1.4181
 9047SOL     OW38776   1.322   2.036   1.049 -0.2143  0.0066  0.3320
 9047SOL    HW138777   1.326   1.987   0.967  0.8575  0.7026 -0.0266
 9047SOL    HW238778   1.231   2.064   1.042 -0.4054 -0.0903  2.3860
 9048SOL     OW38779   3.395   4.543   7.015  0.1189 -0.3723 -0.0411
 9048SOL    HW138780   3.371   4.451   7.004  0.8069 -0.3453 -1.7497
 9048SOL    HW238781   3.341   4.582   6.946 -1.7766 -2.2589  0.3786
 9049SOL     OW38782   1.800   2.204   2.063 -0.2653  0.0331  0.0218
 9049SOL    HW138783   1.718   2.229   2.021  0.3835 -0.0237 -1.2801
 9049SOL    HW238784   1.797   2.113   2.033  0.3836  0.3374 -0.9266
 9050SOL     OW38785   1.890   0.798   8.438  0.2857 -0.0154 -0.2412
 9050SOL    HW138786   1.964   0.852   8.466 -0.1940 -0.9336  2.8219
 9050SOL    HW238787   1.936   0.760   8.363 -2.4879  1.6202 -2.7653
 9051SOL     OW38788   4.394   0.749  11.583  0.0733  0.2440 -0.1878
 9051SOL    HW138789   4.303   0.730  11.606  0.6254  0.0191  1.8030
 9051SOL    HW238790   4.450   0.678  11.615 -0.0362  1.8109  3.5182
 9052SOL     OW38791   3.092   1.704   8.603  0.2899  0.4057  0.6070
 9052SOL    HW138792   3.093   1.747   8.688 -1.6785  1.5411  0.0533
 9052SOL    HW238793   2.999   1.716   8.585  0.3298  1.2517  0.9451
 9053SOL     OW38794   2.917   4.515   9.227 -0.0646 -0.4452 -0.0181
 9053SOL    HW138795   2.981   4.447   9.252  1.0872  0.5401 -0.2779
 9053SOL    HW238796   2.950   4.511   9.138  1.6868  2.7083  0.4802
 9054SOL     OW38797   0.332   4.538   5.847 -0.4309  0.1625  0.1851
 9054SOL    HW138798   0.375   4.623   5.861  1.6352 -0.5448 -1.8225
 9054SOL    HW238799   0.403   4.490   5.805  0.0940  0.7795  0.3644
 9055SOL     OW38800   2.319   0.173  13.651 -0.4626 -0.3685 -0.3606
 9055SOL    HW138801   2.372   0.135  13.722 -0.6067  3.0463  1.5839
 9055SOL    HW238802   2.339   0.122  13.572  0.0541  1.4172 -1.3729
 9056SOL     OW38803   3.154   2.265  14.777  0.0665  0.1553 -0.5041
 9056SOL    HW138804   3.245   2.266  14.749  1.0326 -3.1560  2.4678
 9056SOL    HW238805   3.148   2.226  14.864 -0.9150  0.1228 -0.5892
 9057SOL     OW38806   4.633   4.391  12.445 -0.8624 -0.4140 -0.0161
 9057SOL    HW138807   4.540   4.366  12.438 -0.9128 -0.0848 -0.5844
 9057SOL    HW238808   4.665   4.302  12.433  0.4259  0.0970 -0.3435
 9058SOL     OW38809   3.764   1.185   7.023 -0.5086  0.1538 -0.2731
 9058SOL    HW138810   3.844   1.145   6.989 -0.5209 -0.2640  0.1932
 9058SOL    HW238811   3.710   1.110   7.046 -0.0074 -0.9747 -2.7642
 9059SOL     OW38812   1.117   0.065   0.892 -0.0312  0.4014 -0.0761
 9059SOL    HW138813   1.203   0.105   0.886 -0.1494  0.5926 -0.5094
 9059SOL    HW238814   1.091   0.064   0.984 -0.6967 -0.1923 -0.2657
 9060SOL     OW38815   2.950   3.266  11.846  0.3023  0.1892  0.2140
 9060SOL    HW138816   3.018   3.201  11.860  0.6246  0.1016 -1.8844
 9060SOL    HW238817   2.888   3.220  11.790  0.1165  1.6442 -0.7783
 9061SOL     OW38818   1.556   2.030  14.328  0.0241  0.9205  0.3649
 9061SOL    HW138819   1.464   2.005  14.335  0.4274 -0.7876 -0.3603
 9061SOL    HW238820   1.576   2.051  14.419  0.6803 -0.6005  0.5842
 9062SOL     OW38821   0.748   2.885   8.648 -0.5838 -0.1603 -0.0796
 9062SOL    HW138822   0.684   2.834   8.698  1.2870 -2.0645  0.3790
 9062SOL    HW238823   0.800   2.940   8.705  1.0113 -0.7288 -0.9838
 9063SOL     OW38824   1.213   2.358   0.859  0.0699 -0.4189  0.5637
 9063SOL    HW138825   1.264   2.337   0.937  0.2098 -1.2799  0.2324
 9063SOL    HW238826   1.231   2.453   0.857  1.7810 -0.6951  2.5909
 9064SOL     OW38827   0.355   4.187   0.494  0.4005 -0.4200 -0.0450
 9064SOL    HW138828   0.311   4.107   0.522  0.6640 -0.6686 -0.3292
 9064SOL    HW238829   0.283   4.247   0.513  1.5970  0.7757  0.7059
 9065SOL     OW38830   0.538   1.707   5.326 -0.0544  0.1861  0.6280
 9065SOL    HW138831   0.573   1.790   5.360  2.6124 -0.6556 -0.0654
 9065SOL    HW238832   0.528   1.660   5.408 -1.2596  0.8401  0.8612
 9066SOL     OW38833   2.182   0.616   8.717  0.4184 -0.4926  0.7247
 9066SOL    HW138834   2.218   0.604   8.805  1.8940 -0.3770  0.1292
 9066SOL    HW238835   2.088   0.613   8.738  0.0807 -0.0344 -0.7119
 9067SOL     OW38836   2.800   3.395   7.947  0.1433 -0.2273  0.5870
 9067SOL    HW138837   2.867   3.327   7.952  0.0205 -0.3960  0.0158
 9067SOL    HW238838   2.764   3.378   7.860 -0.9530  2.0099  0.6000
 9068SOL     OW38839   3.696   0.568   2.654 -0.1599 -0.0584 -0.0787
 9068SOL    HW138840   3.610   0.564   2.694 -1.9115  1.0554 -3.7748
 9068SOL    HW238841   3.689   0.637   2.589  0.7301  0.3765  0.2783
 9069SOL     OW38842   0.933   3.963   6.555 -0.4837 -0.1563  0.1502
 9069SOL    HW138843   1.001   3.916   6.507 -1.2765  0.8573 -1.9612
 9069SOL    HW238844   0.876   3.961   6.478  0.1631  1.1796 -0.3745
 9070SOL     OW38845   2.556   4.058   5.464  0.0123 -0.5470 -0.1706
 9070SOL    HW138846   2.498   3.985   5.442  0.7478 -1.5746  1.3329
 9070SOL    HW238847   2.634   4.013   5.497 -2.1189 -3.1375  1.3249
 9071SOL     OW38848   1.890   1.326   0.528 -0.2711 -0.4688  0.0584
 9071SOL    HW138849   1.965   1.365   0.573  1.7711 -3.6382 -0.6101
 9071SOL    HW238850   1.826   1.391   0.557 -1.3296 -0.8754 -1.3657
 9072SOL     OW38851   0.959   2.752   0.568  0.0130  0.0553  0.0391
 9072SOL    HW138852   0.877   2.766   0.522 -0.1784 -1.6742 -0.1612
 9072SOL    HW238853   0.940   2.779   0.658  0.9600  1.7715 -0.2907
 9073SOL     OW38854   0.929   0.192   5.650 -0.1285  0.6976 -0.5349
 9073SOL    HW138855   0.892   0.242   5.577 -0.8595 -0.6823 -1.1339
 9073SOL    HW238856   0.875   0.225   5.722  0.3837 -0.5096  0.3990
 9074SOL     OW38857   1.478   3.116   5.089 -0.1235  0.0038  0.1894
 9074SOL    HW138858   1.558   3.073   5.120  1.1132  1.8094 -0.5143
 9074SOL    HW238859   1.496   3.117   4.995 -0.6415  0.1490  0.0938
 9075SOL     OW38860   4.347   2.974   4.148 -0.1612 -0.3766  0.1411
 9075SOL    HW138861   4.387   2.887   4.151  1.6919  0.5278  1.2315
 9075SOL    HW238862   4.425   3.027   4.131 -0.5441 -0.1219 -0.8230
 9076SOL     OW38863   3.878   1.182   5.853  0.2522 -0.2820  0.0932
 9076SOL    HW138864   3.866   1.254   5.791  1.0514  0.5349  0.8913
 9076SOL    HW238865   3.959   1.143   5.821 -0.3459  1.1285 -3.1047
 9077SOL     OW38866   1.286   1.497  14.520 -0.0147  0.3500  0.1503
 9077SOL    HW138867   1.309   1.436  14.450 -1.3444 -0.3104  0.2858
 9077SOL    HW238868   1.207   1.536  14.485  0.0425  3.2214  3.2120
 9078SOL     OW38869   4.473   0.045   5.179 -0.6925 -0.2725 -0.7916
 9078SOL    HW138870   4.545   0.097   5.215 -0.5577 -1.2663  0.3602
 9078SOL    HW238871   4.425   0.022   5.258 -2.7303 -1.8182 -2.4876
 9079SOL     OW38872   1.113   1.218   0.570 -0.0799 -0.6637 -0.3627
 9079SOL    HW138873   1.110   1.171   0.487  1.2327  0.0607 -0.8096
 9079SOL    HW238874   1.186   1.278   0.560 -0.7078  0.3813  1.1656
 9080SOL     OW38875   3.821   1.365   2.948  0.5222  0.0440  0.0477
 9080SOL    HW138876   3.901   1.410   2.920 -0.3221  1.5212  0.0267
 9080SOL    HW238877   3.786   1.337   2.863 -3.4072  1.5478  1.1713
 9081SOL     OW38878   0.027   1.437   8.875 -0.0684  0.1420  0.0264
 9081SOL    HW138879   0.049   1.362   8.930  0.7094 -1.2889 -2.2548
 9081SOL    HW238880   0.113   1.458   8.838  0.1981 -0.6458  0.2195
 9082SOL     OW38881   1.637   2.486  13.199  0.2869 -0.2539  0.2918
 9082SOL    HW138882   1.727   2.513  13.215  0.1751 -0.1313  0.7067
 9082SOL    HW238883   1.615   2.445  13.282 -0.9874  2.1730  1.1620
 9083SOL     OW38884   3.653   2.972   2.442  0.5593 -0.2260  0.2020
 9083SOL    HW138885   3.722   3.035   2.465  1.3501 -0.9251 -0.2359
 9083SOL    HW238886   3.703   2.901   2.402  0.0985  0.8542 -2.3624
 9084SOL     OW38887   2.428   1.673  11.667  0.4483  0.6051 -0.4510
 9084SOL    HW138888   2.476   1.591  11.678 -0.7731  0.1006  1.0608
 9084SOL    HW238889   2.438   1.706  11.757 -0.4445 -1.4974  0.4076
 9085SOL     OW38890   1.817   3.071   3.820 -0.2248  0.1181  0.2795
 9085SOL    HW138891   1.726   3.041   3.814 -0.7435  1.4624  1.3201
 9085SOL    HW238892   1.855   3.032   3.741 -0.1725 -0.6497  0.6882
 9086SOL     OW38893   0.491   2.317   1.863  0.0581 -0.6371  0.4431
 9086SOL    HW138894   0.417   2.260   1.883 -1.1560  0.4330 -1.0085
 9086SOL    HW238895   0.462   2.381   1.928  1.2642 -0.2831  0.6292
 9087SOL     OW38896   1.836   4.407   5.430  0.0605 -0.0330 -0.5023
 9087SOL    HW138897   1.812   4.388   5.521 -2.0582  1.2388 -0.8178
 9087SOL    HW238898   1.795   4.336   5.380  1.5468 -1.1737 -0.1185
 9088SOL     OW38899   1.968   0.709   7.235  0.1599 -0.2993 -0.4698
 9088SOL    HW138900   1.945   0.747   7.150  1.2970 -0.6611 -0.9515
 9088SOL    HW238901   2.001   0.622   7.211 -1.9045 -1.0235 -0.6350
 9089SOL     OW38902   2.347   1.467   1.959  0.1655 -0.4799 -0.4595
 9089SOL    HW138903   2.275   1.518   1.921  0.4151  0.6489  0.5543
 9089SOL    HW238904   2.289   1.413   2.013  0.9290 -0.9851 -0.1455
 9090SOL     OW38905   0.316   1.376   3.225  0.6758  0.4965 -0.3005
 9090SOL    HW138906   0.289   1.344   3.139 -1.0889  0.2724  0.3310
 9090SOL    HW238907   0.399   1.419   3.204  0.8327 -0.7202 -2.1200
 9091SOL     OW38908   1.250   2.635   0.834  0.2359 -0.1266  0.1794
 9091SOL    HW138909   1.233   2.636   0.928 -0.0350  3.2326  0.0892
 9091SOL    HW238910   1.246   2.730   0.827  1.1150 -0.0261  1.0585
 9092SOL     OW38911   3.330   1.684   9.070  0.5653  0.5496  0.5373
 9092SOL    HW138912   3.410   1.636   9.052 -0.1902  0.4108 -2.4787
 9092SOL    HW238913   3.278   1.618   9.117  0.6330 -0.6265 -1.0550
 9093SOL     OW38914   0.535   0.664   8.052 -0.1687 -0.4833 -0.2043
 9093SOL    HW138915   0.452   0.620   8.069 -0.8960  0.5950 -0.9574
 9093SOL    HW238916   0.608   0.609   8.080 -0.6438 -1.4255 -0.8287
 9094SOL     OW38917   2.487   1.561   2.960  0.3770 -0.0414  0.0472
 9094SOL    HW138918   2.532   1.524   3.036  0.3402  0.2431  0.2057
 9094SOL    HW238919   2.406   1.606   2.986  0.3188  0.1106 -0.3865
 9095SOL     OW38920   3.580   1.827   2.821  0.5206 -0.0691  0.3433
 9095SOL    HW138921   3.597   1.810   2.914  0.4406 -0.5116  0.2760
 9095SOL    HW238922   3.658   1.783   2.787 -0.8659 -0.0396 -2.8052
 9096SOL     OW38923   0.128   4.539  16.916  0.0277  0.2977  0.4525
 9096SOL    HW138924   0.217   4.567  16.896 -0.1511 -0.8257 -1.9081
 9096SOL    HW238925   0.115   4.548  17.010  0.2166 -1.1215  0.6240
 9097SOL     OW38926   0.231   2.134  17.042  0.2622  0.2628  0.2519
 9097SOL    HW138927   0.292   2.205  17.021  1.6247 -1.1679 -0.6619
 9097SOL    HW238928   0.288   2.058  17.042  1.4207  1.1411  1.7198
 9098SOL     OW38929   0.550   0.924   1.090 -0.0830 -0.1377  0.1873
 9098SOL    HW138930   0.535   0.948   0.998 -0.4386 -1.3605 -0.0761
 9098SOL    HW238931   0.466   0.894   1.123  0.7794 -0.8804  1.7003
 9099SOL     OW38932   1.449   2.417   7.948  0.0435 -0.4420 -0.1608
 9099SOL    HW138933   1.525   2.468   7.976  0.2530 -2.3918  2.7841
 9099SOL    HW238934   1.489   2.389   7.865 -1.6710  1.1815 -1.5302
 9100SOL     OW38935   3.934   1.773  11.684 -0.1438  0.0621 -0.2344
 9100SOL    HW138936   3.955   1.680  11.698  2.3425  0.7629  0.7126
 9100SOL    HW238937   3.873   1.774  11.610 -1.7454 -0.8309  1.0711
 9101SOL     OW38938   0.065   3.635   3.840 -0.2201  0.0591  0.0323
 9101SOL    HW138939   0.117   3.587   3.776 -0.2924 -1.3716  1.0249
 9101SOL    HW238940   0.102   3.723   3.835  1.7340 -0.7728  0.0528
 9102SOL     OW38941   3.172   3.398   7.996  0.7861  0.2083  0.3926
 9102SOL    HW138942   3.084   3.404   7.959  0.4345 -2.2939  0.8559
 9102SOL    HW238943   3.206   3.486   7.977 -1.7361  1.8207  3.3447
 9103SOL     OW38944   0.049   0.192   2.470  0.3796 -0.7114 -0.5216
 9103SOL    HW138945   0.034   0.231   2.384 -0.0557  3.2445  1.3173
 9103SOL    HW238946   4.698   0.181   2.503  0.5006 -0.1092  0.0081
 9104SOL     OW38947   3.528   4.660   2.936 -0.0536 -0.5284 -0.1011
 9104SOL    HW138948   3.482   4.577   2.951 -0.3616 -0.5878 -1.4137
 9104SOL    HW238949   3.485   4.686   2.855 -0.3296 -1.0372 -0.1165
 9105SOL     OW38950   4.144   3.149  17.448  0.1799 -0.8037 -0.0268
 9105SOL    HW138951   4.210   3.218  17.439 -1.4410  0.7743  0.3433
 9105SOL    HW238952   4.165   3.089  17.376  2.6769 -0.4405  0.3971
 9106SOL     OW38953   3.583   2.876   4.785  0.3650 -0.2346  0.5719
 9106SOL    HW138954   3.644   2.946   4.763  0.5301 -0.7400 -0.6277
 9106SOL    HW238955   3.592   2.891   4.879  0.4843  0.8011  0.3937
 9107SOL     OW38956   0.966   4.297   9.539 -0.1490  0.3439 -0.0620
 9107SOL    HW138957   1.009   4.383   9.528  2.1690 -0.7694  0.2842
 9107SOL    HW238958   1.033   4.249   9.588 -1.7231  0.7029  2.4479
 9108SOL     OW38959   0.929   0.890  15.956 -0.0230  0.1778 -0.2596
 9108SOL    HW138960   0.946   0.882  15.862  2.0934  0.9588  0.0614
 9108SOL    HW238961   0.944   0.985  15.955 -0.7146  0.2838 -0.9732
 9109SOL     OW38962   0.655   3.903   4.618 -0.3902 -0.0141  0.4963
 9109SOL    HW138963   0.646   3.940   4.530  1.2377 -0.9260 -0.0716
 9109SOL    HW238964   0.714   3.967   4.658 -0.0708  0.3235 -0.5096
 9110SOL     OW38965   4.225   0.882  16.889  0.6315  0.4934 -0.5955
 9110SOL    HW138966   4.311   0.924  16.880  1.0003  0.0287  0.7619
 9110SOL    HW238967   4.171   0.929  16.826  0.4858  2.3857  0.9344
 9111SOL     OW38968   0.684   2.781   2.769  0.5222 -0.2454  0.7696
 9111SOL    HW138969   0.737   2.831   2.832 -1.7411  0.5227  2.0884
 9111SOL    HW238970   0.621   2.753   2.836 -0.9703  3.2796  0.8356
 9112SOL     OW38971   2.301   3.769   9.768 -0.0851 -0.1284 -0.2521
 9112SOL    HW138972   2.331   3.812   9.688 -0.4441 -0.4937 -0.5850
 9112SOL    HW238973   2.288   3.846   9.822  0.1449 -0.3161  0.0700
 9113SOL     OW38974   1.666   3.265   7.052  0.5766  0.1043  0.4950
 9113SOL    HW138975   1.635   3.282   6.963  1.3607  1.7492  0.5240
 9113SOL    HW238976   1.648   3.172   7.060 -1.8812  0.6362  0.9732
 9114SOL     OW38977   3.334   1.691   8.463 -0.0071  0.6603 -0.2599
 9114SOL    HW138978   3.380   1.672   8.545  1.0697 -3.6134 -1.8711
 9114SOL    HW238979   3.247   1.708   8.499 -0.1257 -1.9851  0.7041
 9115SOL     OW38980   2.125   2.906  12.706  0.2611  0.3807  0.2335
 9115SOL    HW138981   2.167   2.922  12.790 -0.7245 -1.2862  1.0372
 9115SOL    HW238982   2.068   2.983  12.704 -3.7373 -2.5818  0.0339
 9116SOL     OW38983   2.321   2.812  14.568 -0.0997  0.1673  0.0537
 9116SOL    HW138984   2.316   2.869  14.491 -0.2058  0.7798  0.5149
 9116SOL    HW238985   2.279   2.869  14.631  0.6662  1.6463 -0.7748
 9117SOL     OW38986   2.883   4.678  17.721 -0.6491 -0.4713  0.0094
 9117SOL    HW138987   2.872   0.021   0.022  0.7914 -0.0869 -0.2940
 9117SOL    HW238988   2.932   4.622   0.032  0.4153 -0.1065 -0.5225
 9118SOL     OW38989   2.818   3.926   7.423  0.0268  0.2631  0.3526
 9118SOL    HW138990   2.746   3.922   7.486  0.9833  0.4593  1.4426
 9118SOL    HW238991   2.801   4.017   7.396  1.6793  0.8138  1.2109
 9119SOL     OW38992   0.752   4.286   6.334 -0.0300 -0.4921 -0.5514
 9119SOL    HW138993   0.750   4.194   6.308 -1.4059 -0.2700 -1.2703
 9119SOL    HW238994   0.699   4.270   6.413 -0.6954 -1.0936 -1.1181
 9120SOL     OW38995   1.283   0.573   4.232 -0.1374  0.0069 -0.3522
 9120SOL    HW138996   1.309   0.657   4.195  1.0968  0.3535  1.2710
 9120SOL    HW238997   1.282   0.515   4.156 -0.5105 -0.2379 -0.1579
 9121SOL     OW38998   1.307   2.609   8.771 -0.1299  0.3233  0.2330
 9121SOL    HW138999   1.274   2.587   8.858 -1.0564  0.5025 -0.0801
 9121SOL    HW239000   1.333   2.700   8.781  0.3023  0.2278 -0.0109
 9122SOL     OW39001   2.431   4.099   4.517 -0.1490 -0.0026 -0.6927
 9122SOL    HW139002   2.481   4.049   4.452  1.2936 -1.5739  1.6423
 9122SOL    HW239003   2.347   4.123   4.478 -0.9980 -1.0102  0.5294
 9123SOL     OW39004   4.351   2.479   8.738  0.1813  0.1104  0.3265
 9123SOL    HW139005   4.343   2.417   8.665  1.0369  1.9654 -1.3493
 9123SOL    HW239006   4.310   2.429   8.809 -1.9899  0.9301 -0.3442
 9124SOL     OW39007   4.171   1.617  17.467  0.3695  0.5585 -0.3840
 9124SOL    HW139008   4.125   1.582  17.391  0.9032 -1.6848  0.3293
 9124SOL    HW239009   4.106   1.601  17.535  1.0543  0.9157  0.3521
 9125SOL     OW39010   0.215   0.442   1.532 -0.6071  0.2158  0.7240
 9125SOL    HW139011   0.259   0.358   1.546  0.6712  0.9189  0.9665
 9125SOL    HW239012   0.250   0.473   1.449 -2.1522 -1.0396 -0.3934
 9126SOL     OW39013   1.473   3.601   2.994 -0.0792 -0.2404 -0.0562
 9126SOL    HW139014   1.396   3.617   3.048  1.0112  3.4729  0.4024
 9126SOL    HW239015   1.497   3.516   3.030  2.6151  0.2715 -0.5906
 9127SOL     OW39016   0.697   3.465  16.272  0.0101  0.0301  0.1483
 9127SOL    HW139017   0.747   3.546  16.285 -1.0370  0.8098 -0.6767
 9127SOL    HW239018   0.699   3.466  16.177  0.9769 -1.8048  0.1536
 9128SOL     OW39019   3.534   2.148   7.953  0.3952 -0.1745 -0.4290
 9128SOL    HW139020   3.546   2.128   7.860 -0.3420  0.7479 -0.7138
 9128SOL    HW239021   3.444   2.180   7.952  1.2503  2.2213  0.8457
 9129SOL     OW39022   2.638   1.783   6.355  0.1425  0.1308  0.7892
 9129SOL    HW139023   2.681   1.820   6.278 -0.4757  1.3397  1.0247
 9129SOL    HW239024   2.550   1.759   6.326  0.4877  0.4059 -0.5266
 9130SOL     OW39025   2.319   2.791   0.862  0.2314 -0.0622 -0.7043
 9130SOL    HW139026   2.236   2.821   0.823 -0.7835  0.9236  2.2001
 9130SOL    HW239027   2.313   2.833   0.948  2.5404 -1.0595 -0.0717
 9131SOL     OW39028   2.091   2.927   3.951  0.5092 -0.2255 -0.2958
 9131SOL    HW139029   2.104   2.941   4.045  0.7069 -1.0159 -0.2083
 9131SOL    HW239030   2.068   3.016   3.924 -0.0434 -0.3805 -0.3457
 9132SOL     OW39031   3.605   3.913   5.255  0.8244 -0.0236  0.0678
 9132SOL    HW139032   3.652   3.837   5.289 -2.0235 -1.5019  0.7592
 9132SOL    HW239033   3.675   3.937   5.194  1.8869 -0.0230  1.2919
 9133SOL     OW39034   2.858   2.675   8.615  0.1421  0.3711  0.6661
 9133SOL    HW139035   2.885   2.653   8.526 -1.7862 -0.7745  0.3534
 9133SOL    HW239036   2.851   2.770   8.608 -1.7690  0.0534 -1.5447
 9134SOL     OW39037   1.211   1.962  14.842  0.2590 -0.3209 -0.3752
 9134SOL    HW139038   1.127   1.990  14.879  0.6509  3.2564 -2.2124
 9134SOL    HW239039   1.231   1.884  14.895 -0.2495  1.1209  1.9561
 9135SOL     OW39040   0.589   1.712  14.322 -0.3073 -0.2186 -0.2454
 9135SOL    HW139041   0.677   1.727  14.289  0.6557  2.2027  3.4632
 9135SOL    HW239042   0.536   1.760  14.258 -2.4700 -0.7623  1.1061
 9136SOL     OW39043   4.276   3.418   5.762  0.1519 -0.2350 -0.9923
 9136SOL    HW139044   4.301   3.482   5.829  2.3979  0.5797 -2.6416
 9136SOL    HW239045   4.187   3.432   5.730  0.1981  1.9448 -0.1943
 9137SOL     OW39046   4.575   1.864   6.581 -0.5872 -0.1326  0.3926
 9137SOL    HW139047   4.664   1.854   6.548 -0.6503 -0.6218  0.3717
 9137SOL    HW239048   4.592   1.898   6.669 -1.2124 -2.2049  1.2984
 9138SOL     OW39049   0.703   1.918   1.106  0.1602 -0.1207 -0.4996
 9138SOL    HW139050   0.650   1.841   1.087  0.2582 -0.0288 -1.1783
 9138SOL    HW239051   0.776   1.905   1.044 -1.4620 -2.3366 -1.9429
 9139SOL     OW39052   3.532   4.043  16.911  0.7088 -0.1923 -1.0185
 9139SOL    HW139053   3.477   4.043  16.989 -2.9469 -2.8597 -3.5588
 9139SOL    HW239054   3.464   4.072  16.850 -1.2798  0.5897  1.6127
 9140SOL     OW39055   1.790   1.500  14.828 -0.1588  0.0662  0.4268
 9140SOL    HW139056   1.718   1.486  14.890  0.4950  0.9989  1.4056
 9140SOL    HW239057   1.742   1.553  14.764  0.6293  2.1405  1.5480
 9141SOL     OW39058   0.810   1.503  10.819  0.9395  0.4873  0.0215
 9141SOL    HW139059   0.901   1.479  10.798  0.0711 -1.7386 -1.1457
 9141SOL    HW239060   0.791   1.548  10.736  0.4864  0.1035 -0.0843
 9142SOL     OW39061   0.187   4.688  12.609 -0.0294  0.0742  0.0477
 9142SOL    HW139062   0.202   0.036  12.570 -0.3805  0.1678  0.1205
 9142SOL    HW239063   0.092   4.683  12.601 -0.1207 -1.9955  2.0656
 9143SOL     OW39064   3.095   0.315   3.705 -0.3821 -0.2404  0.0393
 9143SOL    HW139065   3.013   0.304   3.753  0.0048 -0.5284  0.6366
 9143SOL    HW239066   3.101   0.409   3.689  1.8132 -0.1826  1.1608
 9144SOL     OW39067   3.729   1.390  16.406  0.2303  0.2988 -0.1171
 9144SOL    HW139068   3.648   1.434  16.432  0.8063  1.6596 -0.6153
 9144SOL    HW239069   3.772   1.473  16.388 -0.1960  0.2089 -1.5851
 9145SOL     OW39070   1.171   0.278   3.315  0.7110 -0.0567 -0.4370
 9145SOL    HW139071   1.164   0.322   3.231  0.9912 -0.6312 -0.7586
 9145SOL    HW239072   1.228   0.340   3.360  0.5501  1.3593 -2.1775
 9146SOL     OW39073   3.285   0.515  14.338  0.1050  0.4061  1.1740
 9146SOL    HW139074   3.281   0.422  14.358  0.8625  0.3375  0.9998
 9146SOL    HW239075   3.212   0.528  14.278 -2.0750 -0.6205  3.6114
 9147SOL     OW39076   1.300   1.536   5.811 -0.1914  0.2984  0.0302
 9147SOL    HW139077   1.320   1.471   5.878 -1.6526 -1.9187 -1.6855
 9147SOL    HW239078   1.370   1.601   5.807 -0.8331  1.0346  0.6907
 9148SOL     OW39079   2.702   3.688   6.725 -0.1341 -0.4935 -0.3339
 9148SOL    HW139080   2.774   3.708   6.786 -0.5744 -1.3605  0.4831
 9148SOL    HW239081   2.645   3.761   6.747 -1.6133 -1.7538  0.0267
 9149SOL     OW39082   4.227   2.053  12.246 -0.4447 -0.1087  0.1535
 9149SOL    HW139083   4.177   2.031  12.168 -2.4270  0.5033  1.2767
 9149SOL    HW239084   4.271   2.128  12.206 -0.4777  0.6355  1.5024
 9150SOL     OW39085   1.245   2.790   7.039 -0.1252 -0.4458 -0.3808
 9150SOL    HW139086   1.284   2.709   7.073  1.4984  0.0131 -1.1597
 9150SOL    HW239087   1.298   2.796   6.959 -2.0081 -1.9300 -1.7329
 9151SOL     OW39088   2.026   4.439  13.310  0.1215  0.3987  0.6164
 9151SOL    HW139089   1.996   4.524  13.278  0.2420  0.1506 -0.1440
 9151SOL    HW239090   2.027   4.385  13.231  0.0981  0.2867  0.6932
 9152SOL     OW39091   4.025   1.091  17.038  0.5529  0.3607  0.2645
 9152SOL    HW139092   4.029   1.079  16.943 -0.0517 -0.2757  0.3137
 9152SOL    HW239093   3.972   1.016  17.066  0.6694  0.4503  0.7121
 9153SOL     OW39094   4.039   4.290  11.413  0.1251 -0.4035  0.2118
 9153SOL    HW139095   4.120   4.242  11.427  0.0424 -0.4895  0.3937
 9153SOL    HW239096   4.055   4.331  11.328  0.3604 -3.5004 -1.2358
 9154SOL     OW39097   3.574   0.684   4.150 -0.0680  0.3229  0.0163
 9154SOL    HW139098   3.552   0.722   4.066  3.4204  2.0529 -0.1186
 9154SOL    HW239099   3.556   0.760   4.205 -2.0620  0.5018 -0.8989
 9155SOL     OW39100   2.034   0.273   2.373  0.9243  0.0394  0.6706
 9155SOL    HW139101   2.086   0.281   2.453 -0.7595 -0.1991  1.7903
 9155SOL    HW239102   2.029   0.366   2.352  3.6682  0.3743  1.5928
 9156SOL     OW39103   0.905   2.209   7.563  0.0444 -0.3723 -0.5320
 9156SOL    HW139104   0.853   2.203   7.643  0.7016 -4.1421 -0.3644
 9156SOL    HW239105   0.887   2.125   7.520  3.0009 -0.7973 -0.9389
 9157SOL     OW39106   4.614   0.603  11.670 -0.6814 -0.6458  0.2169
 9157SOL    HW139107   4.557   0.575  11.741 -1.8724 -0.8066 -0.8040
 9157SOL    HW239108   4.696   0.569  11.706 -0.7070 -0.5380  0.3739
 9158SOL     OW39109   3.493   1.514   0.384 -0.1065 -0.0133  0.0624
 9158SOL    HW139110   3.417   1.562   0.350  0.8922 -0.0718 -2.2501
 9158SOL    HW239111   3.543   1.484   0.308  0.9202  0.2288  0.6372
 9159SOL     OW39112   0.674   4.653   5.877  0.9005  0.0218 -0.3630
 9159SOL    HW139113   0.762   4.649   5.915  1.2646  0.6612 -1.1477
 9159SOL    HW239114   0.642   4.563   5.875 -3.0172  1.3279  3.1933
 9160SOL     OW39115   3.600   2.147   2.246  0.4414  0.1453  0.1585
 9160SOL    HW139116   3.599   2.173   2.339 -1.2256  0.1225  0.1554
 9160SOL    HW239117   3.519   2.188   2.216  0.2435  0.7200  1.4710
 9161SOL     OW39118   4.188   3.808   6.011  0.3411 -0.6476 -0.4898
 9161SOL    HW139119   4.127   3.864   6.058  0.6174 -0.8091  0.0564
 9161SOL    HW239120   4.237   3.775   6.085 -0.7777  2.1841  1.5286
 9162SOL     OW39121   1.976   2.853   5.055  0.4782 -0.0313 -0.0610
 9162SOL    HW139122   1.902   2.803   5.089  0.5383 -0.8078 -1.0603
 9162SOL    HW239123   1.932   2.922   5.006 -0.1235 -0.1371  0.3299
 9163SOL     OW39124   1.641   0.456   4.985  0.0824 -0.4124  0.0260
 9163SOL    HW139125   1.680   0.453   4.898 -0.6876  0.6365 -0.3604
 9163SOL    HW239126   1.602   0.543   4.980 -0.5980 -0.6436  1.1883
 9164SOL     OW39127   2.108   0.467   7.228 -0.2039 -0.1680  0.0480
 9164SOL    HW139128   2.202   0.484   7.232  0.2004 -2.2610 -0.5698
 9164SOL    HW239129   2.094   0.417   7.148 -0.7442  0.4207 -0.2218
 9165SOL     OW39130   4.585   0.951   2.227 -0.9094 -0.0177  0.1215
 9165SOL    HW139131   4.583   0.856   2.231  0.8780 -0.0544 -0.1652
 9165SOL    HW239132   4.677   0.957   2.202 -1.0835  2.5381  0.0917
 9166SOL     OW39133   4.623   2.186   2.654  0.7493 -1.0904 -0.4787
 9166SOL    HW139134   4.556   2.220   2.714  1.0290 -0.3924 -0.5652
 9166SOL    HW239135   4.656   2.266   2.614  1.4566 -1.6154 -0.9413
 9167SOL     OW39136   2.783   4.655   6.055 -0.1073  0.1000 -0.5571
 9167SOL    HW139137   2.849   4.705   6.103  1.0691 -1.3719 -0.6394
 9167SOL    HW239138   2.707   4.695   6.096 -0.5323  0.6052 -1.8520
 9168SOL     OW39139   2.283   0.540  12.644 -0.0417  0.2876 -0.8194
 9168SOL    HW139140   2.228   0.593  12.701  0.5231 -2.9526  2.7786
 9168SOL    HW239141   2.265   0.583  12.560 -1.6597 -0.9256 -1.0955
 9169SOL     OW39142   0.116   0.866   4.061 -0.0787 -0.1199  0.0392
 9169SOL    HW139143   0.034   0.899   4.097  0.7772  1.8817  0.1390
 9169SOL    HW239144   0.134   0.790   4.115  0.7125  0.5083  0.6570
 9170SOL     OW39145   0.559   2.342   4.705  0.4258  0.8517  0.3642
 9170SOL    HW139146   0.476   2.390   4.699 -0.0608 -0.2363 -1.3372
 9170SOL    HW239147   0.565   2.280   4.633 -2.5838  0.4370  0.4708
 9171SOL     OW39148   2.462   2.981   6.606  0.0546 -0.1469  0.0612
 9171SOL    HW139149   2.433   2.893   6.628  2.0909 -0.5100  1.3093
 9171SOL    HW239150   2.405   3.004   6.532 -0.8132 -2.7001 -0.0653
 9172SOL     OW39151   2.848   2.769  16.188 -0.1597  0.0755  0.0264
 9172SOL    HW139152   2.857   2.760  16.283 -3.0267 -1.8499  0.1168
 9172SOL    HW239153   2.806   2.685  16.168  2.2524 -1.3673  1.0063
 9173SOL     OW39154   0.108   1.499   3.346  0.4353  0.4882  0.3635
 9173SOL    HW139155   0.113   1.500   3.441 -3.2623 -0.7334  0.5521
 9173SOL    HW239156   0.191   1.462   3.314 -0.0242 -2.1309  2.1988
 9174SOL     OW39157   1.556   2.418   6.860 -0.0669  0.2310  0.1590
 9174SOL    HW139158   1.601   2.497   6.831 -0.1189 -0.0026 -0.5568
 9174SOL    HW239159   1.529   2.394   6.771 -1.5386 -0.4395  0.7782
 9175SOL     OW39160   3.867   1.961   2.451  0.2962 -0.1907 -0.0182
 9175SOL    HW139161   3.863   1.877   2.407 -1.6912 -0.4259  0.6208
 9175SOL    HW239162   3.780   1.998   2.467  0.4731  0.3316 -0.2469
 9176SOL     OW39163   3.421   2.027   4.429 -0.1044 -0.2776  0.6676
 9176SOL    HW139164   3.364   1.982   4.367 -3.4222  0.6099  3.1107
 9176SOL    HW239165   3.360   2.081   4.479  0.6126 -0.3431  1.6181
 9177SOL     OW39166   2.442   3.840  16.724 -0.1579 -0.3899 -0.2077
 9177SOL    HW139167   2.481   3.764  16.766  1.6501  0.3004 -0.6513
 9177SOL    HW239168   2.526   3.878  16.698  0.9383 -0.6444  2.9285
 9178SOL     OW39169   4.677   4.324   4.019  0.5733  0.6716 -0.0672
 9178SOL    HW139170   4.666   4.230   4.031 -1.7602  1.1189  1.3501
 9178SOL    HW239171   4.629   4.352   4.097  0.1048  0.2234 -0.1981
 9179SOL     OW39172   2.508   4.049   0.705 -0.0637 -0.5277 -0.2132
 9179SOL    HW139173   2.589   4.099   0.718 -0.0196 -0.3465 -1.1742
 9179SOL    HW239174   2.456   4.117   0.663 -0.4701 -0.9649 -0.4079
 9180SOL     OW39175   2.529   2.378   8.598  0.3024 -0.2851  0.4688
 9180SOL    HW139176   2.584   2.369   8.520  3.7691  2.5765  2.6146
 9180SOL    HW239177   2.593   2.381   8.669  1.4040  0.0265 -0.5410
 9181SOL     OW39178   0.579   3.807  17.494 -0.0170 -0.5932  0.8491
 9181SOL    HW139179   0.498   3.769  17.527  0.1343 -0.6726  1.1239
 9181SOL    HW239180   0.564   3.777  17.404  0.9568  1.1430  0.1044
 9182SOL     OW39181   4.477   1.279   5.525 -0.5784 -0.7384  0.4882
 9182SOL    HW139182   4.434   1.265   5.609  1.0504  1.6743  1.7053
 9182SOL    HW239183   4.520   1.194   5.515  0.7731 -0.1201  1.2263
 9183SOL     OW39184   0.759   4.511  13.442 -0.2403 -0.3367  0.5445
 9183SOL    HW139185   0.813   4.571  13.391 -2.6878  0.2211 -1.3648
 9183SOL    HW239186   0.819   4.482  13.512 -2.0119 -0.5188  1.9887
 9184SOL     OW39187   1.954   3.850  12.959  0.2830 -0.1065  0.8128
 9184SOL    HW139188   1.909   3.842  13.043 -1.1014  1.5306  0.2220
 9184SOL    HW239189   2.035   3.802  12.978  0.5026  0.4246  1.2305
 9185SOL     OW39190   3.035   0.546   1.204  0.6243  0.0040 -0.6617
 9185SOL    HW139191   3.042   0.489   1.128 -0.5329 -1.3535  0.2536
 9185SOL    HW239192   3.088   0.499   1.269  0.7253  1.6056  0.4434
 9186SOL     OW39193   3.137   1.698   7.853 -1.0893  0.1234  0.0795
 9186SOL    HW139194   3.233   1.704   7.854 -1.0701 -0.7536  2.1210
 9186SOL    HW239195   3.117   1.694   7.946  0.0269  0.6947  0.3395
 9187SOL     OW39196   4.341   1.907   8.103  0.1768  0.2141  0.3433
 9187SOL    HW139197   4.303   1.984   8.060  2.0187  0.4192 -0.9376
 9187SOL    HW239198   4.260   1.864   8.131 -0.3314  1.3188  0.5841
 9188SOL     OW39199   0.444   2.823   5.748  0.0227  0.2392  0.0662
 9188SOL    HW139200   0.365   2.874   5.734  0.8896  0.7327 -2.9937
 9188SOL    HW239201   0.482   2.879   5.816 -0.8368  0.5156  0.3163
 9189SOL     OW39202   1.242   3.844  17.101 -0.7329  0.0489  0.4603
 9189SOL    HW139203   1.200   3.929  17.110 -0.6306  0.0778  0.6619
 9189SOL    HW239204   1.206   3.817  17.016 -0.4681 -1.8236  0.9571
 9190SOL     OW39205   2.549   3.269   5.499  0.3269 -0.1601  0.7478
 9190SOL    HW139206   2.575   3.237   5.413 -1.3430 -4.0420  1.6749
 9190SOL    HW239207   2.635   3.299   5.528 -0.2176  1.4670  0.7179
 9191SOL     OW39208   1.044   4.017  15.813  0.2641  0.4709  0.0963
 9191SOL    HW139209   1.053   4.097  15.864  2.1263  0.6101 -0.4457
 9191SOL    HW239210   1.134   4.017  15.780 -0.7082  1.6999 -2.5795
 9192SOL     OW39211   4.447   2.458   4.353 -0.0765  0.0313 -0.0107
 9192SOL    HW139212   4.453   2.497   4.441 -0.1501  2.4142 -1.0771
 9192SOL    HW239213   4.465   2.364   4.354 -2.6849 -0.4691  0.8986
 9193SOL     OW39214   2.043   1.361   1.613  0.1490 -0.0527 -0.2531
 9193SOL    HW139215   2.098   1.405   1.548 -2.1763  0.2609 -2.0018
 9193SOL    HW239216   2.106   1.302   1.655  1.4304  1.6145  0.1901
 9194SOL     OW39217   0.305   0.613   2.449  0.5706 -0.3247 -0.2584
 9194SOL    HW139218   0.263   0.543   2.398 -2.1096  0.7503  0.4639
 9194SOL    HW239219   0.360   0.567   2.513  0.1024  0.2289  0.5468
 9195SOL     OW39220   4.339   4.112   5.633 -0.2328 -0.3461  0.4315
 9195SOL    HW139221   4.402   4.174   5.670  1.5162 -2.6132  1.2828
 9195SOL    HW239222   4.294   4.168   5.570  1.1571  1.4570  1.0620
 9196SOL     OW39223   4.110   4.735  14.563 -0.0801 -0.4426  0.3904
 9196SOL    HW139224   4.165   4.683  14.504 -1.4588  1.9799 -3.0385
 9196SOL    HW239225   4.148   0.084  14.549 -0.1145 -0.4493  0.2565
 9197SOL     OW39226   4.111   1.348   8.265  0.1371 -0.0890  0.1159
 9197SOL    HW139227   4.073   1.355   8.178 -0.8690  1.9534  0.7062
 9197SOL    HW239228   4.199   1.383   8.251 -0.3683  0.9641 -0.4423
 9198SOL     OW39229   3.194   0.528  12.379 -0.2009 -0.0295  0.6785
 9198SOL    HW139230   3.279   0.508  12.419 -0.1428 -1.0279  0.0486
 9198SOL    HW239231   3.208   0.487  12.293  0.4654 -0.4995  1.0070
 9199SOL     OW39232   2.322   4.627  14.876 -0.2767  0.4930  0.4193
 9199SOL    HW139233   2.376   4.547  14.877 -1.0205 -0.0228 -0.9326
 9199SOL    HW239234   2.248   4.596  14.928 -0.3993  3.1471  1.7821
 9200SOL     OW39235   3.815   3.678   5.036  0.1338  0.5601  0.4607
 9200SOL    HW139236   3.748   3.611   5.019 -0.0103  1.0188 -0.7674
 9200SOL    HW239237   3.821   3.671   5.131  1.0010 -0.8518  0.3116
 9201SOL     OW39238   3.304   4.434   1.491  0.7813  0.3259 -0.4535
 9201SOL    HW139239   3.254   4.431   1.573  2.3434 -0.9736  0.4422
 9201SOL    HW239240   3.290   4.522   1.456  0.3486 -0.4247 -2.1205
 9202SOL     OW39241   4.353   2.270   0.215 -0.6818  0.3478 -0.4981
 9202SOL    HW139242   4.296   2.280   0.291 -0.7943 -4.6517  0.0508
 9202SOL    HW239243   4.433   2.229   0.248 -0.7126  0.1080 -0.7190
 9203SOL     OW39244   4.447   1.161   2.910 -0.1747 -0.1352 -0.3272
 9203SOL    HW139245   4.353   1.147   2.908 -0.1721 -0.0175 -1.0816
 9203SOL    HW239246   4.478   1.081   2.954  0.6504  0.9601  1.1148
 9204SOL     OW39247   0.727   1.512   5.262  0.1154  0.3451 -0.4220
 9204SOL    HW139248   0.686   1.436   5.304  3.1492 -1.4099 -0.6552
 9204SOL    HW239249   0.661   1.578   5.281  0.0652 -0.1711  1.2012
 9205SOL     OW39250   0.861   1.697   6.062 -0.1625  0.0134 -0.0148
 9205SOL    HW139251   0.805   1.760   6.106 -0.5028 -0.4425  0.2037
 9205SOL    HW239252   0.793   1.660   6.006 -1.3091  1.4552  0.4550
 9206SOL     OW39253   3.042   0.787  15.646 -0.3663  0.1464  0.3845
 9206SOL    HW139254   2.992   0.755  15.571  1.5427 -0.0779 -0.7779
 9206SOL    HW239255   3.088   0.855  15.598 -1.8405  1.2461  0.5209
 9207SOL     OW39256   4.620   2.213   8.862  0.5125  0.2669 -0.2582
 9207SOL    HW139257   4.702   2.173   8.832  0.2384 -0.7702  0.3497
 9207SOL    HW239258   4.601   2.276   8.793  0.9500 -0.8476 -1.3827
 9208SOL     OW39259   3.936   3.366   7.181 -0.3564  0.1758 -0.2872
 9208SOL    HW139260   3.913   3.451   7.219  1.0822  1.0059 -1.2717
 9208SOL    HW239261   3.907   3.316   7.257 -2.4359  0.0474 -1.1599
 9209SOL     OW39262   1.823   1.295   3.717 -0.0477  0.3989 -0.4921
 9209SOL    HW139263   1.776   1.300   3.800  0.5602 -0.2503 -0.1092
 9209SOL    HW239264   1.823   1.200   3.706 -3.5284  0.4429 -1.0378
 9210SOL     OW39265   2.410   2.617  17.449  0.0894 -0.0866  0.4562
 9210SOL    HW139266   2.349   2.557  17.492 -1.2616 -0.9875 -2.7245
 9210SOL    HW239267   2.430   2.552  17.382  0.7931 -1.7314  2.2800
 9211SOL     OW39268   2.942   2.202   1.019 -0.1593 -0.1356  0.3618
 9211SOL    HW139269   2.872   2.213   0.954 -0.5368 -0.0327  0.7859
 9211SOL    HW239270   2.953   2.108   1.007  0.1586 -0.4297  3.1353
 9212SOL     OW39271   0.810   0.106   9.144  0.5829  0.5462  0.2417
 9212SOL    HW139272   0.719   0.077   9.141  0.4660  0.7195  2.1890
 9212SOL    HW239273   0.795   0.183   9.088 -0.5390  0.0601 -0.1327
 9213SOL     OW39274   4.354   4.364   6.538  0.2120 -0.1582 -0.1016
 9213SOL    HW139275   4.383   4.292   6.594 -1.4230  0.1620  1.1809
 9213SOL    HW239276   4.396   4.440   6.579 -1.0783  0.9791 -0.8882
 9214SOL     OW39277   1.198   3.591   9.512 -0.0168 -0.3060  0.3590
 9214SOL    HW139278   1.132   3.566   9.447 -2.6410  0.8383  2.5724
 9214SOL    HW239279   1.138   3.633   9.573  1.2143  0.3825  1.1016
 9215SOL     OW39280   2.202   2.700   1.568  0.5150 -0.1210 -0.4343
 9215SOL    HW139281   2.126   2.754   1.589  2.0791  1.8708  0.1217
 9215SOL    HW239282   2.221   2.663   1.655 -0.9068  0.6576  0.2130
 9216SOL     OW39283   2.588   3.880   4.678  0.0817 -0.7019  0.5531
 9216SOL    HW139284   2.682   3.894   4.687 -0.1558  0.9431  0.4484
 9216SOL    HW239285   2.570   3.927   4.596  0.0653 -0.3462  0.7612
 9217SOL     OW39286   1.547   2.233   7.745  1.0021  0.4284  0.0122
 9217SOL    HW139287   1.570   2.240   7.653 -1.6025  1.8362 -0.5373
 9217SOL    HW239288   1.458   2.202   7.729  0.6575  1.0912  0.6066
 9218SOL     OW39289   0.684   0.594   0.481 -0.7483 -0.0643  0.1147
 9218SOL    HW139290   0.707   0.560   0.567  1.1034 -2.5669 -1.3970
 9218SOL    HW239291   0.589   0.589   0.488 -0.7851 -0.2228 -0.4522
 9219SOL     OW39292   0.829   4.263  16.671  0.5612  0.4966 -0.5306
 9219SOL    HW139293   0.782   4.241  16.590  1.6953  0.5276 -1.2067
 9219SOL    HW239294   0.812   4.355  16.686 -0.9280  0.5877 -2.7965
 9220SOL     OW39295   2.781   4.126  11.587 -0.6141  1.0647  0.3426
 9220SOL    HW139296   2.850   4.115  11.522 -0.2063 -0.4466  1.0316
 9220SOL    HW239297   2.742   4.040  11.597  1.4330  0.3167  1.8284
 9221SOL     OW39298   4.092   4.192   6.628  0.1177  0.4611  0.5228
 9221SOL    HW139299   4.054   4.280   6.629  0.0497  0.4117  2.0671
 9221SOL    HW239300   4.019   4.137   6.658  1.0908 -1.5196 -0.6708
 9222SOL     OW39301   1.364   3.568   7.697 -0.6649  0.1957  0.2611
 9222SOL    HW139302   1.302   3.509   7.740  0.2300 -1.2769 -0.4302
 9222SOL    HW239303   1.333   3.656   7.718  1.8552  0.9487  0.9193
 9223SOL     OW39304   1.822   1.535   5.756  0.0301  0.2038 -0.9954
 9223SOL    HW139305   1.847   1.504   5.843 -0.8978  2.4240  0.0590
 9223SOL    HW239306   1.854   1.462   5.703 -1.1766 -0.4593 -0.8122
 9224SOL     OW39307   4.587   3.251   5.928 -0.6699 -0.0930  0.1895
 9224SOL    HW139308   4.662   3.264   5.987  0.1055  1.0893 -1.0623
 9224SOL    HW239309   4.518   3.266   5.993  0.3013  0.0716  1.1908
 9225SOL     OW39310   0.957   2.321  13.807 -0.0375 -0.4034 -0.2052
 9225SOL    HW139311   1.023   2.343  13.872  1.4731 -0.6682 -1.6589
 9225SOL    HW239312   1.005   2.338  13.726  1.0848  0.3424  0.6169
 9226SOL     OW39313   4.018   1.276   7.992  0.1698  0.3199  0.6146
 9226SOL    HW139314   4.037   1.191   7.954 -0.0634  1.9603 -3.1404
 9226SOL    HW239315   4.000   1.330   7.915  0.5433 -0.0440  0.2732
 9227SOL     OW39316   1.404   3.136  10.182  0.0307  0.0315  0.3024
 9227SOL    HW139317   1.347   3.214  10.178 -2.2256 -1.6288  0.0398
 9227SOL    HW239318   1.483   3.165  10.227 -0.2082  0.4584  0.4532
 9228SOL     OW39319   1.059   1.373   1.061 -0.0203 -0.0462 -0.4212
 9228SOL    HW139320   1.105   1.343   0.983  2.2315  0.9626  0.5140
 9228SOL    HW239321   1.026   1.454   1.023 -0.2189 -0.3918 -0.9840
 9229SOL     OW39322   3.050   2.229  12.731  0.4567 -0.3810 -0.4561
 9229SOL    HW139323   3.015   2.151  12.689  1.4164 -0.5145 -1.0254
 9229SOL    HW239324   3.144   2.229  12.709  0.2057  1.8702 -1.6203
 9230SOL     OW39325   0.167   1.487  17.411  0.3086 -0.2694  0.1440
 9230SOL    HW139326   0.104   1.558  17.419 -0.6609 -1.2097  0.9912
 9230SOL    HW239327   0.205   1.493  17.499 -1.8626 -4.5631  1.4000
 9231SOL     OW39328   3.191   1.444   9.522 -0.7585  0.1730 -0.5648
 9231SOL    HW139329   3.189   1.493   9.439 -1.4540  0.2988 -0.4775
 9231SOL    HW239330   3.266   1.491   9.558 -1.3284  1.6880 -1.3392
 9232SOL     OW39331   1.969   1.383   5.575  0.0390  0.2285 -0.4490
 9232SOL    HW139332   1.975   1.383   5.480 -1.2571 -0.5672 -0.5331
 9232SOL    HW239333   2.057   1.407   5.604 -0.6294  1.6644  0.3708
 9233SOL     OW39334   3.912   1.478   5.389 -0.0821  0.6308 -0.0708
 9233SOL    HW139335   3.950   1.390   5.382 -3.1850 -0.6140 -1.1097
 9233SOL    HW239336   3.821   1.479   5.420  0.3291  2.7149  1.0767
 9234SOL     OW39337   3.296   4.528   5.192 -0.2046 -0.2515  0.2580
 9234SOL    HW139338   3.302   4.438   5.161  0.7063  0.8004 -2.5522
 9234SOL    HW239339   3.300   4.589   5.118 -0.3140 -2.0025 -1.1640
 9235SOL     OW39340   1.369   0.785   4.784 -0.3542  0.0455  0.2664
 9235SOL    HW139341   1.322   0.856   4.828 -1.1656 -1.6382  2.1423
 9235SOL    HW239342   1.357   0.818   4.695 -0.1428  0.3465  0.3513
 9236SOL     OW39343   1.727   3.716   8.662 -0.3641  0.3147 -0.3324
 9236SOL    HW139344   1.646   3.765   8.651 -0.2641  0.8105  1.2124
 9236SOL    HW239345   1.778   3.759   8.731  0.2315 -3.4162  1.5488
 9237SOL     OW39346   2.927   3.771   2.653  0.1383 -0.0474  0.5235
 9237SOL    HW139347   2.919   3.722   2.735  0.5265  0.0020  0.5924
 9237SOL    HW239348   2.896   3.702   2.595 -1.5914  0.2143  1.1556
 9238SOL     OW39349   2.857   0.314   7.597 -0.6178 -0.1207  0.1349
 9238SOL    HW139350   2.872   0.245   7.662  2.8550  0.7957  0.2996
 9238SOL    HW239351   2.763   0.314   7.583 -0.4753  0.8015 -0.7837
 9239SOL     OW39352   0.581   4.705   3.560 -0.4490  0.3123 -0.6806
 9239SOL    HW139353   0.675   4.698   3.574 -0.3363  0.5157 -1.3179
 9239SOL    HW239354   0.541   0.021   3.628  0.4318  0.8443 -0.5964
 9240SOL     OW39355   3.831   1.540   7.328  0.1255 -0.0340 -0.5438
 9240SOL    HW139356   3.825   1.627   7.367 -2.0360 -0.9457  1.0981
 9240SOL    HW239357   3.904   1.548   7.267 -1.0777 -0.3971 -2.0463
 9241SOL     OW39358   4.444   4.404  10.370  0.2749 -0.2726 -0.4547
 9241SOL    HW139359   4.484   4.317  10.381 -2.9279 -1.5868  0.5991
 9241SOL    HW239360   4.372   4.381  10.311  0.4893  1.3003 -1.3346
 9242SOL     OW39361   2.601   2.625   1.796 -0.2634 -0.3315  0.3615
 9242SOL    HW139362   2.566   2.715   1.799  2.2075  0.7121 -1.9616
 9242SOL    HW239363   2.649   2.625   1.713 -1.2343  3.9351 -0.2438
 9243SOL     OW39364   4.395   0.319   5.622 -0.0994  0.2298  0.4559
 9243SOL    HW139365   4.458   0.282   5.685 -0.2720  0.4497  0.7600
 9243SOL    HW239366   4.318   0.318   5.678 -0.4646 -0.0345 -0.0592
 9244SOL     OW39367   0.383   2.819  16.886 -0.2592 -0.2290 -0.0069
 9244SOL    HW139368   0.459   2.876  16.894 -0.8038  0.5049 -0.0432
 9244SOL    HW239369   0.307   2.871  16.860  0.0547  0.5826  0.7109
 9245SOL     OW39370   3.502   2.703   5.643  0.1334  0.2082  0.2126
 9245SOL    HW139371   3.558   2.750   5.581  0.5447 -0.4491  0.0780
 9245SOL    HW239372   3.419   2.702   5.595 -1.4413 -1.8307  3.0123
 9246SOL     OW39373   1.642   3.524   1.735  0.9989 -0.2858  0.1501
 9246SOL    HW139374   1.601   3.438   1.723  2.8693 -1.3786  1.7116
 9246SOL    HW239375   1.659   3.518   1.829 -2.0603 -0.3424  0.6853
 9247SOL     OW39376   1.785   0.026  16.538 -0.2182 -0.3908 -0.8575
 9247SOL    HW139377   1.795   4.675  16.504  0.9067  0.0399 -1.6682
 9247SOL    HW239378   1.785   0.009  16.632 -1.8417 -1.0405 -0.9793
 9248SOL     OW39379   4.010   4.366   2.561 -0.4882 -0.3988 -0.0449
 9248SOL    HW139380   4.038   4.451   2.526  1.0232 -1.6251 -1.8612
 9248SOL    HW239381   3.968   4.394   2.642 -0.4480  1.7446 -0.7580
 9249SOL     OW39382   1.931   1.532   7.364 -0.1579 -0.4103  0.6687
 9249SOL    HW139383   1.862   1.466   7.372  1.0544 -1.3742  3.4416
 9249SOL    HW239384   1.990   1.516   7.438 -0.1783 -0.2500  0.7190
 9250SOL     OW39385   0.976   0.845   7.025  0.2380 -0.0364  0.1681
 9250SOL    HW139386   1.069   0.826   7.041  0.1165  0.3176  1.2972
 9250SOL    HW239387   0.972   0.936   7.054 -0.7579  0.1604 -0.5956
 9251SOL     OW39388   0.611   1.369   1.746  0.1665 -0.1823 -0.7802
 9251SOL    HW139389   0.590   1.277   1.761 -2.6489  0.9776  2.1828
 9251SOL    HW239390   0.695   1.367   1.700  0.0071  2.8726 -1.1450
 9252SOL     OW39391   0.337   2.609   7.450  0.2111 -0.2125 -0.2238
 9252SOL    HW139392   0.306   2.527   7.412  0.7603  0.3733 -1.9542
 9252SOL    HW239393   0.255   2.631   7.493  1.7874 -0.9370  3.1320
 9253SOL     OW39394   3.763   0.814   2.506  0.2999  0.2707  0.8362
 9253SOL    HW139395   3.727   0.868   2.576 -0.1505 -1.2442  1.7708
 9253SOL    HW239396   3.849   0.784   2.533  0.4736  1.6184  1.7546
 9254SOL     OW39397   3.790   4.486  10.676 -0.4043 -0.2147 -0.2886
 9254SOL    HW139398   3.709   4.459  10.717  0.2673 -0.0168  1.1636
 9254SOL    HW239399   3.802   4.567  10.726  0.0380 -1.0406  0.9306
 9255SOL     OW39400   1.660   0.118   8.138 -0.2157 -0.4821  0.1638
 9255SOL    HW139401   1.600   0.064   8.087 -2.8737  1.7591  0.8807
 9255SOL    HW239402   1.727   0.161   8.086 -0.0215 -0.4342  0.4526
 9256SOL     OW39403   1.226   2.719   6.115  0.1484 -0.4994 -0.0148
 9256SOL    HW139404   1.203   2.631   6.084  1.6066 -1.2373  0.9929
 9256SOL    HW239405   1.280   2.755   6.044 -0.6493 -0.3792 -0.5533
 9257SOL     OW39406   2.197   2.517   4.716  0.3405  0.0648 -0.1698
 9257SOL    HW139407   2.280   2.507   4.763 -0.0608 -0.9827  0.3156
 9257SOL    HW239408   2.222   2.511   4.624 -2.8190  0.1510 -1.0379
 9258SOL     OW39409   0.347   3.534   6.112 -0.2526 -0.2267  0.6635
 9258SOL    HW139410   0.358   3.557   6.020  0.4701 -0.5832  0.6656
 9258SOL    HW239411   0.252   3.536   6.123  0.0212  0.9392  2.9358
 9259SOL     OW39412   1.806   2.365   6.672 -0.1661  0.1393 -0.3664
 9259SOL    HW139413   1.736   2.318   6.627 -0.9312  0.2570  0.7043
 9259SOL    HW239414   1.878   2.385   6.613  0.1319 -1.7326 -0.6404
 9260SOL     OW39415   2.689   1.777   2.567 -0.4284  0.4441  0.1232
 9260SOL    HW139416   2.684   1.776   2.662 -0.9660  1.5677  0.0991
 9260SOL    HW239417   2.622   1.837   2.534  0.8488  1.4184 -0.6614
 9261SOL     OW39418   2.334   4.627  17.142  0.5667 -0.0033 -0.2159
 9261SOL    HW139419   2.356   4.689  17.211  0.8083  0.3760 -0.6359
 9261SOL    HW239420   2.239   4.639  17.152  0.1874 -3.6221  0.6456
 9262SOL     OW39421   2.327   2.290  14.746  0.3115  0.1505 -0.1236
 9262SOL    HW139422   2.362   2.361  14.691 -2.4850  2.1665  0.6891
 9262SOL    HW239423   2.285   2.349  14.809  1.7349 -0.9106  1.8313
 9263SOL     OW39424   2.892   2.931   2.143 -0.0168  0.2299  0.4017
 9263SOL    HW139425   2.961   2.870   2.169  1.8441  2.6855  1.1392
 9263SOL    HW239426   2.880   2.985   2.221 -1.8014 -2.0540  1.7128
 9264SOL     OW39427   0.641   0.718   7.067  0.4336  0.0378  0.0810
 9264SOL    HW139428   0.578   0.790   7.062 -1.2613 -1.5694 -1.5200
 9264SOL    HW239429   0.705   0.761   7.125 -0.0287 -0.2353  0.7884
 9265SOL     OW39430   3.881   1.417   2.138 -0.2333 -0.2292 -0.5262
 9265SOL    HW139431   3.948   1.353   2.162 -1.0092 -0.6562  0.4851
 9265SOL    HW239432   3.803   1.373   2.172 -0.1319  1.1187  1.4487
 9266SOL     OW39433   2.800   2.545   5.943 -0.6616 -0.1455 -0.5209
 9266SOL    HW139434   2.781   2.456   5.915  0.3614 -1.8962  4.1851
 9266SOL    HW239435   2.730   2.590   5.897  0.2614 -1.2434 -3.0099
 9267SOL     OW39436   3.656   1.896   2.152 -0.1725  0.5153 -0.5615
 9267SOL    HW139437   3.626   1.983   2.179  1.6522  0.8393  0.4445
 9267SOL    HW239438   3.750   1.895   2.171 -0.3570 -0.1986  0.3245
 9268SOL     OW39439   4.457   4.339   1.641 -0.4978  0.3591 -0.2688
 9268SOL    HW139440   4.403   4.299   1.573 -0.1344  0.5584 -0.6782
 9268SOL    HW239441   4.482   4.419   1.594 -1.4965  0.5052 -0.5501
 9269SOL     OW39442   4.127   4.059  15.722  0.0121 -0.5346 -0.2452
 9269SOL    HW139443   4.202   4.015  15.682  0.9466  0.3257  0.5789
 9269SOL    HW239444   4.053   4.010  15.685  1.8233 -1.4382 -2.6873
 9270SOL     OW39445   0.750   2.883   3.182 -0.0678 -0.1589 -0.3989
 9270SOL    HW139446   0.785   2.972   3.193 -0.6406 -0.5713  4.6157
 9270SOL    HW239447   0.754   2.850   3.271 -1.1761  0.6861 -0.0428
 9271SOL     OW39448   3.049   0.387   8.529  0.3532  0.2391 -0.2936
 9271SOL    HW139449   2.991   0.368   8.456  0.7828 -0.0592 -0.5526
 9271SOL    HW239450   3.048   0.303   8.574 -1.5523  1.1025  1.2710
 9272SOL     OW39451   4.231   2.363   8.473 -0.4147  0.1635  0.0740
 9272SOL    HW139452   4.285   2.285   8.489  0.5146  1.0597  1.3411
 9272SOL    HW239453   4.150   2.338   8.517  0.2484  1.0650  1.8429
 9273SOL     OW39454   4.490   4.716   8.392 -0.1326  0.3157  0.8066
 9273SOL    HW139455   4.558   4.653   8.370 -0.8070  0.3253 -1.2982
 9273SOL    HW239456   4.465   0.024   8.311  0.9726 -1.2563 -0.4130
 9274SOL     OW39457   0.177   1.874   1.718 -0.0586 -0.0088  0.1897
 9274SOL    HW139458   0.249   1.820   1.685 -1.7315 -2.8292  1.1528
 9274SOL    HW239459   0.110   1.806   1.722 -0.2202  0.0368 -1.5312
 9275SOL     OW39460   0.561   2.996   1.675 -0.3612  0.1647 -0.0736
 9275SOL    HW139461   0.527   2.921   1.626  0.3994  0.8607 -1.6895
 9275SOL    HW239462   0.598   2.955   1.753 -0.5945 -0.7485 -0.4424
 9276SOL     OW39463   2.026   0.452   1.979  0.1264  0.2209 -0.0472
 9276SOL    HW139464   2.046   0.359   1.965  0.5082  0.3039 -0.0626
 9276SOL    HW239465   2.090   0.498   1.924 -0.3054 -0.2616 -0.9512
 9277SOL     OW39466   0.853   2.862   7.946 -0.1560  0.2620  0.6812
 9277SOL    HW139467   0.790   2.807   7.993 -0.9021 -1.6550 -2.5514
 9277SOL    HW239468   0.936   2.821   7.970  0.3482  1.1842  0.4822
 9278SOL     OW39469   4.497   0.586   5.512  0.0188 -0.7979  0.3820
 9278SOL    HW139470   4.513   0.559   5.602 -0.1225  1.0405  0.9606
 9278SOL    HW239471   4.463   0.505   5.474  1.5832 -1.3265  0.1446
 9279SOL     OW39472   1.328   3.150   3.444  0.2044  0.1645 -0.0227
 9279SOL    HW139473   1.271   3.123   3.372  1.3408 -1.5266 -0.2889
 9279SOL    HW239474   1.298   3.097   3.518  2.5369  0.3429  1.0428
 9280SOL     OW39475   4.699   2.671   9.335  0.2033 -0.0717  0.4055
 9280SOL    HW139476   4.651   2.731   9.393 -0.8830  1.0000 -1.5937
 9280SOL    HW239477   4.633   2.608   9.306  0.3122  0.0986 -0.2107
 9281SOL     OW39478   2.740   3.876   6.131  0.8896 -0.0393  0.2563
 9281SOL    HW139479   2.663   3.870   6.076  0.2661 -0.3017  1.1576
 9281SOL    HW239480   2.717   3.946   6.192 -1.0227 -0.6087  0.1607
 9282SOL     OW39481   1.155   2.743   5.675  0.3834 -0.3453  0.5874
 9282SOL    HW139482   1.143   2.825   5.629 -0.0171 -0.5139  0.3823
 9282SOL    HW239483   1.065   2.709   5.681 -0.9756  3.1800 -0.0631
 9283SOL     OW39484   2.312   2.986  13.266 -0.2981 -0.9773  0.0805
 9283SOL    HW139485   2.218   3.003  13.259 -0.5538 -1.4860  2.3027
 9283SOL    HW239486   2.317   2.909  13.323 -0.2204 -1.6008 -0.7701
 9284SOL     OW39487   0.495   0.477   6.221 -0.1011 -0.0299 -0.3513
 9284SOL    HW139488   0.424   0.444   6.275  0.5674 -1.0512 -0.0973
 9284SOL    HW239489   0.555   0.403   6.218  0.5291  0.5065 -0.9606
 9285SOL     OW39490   0.035   3.834   8.091 -0.4828 -0.8553 -0.0908
 9285SOL    HW139491   0.058   3.794   8.007  0.1952 -0.1435 -0.2437
 9285SOL    HW239492   4.726   3.914   8.065 -0.0304 -0.4664  0.3110
 9286SOL     OW39493   2.651   2.652   0.336 -0.3125 -0.1211 -0.4439
 9286SOL    HW139494   2.721   2.697   0.383 -0.3342  0.7050 -1.2146
 9286SOL    HW239495   2.579   2.714   0.321  0.2242  0.7479  0.5097
 9287SOL     OW39496   0.783   1.450   0.131  0.1702  0.4085  0.2841
 9287SOL    HW139497   0.741   1.445   0.045  0.7943  0.8662 -0.0502
 9287SOL    HW239498   0.712   1.409   0.180  0.5550 -2.2710 -1.3763
 9288SOL     OW39499   2.436   3.980  15.717  0.2025 -0.0351  0.6363
 9288SOL    HW139500   2.348   3.942  15.726  0.3568 -0.6873 -0.5765
 9288SOL    HW239501   2.416   4.073  15.707  4.1701  0.9185  1.9309
 9289SOL     OW39502   4.582   1.469   0.050  0.1497  0.3759  0.2145
 9289SOL    HW139503   4.558   1.399  17.738 -2.7830  0.7221  0.9859
 9289SOL    HW239504   4.648   1.417   0.096 -1.0852 -0.1216  1.4229
 9290SOL     OW39505   1.700   1.880   5.121 -0.1878 -0.3388  0.3084
 9290SOL    HW139506   1.609   1.863   5.095 -0.1963 -0.7494  0.6013
 9290SOL    HW239507   1.721   1.792   5.153  1.2083  0.4748  1.6049
 9291SOL     OW39508   2.172   2.981  12.427  0.5741  0.1566  0.2285
 9291SOL    HW139509   2.177   3.050  12.494 -0.2705 -0.8401  1.3205
 9291SOL    HW239510   2.179   2.910  12.490 -2.9465  0.5927  1.1356
 9292SOL     OW39511   0.971   1.217   4.345  0.0453 -0.3646  0.5651
 9292SOL    HW139512   0.969   1.283   4.276 -0.6576 -0.8989  0.0654
 9292SOL    HW239513   1.062   1.189   4.349 -0.3413 -2.0045 -1.8462
 9293SOL     OW39514   1.111   3.988   6.987  0.1510  0.0467  0.0934
 9293SOL    HW139515   1.203   4.007   7.005  0.5174 -2.0193  0.2945
 9293SOL    HW239516   1.081   3.954   7.071  0.1081  0.1234  0.1097
 9294SOL     OW39517   3.956   2.728  16.595  0.3894  0.0254  0.7380
 9294SOL    HW139518   4.017   2.665  16.632 -0.1050  0.2090  1.8768
 9294SOL    HW239519   4.012   2.765  16.528 -1.1899  2.1660  0.5946
 9295SOL     OW39520   1.077   0.739   9.122 -0.6168 -0.2657  0.1976
 9295SOL    HW139521   1.026   0.755   9.042 -1.1224 -2.1599  0.1425
 9295SOL    HW239522   1.155   0.721   9.070  0.0646  0.9603  0.7960
 9296SOL     OW39523   2.887   3.543   4.082 -0.0722  0.6412 -0.0848
 9296SOL    HW139524   2.871   3.463   4.032  2.8143 -1.6801  2.6734
 9296SOL    HW239525   2.940   3.501   4.150 -2.9353 -0.0016  1.7581
 9297SOL     OW39526   1.889   4.293   6.512 -0.1696 -0.9015 -0.2382
 9297SOL    HW139527   1.800   4.268   6.537 -0.8882 -0.8034 -2.7758
 9297SOL    HW239528   1.905   4.368   6.569 -0.8433 -0.5870 -0.4678
 9298SOL     OW39529   1.645   3.420  10.193  0.3774  0.2322  0.0989
 9298SOL    HW139530   1.603   3.385  10.114 -0.3615  0.0333  0.5820
 9298SOL    HW239531   1.637   3.338  10.242 -3.5752  2.6048  3.3939
 9299SOL     OW39532   2.418   0.978   0.437 -0.3073  0.4022  0.2016
 9299SOL    HW139533   2.358   0.953   0.507 -0.6290 -0.3835 -0.3541
 9299SOL    HW239534   2.495   0.927   0.464  0.5360  1.5579 -0.0176
 9300SOL     OW39535   0.883   2.090   0.464 -0.0228  0.3385 -0.1999
 9300SOL    HW139536   0.832   2.167   0.439  0.8785  1.5922  1.8090
 9300SOL    HW239537   0.972   2.124   0.471  0.3201 -0.6464  0.2185
 9301SOL     OW39538   4.688   0.785   5.434 -0.9993  0.6602  0.2624
 9301SOL    HW139539   4.612   0.735   5.465 -0.6059 -0.2952 -0.3214
 9301SOL    HW239540   4.684   0.751   5.344  0.3097 -0.8334  0.7961
 9302SOL     OW39541   2.679   2.859   4.155 -0.1129 -0.1754  0.0821
 9302SOL    HW139542   2.682   2.936   4.098 -0.4382  0.1621  0.5200
 9302SOL    HW239543   2.689   2.793   4.086 -3.0610 -0.5488  0.0200
 9303SOL     OW39544   3.549   1.488   5.539  0.4583 -0.2086 -0.7130
 9303SOL    HW139545   3.599   1.568   5.525 -0.2907 -0.0513 -2.5070
 9303SOL    HW239546   3.479   1.525   5.593 -0.9058 -1.6728 -1.4690
 9304SOL     OW39547   1.341   1.897  17.109 -0.5835  0.9759  0.1978
 9304SOL    HW139548   1.312   1.912  17.199 -2.7943  0.4133 -0.4048
 9304SOL    HW239549   1.317   1.806  17.089 -0.2966  0.4201  2.3421
 9305SOL     OW39550   2.546   4.701   3.743  0.0894 -0.3464 -0.1350
 9305SOL    HW139551   2.634   4.662   3.751  0.6037  0.8962  0.2940
 9305SOL    HW239552   2.510   4.636   3.682 -0.6430 -0.6329  0.6009
 9306SOL     OW39553   1.257   3.841   9.519 -0.0224 -0.5825  0.0268
 9306SOL    HW139554   1.261   3.762   9.466  0.9219 -1.8623  1.9941
 9306SOL    HW239555   1.312   3.813   9.592 -0.7998 -1.0396  0.4488
 9307SOL     OW39556   4.529   1.015   8.477  0.2138 -0.0506 -0.5565
 9307SOL    HW139557   4.556   0.993   8.567 -2.8491  0.6369  0.5370
 9307SOL    HW239558   4.435   1.024   8.488  0.7271  1.8905  2.2716
 9308SOL     OW39559   1.741   1.946   1.980  0.0403  0.2745 -0.7784
 9308SOL    HW139560   1.815   1.887   1.992  0.3797  0.9212  0.2559
 9308SOL    HW239561   1.677   1.893   1.933  2.5830 -3.2295 -0.2937
 9309SOL     OW39562   3.934   1.535   2.464 -0.3024  0.2912 -0.4026
 9309SOL    HW139563   3.872   1.608   2.454 -1.0377 -0.3635 -0.6050
 9309SOL    HW239564   3.923   1.488   2.382  0.6416  0.1407 -0.4457
 9310SOL     OW39565   3.840   3.349   0.117 -0.1723 -0.1958  0.2646
 9310SOL    HW139566   3.904   3.285   0.146 -0.1591 -0.5114 -0.4561
 9310SOL    HW239567   3.890   3.386   0.044 -1.7934  1.0069 -0.2401
 9311SOL     OW39568   4.197   2.640   9.871 -0.1034  0.2437  0.1952
 9311SOL    HW139569   4.268   2.694   9.907 -1.7488  0.6727  2.7459
 9311SOL    HW239570   4.211   2.557   9.916 -2.5825 -0.2818 -0.0255
 9312SOL     OW39571   3.492   4.399   2.923 -0.4457 -0.3383  0.6053
 9312SOL    HW139572   3.529   4.343   2.855 -0.8597 -1.5568  1.3840
 9312SOL    HW239573   3.507   4.338   2.995  2.0584 -0.2590  0.1541
 9313SOL     OW39574   3.952   4.017   7.651 -0.1620  0.7266  0.3381
 9313SOL    HW139575   4.047   4.016   7.646 -0.2125 -0.1230 -0.5133
 9313SOL    HW239576   3.945   4.036   7.744 -0.4684 -0.9221  0.6513
 9314SOL     OW39577   4.549   3.625   2.379 -0.1492  0.0935 -0.5709
 9314SOL    HW139578   4.549   3.614   2.284 -0.7211  1.6838 -0.7468
 9314SOL    HW239579   4.628   3.677   2.391 -0.4215  0.5506 -0.7491
 9315SOL     OW39580   3.465   0.195   8.493  0.1621 -0.3622  0.3279
 9315SOL    HW139581   3.454   0.286   8.466  2.0134 -0.4219 -0.6452
 9315SOL    HW239582   3.406   0.200   8.568 -0.0839  1.9395 -0.0198
 9316SOL     OW39583   0.106   2.529   0.476  0.2757 -0.3401  0.3156
 9316SOL    HW139584   0.130   2.482   0.556  1.4547 -0.9528 -0.4003
 9316SOL    HW239585   0.017   2.549   0.507 -0.1861 -1.7513 -0.0987
 9317SOL     OW39586   2.954   3.096   6.045  0.7167  0.6586 -0.3641
 9317SOL    HW139587   3.039   3.051   6.044 -0.1793 -1.0274 -1.5295
 9317SOL    HW239588   2.988   3.185   6.052 -1.6704  1.5480 -0.2398
 9318SOL     OW39589   3.817   0.255   4.233 -0.0324 -0.3244  0.0641
 9318SOL    HW139590   3.886   0.277   4.296 -0.7948 -0.3069  0.8916
 9318SOL    HW239591   3.765   0.335   4.223 -1.4407 -1.3374 -0.6534
 9319SOL     OW39592   1.118   4.529   2.712 -0.0560  0.1438  0.1031
 9319SOL    HW139593   1.055   4.516   2.641 -0.0519 -0.7959  0.2744
 9319SOL    HW239594   1.074   4.469   2.772  0.4656  0.5286  0.8639
 9320SOL     OW39595   1.772   2.802   8.131 -0.4636 -0.7239  0.1156
 9320SOL    HW139596   1.741   2.717   8.099 -0.8274 -0.2083 -0.9098
 9320SOL    HW239597   1.707   2.811   8.200  2.2281  0.5496  2.4899
 9321SOL     OW39598   1.899   3.631  10.831  0.1861  0.0737  0.5011
 9321SOL    HW139599   1.825   3.626  10.770  0.5460 -1.4408  0.1826
 9321SOL    HW239600   1.868   3.677  10.908 -0.9894  0.6875 -0.3373
 9322SOL     OW39601   2.202   4.527   2.726 -0.1292  0.2023 -0.3664
 9322SOL    HW139602   2.169   4.612   2.698 -1.3891 -0.7472 -1.7928
 9322SOL    HW239603   2.132   4.478   2.682 -2.0778  0.8700  1.9839
 9323SOL     OW39604   2.005   2.374  16.602 -0.0355 -0.1295  0.0743
 9323SOL    HW139605   2.060   2.400  16.675  1.3058  2.1720 -1.7576
 9323SOL    HW239606   1.964   2.454  16.569 -0.6256  0.0838  1.3233
 9324SOL     OW39607   2.249   3.371  14.202  0.5099 -0.2836 -0.2296
 9324SOL    HW139608   2.201   3.368  14.285  0.9349  0.3878  0.0440
 9324SOL    HW239609   2.198   3.439  14.160 -0.2030 -1.5683 -1.4234
 9325SOL     OW39610   3.827   4.476  14.471 -0.5506  0.0531 -0.2041
 9325SOL    HW139611   3.895   4.484  14.404 -0.1347 -0.3077  0.1802
 9325SOL    HW239612   3.780   4.394  14.458 -1.9483  0.9970 -1.0582
 9326SOL     OW39613   4.008   2.975   2.438  0.8361  0.1851 -0.1601
 9326SOL    HW139614   3.943   3.007   2.501 -0.9296 -4.0481  0.1873
 9326SOL    HW239615   4.006   3.049   2.377  1.1930 -0.6327 -1.1589
 9327SOL     OW39616   4.293   4.175   8.488 -0.2912 -0.6320 -0.0694
 9327SOL    HW139617   4.370   4.123   8.464 -0.3807 -0.2946 -1.0666
 9327SOL    HW239618   4.312   4.263   8.454 -1.2378 -0.1490  0.6621
 9328SOL     OW39619   2.383   3.170   9.071 -0.4411 -0.1885  0.1814
 9328SOL    HW139620   2.435   3.247   9.092 -0.2056  0.4008 -2.5876
 9328SOL    HW239621   2.406   3.149   8.981 -4.2248 -0.6494 -0.6789
 9329SOL     OW39622   0.643   2.839  17.722  0.0518 -0.3862  0.3067
 9329SOL    HW139623   0.693   2.917  17.744  0.1860 -0.3076 -0.3059
 9329SOL    HW239624   0.612   2.860  17.634  0.7201 -0.1404  0.1386
 9330SOL     OW39625   0.465   4.044   2.010 -0.3585  0.4330  0.0619
 9330SOL    HW139626   0.414   4.098   1.950  1.7212  2.3461 -0.0218
 9330SOL    HW239627   0.418   4.050   2.093 -1.6945 -2.8088 -0.4525
 9331SOL     OW39628   0.260   3.540   0.167  0.0228  0.2021  0.0323
 9331SOL    HW139629   0.197   3.597   0.122 -0.9106  0.9501  2.3145
 9331SOL    HW239630   0.311   3.519   0.089  1.4788  0.3666  0.9542
 9332SOL     OW39631   0.553   3.784   7.038  0.6704  0.1558 -0.3731
 9332SOL    HW139632   0.555   3.688   7.045  2.0719  0.4022  2.2760
 9332SOL    HW239633   0.614   3.811   7.106 -0.9360  3.6315 -0.3365
 9333SOL     OW39634   0.699   0.877  10.566 -0.3167  0.1312  0.1202
 9333SOL    HW139635   0.675   0.968  10.545 -0.6756  0.1063  0.4090
 9333SOL    HW239636   0.781   0.889  10.614 -0.3778  0.6787  0.0865
 9334SOL     OW39637   0.486   4.081   7.754 -0.3552  0.3454 -0.1491
 9334SOL    HW139638   0.582   4.075   7.759 -0.2741  0.0226 -2.2713
 9334SOL    HW239639   0.461   4.144   7.687  1.1583  1.0652 -0.0445
 9335SOL     OW39640   3.362   0.439   8.388 -0.0237  0.2909 -0.2896
 9335SOL    HW139641   3.274   0.454   8.424  0.3101 -0.7818  0.9552
 9335SOL    HW239642   3.406   0.518   8.420 -0.0675 -0.1348  0.8111
 9336SOL     OW39643   0.660   3.834  12.624  0.1782  0.8763  0.0266
 9336SOL    HW139644   0.674   3.800  12.536  3.3934  0.6551  0.6552
 9336SOL    HW239645   0.666   3.749  12.667  0.0699  0.9910  0.2685
 9337SOL     OW39646   0.220   3.306   4.095  0.4747  0.2681 -0.2187
 9337SOL    HW139647   0.293   3.339   4.042  0.8274  1.7452  1.1922
 9337SOL    HW239648   0.146   3.343   4.048  0.0122 -0.9034 -0.4000
 9338SOL     OW39649   4.299   3.750  17.742  0.0018 -0.4915  0.2494
 9338SOL    HW139650   4.225   3.700   0.028 -0.4128 -1.7158 -2.3427
 9338SOL    HW239651   4.314   3.814   0.063  1.4103  0.4477 -0.9198
 9339SOL     OW39652   0.231   2.585   6.201 -0.2168  0.0445  0.0464
 9339SOL    HW139653   0.252   2.656   6.141  0.8962 -0.4713 -0.1860
 9339SOL    HW239654   0.148   2.562   6.159 -0.3248 -1.5244  1.1371
 9340SOL     OW39655   2.464   0.675   2.778 -0.1045 -0.0076 -0.1211
 9340SOL    HW139656   2.508   0.703   2.697  0.4018 -1.5958 -0.3868
 9340SOL    HW239657   2.510   0.715   2.852  0.1099  0.7728 -0.6706
 9341SOL     OW39658   1.039   3.985   9.393  0.2590 -0.3855 -0.1115
 9341SOL    HW139659   1.100   3.958   9.462 -0.4417 -1.6155  0.0205
 9341SOL    HW239660   1.079   4.067   9.364  0.8913 -0.5613  0.2593
 9342SOL     OW39661   2.164   0.871   8.571  0.1239 -0.0201  0.1177
 9342SOL    HW139662   2.195   0.920   8.647  1.8602  0.5101 -0.9325
 9342SOL    HW239663   2.168   0.781   8.603 -2.2662  0.6319  2.2247
 9343SOL     OW39664   2.649   3.205   5.275  0.6695  0.1990  0.2808
 9343SOL    HW139665   2.641   3.213   5.180  0.5766  3.2364  0.5598
 9343SOL    HW239666   2.741   3.223   5.290  1.0174  1.0451 -2.8722
 9344SOL     OW39667   3.699   1.091   3.744 -0.0614 -0.5428 -0.2702
 9344SOL    HW139668   3.650   1.050   3.672 -0.9649 -1.2493  0.7451
 9344SOL    HW239669   3.635   1.087   3.815 -1.2217  1.9526 -1.1730
 9345SOL     OW39670   2.039   3.849   9.110 -0.6133 -0.9198  0.5459
 9345SOL    HW139671   1.997   3.773   9.151 -0.2529 -1.4500 -0.0638
 9345SOL    HW239672   2.132   3.833   9.129 -0.5986  0.1713  1.3660
 9346SOL     OW39673   0.390   2.873   6.917 -0.2712 -0.3697  0.2836
 9346SOL    HW139674   0.479   2.844   6.901 -0.1981  0.6573 -1.1557
 9346SOL    HW239675   0.362   2.799   6.971 -0.7880 -0.7392 -0.4881
 9347SOL     OW39676   0.036   0.935   5.019  0.8541  0.0577 -0.5700
 9347SOL    HW139677   0.014   0.906   4.930 -0.5869 -0.8569  0.0891
 9347SOL    HW239678   0.028   1.030   5.015  2.6906  0.3203  2.6378
 9348SOL     OW39679   4.132   1.051   3.215  0.5833 -0.3306  0.1805
 9348SOL    HW139680   4.075   1.079   3.143  0.4364 -0.1423  0.3701
 9348SOL    HW239681   4.165   0.964   3.192 -0.7890 -0.8908  0.3667
 9349SOL     OW39682   1.963   0.860   1.970 -0.1774  0.9787 -0.6161
 9349SOL    HW139683   1.907   0.786   1.990  1.5775  0.2132  1.3844
 9349SOL    HW239684   2.034   0.843   2.032 -1.3791  1.0547  0.7766
 9350SOL     OW39685   0.461   2.545   3.250  0.2668  0.5542 -0.0976
 9350SOL    HW139686   0.519   2.499   3.311 -1.0449 -1.5045 -0.4274
 9350SOL    HW239687   0.416   2.612   3.302  0.1885  0.2955  0.1659
 9351SOL     OW39688   1.222   4.399   6.874 -0.1072  0.4068 -0.3007
 9351SOL    HW139689   1.246   4.383   6.965 -1.1076 -0.0178 -0.1135
 9351SOL    HW239690   1.170   4.324   6.847 -0.3446 -0.6119  3.0485
 9352SOL     OW39691   3.081   4.436   6.233  0.4013 -0.2969 -0.0155
 9352SOL    HW139692   3.019   4.368   6.258  3.1401 -1.6766  2.9504
 9352SOL    HW239693   3.161   4.395   6.266  0.5570  0.5521  0.6531
 9353SOL     OW39694   2.935   0.058   9.027 -0.5872 -0.5853  0.0736
 9353SOL    HW139695   2.950   4.701   9.017  2.1653  0.1015 -2.0299
 9353SOL    HW239696   2.844   0.065   8.998  0.0698  0.1268 -1.8052
 9354SOL     OW39697   4.589   0.274   4.780 -0.1931 -0.7495  0.0200
 9354SOL    HW139698   4.499   0.243   4.776  0.6351 -3.2241 -0.1046
 9354SOL    HW239699   4.636   0.214   4.839  0.0834  1.3448  1.9092
 9355SOL     OW39700   3.014   3.447   4.324 -0.1753 -0.1494  0.7002
 9355SOL    HW139701   3.042   3.532   4.360 -0.5323  0.5806 -0.7253
 9355SOL    HW239702   3.088   3.390   4.344  0.3058  0.7699  1.5573
 9356SOL     OW39703   0.607   2.156   2.151  0.4913 -0.0180 -0.3856
 9356SOL    HW139704   0.514   2.178   2.141 -0.0154 -2.6697 -1.6263
 9356SOL    HW239705   0.610   2.069   2.111 -0.7457  0.5457 -1.7250
 9357SOL     OW39706   2.834   1.585   5.247  0.2660  0.2435  0.4296
 9357SOL    HW139707   2.840   1.651   5.178 -2.9323 -0.5339 -0.5948
 9357SOL    HW239708   2.916   1.538   5.233 -1.5634 -2.2090 -1.9627
 9358SOL     OW39709   2.265   0.585   2.113 -0.3664  0.6915 -0.2509
 9358SOL    HW139710   2.302   0.497   2.126 -0.5261  0.8666  1.4297
 9358SOL    HW239711   2.251   0.576   2.019 -2.9346  0.5973  0.1378
 9359SOL     OW39712   4.023   3.888  17.505 -0.2601 -0.3274  0.0444
 9359SOL    HW139713   4.022   3.894  17.410 -2.4977  0.7073  0.1374
 9359SOL    HW239714   3.954   3.822  17.516  0.5190 -1.3006 -0.9241
 9360SOL     OW39715   3.008   0.821  17.342  0.2407  0.5576 -0.0950
 9360SOL    HW139716   3.081   0.835  17.402  0.4182  0.4390 -0.2808
 9360SOL    HW239717   3.036   0.741  17.297 -1.1846  0.4849 -0.8339
 9361SOL     OW39718   0.044   3.623   4.893 -0.0462 -0.0209 -0.2434
 9361SOL    HW139719   0.117   3.564   4.913  0.0157 -1.0798 -3.5495
 9361SOL    HW239720   4.714   3.557   4.879  1.6384 -1.9589  0.6928
 9362SOL     OW39721   3.980   0.886  17.322  0.6970  0.4722  0.5352
 9362SOL    HW139722   3.984   0.826  17.247 -0.0473  0.6769  0.3313
 9362SOL    HW239723   4.040   0.843  17.383  0.0235 -0.9792  0.1891
 9363SOL     OW39724   0.296   3.016   8.391 -0.2532 -0.6514 -0.4505
 9363SOL    HW139725   0.330   2.940   8.437  1.9300  1.6333  1.7401
 9363SOL    HW239726   0.206   3.011   8.425 -0.1382  0.7922  0.0710
 9364SOL     OW39727   0.049   0.249  15.757  0.0161 -0.2780  0.5106
 9364SOL    HW139728   0.048   0.295  15.841 -0.3747  1.0462 -0.2280
 9364SOL    HW239729   4.695   0.225  15.746  0.3226 -0.1069 -2.2638
 9365SOL     OW39730   3.075   1.288   2.378  0.0660  0.2678  0.4352
 9365SOL    HW139731   3.164   1.320   2.366  0.2335 -0.1268  0.6298
 9365SOL    HW239732   3.057   1.341   2.455 -0.5892 -1.1048  1.2399
 9366SOL     OW39733   4.209   0.650   2.531  0.1879 -0.2884 -0.1373
 9366SOL    HW139734   4.128   0.685   2.570 -0.5373  0.1882 -2.0767
 9366SOL    HW239735   4.273   0.662   2.601 -0.1873 -3.5869  0.7683
 9367SOL     OW39736   3.747   2.739  16.212 -0.9484 -0.1412  0.0368
 9367SOL    HW139737   3.779   2.828  16.227 -0.7953  0.2171 -2.4532
 9367SOL    HW239738   3.658   2.772  16.201 -0.2131  1.0244 -2.4537
 9368SOL     OW39739   1.888   0.102   8.997 -0.4579  0.0430 -0.1947
 9368SOL    HW139740   1.967   0.092   8.945 -1.8291  0.8004 -2.4062
 9368SOL    HW239741   1.864   0.184   8.955  0.6453  0.4616 -0.0001
 9369SOL     OW39742   3.864   4.059   2.840  0.2078  0.4132 -0.0386
 9369SOL    HW139743   3.901   3.977   2.872 -1.4176 -0.9363 -1.6050
 9369SOL    HW239744   3.769   4.048   2.844  0.1325  0.8074 -0.7972
 9370SOL     OW39745   1.733   3.889   9.644  0.1696 -0.1566 -0.3771
 9370SOL    HW139746   1.764   3.853   9.561  2.6004 -0.4159  0.6419
 9370SOL    HW239747   1.811   3.888   9.701  0.2114  3.0401 -0.3472
 9371SOL     OW39748   0.584   2.818  16.434  0.1751  0.5532  0.0276
 9371SOL    HW139749   0.589   2.746  16.371 -1.8648  0.7011 -0.3083
 9371SOL    HW239750   0.578   2.775  16.520  1.8539  0.4238  0.0752
 9372SOL     OW39751   3.721   2.998  17.445  0.4244  0.1340 -0.0713
 9372SOL    HW139752   3.774   2.934  17.398 -1.0828 -1.3697  0.2773
 9372SOL    HW239753   3.642   2.946  17.462  1.0782 -0.7066  0.3722
 9373SOL     OW39754   2.247   0.128   9.879  0.1201 -0.3998 -0.0934
 9373SOL    HW139755   2.218   0.152   9.791  0.6055 -2.9450 -0.9540
 9373SOL    HW239756   2.176   0.170   9.929 -0.3175 -1.0334 -0.1780
 9374SOL     OW39757   4.167   2.976  17.228  0.1023 -0.0649  0.2934
 9374SOL    HW139758   4.138   2.891  17.263 -0.8014  0.2538  0.3337
 9374SOL    HW239759   4.244   2.955  17.176 -0.2387  0.6194 -0.4895
 9375SOL     OW39760   1.113   1.673   2.910 -0.0790  0.6061  0.2616
 9375SOL    HW139761   1.181   1.738   2.890  1.5303 -0.8638  0.9263
 9375SOL    HW239762   1.163   1.622   2.973 -0.9259 -0.6781 -0.1175
 9376SOL     OW39763   3.516   4.196   6.982  0.0998 -0.1425 -0.3596
 9376SOL    HW139764   3.446   4.236   6.931  1.3281  1.8177 -0.5113
 9376SOL    HW239765   3.496   4.214   7.074  0.2887  0.3513 -0.4111
 9377SOL     OW39766   3.142   3.652   4.437 -0.3733  0.0348 -0.3449
 9377SOL    HW139767   3.169   3.742   4.418 -2.9569  0.6157 -1.2298
 9377SOL    HW239768   3.224   3.614   4.469 -0.8183 -0.1522  0.5551
 9378SOL     OW39769   4.191   2.746   8.473  0.1573 -0.3194 -0.7436
 9378SOL    HW139770   4.169   2.717   8.562  0.2796 -0.4640 -0.7609
 9378SOL    HW239771   4.113   2.799   8.455  1.0289  0.9842 -0.6928
 9379SOL     OW39772   2.754   4.370   6.082 -0.4113  0.0487  0.2458
 9379SOL    HW139773   2.738   4.463   6.064  1.9802  0.0887 -1.5637
 9379SOL    HW239774   2.667   4.354   6.120 -0.5664  0.1290 -0.0755
 9380SOL     OW39775   4.295   0.069   2.752  0.1136  0.5511 -0.5019
 9380SOL    HW139776   4.219   0.088   2.697 -0.7887 -3.4722 -0.6075
 9380SOL    HW239777   4.341   0.152   2.765 -0.6951  0.3910  3.3998
 9381SOL     OW39778   1.357   1.619  12.186 -0.4029 -0.3650  0.7628
 9381SOL    HW139779   1.336   1.647  12.097 -0.9396 -0.0393  0.9955
 9381SOL    HW239780   1.439   1.570  12.180 -0.2362 -0.0205  0.2715
 9382SOL     OW39781   3.102   2.748  13.321 -0.2407 -0.4149 -0.4242
 9382SOL    HW139782   3.166   2.735  13.391  0.4747 -3.6450 -1.6884
 9382SOL    HW239783   3.151   2.784  13.247  0.1174  1.9454  0.9425
 9383SOL     OW39784   2.963   1.011   6.220  0.5135 -0.1076 -0.2553
 9383SOL    HW139785   2.982   0.951   6.292  0.8238 -0.3534 -0.5427
 9383SOL    HW239786   2.870   0.993   6.214  0.1490  1.6016  0.2276
 9384SOL     OW39787   0.552   4.098   5.797 -0.2993 -0.2650  0.9473
 9384SOL    HW139788   0.457   4.108   5.811 -0.3374  1.0195 -0.2086
 9384SOL    HW239789   0.552   4.031   5.728  0.7287  1.0349 -0.3261
 9385SOL     OW39790   2.441   4.058   8.575 -0.0273  0.1893 -0.5789
 9385SOL    HW139791   2.524   4.102   8.556  1.7728 -2.4617  1.1575
 9385SOL    HW239792   2.459   3.965   8.586 -0.3765  0.2111  0.1941
 9386SOL     OW39793   2.880   2.560   5.224 -0.3654 -0.3014  0.0442
 9386SOL    HW139794   2.945   2.539   5.157 -0.4174 -1.8513  0.4883
 9386SOL    HW239795   2.850   2.470   5.240 -3.1735  0.4312 -1.1226
 9387SOL     OW39796   2.369   0.023   5.192 -0.4322  0.1497  0.9017
 9387SOL    HW139797   2.421   0.066   5.260  1.8967 -0.8741 -0.2094
 9387SOL    HW239798   2.338   0.102   5.148  0.5673  0.6583  1.1062
 9388SOL     OW39799   3.009   0.646  10.900  0.3688 -0.2398  0.1547
 9388SOL    HW139800   3.031   0.556  10.925 -0.0447 -1.1251 -2.6484
 9388SOL    HW239801   2.931   0.621  10.850  2.0306 -0.5762 -2.2606
 9389SOL     OW39802   3.795   0.207   8.724 -0.1050 -0.3604  0.1417
 9389SOL    HW139803   3.807   0.159   8.806 -2.3004  2.4250  2.1003
 9389SOL    HW239804   3.827   0.294   8.745  2.0417 -1.4698  1.4771
 9390SOL     OW39805   2.309   2.265   4.410  0.2494 -0.4983  0.2385
 9390SOL    HW139806   2.390   2.284   4.456 -0.5351  2.1214  0.5282
 9390SOL    HW239807   2.313   2.171   4.430 -2.2869 -0.2122  2.2036
 9391SOL     OW39808   1.901   3.946   6.295 -0.1575 -0.2793 -0.0030
 9391SOL    HW139809   1.881   4.039   6.295 -0.5712 -0.3714 -1.5538
 9391SOL    HW239810   1.987   3.957   6.336  0.4099 -1.7726 -0.7854
 9392SOL     OW39811   0.847   2.424   0.064 -0.2803  0.7029 -0.0585
 9392SOL    HW139812   0.771   2.467   0.024  0.6804  0.8518 -1.7163
 9392SOL    HW239813   0.809   2.336   0.066 -0.9319  0.9519 -2.3625
 9393SOL     OW39814   3.735   1.298  12.838 -0.3443 -0.3747  0.5069
 9393SOL    HW139815   3.815   1.321  12.791 -0.6608  0.8079  0.5574
 9393SOL    HW239816   3.700   1.236  12.774 -1.4613  0.6733  0.1147
 9394SOL     OW39817   0.532   0.485  11.549 -0.3680 -0.2340  0.0845
 9394SOL    HW139818   0.463   0.457  11.488 -1.1973 -2.3104  1.9661
 9394SOL    HW239819   0.608   0.438  11.515  0.6706  1.9502 -0.6088
 9395SOL     OW39820   1.241   0.796   7.109  0.3760 -0.4816  0.0756
 9395SOL    HW139821   1.322   0.784   7.059  1.1355  0.1163  1.1457
 9395SOL    HW239822   1.260   0.870   7.167 -5.4825 -1.2088  2.9102
 9396SOL     OW39823   0.443   2.495   3.832  0.5291  0.4537 -0.2098
 9396SOL    HW139824   0.370   2.552   3.857  1.2529  1.0382  0.5305
 9396SOL    HW239825   0.397   2.419   3.795  1.5546  0.3621 -1.2863
 9397SOL     OW39826   4.289   4.161  11.493  0.1878 -0.8690 -0.0862
 9397SOL    HW139827   4.278   4.134  11.584  3.0303 -2.1871 -0.1397
 9397SOL    HW239828   4.243   4.090  11.448 -2.4341 -0.0973  1.3598
 9398SOL     OW39829   0.073   2.631   5.734  0.2091  0.1749 -0.2986
 9398SOL    HW139830   0.040   2.582   5.659 -0.8548  1.0588 -0.4237
 9398SOL    HW239831   0.045   2.720   5.711  4.1188  1.8974  1.6160
 9399SOL     OW39832   0.808   3.245   2.308 -0.1637 -0.2767 -0.2735
 9399SOL    HW139833   0.795   3.326   2.258 -0.7903 -0.0993  0.1715
 9399SOL    HW239834   0.852   3.191   2.243 -1.5885 -1.0221 -0.6095
 9400SOL     OW39835   3.379   0.662  12.588 -0.2502  0.0844  0.1703
 9400SOL    HW139836   3.431   0.728  12.633 -0.1873  0.5625 -0.6042
 9400SOL    HW239837   3.358   0.710  12.508 -0.4102  2.6591  1.7763
 9401SOL     OW39838   1.468   1.292   0.346  0.0868 -0.6029 -0.1527
 9401SOL    HW139839   1.452   1.329   0.259  0.3759  0.3553  0.1985
 9401SOL    HW239840   1.407   1.219   0.348 -1.9771  1.0779 -1.0129
 9402SOL     OW39841   1.122   2.066   7.047 -0.0735  0.4802  0.5214
 9402SOL    HW139842   1.139   1.978   7.080 -0.9065  0.4263  0.8142
 9402SOL    HW239843   1.076   2.109   7.119 -0.6596  0.3843  0.2075
 9403SOL     OW39844   1.041   0.881   6.181 -0.3027  0.0845  0.5059
 9403SOL    HW139845   1.005   0.842   6.260 -1.3758 -0.1084 -0.0793
 9403SOL    HW239846   1.045   0.974   6.202 -1.6194  0.1298  0.5594
 9404SOL     OW39847   0.924   0.225   1.876  0.5254  0.0278  0.0060
 9404SOL    HW139848   0.964   0.309   1.899  2.1726 -0.4872 -1.0343
 9404SOL    HW239849   0.976   0.167   1.931  0.8539  0.4246  0.1110
 9405SOL     OW39850   1.997   0.716   8.224  0.0149  0.0341  0.0247
 9405SOL    HW139851   1.937   0.652   8.184  0.6317 -0.2357 -0.4728
 9405SOL    HW239852   2.007   0.775   8.149 -1.3845 -1.5762 -1.4627
 9406SOL     OW39853   2.592   0.609   0.699  0.2605  0.2840 -0.1650
 9406SOL    HW139854   2.649   0.555   0.753 -2.2575 -3.4657 -1.2681
 9406SOL    HW239855   2.566   0.668   0.770  0.5262 -1.3356  1.2701
 9407SOL     OW39856   4.424   0.108   6.643  0.1463 -0.1059 -0.1656
 9407SOL    HW139857   4.441   0.014   6.650  1.6604  0.2022  0.2550
 9407SOL    HW239858   4.507   0.147   6.669  0.1829  0.0216 -0.4747
 9408SOL     OW39859   2.220   2.904   6.917  0.2692 -0.3791  0.7175
 9408SOL    HW139860   2.261   2.894   6.831  1.0155  0.6982  0.9602
 9408SOL    HW239861   2.148   2.845   6.895  1.0664 -1.0856 -0.0380
 9409SOL     OW39862   0.742   4.604   4.275  0.0704  0.0191 -0.3201
 9409SOL    HW139863   0.698   4.552   4.342 -0.2772  2.2089  1.1727
 9409SOL    HW239864   0.834   4.594   4.299 -0.1036 -2.6500 -0.7846
 9410SOL     OW39865   3.614   4.055  10.848 -0.5054  0.8185  0.0212
 9410SOL    HW139866   3.553   4.102  10.904 -0.0485 -0.3711  1.5287
 9410SOL    HW239867   3.694   4.047  10.901 -1.5285  1.0638  1.5860
 9411SOL     OW39868   2.492   0.907  10.531  0.1424  0.0932  0.3121
 9411SOL    HW139869   2.405   0.880  10.559  1.3630 -2.8438  1.2645
 9411SOL    HW239870   2.546   0.844  10.579  0.1529  0.9540  1.4228
 9412SOL     OW39871   0.165   3.236  12.164 -0.5554  0.1543 -0.3551
 9412SOL    HW139872   0.260   3.228  12.164 -0.7374 -1.7658  1.0526
 9412SOL    HW239873   0.136   3.157  12.209 -2.3274  1.6953  1.1899
 9413SOL     OW39874   4.181   2.337   9.159 -0.1696  0.0283 -0.7967
 9413SOL    HW139875   4.124   2.324   9.235  0.5730  2.1634  0.1256
 9413SOL    HW239876   4.262   2.290   9.180  1.1395  1.7471 -1.9927
 9414SOL     OW39877   3.258   2.020   1.849 -0.5558 -0.1762 -0.3075
 9414SOL    HW139878   3.249   1.963   1.772  0.6737 -0.4017 -0.2810
 9414SOL    HW239879   3.164   2.041   1.854  0.1615  3.2980 -1.7333
 9415SOL     OW39880   2.178   1.986   7.688 -0.7405 -0.2284 -0.1255
 9415SOL    HW139881   2.109   2.046   7.659 -1.3148 -0.2375  1.2213
 9415SOL    HW239882   2.142   1.941   7.765 -0.2040  0.9505  0.8162
 9416SOL     OW39883   4.147   2.999   6.364  0.0010 -0.1391  0.5882
 9416SOL    HW139884   4.233   3.040   6.370 -0.9071  1.6930  0.9415
 9416SOL    HW239885   4.108   3.039   6.442 -0.0956 -0.5722  0.7613
 9417SOL     OW39886   2.616   2.030  12.103  0.1506 -0.1746 -0.3195
 9417SOL    HW139887   2.689   2.082  12.067  0.3744 -0.1281  0.2111
 9417SOL    HW239888   2.541   2.084  12.079  0.9264  2.3413  3.0674
 9418SOL     OW39889   2.912   1.060   7.513  0.4078 -0.1287 -1.4637
 9418SOL    HW139890   2.971   1.075   7.587 -1.4014  1.3252 -0.3189
 9418SOL    HW239891   2.937   1.127   7.450  0.9213  0.3469 -0.7540
 9419SOL     OW39892   0.799   3.234  11.451  0.0740  0.2074  0.2616
 9419SOL    HW139893   0.853   3.248  11.529  1.5226  1.6541 -1.0090
 9419SOL    HW239894   0.767   3.323  11.440  1.5942  0.6450 -0.6645
 9420SOL     OW39895   4.266   3.397  17.453 -0.1105  0.4097  0.1122
 9420SOL    HW139896   4.312   3.481  17.454 -0.1361  0.3791  2.6998
 9420SOL    HW239897   4.177   3.426  17.437 -0.3731 -1.2386 -1.5022
 9421SOL     OW39898   1.715   0.901   6.443 -0.2419 -0.4199 -0.3874
 9421SOL    HW139899   1.649   0.889   6.511  0.6444  1.4420  0.8063
 9421SOL    HW239900   1.664   0.907   6.362  0.5750 -0.2286 -0.8980
 9422SOL     OW39901   1.304   2.349   9.450 -0.0271  0.9652  0.6564
 9422SOL    HW139902   1.349   2.367   9.367 -0.1194  1.2867  0.6762
 9422SOL    HW239903   1.318   2.426   9.505  0.1481  0.6910  0.9909
 9423SOL     OW39904   0.922   4.490   2.529 -0.0688 -0.4647  0.3057
 9423SOL    HW139905   0.924   4.411   2.476 -2.1060 -1.4647  1.6796
 9423SOL    HW239906   0.869   4.546   2.472  0.4423  1.6742  1.9244
 9424SOL     OW39907   3.234   1.001   9.261 -0.9680 -0.5492 -0.2683
 9424SOL    HW139908   3.190   0.976   9.179 -1.1878  3.2209 -1.3004
 9424SOL    HW239909   3.210   1.094   9.257 -0.4628 -0.4607 -1.4607
 9425SOL     OW39910   4.266   1.858   3.248 -0.2641  0.1585  0.2881
 9425SOL    HW139911   4.225   1.859   3.334  1.2052 -0.1208  0.9804
 9425SOL    HW239912   4.296   1.768   3.250 -1.5388 -0.2205  1.8127
 9426SOL     OW39913   0.929   0.216  14.742 -0.1232  0.2335  0.2472
 9426SOL    HW139914   0.855   0.192  14.798 -2.0514  0.2710 -2.3222
 9426SOL    HW239915   0.994   0.158  14.781 -1.4498  1.7136  4.6942
 9427SOL     OW39916   2.535   3.374   4.929  0.7059 -0.0648  0.0005
 9427SOL    HW139917   2.498   3.389   5.016  0.6798 -3.0707  0.4763
 9427SOL    HW239918   2.529   3.463   4.894 -1.9745  0.3007  1.4408
 9428SOL     OW39919   3.654   1.654   6.591  0.3136 -0.4672  0.1575
 9428SOL    HW139920   3.649   1.695   6.504  1.1943  0.5532  0.5837
 9428SOL    HW239921   3.745   1.626   6.594  0.3646 -0.3178  0.0559
 9429SOL     OW39922   2.566   4.178   2.472 -0.0068  0.8960 -0.0959
 9429SOL    HW139923   2.541   4.089   2.448 -0.4929  0.5882  1.5383
 9429SOL    HW239924   2.530   4.216   2.392 -0.4786  0.1086 -0.2615
 9430SOL     OW39925   3.406   4.504   4.879 -0.1800 -0.1540  0.6203
 9430SOL    HW139926   3.333   4.457   4.840  0.0131  1.1154 -1.2509
 9430SOL    HW239927   3.376   4.594   4.884  1.6993  0.5307 -0.4946
 9431SOL     OW39928   0.166   2.718   1.904 -0.2189  0.2413  0.5834
 9431SOL    HW139929   0.139   2.658   1.834  1.0802 -2.0902  2.0584
 9431SOL    HW239930   0.222   2.776   1.853  0.2147  1.0224  1.9274
 9432SOL     OW39931   0.544   0.814   4.154 -0.7826 -0.1934  0.3013
 9432SOL    HW139932   0.522   0.904   4.128  0.4437  0.3662  1.1955
 9432SOL    HW239933   0.537   0.765   4.072 -1.6044  1.2481 -0.5095
 9433SOL     OW39934   2.636   4.017  12.271  0.0372 -0.3025 -0.7591
 9433SOL    HW139935   2.697   3.971  12.329 -0.4752 -0.7968 -0.6122
 9433SOL    HW239936   2.632   4.104  12.310 -0.8409 -0.2468 -0.9783
 9434SOL     OW39937   4.682   0.368   3.879 -0.0516 -0.0909 -0.0213
 9434SOL    HW139938   4.619   0.411   3.938 -0.8598 -0.8666 -0.3222
 9434SOL    HW239939   4.651   0.406   3.797  0.4746  0.0398 -0.1629
 9435SOL     OW39940   4.040   3.959   9.607  0.3274 -0.1934 -0.0704
 9435SOL    HW139941   4.072   3.935   9.520 -0.8202  2.0036 -1.0721
 9435SOL    HW239942   3.963   4.008   9.577 -0.5713 -1.6014 -0.0845
 9436SOL     OW39943   2.920   2.919   3.602  0.3998  0.5078  0.7190
 9436SOL    HW139944   2.995   2.932   3.659  0.7469  1.6988 -0.0237
 9436SOL    HW239945   2.942   2.980   3.532 -0.7371 -0.0194 -0.1098
 9437SOL     OW39946   4.155   1.437   3.514  0.0557 -0.0336 -0.0545
 9437SOL    HW139947   4.106   1.357   3.494 -0.5830 -0.2658  2.5302
 9437SOL    HW239948   4.156   1.442   3.609  0.3455  1.3820 -0.1402
 9438SOL     OW39949   2.506   0.771  16.446 -0.9336 -0.2740 -0.5251
 9438SOL    HW139950   2.472   0.740  16.530  0.1078  1.0422  0.3802
 9438SOL    HW239951   2.479   0.701  16.387  0.8643 -0.0653 -1.5946
 9439SOL     OW39952   3.043   2.789   6.450 -0.1109  0.0407  0.0909
 9439SOL    HW139953   3.070   2.851   6.518 -1.1672 -0.3780  0.8812
 9439SOL    HW239954   2.952   2.817   6.441 -0.0727  1.1161  3.2494
 9440SOL     OW39955   3.304   1.670   0.693 -0.4723  0.2045 -0.7874
 9440SOL    HW139956   3.398   1.655   0.691 -0.1538  1.7902  2.1729
 9440SOL    HW239957   3.279   1.580   0.673  2.1917 -0.4405 -1.1740
 9441SOL     OW39958   2.888   0.303   3.895 -0.4177  0.2486  0.0510
 9441SOL    HW139959   2.912   0.268   3.981  3.6390 -0.3424 -1.3338
 9441SOL    HW239960   2.894   0.397   3.913 -0.5460  0.2676 -0.0024
 9442SOL     OW39961   4.299   2.250   0.482 -0.1637  0.0926 -0.2973
 9442SOL    HW139962   4.212   2.240   0.520 -0.5428  0.3599 -1.0884
 9442SOL    HW239963   4.341   2.169   0.511 -2.3272 -0.2382  1.9117
 9443SOL     OW39964   2.654   3.047   3.954  0.9586  0.0993  0.4422
 9443SOL    HW139965   2.683   3.078   3.868 -0.4747  0.1739 -0.0156
 9443SOL    HW239966   2.591   3.116   3.976  1.2116  0.3414  0.4077
 9444SOL     OW39967   0.149   4.101   7.138 -0.0853 -0.3823 -0.5109
 9444SOL    HW139968   0.152   4.158   7.061  2.4760  2.2177  1.5254
 9444SOL    HW239969   0.088   4.153   7.190  0.0869  0.0606 -0.7548
 9445SOL     OW39970   0.767   3.642   4.170  0.0656 -0.0711  0.9059
 9445SOL    HW139971   0.841   3.601   4.125 -0.8573 -0.5823 -0.1425
 9445SOL    HW239972   0.699   3.575   4.167 -0.7091  0.7737 -0.6232
 9446SOL     OW39973   2.529   3.632   2.752 -0.0867 -0.1656 -0.5751
 9446SOL    HW139974   2.568   3.573   2.688  1.9872  0.1969  0.3779
 9446SOL    HW239975   2.457   3.582   2.792  1.0324 -1.8258 -0.6111
 9447SOL     OW39976   0.784   1.214   0.365 -0.2078  0.1384  0.0145
 9447SOL    HW139977   0.778   1.165   0.283 -2.3729 -2.0735  1.5045
 9447SOL    HW239978   0.873   1.187   0.389  0.8115  2.5757 -1.0408
 9448SOL     OW39979   0.087   4.584   6.110  0.1475  0.4017 -0.5893
 9448SOL    HW139980   0.142   4.625   6.176  1.7355 -0.6144 -1.2888
 9448SOL    HW239981   0.098   4.492   6.133 -3.5175 -0.1964 -1.1013
 9449SOL     OW39982   3.839   0.362   1.624 -0.3566  0.2310  0.4336
 9449SOL    HW139983   3.796   0.320   1.549 -0.4372  1.1168 -0.0053
 9449SOL    HW239984   3.829   0.296   1.693  1.2002 -1.6484 -1.1308
 9450SOL     OW39985   0.599   2.127   8.061  0.1623  0.1296 -0.0865
 9450SOL    HW139986   0.528   2.085   8.109 -0.5555  0.7525 -0.6101
 9450SOL    HW239987   0.583   2.218   8.087  1.5286 -0.0465  1.3767
 9451SOL     OW39988   3.031   4.600   6.561 -0.0924  0.1270 -0.1281
 9451SOL    HW139989   3.095   4.622   6.493  0.1231 -1.9215 -0.6203
 9451SOL    HW239990   3.088   4.581   6.636 -1.8369 -1.8417  0.6998
 9452SOL     OW39991   0.311   0.197   6.112  0.1075 -0.2119 -0.4139
 9452SOL    HW139992   0.372   0.268   6.089 -0.5770  1.0237  1.6479
 9452SOL    HW239993   0.380   0.130   6.109 -0.6593 -0.9416 -1.6027
 9453SOL     OW39994   2.582   1.834  10.687  0.0761  0.7076 -0.0904
 9453SOL    HW139995   2.565   1.743  10.661  0.1939  0.5764  0.2782
 9453SOL    HW239996   2.496   1.874  10.676  0.3880  1.5683  0.5982
 9454SOL     OW39997   2.982   0.564   6.079  0.5008  0.0508  0.3372
 9454SOL    HW139998   2.899   0.604   6.054  0.3932  0.5589  1.4875
 9454SOL    HW239999   3.003   0.514   6.000 -0.3218 -0.0964  0.2202
 9455SOL     OW40000   3.609   0.897   7.458 -0.1412 -0.6639  0.1302
 9455SOL    HW140001   3.556   0.901   7.538 -0.1030 -1.1238  0.1821
 9455SOL    HW240002   3.557   0.844   7.397 -2.0588 -0.0761  1.2612
 9456SOL     OW40003   2.841   4.017   4.633  0.2657  0.0438  0.3027
 9456SOL    HW140004   2.896   4.062   4.698  1.2710  1.3090 -1.4220
 9456SOL    HW240005   2.833   4.083   4.564 -2.3560  0.3351  0.8774
 9457SOL     OW40006   2.757   2.623   8.313 -0.1057  0.5689 -0.0383
 9457SOL    HW140007   2.795   2.685   8.252 -0.8874 -0.0354 -1.1344
 9457SOL    HW240008   2.839   2.581   8.338  0.4951  0.1617 -2.7378
 9458SOL     OW40009   1.988   0.241   8.519  0.7954  0.9760  0.2044
 9458SOL    HW140010   1.983   0.157   8.473 -3.0913  0.8394  0.9219
 9458SOL    HW240011   2.084   0.243   8.520  0.8381 -0.6084 -0.0811
 9459SOL     OW40012   0.058   3.550  17.233  0.4601 -0.0919 -0.1774
 9459SOL    HW140013   4.714   3.548  17.284  0.4576  1.8181 -0.0945
 9459SOL    HW240014   0.063   3.646  17.227 -0.5203  0.0682  1.4746
 9460SOL     OW40015   1.580   3.091   1.925 -0.2293 -0.1178  0.7817
 9460SOL    HW140016   1.500   3.118   1.970 -0.7123 -1.5500  0.8013
 9460SOL    HW240017   1.544   3.118   1.840  1.1536 -0.1448  0.1815
 9461SOL     OW40018   0.793   2.455   4.767 -0.0913  0.6068 -0.2815
 9461SOL    HW140019   0.870   2.398   4.764  0.6691  1.6043  0.3359
 9461SOL    HW240020   0.725   2.388   4.761  0.0812  0.2205  1.8849
 9462SOL     OW40021   4.552   0.593  13.139  0.1893 -0.0684  0.3711
 9462SOL    HW140022   4.588   0.651  13.072 -0.5016 -0.3805 -0.2709
 9462SOL    HW240023   4.582   0.638  13.218  0.1149 -2.8012  1.9332
 9463SOL     OW40024   0.385   3.743   8.362  0.3074 -0.0793  0.1601
 9463SOL    HW140025   0.368   3.709   8.274 -3.1152 -0.4192  0.9822
 9463SOL    HW240026   0.458   3.801   8.339 -0.0888  0.3315 -0.0542
 9464SOL     OW40027   1.419   4.076   2.039 -0.2257 -0.8864 -0.1514
 9464SOL    HW140028   1.358   4.013   2.078  0.5923  0.2826  3.0326
 9464SOL    HW240029   1.361   4.152   2.023  1.1875  0.1727 -0.2327
 9465SOL     OW40030   1.283   2.197   3.419 -0.0852 -0.9783  0.1717
 9465SOL    HW140031   1.195   2.199   3.457  0.3526  1.1712  1.0596
 9465SOL    HW240032   1.272   2.263   3.350 -0.2360  1.0036  2.0926
 9466SOL     OW40033   2.231   3.721   7.125 -0.4171 -0.0528 -0.0762
 9466SOL    HW140034   2.144   3.709   7.087 -0.4668 -0.1771  0.0727
 9466SOL    HW240035   2.270   3.639   7.094 -3.0348 -1.6388  0.7867
 9467SOL     OW40036   4.626   1.195   3.867 -0.1530 -0.0916  0.1213
 9467SOL    HW140037   4.602   1.232   3.952 -3.1421 -1.6909 -0.0320
 9467SOL    HW240038   4.569   1.246   3.809 -0.5370  0.7658  1.2502
 9468SOL     OW40039   2.354   0.613   7.281  0.0151  0.3143  0.1029
 9468SOL    HW140040   2.356   0.708   7.296 -1.2042  0.1866  1.0990
 9468SOL    HW240041   2.400   0.590   7.361 -1.0418 -1.0792  0.3057
 9469SOL     OW40042   3.853   4.671   2.277 -0.1829 -0.4341  0.1770
 9469SOL    HW140043   3.942   4.636   2.269 -0.0503  0.1391 -0.9458
 9469SOL    HW240044   3.798   4.627   2.213 -0.3462 -0.9331  0.6613
 9470SOL     OW40045   4.415   1.595  17.291  1.1024  0.5555  0.5681
 9470SOL    HW140046   4.360   1.585  17.369 -1.9169 -0.7107 -1.7523
 9470SOL    HW240047   4.401   1.688  17.271 -1.5571 -0.1060 -0.5789
 9471SOL     OW40048   1.623   0.674   1.070  0.7579  0.1010 -0.0492
 9471SOL    HW140049   1.692   0.644   1.011 -1.3230 -3.1060 -0.8454
 9471SOL    HW240050   1.557   0.686   1.003 -0.5034 -2.4677  0.7548
 9472SOL     OW40051   0.795   0.407   0.229  0.3895 -0.1723 -0.1295
 9472SOL    HW140052   0.754   0.441   0.308 -0.0875 -1.1154  0.0273
 9472SOL    HW240053   0.717   0.408   0.173 -0.8448 -3.6742  1.5756
 9473SOL     OW40054   2.261   4.140   8.774 -0.2660  1.1249  0.4712
 9473SOL    HW140055   2.313   4.220   8.781 -0.3393  1.2911 -0.8475
 9473SOL    HW240056   2.299   4.095   8.698  0.0155 -0.2652  1.4419
 9474SOL     OW40057   4.045   3.882   2.269  0.1963  0.1041 -0.3638
 9474SOL    HW140058   4.140   3.892   2.283  0.1572  0.1280 -0.1107
 9474SOL    HW240059   4.046   3.886   2.173 -0.3842 -0.0024 -0.3710
 9475SOL     OW40060   4.494   4.503  13.692 -0.2707 -0.3659 -0.4643
 9475SOL    HW140061   4.478   4.532  13.603 -0.2144  0.3192 -0.2526
 9475SOL    HW240062   4.473   4.411  13.677 -0.1930 -0.5640  0.6068
 9476SOL     OW40063   1.577   0.107  12.804 -0.1954 -0.2992 -0.1679
 9476SOL    HW140064   1.603   0.037  12.865 -1.9632 -1.0746 -0.2750
 9476SOL    HW240065   1.498   0.074  12.761 -1.3858  1.8948  0.3253
 9477SOL     OW40066   1.290   2.493   5.940 -0.0039  0.2359  0.0538
 9477SOL    HW140067   1.266   2.402   5.958 -1.2235  0.6909  0.7121
 9477SOL    HW240068   1.365   2.479   5.882 -2.7853  2.5063 -4.1411
 9478SOL     OW40069   3.246   2.498   6.082  0.0144 -0.2240 -0.1301
 9478SOL    HW140070   3.200   2.433   6.137  2.0247 -0.5961  1.1204
 9478SOL    HW240071   3.183   2.570   6.084  0.5913  0.2558  0.7906
 9479SOL     OW40072   4.382   4.601   6.207 -0.8975  0.7309 -0.1105
 9479SOL    HW140073   4.465   4.634   6.242  0.0699 -0.9454 -0.8260
 9479SOL    HW240074   4.408   4.597   6.115 -0.9316 -2.3742  0.0055
 9480SOL     OW40075   3.776   3.904   6.463 -0.1169  0.1923 -0.0954
 9480SOL    HW140076   3.759   3.827   6.408 -0.4083 -0.5099  0.9809
 9480SOL    HW240077   3.724   3.878   6.539  2.3152 -2.3406  0.6751
 9481SOL     OW40078   1.173   0.562  11.860 -0.6104  0.2711 -0.6899
 9481SOL    HW140079   1.171   0.634  11.923 -0.8152 -0.1452 -0.2236
 9481SOL    HW240080   1.094   0.581  11.809 -0.2673  0.5753 -1.1081
 9482SOL     OW40081   4.211   0.616  14.251 -0.1921  0.3467 -0.5085
 9482SOL    HW140082   4.181   0.533  14.214 -0.0534 -0.0596  0.2730
 9482SOL    HW240083   4.236   0.669  14.176 -1.2463  1.3506 -0.1388
 9483SOL     OW40084   3.323   0.120   6.717  0.9805 -0.2725 -0.1986
 9483SOL    HW140085   3.392   0.107   6.651  1.0653  0.6861 -0.2974
 9483SOL    HW240086   3.362   0.201   6.750  0.6443 -0.1514 -0.0996
 9484SOL     OW40087   2.277   0.467   3.156 -0.0926  0.6160 -0.4619
 9484SOL    HW140088   2.212   0.502   3.094 -1.3576  2.7045  2.0575
 9484SOL    HW240089   2.214   0.431   3.218 -0.5460  2.5162  0.1875
 9485SOL     OW40090   0.699   2.556  17.293 -0.0224  0.0796  0.0476
 9485SOL    HW140091   0.644   2.631  17.314 -0.3903  0.3996 -2.0725
 9485SOL    HW240092   0.746   2.591  17.218 -0.1579 -2.7268 -1.3423
 9486SOL     OW40093   2.024   3.691  10.390 -0.0852 -0.1674 -0.1342
 9486SOL    HW140094   1.975   3.610  10.375  1.7366 -1.5723  1.5316
 9486SOL    HW240095   2.110   3.667  10.355 -0.5453 -1.0035 -0.6956
 9487SOL     OW40096   0.745   1.969  16.846  0.2283 -0.6390  0.0194
 9487SOL    HW140097   0.684   2.038  16.819  0.8253 -0.0627  0.1396
 9487SOL    HW240098   0.696   1.930  16.919 -1.6066  1.7510  0.0567
 9488SOL     OW40099   4.301   3.231   6.902  0.0850  0.0210 -0.0613
 9488SOL    HW140100   4.265   3.258   6.986  0.9632  2.2604 -0.4041
 9488SOL    HW240101   4.320   3.318   6.869  2.1890 -0.7689 -0.9416
 9489SOL     OW40102   3.376   3.248   6.142  0.3322 -0.6863  0.7062
 9489SOL    HW140103   3.355   3.252   6.235  1.4843 -1.8696  1.0177
 9489SOL    HW240104   3.451   3.307   6.136 -0.5151  0.3180  0.0797
 9490SOL     OW40105   0.563   1.314   6.062 -0.7322  0.0008  0.2622
 9490SOL    HW140106   0.523   1.276   5.984  0.6262  0.7826 -0.8325
 9490SOL    HW240107   0.624   1.375   6.020 -0.2225 -1.4563 -1.0999
 9491SOL     OW40108   2.016   1.626   7.094  0.2122  1.1799  0.1564
 9491SOL    HW140109   2.048   1.708   7.130  3.5155  0.2183 -0.6307
 9491SOL    HW240110   1.992   1.585   7.177  1.3847 -1.4029 -0.7760
 9492SOL     OW40111   4.613   3.871  12.909  0.6887  0.0741  0.1920
 9492SOL    HW140112   4.622   3.921  12.828 -2.1366 -0.5282 -0.5046
 9492SOL    HW240113   4.568   3.793  12.876  1.6508 -0.7269  0.7693
 9493SOL     OW40114   2.633   4.003  16.262  0.1447 -0.0117 -0.1142
 9493SOL    HW140115   2.620   3.911  16.237  0.0508 -0.3473  1.2004
 9493SOL    HW240116   2.572   4.054  16.208 -1.8819 -0.4713  1.7189
 9494SOL     OW40117   1.362   2.626  10.780 -0.4489  0.4047 -0.1876
 9494SOL    HW140118   1.385   2.667  10.863  1.4091 -0.0217 -0.5074
 9494SOL    HW240119   1.276   2.590  10.802  0.2563 -0.1078  1.7192
 9495SOL     OW40120   1.034   2.490   7.762  0.6873  0.2938  0.1939
 9495SOL    HW140121   0.969   2.475   7.831  1.1745  0.1223  0.6203
 9495SOL    HW240122   1.100   2.528   7.821 -1.1196  0.9410  1.7870
 9496SOL     OW40123   0.953   2.027   0.207  0.2751  0.0698  0.0903
 9496SOL    HW140124   1.031   2.039   0.153  0.1701  3.6965  0.7573
 9496SOL    HW240125   0.988   2.052   0.292 -0.3658 -0.5095  0.5301
 9497SOL     OW40126   3.684   2.582   8.578 -0.4683  0.0668  0.4735
 9497SOL    HW140127   3.768   2.549   8.548 -0.7773 -1.8913  1.8111
 9497SOL    HW240128   3.626   2.524   8.529  2.0189 -0.4424 -1.8123
 9498SOL     OW40129   4.076   2.703  14.446 -0.3164 -0.1869  0.1698
 9498SOL    HW140130   4.134   2.768  14.485 -1.7682  0.9572  0.4344
 9498SOL    HW240131   3.996   2.754  14.463  0.4849  1.3278 -0.5798
 9499SOL     OW40132   4.255   1.253   6.365  0.1062 -0.5064  0.6160
 9499SOL    HW140133   4.250   1.348   6.355 -1.9808 -0.6860 -0.0856
 9499SOL    HW240134   4.236   1.208   6.283  0.8376 -0.2651  0.3199
 9500SOL     OW40135   3.223   2.087   6.032  0.4975 -0.1564 -0.3106
 9500SOL    HW140136   3.173   2.161   5.998 -0.5461 -0.6926  0.0591
 9500SOL    HW240137   3.236   2.033   5.954 -0.6274  1.0734 -1.3566
 9501SOL     OW40138   3.453   0.795   3.556  0.2874  0.0588 -0.3238
 9501SOL    HW140139   3.369   0.817   3.597  0.1337 -0.5492 -0.3117
 9501SOL    HW240140   3.422   0.714   3.515  1.6948 -1.8492  2.3959
 9502SOL     OW40141   1.694   2.533   1.660  0.4516 -0.5774  0.3232
 9502SOL    HW140142   1.634   2.498   1.594  0.6297  1.5471 -0.9657
 9502SOL    HW240143   1.633   2.599   1.693  0.9192  0.4142 -0.8160
 9503SOL     OW40144   0.398   3.769  16.146 -0.9295 -0.4541  0.2400
 9503SOL    HW140145   0.491   3.778  16.129 -0.5342 -1.1109  2.0474
 9503SOL    HW240146   0.384   3.802  16.235  3.2579  0.7749  0.4158
 9504SOL     OW40147   1.569   3.056   5.907  0.2008  0.0581 -0.3057
 9504SOL    HW140148   1.516   3.025   5.981  0.5608 -1.4790 -0.6883
 9504SOL    HW240149   1.508   3.041   5.835 -1.3536 -1.3132  1.2935
 9505SOL     OW40150   3.320   0.482  10.838  0.1265  0.0511  0.4486
 9505SOL    HW140151   3.275   0.557  10.799 -3.3499 -1.9717  0.5695
 9505SOL    HW240152   3.395   0.476  10.779 -0.3086  0.1828 -0.1166
 9506SOL     OW40153   0.891   1.716   4.299 -0.2435  0.0125  0.1384
 9506SOL    HW140154   0.966   1.753   4.346  0.5605  1.9288 -2.6294
 9506SOL    HW240155   0.841   1.668   4.365 -1.3380 -0.1871 -0.8284
 9507SOL     OW40156   4.595   0.922   0.318 -0.2028  0.4250 -0.1619
 9507SOL    HW140157   4.578   1.003   0.270 -1.0816 -0.4600 -1.3410
 9507SOL    HW240158   4.652   0.869   0.262  1.3488  3.0531 -1.0307
 9508SOL     OW40159   0.389   2.444   2.100 -0.2494 -0.0297  0.0659
 9508SOL    HW140160   0.366   2.352   2.109  1.8910 -0.8194 -2.7339
 9508SOL    HW240161   0.302   2.483   2.113 -0.0649  0.6793 -0.7993
 9509SOL     OW40162   1.705   1.599   1.490 -0.4359  0.7141  0.6812
 9509SOL    HW140163   1.667   1.600   1.578 -2.8032 -1.0521 -0.3067
 9509SOL    HW240164   1.626   1.621   1.440  1.4692  0.1132 -2.5929
 9510SOL     OW40165   0.456   3.378  16.333  0.2887  0.1999 -0.4399
 9510SOL    HW140166   0.544   3.409  16.314 -0.1676  2.3992  0.9680
 9510SOL    HW240167   0.442   3.443  16.402  1.7353  0.6699 -0.6012
 9511SOL     OW40168   2.263   1.866   7.033  0.0378  0.4620 -0.1597
 9511SOL    HW140169   2.333   1.912   6.987  0.2498 -0.1108 -0.4170
 9511SOL    HW240170   2.184   1.915   7.008  0.3794  0.6291 -0.8936
 9512SOL     OW40171   0.492   1.123   5.870  0.1603 -0.2143 -0.3739
 9512SOL    HW140172   0.554   1.090   5.805 -0.0617  0.1156 -0.7447
 9512SOL    HW240173   0.412   1.136   5.820  0.7912 -0.3762 -1.4147
 9513SOL     OW40174   0.553   3.526   5.165  0.3822 -0.4495 -0.1677
 9513SOL    HW140175   0.607   3.522   5.085  0.5369 -1.8688  0.0081
 9513SOL    HW240176   0.545   3.435   5.192  1.4776 -0.7057 -0.6823
 9514SOL     OW40177   2.730   2.402   4.874  0.0414  0.2887 -0.0539
 9514SOL    HW140178   2.821   2.417   4.848  0.5081 -0.1239  1.3820
 9514SOL    HW240179   2.700   2.492   4.886 -1.4383 -0.1400 -0.5198
 9515SOL     OW40180   3.331   1.193  16.314 -0.3744  0.0737 -0.1545
 9515SOL    HW140181   3.322   1.276  16.360  0.2322 -0.9978  1.9046
 9515SOL    HW240182   3.409   1.161  16.360  1.3068  0.4867 -2.7316
 9516SOL     OW40183   3.141   2.302   6.237 -0.6691  0.4604  0.1351
 9516SOL    HW140184   3.077   2.366   6.269  1.1081  1.2438  2.1321
 9516SOL    HW240185   3.100   2.223   6.272  1.2924 -1.1879 -1.3299
 9517SOL     OW40186   1.101   4.574   4.671 -0.1787 -0.2399 -0.1710
 9517SOL    HW140187   1.174   4.623   4.708  1.0794  0.2955 -3.4256
 9517SOL    HW240188   1.064   4.527   4.746 -0.5247 -0.5862 -0.5587
 9518SOL     OW40189   4.640   4.049   9.229  0.4154 -0.0602  0.2470
 9518SOL    HW140190   4.727   4.019   9.202 -0.4162 -2.1446 -0.1538
 9518SOL    HW240191   4.660   4.054   9.322  1.1374  1.0995  0.0273
 9519SOL     OW40192   0.928   4.146   7.313 -0.5204  0.4656  0.3728
 9519SOL    HW140193   0.938   4.234   7.277  0.0503  0.8344  1.4244
 9519SOL    HW240194   0.834   4.135   7.297 -0.3736 -0.0815 -0.1048
 9520SOL     OW40195   1.750   0.164   5.069  0.0016  0.6546  0.7112
 9520SOL    HW140196   1.726   0.121   5.151 -3.3585  0.3522 -0.4440
 9520SOL    HW240197   1.672   0.212   5.042 -1.1869 -1.4118  0.5249
 9521SOL     OW40198   2.473   2.042  10.221  0.0170 -0.5047 -0.3386
 9521SOL    HW140199   2.543   2.082  10.274 -1.0903 -1.3650  1.7867
 9521SOL    HW240200   2.398   2.098  10.241  1.8840  1.3966  1.5001
 9522SOL     OW40201   2.100   0.651   6.227 -0.3662 -0.5332 -0.3555
 9522SOL    HW140202   2.069   0.724   6.173 -0.5027  0.9406  1.7067
 9522SOL    HW240203   2.093   0.572   6.174 -0.1555  0.5291 -1.9882
 9523SOL     OW40204   4.016   2.915   4.677 -0.3360  0.2912  0.1041
 9523SOL    HW140205   4.087   2.936   4.617 -0.3451 -2.2923 -0.7821
 9523SOL    HW240206   3.980   2.842   4.627 -0.7717  0.5766  0.0021
 9524SOL     OW40207   3.518   1.453   1.962  0.7083 -0.0101  1.0797
 9524SOL    HW140208   3.601   1.405   1.952  1.2785  1.6750 -2.2089
 9524SOL    HW240209   3.558   1.540   1.957  2.2245 -0.5366  3.6024
 9525SOL     OW40210   1.188   2.565  17.652  0.2000 -0.9505 -0.5192
 9525SOL    HW140211   1.144   2.650  17.649 -0.9363 -1.5166  0.2325
 9525SOL    HW240212   1.188   2.549  17.557 -1.7586 -0.4640 -0.5997
 9526SOL     OW40213   3.690   0.109   0.645 -0.0262 -0.5682 -0.1359
 9526SOL    HW140214   3.772   0.136   0.687 -0.0106 -1.6490  0.5303
 9526SOL    HW240215   3.737   0.084   0.566 -0.0415  0.2019 -0.3839
 9527SOL     OW40216   1.051   2.164   3.532  0.7310  0.0961  0.1305
 9527SOL    HW140217   1.092   2.174   3.618 -0.6754  0.8978  0.6935
 9527SOL    HW240218   1.043   2.068   3.531 -0.1784  0.1999 -1.9320
 9528SOL     OW40219   3.148   3.087   5.689 -0.0834 -0.0365 -0.0737
 9528SOL    HW140220   3.225   3.036   5.664 -1.3202 -3.0075  2.0285
 9528SOL    HW240221   3.120   3.109   5.601  1.6414  3.6391  0.2809
 9529SOL     OW40222   0.232   4.160   9.503 -0.0608  0.0347  0.5936
 9529SOL    HW140223   0.323   4.166   9.532  0.9874 -1.6983 -2.4217
 9529SOL    HW240224   0.217   4.244   9.460  0.1212  0.4948  1.4218
 9530SOL     OW40225   3.912   2.644   9.186  0.3334  0.7940  0.3303
 9530SOL    HW140226   3.976   2.673   9.250 -0.8867  2.4514  0.7983
 9530SOL    HW240227   3.914   2.711   9.117 -2.1572 -1.3947 -1.8301
 9531SOL     OW40228   2.941   2.396  13.473  0.2286  0.2126 -0.5527
 9531SOL    HW140229   2.903   2.481  13.450 -2.3757 -0.6985  0.3593
 9531SOL    HW240230   3.028   2.397  13.433  0.5818 -0.2523  0.1960
 9532SOL     OW40231   3.136   0.068  16.522  0.9433  0.4670 -0.5401
 9532SOL    HW140232   3.063   0.052  16.462  0.8361  0.6505 -0.4578
 9532SOL    HW240233   3.194   4.731  16.507  0.7251  0.1471  0.2226
 9533SOL     OW40234   4.415   0.354  14.833 -0.3151  0.3791 -0.0139
 9533SOL    HW140235   4.323   0.350  14.806 -0.4478  1.0188  0.3475
 9533SOL    HW240236   4.441   0.265  14.809 -2.0144 -0.1355  0.0379
 9534SOL     OW40237   2.585   3.587  10.268  0.0999 -0.2515 -0.2485
 9534SOL    HW140238   2.638   3.520  10.225  0.9660 -0.1527  0.6600
 9534SOL    HW240239   2.510   3.530  10.286 -3.1803  3.5835 -1.9055
 9535SOL     OW40240   4.083   1.092   9.963  0.5505 -0.2314  0.0314
 9535SOL    HW140241   4.029   1.143  10.024  1.8199  0.1826  0.8112
 9535SOL    HW240242   4.136   1.032  10.014 -0.6733 -2.3561 -1.2141
 9536SOL     OW40243   3.002   3.186   7.859  0.8162  1.0295 -0.6816
 9536SOL    HW140244   3.050   3.216   7.781 -0.5815  0.6679 -1.6820
 9536SOL    HW240245   3.058   3.110   7.876  0.0428  0.1750 -1.9472
 9537SOL     OW40246   0.816   2.789   1.423 -0.0122 -0.1022 -0.4651
 9537SOL    HW140247   0.882   2.755   1.363  0.1908 -1.7132  0.6441
 9537SOL    HW240248   0.812   2.883   1.409 -0.1106  0.1299  1.0936
 9538SOL     OW40249   1.816   3.133   2.330  0.4198  0.0777  0.2544
 9538SOL    HW140250   1.842   3.065   2.268  2.9181  1.9266 -0.7452
 9538SOL    HW240251   1.862   3.102   2.408  1.5612 -0.3283 -0.5839
 9539SOL     OW40252   3.193   2.826   6.881  0.0480  0.2722 -0.1095
 9539SOL    HW140253   3.259   2.764   6.914 -1.6674 -0.4805  1.9441
 9539SOL    HW240254   3.115   2.771   6.875  0.9103 -1.1141  1.3530
 9540SOL     OW40255   3.929   4.045   5.518  0.4535  0.5581 -0.1996
 9540SOL    HW140256   3.939   4.004   5.604  1.7507 -0.3401 -0.7846
 9540SOL    HW240257   3.975   3.983   5.462  0.9860 -0.0790  0.9408
 9541SOL     OW40258   4.112   1.958   3.751  0.3388 -0.2202 -0.1828
 9541SOL    HW140259   4.153   1.977   3.835 -1.3800  2.0064  0.1528
 9541SOL    HW240260   4.159   1.878   3.727 -1.6348 -1.5982  0.5619
 9542SOL     OW40261   2.280   1.327   5.486  0.5124 -0.1911  0.2197
 9542SOL    HW140262   2.331   1.252   5.516  2.3939  0.4747 -1.2583
 9542SOL    HW240263   2.239   1.304   5.403  2.1283 -2.0351 -0.0677
 9543SOL     OW40264   4.406   3.144   1.912 -0.1579  0.2394 -0.1916
 9543SOL    HW140265   4.413   3.228   1.957 -0.4233  1.2662 -2.0299
 9543SOL    HW240266   4.450   3.080   1.967 -0.3498 -0.8423 -1.3093
 9544SOL     OW40267   2.669   4.508   7.215 -0.2393  0.7869  0.0736
 9544SOL    HW140268   2.689   4.457   7.136  2.2479 -0.2286  1.3604
 9544SOL    HW240269   2.735   4.478   7.278 -0.6946  2.6955  1.4394
 9545SOL     OW40270   2.114   3.233   3.114  0.4202  0.2084  0.5707
 9545SOL    HW140271   2.141   3.183   3.037  2.5871 -1.4199  2.4076
 9545SOL    HW240272   2.173   3.309   3.108  0.6137  0.1260  1.4088
 9546SOL     OW40273   3.244   0.727  15.206  0.4604 -0.3827 -0.2353
 9546SOL    HW140274   3.165   0.674  15.221  0.7190 -0.1265  2.0233
 9546SOL    HW240275   3.296   0.662  15.159 -1.2669 -1.8588 -0.1273
 9547SOL     OW40276   4.452   2.129   3.902 -0.0848 -0.2482 -0.3647
 9547SOL    HW140277   4.368   2.145   3.858  1.6454  1.1209 -3.1767
 9547SOL    HW240278   4.470   2.040   3.870  0.4947 -0.0908 -0.4833
 9548SOL     OW40279   0.133   3.001   4.987 -0.5286  0.2777  0.3846
 9548SOL    HW140280   0.131   3.083   5.036 -0.8485  1.9136 -2.3900
 9548SOL    HW240281   0.226   2.983   5.000 -0.7434 -1.6266 -0.6853
 9549SOL     OW40282   0.370   2.226  17.573 -0.3423  0.5214 -0.3163
 9549SOL    HW140283   0.457   2.228  17.532  0.1243  1.8090  0.7451
 9549SOL    HW240284   0.379   2.159  17.641  0.3427  0.0900 -0.8208
 9550SOL     OW40285   4.153   2.836   3.474 -0.5674 -0.0990  0.5260
 9550SOL    HW140286   4.247   2.841   3.460 -1.3214  2.5560 -3.4375
 9550SOL    HW240287   4.129   2.757   3.425  3.4684 -1.0572  0.1154
 9551SOL     OW40288   3.774   2.109   8.572  0.0018  0.5163 -0.0046
 9551SOL    HW140289   3.715   2.080   8.502 -1.4447 -0.6228  1.6763
 9551SOL    HW240290   3.719   2.135   8.646 -0.4209  0.7246 -0.3903
 9552SOL     OW40291   2.794   0.591   1.827  0.1070 -0.0218  0.0303
 9552SOL    HW140292   2.821   0.511   1.872  1.9178 -0.2444 -1.4597
 9552SOL    HW240293   2.699   0.583   1.837 -0.2125  0.9380 -2.2011
 9553SOL     OW40294   0.063   2.818  12.077  0.1579 -0.1725 -0.3276
 9553SOL    HW140295   4.722   2.771  12.105 -1.8557  2.8555 -0.8130
 9553SOL    HW240296   0.063   2.889  12.141 -0.9566  0.8992 -1.5109
 9554SOL     OW40297   0.177   0.042   6.297  0.0899 -0.1878  0.5251
 9554SOL    HW140298   0.218   0.073   6.378  0.8972 -0.7121  0.3177
 9554SOL    HW240299   0.227   0.098   6.237 -0.0427  0.3188  0.8922
 9555SOL     OW40300   0.531   0.065  14.663 -0.2748 -0.7002 -0.2156
 9555SOL    HW140301   0.441   0.079  14.691  0.4771  0.5960  1.5132
 9555SOL    HW240302   0.514   0.009  14.587  0.3853 -0.1868 -0.7467
 9556SOL     OW40303   4.176   0.763   6.161 -0.6669 -0.2273 -0.0913
 9556SOL    HW140304   4.167   0.696   6.094  0.6590  0.4303 -0.9428
 9556SOL    HW240305   4.188   0.846   6.115 -0.3792  0.1027  0.5705
 9557SOL     OW40306   2.555   1.211   9.129  0.0803 -0.1598 -0.7662
 9557SOL    HW140307   2.473   1.171   9.102 -0.4305  0.7035 -0.4870
 9557SOL    HW240308   2.553   1.187   9.221 -1.0390 -1.3002 -1.0871
 9558SOL     OW40309   3.331   2.485   8.006  0.8996 -0.5352  0.2051
 9558SOL    HW140310   3.388   2.495   7.930 -1.6286  1.2345 -1.4373
 9558SOL    HW240311   3.266   2.429   7.965  1.6700 -0.2889 -1.3636
 9559SOL     OW40312   2.963   2.454  14.872 -0.0797 -0.2393 -0.6772
 9559SOL    HW140313   3.004   2.476  14.955  0.4918 -1.1589 -0.7167
 9559SOL    HW240314   2.995   2.365  14.857 -2.2044 -1.6738  3.2864
 9560SOL     OW40315   1.258   1.997  11.842  0.6409 -0.1387 -0.0302
 9560SOL    HW140316   1.226   2.025  11.756  1.3026 -1.7183 -0.7904
 9560SOL    HW240317   1.347   2.032  11.833  0.3890  0.5486  0.1669
 9561SOL     OW40318   3.853   3.257   0.597  0.2066  0.0434 -0.6983
 9561SOL    HW140319   3.876   3.259   0.504 -0.1689 -1.0015 -0.8175
 9561SOL    HW240320   3.844   3.162   0.597 -1.8448  0.2540  0.7239
 9562SOL     OW40321   2.672   3.926   1.576  0.4030  0.1590  0.0151
 9562SOL    HW140322   2.748   3.876   1.605  0.8627  0.3880 -0.7842
 9562SOL    HW240323   2.652   3.881   1.494 -3.2902  0.8016  0.5538
 9563SOL     OW40324   1.961   3.534   9.436 -0.3373 -0.0229 -0.0962
 9563SOL    HW140325   1.875   3.563   9.403 -0.8404  0.8129  1.9428
 9563SOL    HW240326   1.932   3.511   9.524  2.2522 -1.6612  0.2957
 9564SOL     OW40327   3.730   0.444   2.288 -0.0214  0.1839 -0.1710
 9564SOL    HW140328   3.793   0.390   2.337  0.4103  1.0315  0.2280
 9564SOL    HW240329   3.793   0.501   2.244  1.9585 -0.1706  2.1494
 9565SOL     OW40330   3.672   1.384   6.711  0.1592  1.1977  0.1064
 9565SOL    HW140331   3.755   1.336   6.714 -0.5015  0.1357  1.3174
 9565SOL    HW240332   3.688   1.458   6.652 -1.2252 -0.0049 -1.7818
 9566SOL     OW40333   3.570   1.455   2.253  0.4022  0.5020  0.2729
 9566SOL    HW140334   3.502   1.521   2.265  0.0130 -0.0104  0.8639
 9566SOL    HW240335   3.531   1.391   2.193  1.1318  0.1855  0.1373
 9567SOL     OW40336   2.534   0.418   2.422 -0.2318  0.1906 -0.1241
 9567SOL    HW140337   2.500   0.332   2.447  1.1523  0.1670  1.6751
 9567SOL    HW240338   2.454   0.469   2.436  0.1527  1.7676 -3.6380
 9568SOL     OW40339   2.637   2.554   7.301 -0.6527  0.3157 -0.3296
 9568SOL    HW140340   2.642   2.649   7.292 -1.1162  0.4602  0.9601
 9568SOL    HW240341   2.564   2.536   7.241  0.0680  1.0916 -1.4277
 9569SOL     OW40342   1.093   4.182   6.774  0.4394 -0.2201 -0.4573
 9569SOL    HW140343   0.998   4.192   6.778  0.5288  0.2458  0.4312
 9569SOL    HW240344   1.111   4.105   6.828 -0.4209 -0.5211 -0.5872
   4.73776   4.73776  17.74920
