Membrane in water
40344
    1TMC1    C1    1   3.020   2.972  11.347 -0.0065 -0.2557  0.5859
    1TMC1    C2    2   2.892   3.014  11.325 -0.5479  0.1219  0.5357
    1TMC1    C3    3   2.879   3.153  11.323 -0.6660 -0.4557  0.1528
    1TMC1    C4    4   3.122   3.062  11.371  0.1323 -0.6520  0.2771
    1TMC1    C5    5   3.098   3.194  11.358  0.1319 -0.0349 -0.4287
    1TMC1    C6    6   2.976   3.246  11.333 -0.3593 -0.5049  0.0496
    1TMC1     C    7   3.043   2.833  11.372  0.1403 -0.0972 -0.0859
    1TMC1     O    8   2.947   2.762  11.402 -0.2864  0.2040  0.0890
    1TMC1     H    9   2.818   2.943  11.289  0.3939 -0.3424 -0.4965
    1TMC1    H1   10   3.218   3.036  11.412 -0.9635 -2.4933  1.6510
    1TMC1    H2   11   2.959   3.352  11.349  2.1583  0.0565 -0.9755
    1TMC1    C7   12   3.202   3.284  11.356  0.3546 -0.4570  0.0648
    1TMC1    C8   13   2.744   3.195  11.295 -0.1612  1.1715 -0.1877
    1TMC1    O1   14   3.196   3.400  11.377 -0.0084  0.6104 -0.1011
    1TMC1    O2   15   2.643   3.143  11.341  0.6152  0.8295 -0.5873
    1TMC1    O3   16   3.283   3.234  11.258  0.1645  0.0237  0.6398
    1TMC1    H3   17   3.256   3.144  11.233  0.7577  0.6456 -2.1532
    1TMC1    O5   18   2.746   3.315  11.238 -0.1102  0.0423  0.2915
    1TMC1    H5   19   2.828   3.333  11.187 -0.6252 -0.9422 -0.8751
    2MPD2     C   20   3.368   2.439  11.444  0.1617  0.4109 -0.5337
    2MPD2    C1   21   3.234   2.443  11.447  0.9595  0.2632  0.2011
    2MPD2    C2   22   3.165   2.559  11.412  0.3878  0.2735  0.8621
    2MPD2    C3   23   3.237   2.676  11.375 -0.5569 -0.4711 -0.0419
    2MPD2    C4   24   3.374   2.668  11.376  0.7109 -0.2850  0.3372
    2MPD2    C5   25   3.439   2.549  11.402  0.3816  0.4138  0.2410
    2MPD2     H   26   3.057   2.555  11.418  0.1805  1.6651 -1.8419
    2MPD2    H1   27   3.435   2.756  11.360 -1.2049  1.1984  1.2189
    2MPD2    H2   28   3.424   2.351  11.474  0.2314  0.4135 -0.6559
    2MPD2    H3   29   3.547   2.542  11.404  0.2690 -1.1571  0.9507
    2MPD2     N   30   3.176   2.800  11.362 -0.4458  0.3298 -0.3921
    2MPD2    H5   31   3.227   2.884  11.336  1.4595 -1.8229 -3.6190
    2MPD2    N1   32   3.154   2.339  11.492  0.1119  0.4787 -0.8847
    2MPD2    H7   33   3.053   2.349  11.499  0.6160  4.8746  0.4652
    3TMC1    C1   34   2.056   3.553  10.391 -0.5294  0.9210  0.2263
    3TMC1    C2   35   1.951   3.642  10.416 -0.1348 -0.3912  1.5715
    3TMC1    C3   36   1.991   3.770  10.393 -0.1128  0.1074  0.0522
    3TMC1    C4   37   2.182   3.583  10.358 -0.8972 -0.2537  0.2450
    3TMC1    C5   38   2.211   3.717  10.351  0.7319 -0.3175  0.2121
    3TMC1    C6   39   2.117   3.813  10.361  0.0341  0.2542  0.2265
    3TMC1     C   40   2.039   3.421  10.452  0.4633 -0.4356 -0.0859
    3TMC1     O   41   2.124   3.335  10.423 -0.1449 -0.0798 -0.0176
    3TMC1     H   42   1.847   3.617  10.434  0.1847 -2.7356  0.2635
    3TMC1    H1   43   2.254   3.503  10.341 -1.1044 -0.6844  1.3637
    3TMC1    H2   44   2.142   3.919  10.362  0.2104  0.2315 -2.1530
    3TMC1    C7   45   2.336   3.765  10.309 -0.2895  0.1051  0.3752
    3TMC1    C8   46   1.910   3.875  10.458  0.3394 -0.6536  0.3039
    3TMC1    O1   47   2.363   3.885  10.305  0.3220  0.2421  0.1751
    3TMC1    O2   48   1.956   3.941  10.547  0.1927 -0.4934  0.0941
    3TMC1    O3   49   2.428   3.674  10.264 -0.3408 -0.3651  0.6079
    3TMC1    H3   50   2.399   3.582  10.249  2.0560 -0.9845 -0.2108
    3TMC1    O5   51   1.781   3.854  10.426  0.1745  0.4382 -0.5038
    3TMC1    H5   52   1.774   3.798  10.346  1.4651  2.2777 -1.8853
    4MPD2     C   53   1.787   3.096  10.757 -0.1716 -0.6314  0.2014
    4MPD2    C1   54   1.751   3.224  10.795  0.0346 -0.1397  0.1325
    4MPD2    C2   55   1.811   3.329  10.725  0.4557  1.4101  0.0159
    4MPD2    C3   56   1.890   3.301  10.615 -0.4625 -0.4819 -0.4387
    4MPD2    C4   57   1.928   3.172  10.585  0.9149 -0.3481  0.4854
    4MPD2    C5   58   1.881   3.066  10.661  0.4749 -0.4795 -0.2438
    4MPD2     H   59   1.796   3.433  10.752 -0.0114  1.3827 -0.1414
    4MPD2    H1   60   1.990   3.152  10.498  1.1184 -0.5166  0.6694
    4MPD2    H2   61   1.745   3.016  10.816  0.2410 -1.7003 -0.9704
    4MPD2    H3   62   1.890   2.964  10.627 -1.2076 -0.4561 -0.7855
    4MPD2     N   63   1.940   3.417  10.548 -0.3365  0.0777 -0.2252
    4MPD2    H5   64   1.892   3.504  10.571  0.9053  0.8123 -0.4244
    4MPD2    N1   65   1.663   3.259  10.905  0.7959  1.2690  0.3894
    4MPD2    H7   66   1.634   3.356  10.910 -0.4344  0.9763 -0.9121
    5TCq1    O1   67   3.417   0.162  12.252  0.4227 -0.0914  0.0262
    5TCq1    C1   68   3.362   0.107  12.140 -0.2182 -0.2360  0.3792
    5TCq1    O2   69   3.382   0.002  12.084 -0.0417 -0.0764 -0.3186
    5TCq1    C2   70   3.257   0.196  12.083 -0.2297 -0.0394 -0.1160
    5TCq1    C3   71   3.202   0.297  12.164 -0.1975 -0.6997  1.1602
    5TCq1    C4   72   3.128   0.386  12.091  0.1143 -0.1556 -0.0679
    5TCq1    C5   73   3.119   0.390  11.958 -0.5923  0.0836 -1.1439
    5TCq1    C6   74   3.171   0.288  11.885  0.1407 -0.0979  0.7053
    5TCq1    C7   75   3.234   0.181  11.949 -0.6103  0.5104 -0.2212
    5TCq1    C8   76   3.162   0.281  11.739 -0.5572  0.1267 -0.2043
    5TCq1    O4   77   3.218   0.180  11.699  0.2698  0.1746  0.0924
    5TCq1    C9   78   3.078   0.500  12.167  0.4456  0.3165  0.2460
    5TCq1    O5   79   3.015   0.589  12.104 -0.7956 -0.0632 -0.1088
    5TCq1    O6   80   3.139   0.524  12.273 -0.1934 -0.1559 -0.4352
    5TCq1    H1   81   3.384   0.249  12.282  1.7904  0.8277 -1.1117
    5TCq1    H2   82   3.204   0.302  12.273  2.3128  0.0788  1.0847
    5TCq1    H3   83   3.069   0.475  11.913 -2.3339 -1.0815 -1.3971
    5TCq1    H4   84   3.291   0.105  11.896 -1.3041 -1.8815  2.4193
    6MPD2     C   85   2.993   0.501  11.509  0.4977  0.1891 -0.1463
    6MPD2    C1   86   3.057   0.388  11.550  0.0125 -0.7071  0.2465
    6MPD2    C2   87   3.080   0.282  11.463 -0.5181  0.0494  0.1418
    6MPD2    C3   88   3.042   0.297  11.335  0.4346 -0.1754  0.5202
    6MPD2    C4   89   2.987   0.417  11.288 -0.0863 -0.8543  0.1177
    6MPD2    C5   90   2.971   0.523  11.375 -0.4878  0.6837 -0.3297
    6MPD2     H   91   3.134   0.193  11.494 -2.0428 -0.6617  0.7496
    6MPD2    H1   92   2.955   0.444  11.188  2.1047  2.8443  0.4110
    6MPD2    H2   93   2.977   0.588  11.572 -0.6356 -0.8400  0.9986
    6MPD2    H3   94   2.930   0.619  11.345 -1.7732  0.4892  0.8073
    6MPD2     N   95   3.072   0.195  11.247  0.3569 -0.2541  0.3869
    6MPD2    H5   96   3.121   0.115  11.286  1.1386 -0.8969 -1.8664
    6MPD2    N1   97   3.093   0.384  11.683 -0.8653  0.1002 -0.2794
    6MPD2    H7   98   3.051   0.457  11.740  0.9733  0.2222  0.9302
    7TCq1    O1   99   0.476   3.546  12.662 -0.5548  0.0409 -0.3235
    7TCq1    C1  100   0.462   3.677  12.631  1.1126  0.3835  0.5305
    7TCq1    O2  101   0.482   3.724  12.521  0.1131  0.0926  0.3548
    7TCq1    C2  102   0.541   3.739  12.745 -0.0109  0.4359  0.3767
    7TCq1    C3  103   0.661   3.799  12.723 -0.3035 -0.6777  0.4575
    7TCq1    C4  104   0.722   3.859  12.834  0.8777 -0.2420 -0.5524
    7TCq1    C5  105   0.669   3.845  12.955 -0.0919 -0.5904 -0.4693
    7TCq1    C6  106   0.545   3.792  12.971 -0.1683 -0.6097  0.4613
    7TCq1    C7  107   0.475   3.741  12.867 -0.9330  0.9530  0.1999
    7TCq1    C8  108   0.496   3.753  13.102  0.2422  0.4543 -0.0850
    7TCq1    O4  109   0.412   3.667  13.117 -0.1014 -0.6598 -0.4377
    7TCq1    C9  110   0.854   3.916  12.827 -0.4543 -0.2693  0.0547
    7TCq1    O5  111   0.903   3.936  12.713 -0.2248 -0.8070 -0.2290
    7TCq1    O6  112   0.914   3.945  12.935 -0.2078 -0.1099 -0.4255
    7TCq1    H1  113   0.442   3.516  12.749 -0.8794 -0.5799 -0.6617
    7TCq1    H2  114   0.702   3.810  12.623  0.3475  2.2647  1.0349
    7TCq1    H3  115   0.731   3.872  13.040  2.3445 -1.6747 -1.9130
    7TCq1    H4  116   0.375   3.703  12.880  1.0163 -3.4628  2.2831
    8MPD2     C  117   0.565   3.812  13.613  0.7306  0.6536 -0.2776
    8MPD2    C1  118   0.533   3.695  13.542 -0.1917 -0.0818 -0.2559
    8MPD2    C2  119   0.526   3.702  13.404  0.7936  0.2375 -0.0259
    8MPD2    C3  120   0.543   3.822  13.337 -0.6678  0.4448 -0.2910
    8MPD2    C4  121   0.583   3.935  13.406  0.5833  0.1538 -0.3043
    8MPD2    C5  122   0.589   3.929  13.542 -0.5252 -0.2530 -0.0338
    8MPD2     H  123   0.495   3.617  13.344 -0.3196  1.0477 -0.6016
    8MPD2    H1  124   0.614   4.028  13.360  1.4254  0.9969  1.9386
    8MPD2    H2  125   0.561   3.825  13.721  1.1538  0.3038 -0.2219
    8MPD2    H3  126   0.629   4.014  13.596 -0.4552  0.1128 -0.6564
    8MPD2     N  127   0.552   3.834  13.200  0.3759  0.2547  0.7365
    8MPD2    H5  128   0.593   3.920  13.166 -2.0540  1.1868  0.1563
    8MPD2    N1  129   0.513   3.580  13.619 -0.1126 -0.9026  0.4280
    8MPD2    H7  130   0.536   3.603  13.715 -0.0972  0.6336  0.0575
    9TMC1    C1  131   1.683   3.644  11.288  0.0498 -0.0057 -0.1051
    9TMC1    C2  132   1.670   3.771  11.326 -0.5866 -0.6086 -0.2071
    9TMC1    C3  133   1.661   3.864  11.230  0.6353  0.0418  0.7810
    9TMC1    C4  134   1.649   3.613  11.163  0.1628  0.7322 -0.2449
    9TMC1    C5  135   1.636   3.707  11.067 -0.3662  0.3724 -0.1982
    9TMC1    C6  136   1.639   3.839  11.099  0.0209 -0.1486  0.3895
    9TMC1     C  137   1.657   3.551  11.393 -0.3314 -0.0018 -0.3528
    9TMC1     O  138   1.543   3.544  11.428  0.3406  0.6344 -0.4543
    9TMC1     H  139   1.697   3.800  11.427 -1.8274  1.0891 -0.3575
    9TMC1    H1  140   1.630   3.510  11.136  0.9002  0.4575  0.3084
    9TMC1    H2  141   1.645   3.910  11.017 -1.3416  0.1679  0.5614
    9TMC1    C7  142   1.580   3.663  10.938 -0.6134 -0.5070 -0.1413
    9TMC1    C8  143   1.705   3.992  11.274  0.6155 -0.3634  0.2386
    9TMC1    O1  144   1.591   3.549  10.894 -0.1746  0.2189  0.0804
    9TMC1    O2  145   1.686   4.044  11.384 -0.0904 -0.2740 -0.3229
    9TMC1    O3  146   1.489   3.753  10.902 -0.1529  0.2898 -0.9698
    9TMC1    H3  147   1.505   3.838  10.949 -2.2574 -1.0179  2.0378
    9TMC1    O5  148   1.786   4.036  11.179  0.1208 -0.9978 -0.3365
    9TMC1    H5  149   1.827   3.963  11.127  2.2150 -0.4775  0.5756
   10MPD2     C  150   1.687   3.376  11.633 -0.5480 -0.0110  0.0016
   10MPD2    C1  151   1.792   3.397  11.541  0.1301  0.4007 -0.4406
   10MPD2    C2  152   1.922   3.348  11.574 -0.0844  0.4016 -0.7255
   10MPD2    C3  153   1.945   3.273  11.688  0.1829  0.5454 -0.5967
   10MPD2    C4  154   1.839   3.253  11.778 -0.0173  0.3158 -0.0054
   10MPD2    C5  155   1.708   3.299  11.742 -0.0790 -0.1398  0.1268
   10MPD2     H  156   1.997   3.352  11.495 -0.8262 -2.2273 -1.5607
   10MPD2    H1  157   1.850   3.201  11.873  1.2856  0.3963 -0.1167
   10MPD2    H2  158   1.590   3.423  11.635 -0.4446  0.2520 -1.4252
   10MPD2    H3  159   1.631   3.286  11.818 -1.6120 -0.6953 -1.5440
   10MPD2     N  160   2.068   3.213  11.724 -0.1770  0.1078  0.0186
   10MPD2    H5  161   2.068   3.145  11.799 -0.0445  0.1973  0.1014
   10MPD2    N1  162   1.775   3.490  11.431 -0.3429  0.3886  0.2334
   10MPD2    H7  163   1.860   3.516  11.381 -0.5689  0.1862 -0.2480
   11TCq1    O1  164   3.261   3.523  13.483 -0.5182 -0.0206 -0.0026
   11TCq1    C1  165   3.161   3.488  13.394 -0.0458 -0.3811  0.3075
   11TCq1    O2  166   3.075   3.569  13.353  0.1421  0.5696 -0.0684
   11TCq1    C2  167   3.110   3.363  13.443  0.2446 -0.0150  0.3917
   11TCq1    C3  168   3.092   3.332  13.581 -0.0067  0.1873 -0.6923
   11TCq1    C4  169   3.056   3.199  13.606  0.2102 -0.0143 -0.5269
   11TCq1    C5  170   3.043   3.100  13.515 -0.3101  0.2757 -0.3835
   11TCq1    C6  171   3.078   3.136  13.388 -0.2626  0.3128 -0.2180
   11TCq1    C7  172   3.109   3.264  13.348  0.0464  0.5812  0.1170
   11TCq1    C8  173   3.063   3.035  13.274 -0.2632  0.3728  0.0830
   11TCq1    O4  174   3.099   3.070  13.160 -0.7524 -0.5368 -0.0490
   11TCq1    C9  175   3.022   3.170  13.745 -0.8250  1.2197  0.0716
   11TCq1    O5  176   3.016   3.051  13.783 -0.4437  0.5092 -0.2252
   11TCq1    O6  177   3.018   3.269  13.825  0.2511  0.0367 -0.1914
   11TCq1    H1  178   3.286   3.459  13.553 -2.1983  2.2235  2.6489
   11TCq1    H2  179   3.103   3.404  13.660 -1.2145  0.0924 -0.4382
   11TCq1    H3  180   2.987   3.010  13.537 -1.1272  0.8713  0.0089
   11TCq1    H4  181   3.125   3.288  13.244  1.8629  2.8981  0.9404
   12MPD2     C  182   3.006   2.773  13.121  0.0989 -0.3062  0.4401
   12MPD2    C1  183   3.015   2.787  13.263 -1.3895  0.3820  0.0990
   12MPD2    C2  184   3.011   2.671  13.343 -1.0416  0.0900  0.3752
   12MPD2    C3  185   3.000   2.547  13.284  0.7110  0.2464 -0.4053
   12MPD2    C4  186   3.003   2.539  13.147  0.3775  0.2678  0.0494
   12MPD2    C5  187   2.995   2.652  13.066 -0.2610 -0.3090  0.4920
   12MPD2     H  188   3.016   2.691  13.449 -1.7677 -0.5207  0.5236
   12MPD2    H1  189   2.996   2.441  13.102  1.3596  0.4653 -0.5314
   12MPD2    H2  190   2.995   2.860  13.057  0.2655 -0.3973  0.2877
   12MPD2    H3  191   2.998   2.637  12.959 -0.8874  3.3115 -0.0354
   12MPD2     N  192   2.968   2.429  13.358  0.0094  0.0992 -0.7351
   12MPD2    H5  193   2.942   2.344  13.309  1.8282 -0.2440 -1.1011
   12MPD2    N1  194   3.029   2.909  13.326 -0.2460  0.8027 -0.5866
   12MPD2    H7  195   3.049   2.910  13.425  0.9860  0.8575 -0.8293
   13TCq1    O1  196   2.987   3.181  10.252 -0.0303  0.0246  0.0478
   13TCq1    C1  197   2.873   3.149  10.319 -0.3743 -0.1370  0.1187
   13TCq1    O2  198   2.763   3.113  10.270  0.1342 -0.1099 -0.6259
   13TCq1    C2  199   2.896   3.151  10.462  0.4935  1.0947 -0.3330
   13TCq1    C3  200   2.968   3.252  10.508  0.1660  0.1392 -0.4060
   13TCq1    C4  201   2.946   3.278  10.640  0.4496  0.1232 -0.9491
   13TCq1    C5  202   2.856   3.208  10.718 -0.8899  0.0952  0.2735
   13TCq1    C6  203   2.779   3.112  10.661 -0.5926  0.1857 -0.7471
   13TCq1    C7  204   2.806   3.083  10.533  0.0377  0.0784 -0.0368
   13TCq1    C8  205   2.660   3.070  10.741  0.0304 -0.3036 -0.0417
   13TCq1    O4  206   2.642   3.115  10.853 -0.1059  0.4600  0.3960
   13TCq1    C9  207   3.012   3.389  10.710 -0.5123 -0.2278  0.2272
   13TCq1    O5  208   3.103   3.454  10.650 -0.1206 -0.1248 -0.0483
   13TCq1    O6  209   2.960   3.426  10.821 -0.5777  0.4925  0.3898
   13TCq1    H1  210   3.061   3.205  10.312 -1.6978  0.5498  1.8767
   13TCq1    H2  211   3.021   3.332  10.457  0.4950 -0.8463 -1.6214
   13TCq1    H3  212   2.850   3.233  10.823  1.1735 -0.0515  0.4192
   13TCq1    H4  213   2.750   3.010  10.477 -0.6689  1.7522 -1.5007
   14MPD2     C  214   2.459   2.781  10.670 -0.1896  0.4410  0.6248
   14MPD2    C1  215   2.493   2.893  10.737  0.8187 -0.7442  0.4344
   14MPD2    C2  216   2.401   2.941  10.835 -0.0992 -0.2384 -0.6340
   14MPD2    C3  217   2.290   2.870  10.867 -0.1447 -0.0429  0.5316
   14MPD2    C4  218   2.261   2.748  10.813 -0.2898  0.3614 -0.0888
   14MPD2    C5  219   2.351   2.708  10.716 -0.6790  0.3186 -0.6669
   14MPD2     H  220   2.424   3.035  10.884  1.3566 -0.7730 -0.2966
   14MPD2    H1  221   2.181   2.684  10.850 -0.1309 -0.4126 -1.0855
   14MPD2    H2  222   2.520   2.732  10.596 -0.5996  0.1153  0.5037
   14MPD2    H3  223   2.344   2.609  10.671 -3.7988 -0.8198  2.2758
   14MPD2     N  224   2.195   2.932  10.950 -0.4433 -0.4087  0.2161
   14MPD2    H5  225   2.215   3.028  10.978 -0.0662  0.0461 -1.6062
   14MPD2    N1  226   2.603   2.962  10.686 -0.1808  0.3548  0.0422
   14MPD2    H7  227   2.644   2.917  10.604 -1.0763 -1.6268  0.6991
   15TCq1    O1  228   0.404   2.164   1.660  0.1943 -0.3701 -0.1103
   15TCq1    C1  229   0.306   2.197   1.745 -0.2747 -0.1880 -0.1480
   15TCq1    O2  230   0.323   2.225   1.864  0.5411 -0.1823 -0.5232
   15TCq1    C2  231   0.193   2.248   1.668 -0.2128 -0.3932  0.2069
   15TCq1    C3  232   0.110   2.334   1.728  0.7509 -0.3788  0.5753
   15TCq1    C4  233   0.020   2.398   1.648 -0.4998  0.2920 -0.6759
   15TCq1    C5  234   0.003   2.360   1.516 -0.2906  0.0189  0.1345
   15TCq1    C6  235   0.067   2.242   1.471 -0.1970 -0.4859 -0.0055
   15TCq1    C7  236   0.169   2.198   1.545 -0.1206 -0.0980  0.2520
   15TCq1    C8  237   0.023   2.168   1.350 -0.8246  0.2967  0.0078
   15TCq1    O4  238   0.080   2.065   1.327  0.3558  0.0416  0.1005
   15TCq1    C9  239   4.697   2.511   1.695 -0.5157 -0.2839  0.7561
   15TCq1    O5  240   4.594   2.546   1.635  0.6945 -0.6214  0.1631
   15TCq1    O6  241   4.730   2.546   1.813 -0.0164 -0.2318  0.5682
   15TCq1    H1  242   0.389   2.202   1.571 -1.1216  0.6276  0.5460
   15TCq1    H2  243   0.135   2.378   1.824  2.2080  0.8476 -0.3627
   15TCq1    H3  244   4.663   2.411   1.460  2.5179  1.3082 -2.4890
   15TCq1    H4  245   0.226   2.109   1.523  0.0112  0.0677 -0.0765
   16MPD2     C  246   4.459   2.200   1.145 -0.0721 -0.7686 -0.1154
   16MPD2    C1  247   4.576   2.147   1.185 -0.6439 -0.4583  0.6414
   16MPD2    C2  248   4.614   2.019   1.134 -0.6072  0.5039 -0.4915
   16MPD2    C3  249   4.540   1.964   1.035  0.2459 -0.1466  0.3257
   16MPD2    C4  250   4.420   2.019   0.995  0.2754 -0.3438  0.5804
   16MPD2    C5  251   4.385   2.139   1.050 -0.5463 -0.0283 -0.1384
   16MPD2     H  252   4.696   1.959   1.171 -0.0918  1.6102  0.1556
   16MPD2    H1  253   4.359   1.974   0.918  0.3683  0.6141 -0.0597
   16MPD2    H2  254   4.424   2.296   1.182  2.8369  0.4823 -0.6460
   16MPD2    H3  255   4.290   2.186   1.026 -0.5292 -0.8063 -1.7376
   16MPD2     N  256   4.589   1.846   0.975  0.1934 -0.5670  0.0720
   16MPD2    H5  257   4.682   1.822   1.006  0.1549 -1.7531 -0.7548
   16MPD2    N1  258   4.650   2.215   1.288 -0.6103  0.1563 -0.3386
   16MPD2    H7  259   4.596   2.287   1.335  1.2646  0.7172  0.9403
   17TMC1    C1  260   2.674   1.582  11.292  0.7516 -0.1041  1.1639
   17TMC1    C2  261   2.798   1.543  11.344  0.1119  0.2583  0.2779
   17TMC1    C3  262   2.829   1.412  11.336 -0.5925 -0.2432  0.2042
   17TMC1    C4  263   2.594   1.489  11.228 -0.7306 -0.4440 -0.4143
   17TMC1    C5  264   2.636   1.360  11.222  0.0954  0.4156  0.1547
   17TMC1    C6  265   2.751   1.318  11.276 -0.8464 -0.3245 -0.2821
   17TMC1     C  266   2.645   1.725  11.288  0.3237 -0.7286 -1.4494
   17TMC1     O  267   2.527   1.767  11.277  0.3575 -0.6468 -0.6337
   17TMC1     H  268   2.854   1.604  11.414 -0.5600  0.6526  0.4740
   17TMC1    H1  269   2.507   1.522  11.173 -0.7364 -0.8162 -0.6309
   17TMC1    H2  270   2.768   1.211  11.273 -1.6017 -0.4768  0.7842
   17TMC1    C7  271   2.565   1.265  11.144 -0.9986  0.4315 -0.3411
   17TMC1    C8  272   2.945   1.364  11.413 -0.7021 -0.0535  0.2293
   17TMC1    O1  273   2.606   1.196  11.049  0.3073 -0.2083  0.3128
   17TMC1    O2  274   3.056   1.416  11.414  0.5454 -0.0990  0.9577
   17TMC1    O3  275   2.436   1.314  11.144 -0.2390  0.5848 -0.2297
   17TMC1    H3  276   2.407   1.375  11.215 -0.6438 -0.6663  0.6639
   17TMC1    O5  277   2.903   1.256  11.478 -0.4445 -0.2603 -0.3480
   17TMC1    H5  278   2.806   1.257  11.489 -0.3429  2.4867  0.2617
   18MPD2     C  279   2.660   2.016  11.254  0.0719  0.0791 -0.2392
   18MPD2    C1  280   2.770   1.932  11.248 -0.2591  0.2133 -0.0092
   18MPD2    C2  281   2.900   1.981  11.237 -0.9911  0.1554 -0.7075
   18MPD2    C3  282   2.914   2.119  11.221 -0.6904 -0.1651 -0.0510
   18MPD2    C4  283   2.804   2.202  11.236  0.4194 -0.2054 -0.0773
   18MPD2    C5  284   2.682   2.147  11.258 -0.7380 -0.4948 -0.1966
   18MPD2     H  285   2.985   1.916  11.251 -0.5246  0.9207  0.0284
   18MPD2    H1  286   2.807   2.310  11.231 -1.1825 -0.2089 -0.9272
   18MPD2    H2  287   2.561   1.979  11.277  0.1914  0.4097  0.8103
   18MPD2    H3  288   2.600   2.213  11.282  1.1664  2.0547 -0.6710
   18MPD2     N  289   3.044   2.177  11.214  0.3536  0.1716  0.0433
   18MPD2    H5  290   3.053   2.278  11.218  1.7851  0.0192  0.7294
   18MPD2    N1  291   2.758   1.791  11.250  1.0111  0.5544  0.0688
   18MPD2    H7  292   2.844   1.738  11.247  0.0433 -1.0029  0.1638
   19TMC2    C1  293   4.427   2.748  13.743  0.4740  0.7321  0.0046
   19TMC2    C2  294   4.423   2.877  13.787  0.2323 -0.6029  0.0337
   19TMC2    C3  295   4.333   2.903  13.888  0.2088  0.0676 -0.4412
   19TMC2    C4  296   4.340   2.656  13.792  0.0566  1.2714  0.3745
   19TMC2    C5  297   4.260   2.685  13.899 -1.5620 -0.4038 -0.4775
   19TMC2    C6  298   4.243   2.812  13.937  0.5984  0.1150 -0.4450
   19TMC2     C  299   4.525   2.716  13.645  0.9191  0.0186 -0.0090
   19TMC2     O  300   4.559   2.804  13.560 -0.1279  0.1727 -0.1074
   19TMC2     H  301   4.486   2.956  13.746 -0.1497  0.3016  1.1979
   19TMC2    H1  302   4.330   2.554  13.757 -0.7545  1.7248 -0.6821
   19TMC2    H2  303   4.179   2.836  14.022  0.0254  1.5970 -1.3014
   19TMC2    C7  304   4.171   2.582  13.942 -0.2725 -0.0215  0.3867
   19TMC2    C8  305   4.325   3.036  13.937  0.4813  0.1482  0.4401
   19TMC2    O1  306   4.210   2.465  13.933 -0.0590  0.4255 -0.0881
   19TMC2    O2  307   4.231   3.103  13.972 -0.2703 -0.0971  0.3380
   19TMC2    O5  308   4.454   3.077  13.947  0.2019  0.4332  0.2866
   19TMC2    H5  309   4.502   2.995  13.970 -0.8439 -0.6701 -1.4873
   20MPD2     C  310   4.728   2.578  13.458  0.8453  0.2003 -0.1479
   20MPD2    C1  311   4.685   2.531  13.582  0.3103 -0.4790  0.3346
   20MPD2    C2  312   0.019   2.428  13.636  0.6698 -0.2112 -0.0576
   20MPD2    C3  313   0.137   2.376  13.581 -0.0370 -0.3039 -0.2939
   20MPD2    C4  314   0.176   2.422  13.458 -1.0666  0.7706 -0.7500
   20MPD2    C5  315   0.093   2.516  13.391 -0.4001 -0.1542 -0.3958
   20MPD2     H  316   4.719   2.404  13.735 -3.1847  0.9346 -1.2008
   20MPD2    H1  317   0.266   2.391  13.405 -1.6124 -1.2051 -0.5122
   20MPD2    H2  318   4.683   2.665  13.411  0.2577 -0.0491 -0.0431
   20MPD2    H3  319   0.129   2.546  13.294  0.2632  0.6821  0.1097
   20MPD2     N  320   0.225   2.297  13.657 -0.3101 -1.0347 -0.3976
   20MPD2    H5  321   0.317   2.273  13.620 -0.2172 -2.0208  0.4721
   20MPD2    N1  322   4.585   2.595  13.667  0.0962 -0.9774 -0.1417
   20MPD2    H7  323   4.553   2.538  13.745  1.4798  0.2775  1.3302
   21TMC2    C1  324   1.984   2.524  14.211 -1.1786  0.6442  0.6954
   21TMC2    C2  325   2.025   2.392  14.207  0.1287  1.0168  0.0565
   21TMC2    C3  326   1.934   2.287  14.214 -0.4358 -0.0562  0.0092
   21TMC2    C4  327   1.852   2.552  14.241  0.4329 -0.8192 -0.0277
   21TMC2    C5  328   1.773   2.442  14.256  0.2406 -0.1928 -0.0700
   21TMC2    C6  329   1.812   2.314  14.250 -0.0441  0.2390 -1.3346
   21TMC2     C  330   2.076   2.622  14.160 -0.4717 -0.2500  0.2617
   21TMC2     O  331   2.191   2.594  14.144 -0.6311 -0.0009  0.7487
   21TMC2     H  332   2.127   2.381  14.171  0.5088  2.4982  0.6695
   21TMC2    H1  333   1.814   2.653  14.230  1.2490 -0.3027  1.9997
   21TMC2    H2  334   1.739   2.235  14.251 -1.2521  1.3782  0.3745
   21TMC2    C7  335   1.629   2.459  14.247  0.5295  0.3397 -0.5538
   21TMC2    C8  336   1.963   2.171  14.147  0.4042  1.1952  0.5707
   21TMC2    O1  337   1.575   2.359  14.208  0.0191  0.1939 -0.0475
   21TMC2    O2  338   1.867   2.100  14.114  0.7646 -0.1233  0.2810
   21TMC2    O5  339   2.078   2.121  14.196 -0.6065  0.1574  0.2524
   21TMC2    H5  340   2.129   2.179  14.256 -1.8177  1.7034 -0.2072
   22MPD2     C  341   2.206   3.086  14.005 -0.2504 -0.5624  0.2479
   22MPD2    C1  342   2.281   2.972  14.037  0.0129 -0.9209  0.0995
   22MPD2    C2  343   2.216   2.860  14.086  0.0333 -0.4139  0.7691
   22MPD2    C3  344   2.084   2.861  14.116 -0.8303 -0.5096  0.0447
   22MPD2    C4  345   2.017   2.978  14.098  0.2412  0.2836 -0.2272
   22MPD2    C5  346   2.075   3.087  14.044 -0.0617 -0.5064  0.4493
   22MPD2     H  347   2.278   2.772  14.090 -0.2557 -0.6357  0.3309
   22MPD2    H1  348   1.912   2.980  14.124  0.6601  1.7025  1.3333
   22MPD2    H2  349   2.241   3.174  13.953 -1.2724 -0.8113 -0.8455
   22MPD2    H3  350   2.018   3.178  14.025  0.2481  0.0917  2.4266
   22MPD2     N  351   2.015   2.746  14.152  0.0603  0.3381  0.1598
   22MPD2    H5  352   1.915   2.755  14.168  0.2899 -0.3127  2.0305
   22MPD2    N1  353   2.415   2.962  13.985 -0.4449  0.2392  0.3863
   22MPD2    H7  354   2.465   2.878  14.011 -0.1421  0.7416  1.4412
   23TMC2    C1  355   2.765   3.724  14.528 -0.0384  0.3382  0.5128
   23TMC2    C2  356   2.668   3.771  14.616 -0.4952 -0.4885 -0.1588
   23TMC2    C3  357   2.542   3.791  14.571  0.6817  0.0575  0.1337
   23TMC2    C4  358   2.732   3.678  14.404 -0.6994 -0.9987 -0.2933
   23TMC2    C5  359   2.601   3.691  14.360 -0.4467 -0.0097 -0.4208
   23TMC2    C6  360   2.505   3.753  14.442 -0.9590  0.2947 -0.0469
   23TMC2     C  361   2.899   3.743  14.552  0.0601 -0.2144 -0.8459
   23TMC2     O  362   2.932   3.739  14.666  0.2376 -0.6419  0.6626
   23TMC2     H  363   2.691   3.810  14.714 -1.0565 -2.3565  0.7093
   23TMC2    H1  364   2.796   3.614  14.345 -0.1118 -1.1356  0.4985
   23TMC2    H2  365   2.407   3.786  14.410 -1.4728 -2.1293 -0.9450
   23TMC2    C7  366   2.569   3.655  14.220 -0.9663 -0.4163 -0.2798
   23TMC2    C8  367   2.446   3.861  14.656  0.3455 -0.0412 -0.2712
   23TMC2    O1  368   2.661   3.603  14.157  0.2181 -0.1613  0.2419
   23TMC2    O2  369   2.345   3.913  14.619  0.1633  0.5267 -0.8141
   23TMC2    O5  370   2.468   3.814  14.780 -0.0240  0.2620  0.6895
   23TMC2    H5  371   2.544   3.751  14.785  0.4809  0.6584 -2.1001
   24MPD2     C  372   3.368   3.893  14.434  0.1531  0.5097  0.9230
   24MPD2    C1  373   3.323   3.808  14.535  0.1559 -0.3621  0.0554
   24MPD2    C2  374   3.186   3.773  14.539  0.3473 -0.1329 -0.1007
   24MPD2    C3  375   3.105   3.818  14.445 -0.3015  0.1611 -0.2976
   24MPD2    C4  376   3.154   3.895  14.339  0.2420 -0.1528  0.3052
   24MPD2    C5  377   3.280   3.931  14.329  1.0513 -0.0921 -0.1210
   24MPD2     H  378   3.151   3.702  14.614  2.3753 -0.2709  0.7258
   24MPD2    H1  379   3.087   3.927  14.260  1.7671  1.7677 -0.2123
   24MPD2    H2  380   3.471   3.928  14.439 -0.2850  1.6146  2.1614
   24MPD2    H3  381   3.305   4.000  14.249  0.9623 -0.4978 -0.4963
   24MPD2     N  382   2.973   3.768  14.439  0.0403 -0.4735 -0.3529
   24MPD2    H5  383   2.916   3.781  14.356  0.6517 -0.0568 -0.7110
   24MPD2    N1  384   3.422   3.758  14.629 -0.3443  0.0872 -0.1849
   24MPD2    H7  385   3.518   3.786  14.608 -1.0821  0.9587 -2.4566
   25TMC2    C1  386   2.462   1.335  11.670 -0.2998  0.2145 -0.7672
   25TMC2    C2  387   2.512   1.460  11.686 -0.1532  0.3606  0.0864
   25TMC2    C3  388   2.447   1.542  11.777 -0.5962  0.7033  0.3431
   25TMC2    C4  389   2.341   1.300  11.727 -0.0947 -0.2494  0.5044
   25TMC2    C5  390   2.277   1.400  11.800 -0.0091  0.0825  0.2877
   25TMC2    C6  391   2.331   1.519  11.829 -0.4786  0.3459  0.1765
   25TMC2     C  392   2.537   1.250  11.580 -0.1289 -0.1963 -0.1728
   25TMC2     O  393   2.654   1.279  11.558  0.0432 -0.3032  0.7556
   25TMC2     H  394   2.605   1.489  11.638 -1.1988  0.6451 -1.7381
   25TMC2    H1  395   2.317   1.195  11.728 -3.0352  0.3875 -2.9979
   25TMC2    H2  396   2.276   1.594  11.884 -2.0578  0.0503 -0.9845
   25TMC2    C7  397   2.147   1.369  11.860 -0.5104  0.3700 -0.6857
   25TMC2    C8  398   2.490   1.681  11.784 -0.1793  0.1903  0.6315
   25TMC2    O1  399   2.119   1.445  11.954 -0.0393 -0.1740 -0.6107
   25TMC2    O2  400   2.520   1.758  11.690 -0.2336 -0.3005 -0.3292
   25TMC2    O5  401   2.482   1.715  11.916 -0.0456 -0.1572 -0.5547
   25TMC2    H5  402   2.484   1.635  11.973 -0.9383  2.1738  2.7803
   26MPD2     C  403   2.606   0.860  11.249  0.2764 -0.1427  0.4634
   26MPD2    C1  404   2.474   0.895  11.242  0.1447 -0.0400  0.1801
   26MPD2    C2  405   2.423   0.995  11.323  0.6309  0.3823 -0.5399
   26MPD2    C3  406   2.504   1.067  11.416 -0.3258  0.4044 -0.1581
   26MPD2    C4  407   2.633   1.019  11.419  0.5685  0.0740 -0.3669
   26MPD2    C5  408   2.681   0.928  11.332 -0.2077 -0.1608 -0.2071
   26MPD2     H  409   2.319   1.023  11.311  0.7556  1.4346  0.8548
   26MPD2    H1  410   2.711   1.057  11.484 -0.7613  0.7524  0.8357
   26MPD2    H2  411   2.647   0.777  11.192  0.5874 -0.1147  0.6506
   26MPD2    H3  412   2.785   0.899  11.339 -0.8434 -2.5589 -0.8316
   26MPD2     N  413   2.455   1.174  11.497  0.5705  0.4744  0.4015
   26MPD2    H5  414   2.354   1.175  11.506  0.4504 -0.5354 -0.8223
   26MPD2    N1  415   2.399   0.812  11.158  0.1337  0.0973 -0.6886
   26MPD2    H7  416   2.450   0.760  11.087 -1.6533 -0.5789 -1.4593
   27TMC2    C1  417   1.614   3.411  12.530  0.6666  0.3253  0.3559
   27TMC2    C2  418   1.746   3.433  12.541  0.2904 -0.5059 -0.0333
   27TMC2    C3  419   1.798   3.458  12.663  0.0974 -0.3010 -0.3816
   27TMC2    C4  420   1.526   3.413  12.636 -0.4091 -0.3484 -0.2231
   27TMC2    C5  421   1.584   3.424  12.760  0.6775  0.1526 -0.7700
   27TMC2    C6  422   1.714   3.457  12.768  0.4400  0.8590  0.0279
   27TMC2     C  423   1.563   3.407  12.391 -0.3705 -0.3488  0.0936
   27TMC2     O  424   1.640   3.389  12.299 -0.0771  0.6814 -0.1220
   27TMC2     H  425   1.797   3.439  12.445 -0.5140 -0.9951 -0.4888
   27TMC2    H1  426   1.418   3.400  12.629 -0.7622  1.9354  0.8696
   27TMC2    H2  427   1.760   3.460  12.866  3.2555 -0.4826 -1.2652
   27TMC2    C7  428   1.507   3.431  12.885  0.7683 -0.1780  0.1849
   27TMC2    C8  429   1.930   3.515  12.685  0.2805 -0.2639 -0.3495
   27TMC2    O1  430   1.566   3.496  12.972  0.6931  0.4363  0.1389
   27TMC2    O2  431   1.959   3.571  12.791  0.1643 -0.1242  0.6531
   27TMC2    O5  432   2.024   3.491  12.589 -1.0995  0.6197  0.7318
   27TMC2    H5  433   1.988   3.416  12.536 -0.1057  0.9623 -0.4195
   28MPD2     C  434   1.198   3.543  12.055  0.4466 -0.3736 -0.1881
   28MPD2    C1  435   1.166   3.593  12.176  0.1766  0.3245 -0.3695
   28MPD2    C2  436   1.257   3.573  12.283 -0.4708 -0.5806 -0.2409
   28MPD2    C3  437   1.368   3.493  12.269 -0.4647 -0.3841  0.1017
   28MPD2    C4  438   1.401   3.444  12.144 -0.5625 -0.2981  0.0674
   28MPD2    C5  439   1.321   3.478  12.043 -0.0473 -0.6391 -0.1001
   28MPD2     H  440   1.235   3.615  12.380 -1.1463 -1.0746 -0.1801
   28MPD2    H1  441   1.470   3.362  12.134  0.4975  0.8461 -1.8783
   28MPD2    H2  442   1.132   3.552  11.970  0.6478  1.9057 -0.0897
   28MPD2    H3  443   1.347   3.433  11.947  1.3685  1.0854 -0.5365
   28MPD2     N  444   1.448   3.472  12.388  0.1959  0.4591  0.8215
   28MPD2    H5  445   1.421   3.510  12.478  0.6350  0.3029  1.0169
   28MPD2    N1  446   1.033   3.646  12.181 -0.1494  0.3015  0.3347
   28MPD2    H7  447   0.983   3.646  12.093  1.5902 -2.3363 -0.6320
   29TMC2    C1  448   0.904   1.337  14.097 -0.5105 -0.3759 -0.0321
   29TMC2    C2  449   1.010   1.346  14.183  0.4209  0.0259  0.3122
   29TMC2    C3  450   1.081   1.463  14.179  1.0087  0.5387  0.3861
   29TMC2    C4  451   0.877   1.431  14.001 -0.3352  0.1613  0.5391
   29TMC2    C5  452   0.937   1.554  14.011 -0.5876  0.1182  0.1651
   29TMC2    C6  453   1.030   1.578  14.111  0.0429 -0.1379  0.1139
   29TMC2     C  454   0.836   1.212  14.082  0.1838 -0.2668  0.9148
   29TMC2     O  455   0.891   1.117  14.132  0.3678 -0.0402  0.6636
   29TMC2     H  456   1.038   1.256  14.237  1.3971 -0.0208 -0.2826
   29TMC2    H1  457   0.826   1.413  13.907 -0.5636 -0.3141  0.7532
   29TMC2    H2  458   1.062   1.676  14.144  0.7947  0.0791 -1.2819
   29TMC2    C7  459   0.918   1.664  13.910 -0.5426 -0.2555 -0.0838
   29TMC2    C8  460   1.186   1.490  14.274  0.0979  0.4705 -0.1834
   29TMC2    O1  461   0.807   1.664  13.860  0.1323 -0.3137  0.1097
   29TMC2    O2  462   1.245   1.600  14.275  0.4792 -0.0897  0.3973
   29TMC2    O5  463   1.229   1.380  14.338  0.4261 -0.3187 -0.8721
   29TMC2    H5  464   1.175   1.303  14.364 -0.5030 -0.7422 -4.0641
   30MPD2     C  465   0.508   0.916  13.837 -0.2071  0.4139 -0.6396
   30MPD2    C1  466   0.628   0.887  13.889  0.0759  0.6654  0.2320
   30MPD2    C2  467   0.694   0.991  13.946  0.1876  0.5997 -0.3834
   30MPD2    C3  468   0.642   1.120  13.952  0.5668  0.2655 -0.7814
   30MPD2    C4  469   0.519   1.150  13.899 -0.1752  0.5328 -0.7714
   30MPD2    C5  470   0.453   1.044  13.842  0.6790  0.4327 -0.8640
   30MPD2     H  471   0.795   0.967  13.974 -0.8144 -2.2471  0.8024
   30MPD2    H1  472   0.468   1.244  13.919  1.7190  1.4273 -0.1553
   30MPD2    H2  473   0.437   0.847  13.793  0.2444  0.6148 -1.6760
   30MPD2    H3  474   0.357   1.062  13.795  0.5399 -0.6150 -0.9633
   30MPD2     N  475   0.724   1.229  14.003  0.0609  0.2731 -0.1821
   30MPD2    H5  476   0.697   1.326  13.991  0.3360  0.2662 -0.8742
   30MPD2    N1  477   0.679   0.760  13.879 -0.0280  0.3611  0.5071
   30MPD2    H7  478   0.774   0.754  13.916  0.6323  0.7559 -1.1090
   31TMC2    C1  479   3.068   0.099  15.371  0.3878 -0.3332  0.3487
   31TMC2    C2  480   2.932   0.115  15.404  0.4837 -0.2058  0.8612
   31TMC2    C3  481   2.902   0.093  15.532  0.3238 -0.0445 -1.2226
   31TMC2    C4  482   3.162   0.065  15.466 -0.0604  0.0647 -0.2957
   31TMC2    C5  483   3.121   0.042  15.594 -0.1286 -0.1492  1.2023
   31TMC2    C6  484   2.987   0.052  15.629 -0.1131 -0.3794 -0.3162
   31TMC2     C  485   3.108   0.138  15.240  0.5188 -0.3819 -0.0907
   31TMC2     O  486   3.024   0.198  15.178  0.1208 -0.1195  0.3402
   31TMC2     H  487   2.854   0.144  15.335 -0.3868 -1.5622  1.2749
   31TMC2    H1  488   3.266   0.047  15.439  0.8798  1.0243  2.6267
   31TMC2    H2  489   2.958   0.045  15.733  0.2884  0.0232 -0.1759
   31TMC2    C7  490   3.206   4.701  15.682 -0.3322  0.7337  0.4372
   31TMC2    C8  491   2.761   0.084  15.564  1.0554  0.4143 -0.2245
   31TMC2    O1  492   3.273   4.624  15.619 -0.4354  0.8886 -0.0814
   31TMC2    O2  493   2.675   0.174  15.549 -0.2746  0.1537 -0.0706
   31TMC2    O5  494   2.753   4.712  15.641  0.0902  0.3685  0.7610
   31TMC2    H5  495   2.837   4.661  15.649 -0.0410 -0.1114 -1.0109
   32MPD2     C  496   3.444   0.184  14.854  0.5507 -0.4788  0.2621
   32MPD2    C1  497   3.325   0.248  14.871  0.1630  0.2780  0.5377
   32MPD2    C2  498   3.252   0.219  14.988 -0.2761 -0.1742  0.1616
   32MPD2    C3  499   3.292   0.114  15.076  0.5146  0.3133  0.5328
   32MPD2    C4  500   3.406   0.047  15.052  0.6446  0.4023 -0.1126
   32MPD2    C5  501   3.485   0.087  14.943 -0.6036 -0.3595 -0.3333
   32MPD2     H  502   3.158   0.272  14.999 -0.0050  0.2291  0.4932
   32MPD2    H1  503   3.437   4.703  15.116  0.6040 -0.5768 -1.3199
   32MPD2    H2  504   3.507   0.223  14.775  0.8998 -1.7292 -0.0830
   32MPD2    H3  505   3.583   0.046  14.921 -0.0172 -0.2996  2.1371
   32MPD2     N  506   3.226   0.082  15.199 -0.2430 -0.1031  1.0759
   32MPD2    H5  507   3.257   0.001  15.251 -1.4692 -1.4678 -0.3117
   32MPD2    N1  508   3.300   0.354  14.781 -0.0412  0.5096 -0.2649
   32MPD2    H7  509   3.367   0.357  14.705  0.0541 -1.5450 -0.2728
   33TMC2    C1  510   3.256   2.514  10.319  0.4003 -0.1684  0.0192
   33TMC2    C2  511   3.133   2.459  10.319  0.4622 -0.1453  0.1304
   33TMC2    C3  512   3.077   2.440  10.195  0.0172 -0.2487 -0.1714
   33TMC2    C4  513   3.325   2.541  10.204 -0.5202  0.2052  0.1319
   33TMC2    C5  514   3.265   2.518  10.084 -0.2315  0.4035  0.4779
   33TMC2    C6  515   3.140   2.469  10.083 -0.0193 -0.1460  0.4812
   33TMC2     C  516   3.315   2.517  10.449 -0.1750  0.0878  0.3562
   33TMC2     O  517   3.235   2.522  10.539 -0.2125 -0.6366 -0.4444
   33TMC2     H  518   3.076   2.442  10.410  1.8012  0.4964  1.0790
   33TMC2    H1  519   3.426   2.580  10.214 -0.2563  0.1664 -2.5057
   33TMC2    H2  520   3.092   2.443   9.989 -1.3170  1.6280  0.6497
   33TMC2    C7  521   3.290   2.624   9.988  0.1810 -0.0304  0.6606
   33TMC2    C8  522   2.943   2.388  10.185  0.1314 -0.1033 -0.3772
   33TMC2    O1  523   3.400   2.676  10.007 -0.7516  0.0737 -0.0076
   33TMC2    O2  524   2.884   2.381  10.077  0.4831  0.2755  0.0730
   33TMC2    O5  525   2.917   2.315  10.293  0.0308  0.2084 -0.1789
   33TMC2    H5  526   2.985   2.324  10.363 -0.5783  3.0662  0.0281
   34MPD2     C  527   3.706   2.484  10.775  0.2272 -0.5202  0.1044
   34MPD2    C1  528   3.568   2.471  10.800  0.3998  0.1994 -0.0775
   34MPD2    C2  529   3.483   2.479  10.689 -0.6550  0.4320 -0.2969
   34MPD2    C3  530   3.534   2.497  10.559  0.1509 -0.1726 -0.0093
   34MPD2    C4  531   3.673   2.508  10.540 -0.4115 -0.1318  0.2635
   34MPD2    C5  532   3.753   2.502  10.648  0.6570 -0.2876  0.4568
   34MPD2     H  533   3.379   2.493  10.714 -1.6269 -0.3213 -3.9629
   34MPD2    H1  534   3.716   2.526  10.442  1.3688 -3.7887  0.3899
   34MPD2    H2  535   3.788   2.472  10.845 -0.7566  0.2714  1.3908
   34MPD2    H3  536   3.859   2.524  10.638  0.5895 -0.7681 -1.3816
   34MPD2     N  537   3.457   2.513  10.444 -0.7762 -0.0822 -0.2885
   34MPD2    H5  538   3.511   2.524  10.359  1.1825  0.4483  1.0195
   34MPD2    N1  539   3.522   2.453  10.933 -0.2524 -0.4294 -0.0904
   34MPD2    H7  540   3.595   2.462  11.003 -0.6085  0.9843  0.1029
   35TMC2    C1  541   4.195   3.910  11.125 -0.4047  0.3578 -0.3296
   35TMC2    C2  542   4.224   4.007  11.223 -0.0591 -0.7555  0.6073
   35TMC2    C3  543   4.119   4.049  11.301 -0.0622 -0.4952  0.3392
   35TMC2    C4  544   4.063   3.898  11.089  0.1944  1.1284  0.0173
   35TMC2    C5  545   3.970   3.929  11.181 -0.1183 -0.0449  0.2127
   35TMC2    C6  546   3.993   4.012  11.283 -0.2381  0.0149  0.5709
   35TMC2     C  547   4.288   3.895  11.026  0.5587  0.2597 -0.4741
   35TMC2     O  548   4.244   3.885  10.910 -0.0097 -0.6697  0.1974
   35TMC2     H  549   4.326   4.033  11.248 -0.3944  0.9755  0.1903
   35TMC2    H1  550   4.037   3.832  11.008  1.3159  0.1423  0.4598
   35TMC2    H2  551   3.925   4.027  11.366  1.1587  2.4767  1.2740
   35TMC2    C7  552   3.862   3.836  11.190  0.3302  0.1038 -0.0945
   35TMC2    C8  553   4.152   4.137  11.409  0.1026 -0.2592 -0.2248
   35TMC2    O1  554   3.898   3.731  11.134  0.3825 -0.3003  0.5126
   35TMC2    O2  555   4.266   4.158  11.438 -0.8047  0.3366  0.7620
   35TMC2    O5  556   4.070   4.245  11.396  0.0106  0.2106  0.1303
   35TMC2    H5  557   3.984   4.220  11.356  0.3880 -0.8333 -0.0258
   36MPD2     C  558   0.041   3.832  10.893 -0.0798 -0.2983  0.1531
   36MPD2    C1  559   0.031   3.835  11.032  0.9910 -0.6421  0.7240
   36MPD2    C2  560   4.645   3.841  11.093 -0.1912  0.9435  0.1070
   36MPD2    C3  561   4.536   3.860  11.013 -0.0075  0.0680  0.2722
   36MPD2    C4  562   4.541   3.871  10.875 -0.0896 -0.7267 -0.0411
   36MPD2    C5  563   4.665   3.850  10.816 -0.7803  0.0804  0.3732
   36MPD2     H  564   4.634   3.836  11.201 -0.5518  0.8417  0.0651
   36MPD2    H1  565   4.455   3.885  10.811 -0.3591 -2.5585 -0.0727
   36MPD2    H2  566   0.137   3.823  10.845 -0.9935 -1.3968 -1.4441
   36MPD2    H3  567   4.672   3.862  10.709 -2.3758 -0.9513  0.1509
   36MPD2     N  568   4.413   3.883  11.077 -0.2524  0.1382 -0.6338
   36MPD2    H5  569   4.413   3.876  11.178 -1.1967 -2.3351 -0.8311
   36MPD2    N1  570   0.148   3.819  11.113 -0.0554 -0.3372 -0.3770
   36MPD2    H7  571   0.236   3.843  11.069  0.6625  2.9487  2.8966
   37TMC2    C1  572   1.834   4.524  12.752  0.7713  0.2938 -0.2909
   37TMC2    C2  573   1.716   4.526  12.821 -0.5162  0.4650  0.6154
   37TMC2    C3  574   1.683   4.413  12.888  0.0177 -0.2735  0.3632
   37TMC2    C4  575   1.907   4.410  12.733  0.1232 -0.0884  0.5207
   37TMC2    C5  576   1.858   4.298  12.784 -0.6531 -0.6463  0.0855
   37TMC2    C6  577   1.752   4.296  12.869  0.1237 -0.5897 -0.6602
   37TMC2     C  578   1.891   4.653  12.718  0.4286 -0.6879  0.5365
   37TMC2     O  579   1.834   0.013  12.756 -0.1357 -0.2096  0.3111
   37TMC2     H  580   1.653   4.614  12.823 -0.9214  0.1381  2.0373
   37TMC2    H1  581   1.981   4.411  12.653 -0.3239  2.8129  0.1323
   37TMC2    H2  582   1.707   4.204  12.905 -3.0716  0.5162 -1.8526
   37TMC2    C7  583   1.897   4.174  12.719 -0.0970 -0.0190 -0.0611
   37TMC2    C8  584   1.548   4.395  12.940  0.7666 -0.2111 -0.3827
   37TMC2    O1  585   2.011   4.166  12.680 -0.5014 -0.1854  0.5489
   37TMC2    O2  586   1.485   4.295  12.904  0.5074 -0.6451  0.1383
   37TMC2    O5  587   1.497   4.520  12.961 -0.0113  0.2154 -0.1416
   37TMC2    H5  588   1.558   4.580  13.009  2.4865 -0.5193 -2.3915
   38MPD2     C  589   2.208   0.206  12.443  0.2759 -0.0158 -0.9298
   38MPD2    C1  590   2.254   0.078  12.442 -0.1747 -0.4236 -0.6445
   38MPD2    C2  591   2.183   4.717  12.506  0.2612 -0.2015  0.2440
   38MPD2    C3  592   2.073   0.015  12.577  0.2761 -0.2437  0.0894
   38MPD2    C4  593   2.029   0.148  12.587 -0.4870 -0.4154 -0.6349
   38MPD2    C5  594   2.101   0.248  12.522  0.4055 -0.3877 -0.5937
   38MPD2     H  595   2.219   4.615  12.506  0.2610 -0.2021  0.0951
   38MPD2    H1  596   1.939   0.176  12.641  1.0647  1.8156  0.8482
   38MPD2    H2  597   2.253   0.294  12.398  0.8135 -0.2070 -0.7627
   38MPD2    H3  598   2.078   0.354  12.524 -0.6898 -0.7151  4.0486
   38MPD2     N  599   2.008   4.650  12.649 -0.4248 -0.0116  0.7024
   38MPD2    H5  600   2.057   4.563  12.632 -0.6609 -0.0084 -0.0060
   38MPD2    N1  601   2.366   0.030  12.367 -0.1274 -1.0130  0.1771
   38MPD2    H7  602   2.395   4.670  12.375  0.8511 -0.6325  1.2920
   39TMC2    C1  603   0.610   0.690   1.246 -0.0688 -0.0414  0.3042
   39TMC2    C2  604   0.654   0.566   1.244  0.1728 -0.0182 -0.3465
   39TMC2    C3  605   0.783   0.550   1.292 -0.4999 -0.5133 -0.5398
   39TMC2    C4  606   0.681   0.800   1.297 -0.3122 -0.1757 -0.5120
   39TMC2    C5  607   0.807   0.771   1.336 -0.0580 -0.3729 -0.7777
   39TMC2    C6  608   0.856   0.647   1.339 -0.0383 -0.1765 -0.4599
   39TMC2     C  609   0.467   0.713   1.209  0.0948  0.1812 -0.7920
   39TMC2     O  610   0.419   0.633   1.128  0.3226 -0.6931 -0.2719
   39TMC2     H  611   0.607   0.481   1.197  0.8119 -0.2560 -0.5527
   39TMC2    H1  612   0.640   0.899   1.311 -0.5419 -0.1896 -1.1056
   39TMC2    H2  613   0.955   0.628   1.380 -1.2226 -1.6867  1.6968
   39TMC2    C7  614   0.888   0.876   1.395 -0.2823 -0.7126 -0.4444
   39TMC2    C8  615   0.844   0.421   1.278  0.4594 -0.7557  0.1745
   39TMC2    O1  616   0.991   0.850   1.460 -0.8769  0.0988  0.0731
   39TMC2    O2  617   0.966   0.410   1.264 -0.3655  0.1087 -0.0937
   39TMC2    O5  618   0.774   0.338   1.352  0.1909  0.4029  0.1203
   39TMC2    H5  619   0.684   0.373   1.369  0.2171  0.1941  0.6809
   40MPD2     C  620   0.235   0.947   1.375 -0.3028  0.0031  0.2406
   40MPD2    C1  621   0.283   0.865   1.273  0.1279 -0.3040  1.0035
   40MPD2    C2  622   0.214   0.850   1.159  0.7472  0.1092  0.2029
   40MPD2    C3  623   0.098   0.933   1.137 -0.5450 -0.1823 -0.3764
   40MPD2    C4  624   0.046   1.016   1.237 -0.5763 -0.7628  0.3148
   40MPD2    C5  625   0.113   1.018   1.358  0.2137  0.7281 -0.0338
   40MPD2     H  626   0.254   0.798   1.073 -2.2681  1.7750 -2.2229
   40MPD2    H1  627   4.699   1.082   1.222 -1.6760 -2.1070  0.5557
   40MPD2    H2  628   0.290   0.953   1.468  0.4606  0.3151 -0.2311
   40MPD2    H3  629   0.078   1.081   1.438  3.0892  1.1777  0.8862
   40MPD2     N  630   0.028   0.948   1.012  0.0954  0.4617  0.0539
   40MPD2    H5  631   4.680   1.002   1.015  0.3435  0.9708 -1.7688
   40MPD2    N1  632   0.406   0.797   1.299 -0.7586 -0.0137 -0.8437
   40MPD2    H7  633   0.451   0.823   1.387  0.6462 -2.7856 -0.7140
   41TMC2    C1  634   0.145   4.583  13.015 -0.2703  0.8600  0.6152
   41TMC2    C2  635   0.195   4.712  12.978 -0.0188  0.4333  0.4773
   41TMC2    C3  636   0.121   0.045  12.885  0.1984  0.2757  1.0117
   41TMC2    C4  637   0.030   4.528  12.961  0.1830 -0.7195  1.0888
   41TMC2    C5  638   4.704   4.612  12.868 -0.0634 -1.0574  0.6802
   41TMC2    C6  639   0.004   4.737  12.833 -0.9859 -0.4027 -0.3417
   41TMC2     C  640   0.237   4.491  13.092 -0.5473 -0.8989 -0.3087
   41TMC2     O  641   0.357   4.524  13.106 -0.4957 -0.5121 -0.0561
   41TMC2     H  642   0.288   0.015  13.017 -0.6352  2.4888 -0.1675
   41TMC2    H1  643   4.723   4.437  12.999  1.0033 -1.8166 -0.5753
   41TMC2    H2  644   4.680   0.069  12.777  2.7624  2.6390 -0.6731
   41TMC2    C7  645   4.579   4.570  12.815 -0.5595 -0.6745 -0.4351
   41TMC2    C8  646   0.133   0.192  12.884 -0.2310  0.8297 -0.6108
   41TMC2    O1  647   4.492   4.653  12.791 -0.1703  0.1999  0.3552
   41TMC2    O2  648   0.113   0.258  12.781  0.2164 -0.1659 -0.5906
   41TMC2    O5  649   0.086   0.245  13.000  0.3231 -0.1723  0.0374
   41TMC2    H5  650   0.119   0.199  13.080 -2.8726 -0.9404  0.9301
   42MPD2     C  651   0.358   4.302  13.274  0.2391 -0.1842 -0.0962
   42MPD2    C1  652   0.231   4.292  13.240 -0.6430 -0.1277  0.1506
   42MPD2    C2  653   0.144   4.199  13.293 -0.4517 -0.1191 -0.4376
   42MPD2    C3  654   0.186   4.115  13.396 -0.4427  1.0383 -0.3095
   42MPD2    C4  655   0.313   4.127  13.445 -0.0703 -0.4754  0.3363
   42MPD2    C5  656   0.398   4.220  13.379  0.1850 -0.0097  0.1841
   42MPD2     H  657   0.040   4.210  13.263 -1.0459 -2.5346  0.7267
   42MPD2    H1  658   0.349   4.079  13.536  2.1199 -2.5610 -1.6566
   42MPD2    H2  659   0.435   4.369  13.237  0.7797 -1.8562 -2.0274
   42MPD2    H3  660   0.505   4.221  13.395  0.3390  2.1018 -0.9644
   42MPD2     N  661   0.094   4.033  13.465 -0.6206 -0.3240  0.0691
   42MPD2    H5  662   0.119   3.978  13.546 -0.9873  1.6936  1.5375
   42MPD2    N1  663   0.173   4.389  13.156  0.5551  0.2923 -0.7461
   42MPD2    H7  664   0.072   4.383  13.142  0.5185  1.1617 -0.8153
   43TMC2    C1  665   0.981   2.598   0.381  0.2028  0.3435 -0.1914
   43TMC2    C2  666   1.003   2.641   0.252 -0.2341  0.4192 -0.3443
   43TMC2    C3  667   1.101   2.729   0.231 -0.3857  0.0040 -0.1108
   43TMC2    C4  668   1.069   2.627   0.484 -0.6451 -0.2995  0.1900
   43TMC2    C5  669   1.153   2.728   0.460 -0.4370 -0.0052  0.5896
   43TMC2    C6  670   1.176   2.779   0.334  0.4158  0.0726 -0.7663
   43TMC2     C  671   0.921   2.467   0.383  0.1430  0.2107 -0.6918
   43TMC2     O  672   0.930   2.390   0.286 -0.7644  0.2088 -0.1505
   43TMC2     H  673   0.954   2.587   0.172 -1.8620 -0.6524  1.3788
   43TMC2    H1  674   1.064   2.578   0.581 -1.2330 -1.8792 -0.6404
   43TMC2    H2  675   1.262   2.844   0.317 -0.0268  1.1067  0.8932
   43TMC2    C7  676   1.228   2.765   0.574  0.0681 -0.5778 -0.6524
   43TMC2    C8  677   1.165   2.720   0.103 -0.5145 -0.1283 -0.2533
   43TMC2    O1  678   1.332   2.826   0.556 -0.2574 -0.1097 -1.0105
   43TMC2    O2  679   1.185   2.617   0.035 -0.1760 -0.3470  0.7120
   43TMC2    O5  680   1.176   2.848   0.056 -0.1534 -0.2182 -0.0112
   43TMC2    H5  681   1.141   2.910   0.124 -0.0186  1.1476 -1.1733
   44MPD2     C  682   0.771   2.049   0.651 -0.9614  0.1720 -0.6453
   44MPD2    C1  683   0.830   2.059   0.523 -0.8042 -0.5324  0.2723
   44MPD2    C2  684   0.868   2.182   0.474 -0.6802  0.8367 -0.0799
   44MPD2    C3  685   0.858   2.299   0.553  0.1409 -0.0232 -0.3834
   44MPD2    C4  686   0.802   2.295   0.677  0.2490  0.0287 -0.4602
   44MPD2    C5  687   0.770   2.167   0.723  0.4988 -0.1806 -0.4378
   44MPD2     H  688   0.915   2.180   0.376 -1.2031 -0.7223 -0.2973
   44MPD2    H1  689   0.776   2.379   0.739 -2.4010 -1.1244 -0.0406
   44MPD2    H2  690   0.732   1.957   0.693  0.4738 -0.2296 -0.2102
   44MPD2    H3  691   0.719   2.162   0.819 -1.1272 -0.2950 -1.3099
   44MPD2     N  692   0.891   2.429   0.514 -0.0980  0.5320 -0.0599
   44MPD2    H5  693   0.873   2.503   0.581 -0.6520  1.0195 -0.7379
   44MPD2    N1  694   0.859   1.950   0.447  0.2593 -0.2213  0.0022
   44MPD2    H7  695   0.922   1.974   0.371  2.2952 -0.1672  1.7219
   45TMC2    C1  696   1.338   4.404   9.258 -0.1447 -0.0788 -0.4604
   45TMC2    C2  697   1.205   4.416   9.235  0.2532 -1.0918  0.5765
   45TMC2    C3  698   1.146   4.538   9.258  0.3151  0.2562  0.3858
   45TMC2    C4  699   1.409   4.511   9.302  0.6527  0.9765  0.4364
   45TMC2    C5  700   1.347   4.623   9.334  0.8555  0.0053  0.4330
   45TMC2    C6  701   1.219   4.639   9.315 -0.1964  0.2674  0.0685
   45TMC2     C  702   1.419   4.277   9.243 -0.0716  0.1937  0.2738
   45TMC2     O  703   1.541   4.286   9.232  0.1429  0.0646  0.5635
   45TMC2     H  704   1.147   4.334   9.194 -0.4879 -1.2397  1.9243
   45TMC2    H1  705   1.516   4.496   9.315  0.4296 -1.2121 -0.1303
   45TMC2    H2  706   1.167   4.734   9.322 -0.1574  0.2734  0.2662
   45TMC2    C7  707   1.429   4.706   9.416  0.0990  0.0173 -0.1922
   45TMC2    C8  708   1.037   4.574   9.175 -0.3167 -0.0589 -0.2625
   45TMC2    O1  709   1.509   4.649   9.486 -0.4728  0.3638 -0.2536
   45TMC2    O2  710   0.934   4.602   9.231 -0.0527  0.1321  0.3769
   45TMC2    O5  711   1.078   4.656   9.081 -0.0261  0.0839 -0.1396
   45TMC2    H5  712   1.166   4.628   9.047  0.2897 -1.1543  1.7078
   46MPD2     C  713   1.492   4.001   9.218  0.3262  0.0119  0.3934
   46MPD2    C1  714   1.374   4.038   9.285  0.8449  0.5477  0.2250
   46MPD2    C2  715   1.280   3.942   9.317 -0.0573 -0.6107  0.3760
   46MPD2    C3  716   1.308   3.810   9.292 -0.5687  0.0130 -0.3961
   46MPD2    C4  717   1.414   3.782   9.219 -0.8644 -0.1712 -0.3568
   46MPD2    C5  718   1.510   3.869   9.184 -0.0551 -0.1488  0.0307
   46MPD2     H  719   1.183   3.969   9.357  0.2250  2.3673 -0.9667
   46MPD2    H1  720   1.431   3.679   9.191 -0.1027  0.0755 -0.7902
   46MPD2    H2  721   1.560   4.066   9.165  1.2816  0.3615  2.0647
   46MPD2    H3  722   1.583   3.841   9.108  0.4761 -0.6766  0.7295
   46MPD2     N  723   1.215   3.710   9.332  0.4551  0.1296  0.1517
   46MPD2    H5  724   1.131   3.738   9.380 -0.4021 -2.0997 -0.0455
   46MPD2    N1  725   1.336   4.173   9.286 -0.5727 -0.3437  0.3675
   46MPD2    H7  726   1.240   4.189   9.314 -0.3513 -0.5321  1.2309
   47TMC2    C1  727   2.582   4.230   9.334  0.7443  0.0565  0.2709
   47TMC2    C2  728   2.567   4.334   9.414  0.9730 -0.1774  1.1665
   47TMC2    C3  729   2.443   4.369   9.462  0.7872  0.4016  0.0427
   47TMC2    C4  730   2.471   4.157   9.290  0.2830 -0.3216  0.7405
   47TMC2    C5  731   2.355   4.191   9.342 -0.2005  0.1699  0.2246
   47TMC2    C6  732   2.332   4.299   9.430  0.3259 -0.5697  0.0435
   47TMC2     C  733   2.708   4.168   9.290  0.0471 -0.2357 -0.5807
   47TMC2     O  734   2.687   4.083   9.206  0.3710  0.7667 -0.3896
   47TMC2     H  735   2.659   4.377   9.453 -0.1631  0.7187  2.8642
   47TMC2    H1  736   2.478   4.065   9.232 -1.1655  1.6977 -2.6284
   47TMC2    H2  737   2.232   4.310   9.470 -0.0164 -1.2638 -0.6166
   47TMC2    C7  738   2.268   4.078   9.363 -0.1278 -0.2014 -0.0121
   47TMC2    C8  739   2.434   4.482   9.557 -0.0920 -0.3205 -0.4399
   47TMC2    O1  740   2.196   4.084   9.461 -0.2280 -0.4839  0.2517
   47TMC2    O2  741   2.530   4.550   9.573  0.5873  0.8047  0.4425
   47TMC2    O5  742   2.307   4.536   9.557  0.0098 -0.2225  0.1164
   47TMC2    H5  743   2.237   4.471   9.579  0.5527 -1.2090 -1.1005
   48MPD2     C  744   2.988   4.080   9.217 -0.2183  0.4418 -0.7736
   48MPD2    C1  745   2.956   4.157   9.323 -0.5151  0.6097 -0.1569
   48MPD2    C2  746   3.056   4.198   9.415 -0.2610 -0.5500 -0.4766
   48MPD2    C3  747   3.191   4.168   9.380 -0.3010  0.5033  0.0124
   48MPD2    C4  748   3.214   4.080   9.274  0.2632  0.5225  0.4608
   48MPD2    C5  749   3.115   4.031   9.197  0.1624  0.5923  0.6422
   48MPD2     H  750   3.031   4.257   9.503  2.0125 -0.0075 -0.1934
   48MPD2    H1  751   3.315   4.047   9.254 -0.6159 -1.5730 -0.5454
   48MPD2    H2  752   2.912   4.047   9.147 -0.6023 -1.6868  0.6403
   48MPD2    H3  753   3.135   3.967   9.112  2.2190  1.4968  0.4364
   48MPD2     N  754   3.294   4.217   9.462  0.4047  0.1583  0.0492
   48MPD2    H5  755   3.257   4.252   9.549  2.3490 -1.9679  1.7147
   48MPD2    N1  756   2.828   4.205   9.354 -0.0891  0.0816 -0.3791
   48MPD2    H7  757   2.823   4.273   9.429  0.7782  0.5598 -0.7562
   49TMC2    C1  758   2.599   2.541   9.953  0.3745  0.7315 -0.2444
   49TMC2    C2  759   2.545   2.592   9.836  0.4061 -0.0364 -0.3843
   49TMC2    C3  760   2.427   2.524   9.796 -0.9181 -0.3342  0.2750
   49TMC2    C4  761   2.559   2.426  10.011  0.2045 -0.3452  0.6725
   49TMC2    C5  762   2.450   2.358   9.958  0.2633  0.5721  0.0924
   49TMC2    C6  763   2.386   2.401   9.848 -0.7783  0.5846 -0.1111
   49TMC2     C  764   2.714   2.620  10.010 -0.8339  0.5251  0.6607
   49TMC2     O  765   2.789   2.684   9.933  0.3248 -0.0565 -0.1919
   49TMC2     H  766   2.567   2.693   9.804  0.9710 -0.1395 -0.3108
   49TMC2    H1  767   2.618   2.371  10.084  1.9385  1.0895  0.3678
   49TMC2    H2  768   2.287   2.369   9.818 -0.2914 -0.2079 -0.8424
   49TMC2    C7  769   2.389   2.245  10.034  0.3690 -1.0064  0.3620
   49TMC2    C8  770   2.362   2.573   9.681 -0.4173 -0.3560 -0.2460
   49TMC2    O1  771   2.305   2.176   9.978  0.1899  0.1883  0.3923
   49TMC2    O2  772   2.294   2.499   9.611 -0.2328  0.5369  0.0076
   49TMC2    O5  773   2.352   2.703   9.684  0.1940 -0.2853  0.1155
   49TMC2    H5  774   2.375   2.739   9.772 -0.8313  0.1937  0.1823
   50MPD2     C  775   2.877   2.783  10.193 -0.4682  0.8261  0.0718
   50MPD2    C1  776   2.782   2.693  10.233  0.3312  0.1784 -0.2286
   50MPD2    C2  777   2.766   2.664  10.361  0.0437  0.1378  0.6755
   50MPD2    C3  778   2.860   2.706  10.455  0.3949 -0.1317 -0.0784
   50MPD2    C4  779   2.961   2.787  10.411  0.4367 -0.0934  0.3610
   50MPD2    C5  780   2.964   2.835  10.284 -0.5117 -0.3651 -0.3142
   50MPD2     H  781   2.687   2.593  10.383  0.6448  0.2239  3.1116
   50MPD2    H1  782   3.032   2.822  10.485  0.8990 -0.5469  0.1227
   50MPD2    H2  783   2.890   2.813  10.090  1.6186  0.9886  0.3752
   50MPD2    H3  784   3.030   2.913  10.250  2.2665 -2.8215 -0.5120
   50MPD2     N  785   2.855   2.661  10.590 -1.0593 -0.2117  0.0118
   50MPD2    H5  786   2.917   2.716  10.649  1.0515 -0.4187 -2.0371
   50MPD2    N1  787   2.703   2.621  10.141 -0.1285  0.1024  0.3229
   50MPD2    H7  788   2.617   2.580  10.176 -0.7156  0.9029 -0.1967
   51TMC2    C1  789   4.272   0.390   1.626  0.5156  0.5816 -0.0730
   51TMC2    C2  790   4.335   0.342   1.739  0.2655 -0.2171  0.0106
   51TMC2    C3  791   4.386   0.434   1.830  0.3054  0.4703  0.3618
   51TMC2    C4  792   4.258   0.525   1.607 -0.1426  0.4690 -0.4906
   51TMC2    C5  793   4.287   0.611   1.709 -0.1188 -0.9187  0.2938
   51TMC2    C6  794   4.351   0.568   1.820 -0.8991  0.2046  0.3618
   51TMC2     C  795   4.216   0.299   1.524 -0.4547  1.0450 -0.4123
   51TMC2     O  796   4.129   0.337   1.451 -0.1104  0.2250  0.5517
   51TMC2     H  797   4.351   0.235   1.746  3.5463  0.5018  3.5410
   51TMC2    H1  798   4.233   0.569   1.511  2.0109 -0.7999 -1.6296
   51TMC2    H2  799   4.369   0.628   1.908  0.7820  0.9047 -0.4659
   51TMC2    C7  800   4.246   0.741   1.709  0.1579  0.6432  0.0747
   51TMC2    C8  801   4.441   0.382   1.948 -0.0769  0.0836  0.5638
   51TMC2    O1  802   4.261   0.815   1.804  0.2968  0.6548 -0.1977
   51TMC2    O2  803   4.421   0.263   1.985 -0.3325  0.5870 -0.7602
   51TMC2    O5  804   4.562   0.436   1.946 -0.2329  0.4058  0.1911
   51TMC2    H5  805   4.574   0.526   1.909  3.2534 -0.4086 -0.6510
   52MPD2     C  806   4.193   4.606   1.274 -0.6900  0.2027 -0.4373
   52MPD2    C1  807   4.101   4.705   1.280  0.1089  0.5619 -0.4035
   52MPD2    C2  808   4.127   0.070   1.371  0.4626 -0.1067 -0.2463
   52MPD2    C3  809   4.248   0.073   1.432  0.0582 -0.4308 -0.1770
   52MPD2    C4  810   4.341   4.709   1.425 -0.1163  0.2853  0.3261
   52MPD2    C5  811   4.317   4.610   1.336  0.3065 -0.1833 -0.3419
   52MPD2     H  812   4.053   0.150   1.373 -2.6334 -3.0559  2.5262
   52MPD2    H1  813   4.436   4.699   1.476 -0.4576 -1.5611  0.6012
   52MPD2    H2  814   4.193   4.523   1.204 -2.2386 -1.6093  1.7124
   52MPD2    H3  815   4.393   4.533   1.330 -0.5883 -0.9245 -2.3999
   52MPD2     N  816   4.281   0.178   1.522  0.3515 -0.5269 -0.3116
   52MPD2    H5  817   4.372   0.172   1.567  0.7158  0.1727 -0.9415
   52MPD2    N1  818   3.987   4.703   1.203  0.1064  0.9810 -0.1432
   52MPD2    H7  819   3.920   0.039   1.224  0.9217  1.8223 -0.5320
   53TMC2    C1  820   2.145   3.675  12.256  0.7235 -0.3654  0.4449
   53TMC2    C2  821   2.178   3.564  12.183 -0.7226  0.7002  0.3938
   53TMC2    C3  822   2.294   3.567  12.112  0.3374 -0.1238 -0.1065
   53TMC2    C4  823   2.222   3.793  12.242  0.5325  0.3929 -0.2528
   53TMC2    C5  824   2.343   3.789  12.172 -0.2057  0.1285 -0.3138
   53TMC2    C6  825   2.384   3.670  12.111  0.4345  0.7065  0.4821
   53TMC2     C  826   2.020   3.668  12.329 -0.4780 -0.0985  0.3993
   53TMC2     O  827   1.933   3.589  12.310 -0.1195 -0.1793 -0.4897
   53TMC2     H  828   2.106   3.484  12.177 -0.5197  0.4750  0.9486
   53TMC2    H1  829   2.191   3.891  12.277  0.4919  0.9135 -1.7048
   53TMC2    H2  830   2.480   3.667  12.061 -0.3166  0.0767 -0.8930
   53TMC2    C7  831   2.414   3.907  12.123 -0.2244  0.0109 -0.1937
   53TMC2    C8  832   2.322   3.464  12.013  0.0559  0.4334  0.4806
   53TMC2    O1  833   2.511   3.882  12.052 -0.7357  0.2176  0.2717
   53TMC2    O2  834   2.432   3.458  11.962 -0.2136 -0.4438  0.2617
   53TMC2    O5  835   2.208   3.413  11.961  0.3280  0.0897  0.4637
   53TMC2    H5  836   2.130   3.470  11.978 -0.6689 -0.6785 -1.4768
   54MPD2     C  837   1.764   3.762  12.444 -0.4870  0.2861 -0.5892
   54MPD2    C1  838   1.889   3.816  12.478  0.5100 -0.0960  0.3286
   54MPD2    C2  839   1.898   3.930  12.557 -0.8132  0.4002 -0.5969
   54MPD2    C3  840   1.788   3.982  12.626 -0.5609 -0.5074 -0.0502
   54MPD2    C4  841   1.669   3.918  12.599  0.2923 -0.1823 -0.0401
   54MPD2    C5  842   1.657   3.815  12.512 -0.2094  0.0552  0.5735
   54MPD2     H  843   1.999   3.962  12.576 -0.7312 -0.0188 -0.3229
   54MPD2    H1  844   1.575   3.939  12.649  0.8679 -0.6594  1.2191
   54MPD2    H2  845   1.740   3.694  12.362 -1.4869 -0.7561  0.5596
   54MPD2    H3  846   1.557   3.785  12.484 -0.1165 -0.5129  0.8611
   54MPD2     N  847   1.793   4.095  12.708  0.2156 -0.7286  0.1919
   54MPD2    H5  848   1.707   4.140  12.736  2.0587  2.0173  1.4785
   54MPD2    N1  849   2.008   3.781  12.408 -0.3763 -0.2661 -0.7854
   54MPD2    H7  850   2.091   3.837  12.424 -1.8684  1.2483  1.6843
   55TMC2    C1  851   4.080   2.056   0.189 -0.3749  0.3344  0.1270
   55TMC2    C2  852   4.208   2.089   0.151  0.2783 -0.6008  0.1449
   55TMC2    C3  853   4.305   1.994   0.164 -0.2555 -0.8557 -0.1101
   55TMC2    C4  854   4.048   1.932   0.237  0.5783  0.0664  0.1183
   55TMC2    C5  855   4.150   1.845   0.267  0.2331  0.7381  0.3469
   55TMC2    C6  856   4.283   1.875   0.229 -0.1042  0.3938 -0.4848
   55TMC2     C  857   3.972   2.147   0.161  0.0864  0.0389  0.2368
   55TMC2     O  858   3.861   2.100   0.155  0.0702  0.4023  0.1516
   55TMC2     H  859   4.241   2.191   0.138 -1.0198 -0.0730  0.9853
   55TMC2    H1  860   3.957   1.918   0.294  1.2534 -0.1565  1.1230
   55TMC2    H2  861   4.366   1.809   0.251 -0.2306  0.1929 -0.6132
   55TMC2    C7  862   4.115   1.706   0.298 -0.6587 -0.0308  0.0668
   55TMC2    C8  863   4.395   2.004   0.056  0.4234  0.3419 -0.0237
   55TMC2    O1  864   4.208   1.632   0.327  0.6630 -0.7662 -1.0142
   55TMC2    O2  865   4.374   2.093  17.720 -0.1841 -0.2723  0.5284
   55TMC2    O5  866   4.433   1.881   0.022  0.2341  0.3238  0.0663
   55TMC2    H5  867   4.477   1.829   0.092 -1.3566  1.1923  1.7341
   56MPD2     C  868   3.989   2.513   0.132 -0.0346 -1.0442 -0.4438
   56MPD2    C1  869   3.928   2.391   0.147  0.0405  0.2603  0.2088
   56MPD2    C2  870   3.793   2.376   0.139  0.0707 -0.2699 -0.0949
   56MPD2    C3  871   3.719   2.491   0.125  0.1731  0.0937  0.1604
   56MPD2    C4  872   3.779   2.615   0.103 -0.0749 -0.0276  1.0893
   56MPD2    C5  873   3.914   2.628   0.121 -0.0142  0.9728 -0.1985
   56MPD2     H  874   3.745   2.280   0.150 -1.0943  0.1672 -1.3506
   56MPD2    H1  875   3.719   2.702   0.079  0.7611  0.3430  0.3458
   56MPD2    H2  876   4.096   2.529   0.134  0.0059 -1.6123  1.5673
   56MPD2    H3  877   3.966   2.721   0.104  3.0530 -0.9631 -1.5077
   56MPD2     N  878   3.579   2.475   0.119 -0.4015 -0.1464 -0.0869
   56MPD2    H5  879   3.547   2.382   0.145  0.3037 -0.1905  0.6102
   56MPD2    N1  880   4.007   2.279   0.165  0.2858  0.2632 -0.6386
   56MPD2    H7  881   4.104   2.295   0.191 -0.2417  0.1824  1.3187
   57TMC2    C1  882   2.340   2.917  12.811  0.8652 -0.1424 -0.1420
   57TMC2    C2  883   2.348   2.793  12.768  0.2323  0.3896  0.8227
   57TMC2    C3  884   2.423   2.772  12.656 -0.3595  0.3949 -0.1212
   57TMC2    C4  885   2.429   3.019  12.762 -0.2093  0.7033  0.7792
   57TMC2    C5  886   2.510   2.987  12.655  0.3711 -0.0571 -0.0372
   57TMC2    C6  887   2.509   2.861  12.598  0.0542  0.1824 -0.6781
   57TMC2     C  888   2.285   2.951  12.943  0.3757 -0.2312  0.1025
   57TMC2     O  889   2.274   3.069  12.975  0.1548  0.2528 -0.1505
   57TMC2     H  890   2.280   2.715  12.798 -0.1926  0.1766 -0.7067
   57TMC2    H1  891   2.451   3.110  12.816  0.0336  0.6536  0.7671
   57TMC2    H2  892   2.571   2.829  12.516  2.2056  1.7517  0.3294
   57TMC2    C7  893   2.637   3.060  12.663 -0.5769  0.3195  0.0350
   57TMC2    C8  894   2.504   2.656  12.673 -0.2330  0.3211 -0.0521
   57TMC2    O1  895   2.628   3.178  12.703  0.6965 -0.0634  0.0682
   57TMC2    O2  896   2.625   2.661  12.694 -0.2399  0.4206  0.4459
   57TMC2    O5  897   2.424   2.544  12.662  0.1851 -0.0208 -0.4765
   57TMC2    H5  898   2.333   2.570  12.637  0.1509  1.2312  0.8994
   58MPD2     C  899   2.336   2.840  13.445 -0.3993 -0.0461  0.3385
   58MPD2    C1  900   2.346   2.962  13.381  0.9673  0.1230  0.7208
   58MPD2    C2  901   2.339   2.962  13.242 -0.4997  0.2264  0.3107
   58MPD2    C3  902   2.300   2.849  13.168  0.7459 -0.2672  0.1048
   58MPD2    C4  903   2.281   2.729  13.232 -0.6393  0.4485  0.5142
   58MPD2    C5  904   2.304   2.729  13.365 -0.1545  0.3461 -0.1345
   58MPD2     H  905   2.374   3.052  13.192 -0.5933  0.7941  1.2395
   58MPD2    H1  906   2.245   2.640  13.182 -0.0823  1.0160 -0.9089
   58MPD2    H2  907   2.344   2.823  13.552 -0.5675  1.1004  0.5282
   58MPD2    H3  908   2.298   2.639  13.425  0.6407 -0.4675 -1.2653
   58MPD2     N  909   2.284   2.845  13.027  0.1228 -0.0459 -0.1914
   58MPD2    H5  910   2.278   2.754  12.984  0.3851 -0.3033  0.3113
   58MPD2    N1  911   2.380   3.086  13.448 -0.2206  0.0004  0.1640
   58MPD2    H7  912   2.412   3.158  13.384  0.5016  0.9443  1.5977
   59TMC2    C1  913   0.564   3.293  12.381 -0.0933 -0.1269  0.0494
   59TMC2    C2  914   0.484   3.263  12.491  0.1176 -0.4503  0.7986
   59TMC2    C3  915   0.384   3.172  12.463  0.2852  0.4621 -0.4504
   59TMC2    C4  916   0.539   3.247  12.255 -0.0507  0.2741 -0.1923
   59TMC2    C5  917   0.427   3.177  12.236 -0.9299 -0.3518 -0.8951
   59TMC2    C6  918   0.355   3.126  12.339  0.5025  0.0978 -0.0023
   59TMC2     C  919   0.697   3.341  12.406 -0.0474 -0.3347 -0.3999
   59TMC2     O  920   0.787   3.289  12.338  0.0317 -0.4714  0.7528
   59TMC2     H  921   0.513   3.292  12.591 -1.8640 -0.4537  1.3765
   59TMC2    H1  922   0.615   3.255  12.178 -0.8684 -2.1840 -1.2496
   59TMC2    H2  923   0.268   3.065  12.317  1.0586 -1.5286  2.3043
   59TMC2    C7  924   0.392   3.133  12.101 -0.2321 -0.1291  0.5222
   59TMC2    C8  925   0.294   3.143  12.570 -0.4413 -0.1476 -0.4965
   59TMC2    O1  926   0.311   3.039  12.100 -0.3372 -0.0426 -0.6392
   59TMC2    O2  927   0.285   3.211  12.670  0.8679 -0.5102 -0.0183
   59TMC2    O5  928   0.245   3.018  12.549  0.3382 -0.0543 -0.2060
   59TMC2    H5  929   0.288   2.970  12.475 -0.3221 -1.1607  0.1123
   60MPD2     C  930   0.949   3.442  12.529  0.4656 -0.0947  0.5329
   60MPD2    C1  931   0.828   3.442  12.596 -0.0768 -0.1662  1.0225
   60MPD2    C2  932   0.818   3.475  12.733 -0.1270  0.0956  0.5869
   60MPD2    C3  933   0.935   3.500  12.804 -0.0682  0.0744  0.4492
   60MPD2    C4  934   1.053   3.478  12.740 -0.0615  0.3669 -0.1610
   60MPD2    C5  935   1.058   3.446  12.609 -0.7722 -0.1522  0.0902
   60MPD2     H  936   0.725   3.498  12.784 -0.2494  0.3923  0.2252
   60MPD2    H1  937   1.145   3.466  12.796  0.0461 -1.7895 -0.8186
   60MPD2    H2  938   0.962   3.419  12.424 -0.1217  0.8143  0.2623
   60MPD2    H3  939   1.155   3.433  12.563 -0.3332  1.0941  0.6725
   60MPD2     N  940   0.944   3.534  12.943  0.1061 -0.4113 -0.1438
   60MPD2    H5  941   1.030   3.578  12.974  0.8713 -2.5199  0.7152
   60MPD2    N1  942   0.705   3.408  12.531  0.3485  0.2948  0.0230
   60MPD2    H7  943   0.618   3.432  12.578  0.2776 -1.0606  0.5934
   61TMC2    C1  944   4.175   4.641  15.139  0.0405 -0.0301 -0.1787
   61TMC2    C2  945   4.193   4.558  15.247 -0.3467 -0.1954  0.2447
   61TMC2    C3  946   4.280   4.604  15.340  0.1988  0.7547 -0.4501
   61TMC2    C4  947   4.231   0.027  15.129 -0.4598  0.2015  0.1520
   61TMC2    C5  948   4.319   0.069  15.226  0.2917  0.7461 -0.2024
   61TMC2    C6  949   4.339   4.723  15.337 -0.1131  1.5166 -0.0491
   61TMC2     C  950   4.119   4.571  15.019  0.7072 -0.2071 -0.6622
   61TMC2     O  951   4.033   4.483  15.045  0.1896 -0.0634  0.1554
   61TMC2     H  952   4.131   4.470  15.257  0.5734 -1.0111 -1.1918
   61TMC2    H1  953   4.195   0.092  15.050  0.2219  0.0459 -0.2866
   61TMC2    H2  954   4.407   0.018  15.414 -0.6138  2.2745  0.0772
   61TMC2    C7  955   4.391   0.191  15.204 -0.1084 -0.2833  0.4033
   61TMC2    C8  956   4.318   4.522  15.454  0.1272  0.7059  0.5393
   61TMC2    O1  957   4.364   0.263  15.106 -0.0162 -0.0092  0.3035
   61TMC2    O2  958   4.381   4.567  15.542 -0.4137 -0.0519  0.0739
   61TMC2    O5  959   4.333   4.396  15.417 -0.3484  0.0187  0.3419
   61TMC2    H5  960   4.317   4.379  15.322  0.5264 -0.2615  0.2387
   62MPD2     C  961   4.048   4.470  14.752  0.0724  0.4101 -0.1161
   62MPD2    C1  962   4.140   4.573  14.777  0.9268 -0.4900 -0.3614
   62MPD2    C2  963   4.219   4.625  14.675  0.8533  0.5244 -0.5088
   62MPD2    C3  964   4.228   4.550  14.562 -0.8185 -0.6102  0.0568
   62MPD2    C4  965   4.149   4.433  14.545  0.2834  0.0958  0.5088
   62MPD2    C5  966   4.055   4.399  14.641  0.1580  0.9925 -0.0404
   62MPD2     H  967   4.291   4.703  14.696  0.7059  0.3579  0.6564
   62MPD2    H1  968   4.155   4.377  14.453  0.1789  3.3535 -1.4736
   62MPD2    H2  969   3.968   4.441  14.819  0.6693  0.5456  0.6412
   62MPD2    H3  970   3.987   4.315  14.635  2.4458 -0.8599 -0.3247
   62MPD2     N  971   4.343   4.563  14.474  0.4275 -0.0935  0.1022
   62MPD2    H5  972   4.366   4.484  14.415 -2.7019 -2.0120  1.4077
   62MPD2    N1  973   4.168   4.618  14.902 -0.4365 -0.5495  0.0186
   62MPD2    H7  974   4.240   4.691  14.903 -0.9290 -0.0536 -0.8709
   63TMC2    C1  975   4.146   4.436  11.056  0.4037 -0.3799  0.2465
   63TMC2    C2  976   4.175   4.514  11.167 -0.4003  0.0985 -0.1720
   63TMC2    C3  977   4.265   4.617  11.158  0.7453 -0.6129 -0.2907
   63TMC2    C4  978   4.193   4.465  10.934 -0.3255  0.1207  0.2977
   63TMC2    C5  979   4.277   4.578  10.930  0.2949 -0.7159 -0.4981
   63TMC2    C6  980   4.327   4.651  11.045 -0.9938  0.1149  0.1605
   63TMC2     C  981   4.034   4.346  11.069 -0.4978 -0.4218 -0.3507
   63TMC2     O  982   3.954   4.364  11.163  0.2578  0.0706 -0.0084
   63TMC2     H  983   4.167   4.475  11.267 -3.7545  2.0748  0.3127
   63TMC2    H1  984   4.172   4.413  10.841  0.1990  1.4267 -0.5674
   63TMC2    H2  985   4.391   0.001  11.038 -1.7903  0.7566  0.8430
   63TMC2    C7  986   4.277   4.654  10.805 -0.2644  0.1881  0.3890
   63TMC2    C8  987   4.301   4.687  11.272 -0.1891  0.2910  0.2916
   63TMC2    O1  988   4.193   4.637  10.717 -0.4837 -0.1449 -0.0877
   63TMC2    O2  989   4.403   0.017  11.273  0.3018 -0.7062  0.6207
   63TMC2    O5  990   4.186   4.722  11.334 -0.2673 -0.4325  0.3547
   63TMC2    H5  991   4.109   4.669  11.303 -0.5416 -0.0129  0.3042
   64MPD2     C  992   3.711   4.012  10.832  0.1837  0.3862  0.3769
   64MPD2    C1  993   3.817   4.044  10.747 -0.4343 -0.2869  0.2810
   64MPD2    C2  994   3.912   4.133  10.794 -0.4329  0.3337  0.3619
   64MPD2    C3  995   3.905   4.193  10.923  0.2937 -0.5333 -0.5552
   64MPD2    C4  996   3.804   4.156  11.001  0.4755  0.3757 -0.4321
   64MPD2    C5  997   3.704   4.072  10.957  0.4316  0.8744 -0.5594
   64MPD2     H  998   3.993   4.154  10.725  0.8198  0.1368  1.7559
   64MPD2    H1  999   3.803   4.204  11.099 -0.8936  0.1484 -0.3464
   64MPD2    H2 1000   3.631   3.941  10.816 -0.2603  1.2748 -1.3023
   64MPD2    H3 1001   3.618   4.057  11.022  0.6214 -1.3288 -0.8173
   64MPD2     N 1002   4.015   4.270  10.958  0.2708  0.3818  0.4001
   64MPD2    H5 1003   4.103   4.262  10.908 -0.8493  1.7106 -1.7932
   64MPD2    N1 1004   3.835   3.984  10.616  0.2908 -0.8186  0.9974
   64MPD2    H7 1005   3.919   4.010  10.566 -0.7667 -2.0385 -1.4303
   65TMC2    C1 1006   0.546   3.927  15.373  0.6625  0.1326  0.0909
   65TMC2    C2 1007   0.585   3.862  15.255  0.1877  0.0135  0.0981
   65TMC2    C3 1008   0.631   3.945  15.158 -0.2268  0.2888  0.3008
   65TMC2    C4 1009   0.552   4.059  15.387 -0.1224 -0.1556 -0.1644
   65TMC2    C5 1010   0.603   4.140  15.293 -0.3739 -0.7796 -0.3319
   65TMC2    C6 1011   0.637   4.080  15.170  0.0248 -0.3409  0.6921
   65TMC2     C 1012   0.469   3.839  15.470  0.4870  0.4340  0.7095
   65TMC2     O 1013   0.430   3.896  15.576  0.5605  1.2033 -0.0589
   65TMC2     H 1014   0.591   3.756  15.235  0.4251  0.3100 -1.4003
   65TMC2    H1 1015   0.511   4.107  15.475 -3.0746 -2.3697 -0.3133
   65TMC2    H2 1016   0.665   4.138  15.082  0.7909 -1.6779  0.0521
   65TMC2    C7 1017   0.575   4.285  15.283  0.0090 -0.0951  0.6725
   65TMC2    C8 1018   0.695   3.884  15.045 -0.6359  0.2096 -1.1764
   65TMC2    O1 1019   0.583   4.340  15.171  0.2317  0.4456  0.3569
   65TMC2    O2 1020   0.766   3.785  15.050 -0.0229 -0.7625  1.0013
   65TMC2    O5 1021   0.693   3.968  14.940 -0.3498 -0.2490 -0.1362
   65TMC2    H5 1022   0.632   4.045  14.942  1.7540  1.4442 -0.5454
   66MPD2     C 1023   0.396   3.620  15.652  0.3686  0.1385  0.0560
   66MPD2    C1 1024   0.375   3.612  15.517  0.4475 -0.8703 -0.8407
   66MPD2    C2 1025   0.318   3.493  15.475  0.9771 -0.6188 -0.2511
   66MPD2    C3 1026   0.260   3.401  15.565  0.7828 -0.6151 -1.1747
   66MPD2    C4 1027   0.281   3.413  15.697 -0.0115 -0.4497  0.3913
   66MPD2    C5 1028   0.352   3.527  15.741 -0.3705 -0.0710 -0.8626
   66MPD2     H 1029   0.308   3.480  15.368  0.6663 -0.3572 -0.2563
   66MPD2    H1 1030   0.263   3.338  15.773  0.7491  0.1958  1.2050
   66MPD2    H2 1031   0.442   3.710  15.691 -0.7518  1.2457 -1.1990
   66MPD2    H3 1032   0.368   3.544  15.847  2.1770 -1.3458 -1.0312
   66MPD2     N 1033   0.201   3.280  15.529  0.6905  0.3557  0.0225
   66MPD2    H5 1034   0.155   3.226  15.602 -2.1289  1.5189 -0.8907
   66MPD2    N1 1035   0.426   3.714  15.425 -0.0828 -0.3551 -0.3277
   66MPD2    H7 1036   0.428   3.702  15.324 -1.4184 -0.9220 -0.2929
   67TMC2    C1 1037   0.605   2.614  14.289  0.4397  0.3522 -0.5196
   67TMC2    C2 1038   0.559   2.534  14.387  0.4793  0.1754  0.7602
   67TMC2    C3 1039   0.589   2.573  14.519  0.5124 -0.2950 -0.0625
   67TMC2    C4 1040   0.662   2.731  14.312  0.8070  0.3204  0.3860
   67TMC2    C5 1041   0.684   2.769  14.444 -1.1668 -0.1365 -0.2318
   67TMC2    C6 1042   0.649   2.691  14.554 -0.1214  0.2818 -0.1437
   67TMC2     C 1043   0.546   2.592  14.162 -0.1339 -0.0191  0.0655
   67TMC2     O 1044   0.561   2.486  14.106 -0.5188  0.4228  0.1593
   67TMC2     H 1045   0.491   2.454  14.361  0.1385  0.5842  0.3723
   67TMC2    H1 1046   0.709   2.789  14.233  1.4858 -1.8642 -0.8042
   67TMC2    H2 1047   0.676   2.717  14.655 -0.0258  2.5489 -0.7557
   67TMC2    C7 1048   0.748   2.896  14.472  0.3197 -0.3775 -0.4950
   67TMC2    C8 1049   0.514   2.506  14.620  0.5071  0.3943  0.2199
   67TMC2    O1 1050   0.816   2.943  14.379 -0.4800 -0.4001 -0.5625
   67TMC2    O2 1051   0.575   2.436  14.697  0.4918 -1.0990  0.3102
   67TMC2    O5 1052   0.408   2.584  14.645 -0.6045 -0.6145  0.0757
   67TMC2    H5 1053   0.381   2.648  14.575 -1.6019 -2.5213 -1.3093
   68MPD2     C 1054   0.399   2.599  13.918 -0.8171  0.1528 -0.5612
   68MPD2    C1 1055   0.411   2.703  14.002 -1.0503 -0.0490 -0.5076
   68MPD2    C2 1056   0.334   2.820  13.996 -0.4489 -0.3854  0.2573
   68MPD2    C3 1057   0.242   2.832  13.893  0.0795  0.1046 -0.3069
   68MPD2    C4 1058   0.236   2.725  13.804 -0.0886  0.2571 -0.1868
   68MPD2    C5 1059   0.312   2.614  13.817  0.2795 -0.3610 -0.1730
   68MPD2     H 1060   0.345   2.896  14.072  0.7037 -1.2949  1.0115
   68MPD2    H1 1061   0.172   2.737  13.718 -0.1655  1.7552  0.0884
   68MPD2    H2 1062   0.463   2.511  13.920 -2.1189 -0.7258  1.6252
   68MPD2    H3 1063   0.296   2.544  13.736  1.8495 -0.7058 -0.1875
   68MPD2     N 1064   0.167   2.944  13.866 -0.0875  0.3421 -0.0921
   68MPD2    H5 1065   0.119   2.958  13.778  0.5454 -1.6154 -0.7330
   68MPD2    N1 1066   0.495   2.701  14.114 -1.0905 -0.1703 -0.0306
   68MPD2    H7 1067   0.506   2.793  14.157 -0.6431  0.8933 -2.3874
   69TMC2    C1 1068   2.695   0.531  12.539  0.0857  0.3594  0.2979
   69TMC2    C2 1069   2.735   0.648  12.479 -0.3690  0.5831  0.0412
   69TMC2    C3 1070   2.776   0.640  12.352  0.4054 -0.4086 -0.7388
   69TMC2    C4 1071   2.677   0.417  12.461 -0.1057  0.4281  0.6129
   69TMC2    C5 1072   2.718   0.417  12.325 -0.4414  0.1624  0.2559
   69TMC2    C6 1073   2.767   0.532  12.270 -0.0997 -0.3273  0.3781
   69TMC2     C 1074   2.747   0.495  12.664 -0.1794 -0.4616 -0.2143
   69TMC2     O 1075   2.765   0.376  12.667  0.8015  0.2184 -0.5934
   69TMC2     H 1076   2.721   0.742  12.531  0.3384  1.5236 -1.4733
   69TMC2    H1 1077   2.602   0.347  12.496  3.8929 -2.6603  3.0753
   69TMC2    H2 1078   2.777   0.541  12.163  0.8216  0.0984  0.4982
   69TMC2    C7 1079   2.780   0.296  12.303 -0.2891  0.3855  0.0884
   69TMC2    C8 1080   2.789   0.773  12.285  0.1059 -0.2223  0.3797
   69TMC2    O1 1081   2.818   0.271  12.188  0.2726 -0.1056 -0.0492
   69TMC2    O2 1082   2.771   0.879  12.343 -0.7489  0.1186  0.5209
   69TMC2    O5 1083   2.849   0.767  12.166  0.1407  0.0834  0.1702
   69TMC2    H5 1084   2.890   0.684  12.135  1.4071  1.6751 -2.4624
   70MPD2     C 1085   2.974   0.678  12.905 -0.8973 -0.1925  0.2555
   70MPD2    C1 1086   2.924   0.565  12.831 -0.2258 -0.0042  0.1888
   70MPD2    C2 1087   2.978   0.439  12.851  0.3858 -0.3657  0.3850
   70MPD2    C3 1088   3.085   0.425  12.938  0.0897 -0.5175  0.2399
   70MPD2    C4 1089   3.145   0.533  12.991 -1.0944  0.4112 -0.2791
   70MPD2    C5 1090   3.080   0.655  12.983  0.4006  0.8173  0.3673
   70MPD2     H 1091   2.948   0.348  12.800 -0.5550  0.5439 -0.6680
   70MPD2    H1 1092   3.241   0.534  13.040 -0.4303  1.7876 -1.6252
   70MPD2    H2 1093   2.926   0.775  12.891  0.3266  0.2597 -0.8757
   70MPD2    H3 1094   3.124   0.741  13.032  0.2814 -0.2555  2.3445
   70MPD2     N 1095   3.161   0.308  12.954 -0.1873 -0.4474  0.5081
   70MPD2    H5 1096   3.250   0.312  13.003 -0.1621 -0.0283  0.4292
   70MPD2    N1 1097   2.813   0.590  12.741  0.5041  0.2532  0.0531
   70MPD2    H7 1098   2.782   0.685  12.723  2.1160  0.5100 -1.3857
   71TMC2    C1 1099   0.574   4.724   0.712 -0.1099  0.8880  0.0252
   71TMC2    C2 1100   0.705   4.674   0.701 -0.2913 -0.0206  0.6676
   71TMC2    C3 1101   0.746   4.576   0.797 -0.0616  0.5779  0.5272
   71TMC2    C4 1102   0.489   4.664   0.810 -0.3234  0.1885 -0.2150
   71TMC2    C5 1103   0.540   4.588   0.908  0.1677 -0.0761 -0.1963
   71TMC2    C6 1104   0.668   4.532   0.900  0.2750 -0.2705  0.3740
   71TMC2     C 1105   0.520   0.100   0.643 -0.5280 -0.2224  0.2292
   71TMC2     O 1106   0.403   0.130   0.661  0.4648 -0.2977 -0.3672
   71TMC2     H 1107   0.781   4.717   0.636 -3.8087  1.0830 -2.7271
   71TMC2    H1 1108   0.389   4.706   0.810  0.8632  2.9854 -0.4306
   71TMC2    H2 1109   0.712   4.475   0.982  0.4370  1.0159  1.1875
   71TMC2    C7 1110   0.451   4.551   1.015  0.5471  0.2210 -0.6930
   71TMC2    C8 1111   0.876   4.520   0.774  0.2484 -0.3503  0.0947
   71TMC2    O1 1112   0.495   4.461   1.086  0.0388 -0.0160  0.1713
   71TMC2    O2 1113   0.957   4.580   0.707 -0.2771 -0.7190 -0.7372
   71TMC2    O5 1114   0.877   4.385   0.787 -0.5626 -0.3260  0.0120
   71TMC2    H5 1115   0.793   4.346   0.819 -3.5054  3.4624 -3.1372
   72MPD2     C 1116   0.590   0.524   0.344 -0.3851 -0.1909 -0.1117
   72MPD2    C1 1117   0.486   0.479   0.421 -0.6565  0.2856  0.2302
   72MPD2    C2 1118   0.497   0.369   0.508 -0.5279  0.3362  0.1167
   72MPD2    C3 1119   0.612   0.295   0.509  0.1616 -0.3015 -0.4316
   72MPD2    C4 1120   0.708   0.330   0.418 -0.4277  0.3486  0.2706
   72MPD2    C5 1121   0.697   0.440   0.333  0.1751  0.4327  0.1290
   72MPD2     H 1122   0.411   0.328   0.560  0.8251  1.1688  3.0004
   72MPD2    H1 1123   0.792   0.262   0.408 -0.9461 -0.2113 -0.2602
   72MPD2    H2 1124   0.590   0.615   0.286 -1.3200  2.0391  3.3774
   72MPD2    H3 1125   0.787   0.465   0.278  0.8009 -0.9643  0.4999
   72MPD2     N 1126   0.618   0.172   0.579 -0.5874  0.3899  0.0391
   72MPD2    H5 1127   0.712   0.134   0.579 -1.3181 -1.4115  1.0364
   72MPD2    N1 1128   0.355   0.536   0.410 -0.4513 -0.2496 -0.3525
   72MPD2    H7 1129   0.274   0.485   0.445  0.3563 -2.5468 -1.8016
   73TMC2    C1 1130   4.137   2.054  13.682 -0.2710  0.1792  0.5798
   73TMC2    C2 1131   4.195   2.080  13.802  0.0458  0.7656 -0.5069
   73TMC2    C3 1132   4.293   2.000  13.846  0.2097  0.0322  0.2750
   73TMC2    C4 1133   4.178   1.943  13.612  0.2961  0.4445  0.1390
   73TMC2    C5 1134   4.282   1.861  13.655  0.4973 -0.5504 -0.1168
   73TMC2    C6 1135   4.345   1.900  13.770  0.5892 -0.4009  0.5534
   73TMC2     C 1136   4.146   2.165  13.590  0.0131  0.0559 -1.1498
   73TMC2     O 1137   4.211   2.136  13.491  0.1924  0.6223  0.2467
   73TMC2     H 1138   4.168   2.163  13.865 -1.7532 -0.4205  0.2754
   73TMC2    H1 1139   4.129   1.921  13.518  2.2350  0.6299 -0.9233
   73TMC2    H2 1140   4.436   1.847  13.795  0.0016 -1.1511  1.1051
   73TMC2    C7 1141   4.379   1.822  13.552 -0.8036  0.2579 -0.0306
   73TMC2    C8 1142   4.371   2.061  13.949  0.0899 -0.0874  0.4608
   73TMC2    O1 1143   4.456   1.727  13.565  0.7104 -0.4605 -0.1055
   73TMC2    O2 1144   4.378   2.180  13.963  0.1719  0.6652 -0.0791
   73TMC2    O5 1145   4.408   1.974  14.041 -0.2221  0.2174  0.1285
   73TMC2    H5 1146   4.373   1.884  14.024  0.4813 -0.1174  0.4641
   74MPD2     C 1147   4.145   2.659  13.478  0.7193  0.4047 -0.2389
   74MPD2    C1 1148   4.219   2.554  13.424  0.4484 -0.2403 -0.0150
   74MPD2    C2 1149   4.220   2.432  13.484  0.5625 -1.0603  0.6370
   74MPD2    C3 1150   4.127   2.404  13.591 -0.2330  0.1289 -0.1718
   74MPD2    C4 1151   4.055   2.510  13.644  0.6570  0.0416  0.0289
   74MPD2    C5 1152   4.067   2.637  13.586 -0.5502 -0.3128 -0.4317
   74MPD2     H 1153   4.291   2.356  13.452  1.4518 -0.1016  0.3415
   74MPD2    H1 1154   3.988   2.487  13.726  2.2722 -0.5744  1.1564
   74MPD2    H2 1155   4.136   2.756  13.432  1.1368 -0.7307 -2.7216
   74MPD2    H3 1156   4.005   2.719  13.621 -2.3323 -1.7976 -0.1351
   74MPD2     N 1157   4.111   2.281  13.648  0.1527 -0.3324 -0.2274
   74MPD2    H5 1158   4.047   2.277  13.727 -1.1561  1.9728 -1.1958
   74MPD2    N1 1159   4.299   2.587  13.312 -0.2242 -0.1622  0.2959
   74MPD2    H7 1160   4.295   2.682  13.277  1.8275 -0.0559  0.3208
   75TMC2    C1 1161   0.088   3.164  13.907  0.4752 -0.0750  0.1872
   75TMC2    C2 1162   0.045   3.248  14.002 -0.0228  0.4927  1.0444
   75TMC2    C3 1163   0.019   3.380  13.975  0.0983  0.6927  0.3751
   75TMC2    C4 1164   0.100   3.198  13.774  0.0983 -0.4927 -0.0362
   75TMC2    C5 1165   0.062   3.329  13.743 -0.3099 -0.6191  0.8624
   75TMC2    C6 1166   0.025   3.423  13.841 -0.2993 -0.1996 -0.0552
   75TMC2     C 1167   0.155   3.045  13.962 -0.1758  0.5549 -0.0141
   75TMC2     O 1168   0.197   3.054  14.077  0.2074 -0.5828 -0.2177
   75TMC2     H 1169   0.025   3.211  14.102  1.3368 -0.4086  0.9888
   75TMC2    H1 1170   0.133   3.126  13.700 -1.1051 -1.7904  0.7058
   75TMC2    H2 1171   4.720   3.517  13.807 -0.7047 -0.8412 -1.2968
   75TMC2    C7 1172   0.049   3.359  13.605  0.1808  0.1600  0.3493
   75TMC2    C8 1173   4.680   3.456  14.068 -0.2867 -0.0713  0.3384
   75TMC2    O1 1174   0.013   3.260  13.539 -0.3557  0.2881  0.0512
   75TMC2    O2 1175   4.555   3.468  14.056 -0.0644 -0.0760 -0.0179
   75TMC2    O5 1176   0.001   3.435  14.188 -0.8575  0.1311  0.3651
   75TMC2    H5 1177   0.099   3.434  14.179 -0.9916 -1.0889 -0.9355
   76TMC2    C1 1178   3.633   3.503  11.980  0.2698  0.4487  0.4380
   76TMC2    C2 1179   3.571   3.450  11.870  0.1431 -0.0317 -0.6305
   76TMC2    C3 1180   3.607   3.329  11.827 -0.0173 -0.0703  0.0200
   76TMC2    C4 1181   3.731   3.435  12.051  0.0101 -0.7564 -0.3271
   76TMC2    C5 1182   3.764   3.311  12.003 -0.5213  0.1750  0.2818
   76TMC2    C6 1183   3.705   3.254  11.887 -0.6590 -0.8450 -0.2527
   76TMC2     C 1184   3.574   3.628  12.023  0.1596  0.7059 -0.0162
   76TMC2     O 1185   3.471   3.665  11.966  0.3258  0.1202  0.4393
   76TMC2     H 1186   3.507   3.509  11.806 -0.4508  0.2822  0.2564
   76TMC2    H1 1187   3.765   3.485  12.140 -3.3109  0.9403 -0.0137
   76TMC2    H2 1188   3.718   3.152  11.855 -0.7689 -1.4112  1.4911
   76TMC2    C7 1189   3.884   3.248  12.059 -0.1069  0.0647 -0.9042
   76TMC2    C8 1190   3.574   3.305  11.693  0.5150 -0.2271 -0.1558
   76TMC2    O1 1191   3.898   3.136  12.014 -0.1863 -0.1050  0.2014
   76TMC2    O2 1192   3.472   3.347  11.639  0.3502  0.9282 -0.2514
   76TMC2    O5 1193   3.696   3.293  11.631  0.2653 -0.2354  0.5097
   76TMC2    H5 1194   3.774   3.334  11.673  0.3606 -0.0669  0.1674
   77MPD2     C 1195   3.631   4.118  12.187 -0.3283  0.0251 -0.2411
   77MPD2    C1 1196   3.532   4.056  12.110  0.6829 -0.0577 -0.4330
   77MPD2    C2 1197   3.535   3.920  12.076 -0.3061  0.2386 -0.1853
   77MPD2    C3 1198   3.650   3.846  12.116 -0.3065 -0.4117  0.1063
   77MPD2    C4 1199   3.759   3.916  12.171 -0.5218 -0.0790  0.2860
   77MPD2    C5 1200   3.743   4.045  12.201  0.2272  0.5808  0.5695
   77MPD2     H 1201   3.445   3.884  12.027  0.6267  0.9766 -2.4086
   77MPD2    H1 1202   3.847   3.867  12.210  0.6705  0.8775 -1.2093
   77MPD2    H2 1203   3.632   4.226  12.197  0.4938  0.0347 -0.3892
   77MPD2    H3 1204   3.829   4.093  12.245  0.7865  0.2855 -0.1973
   77MPD2     N 1205   3.668   3.708  12.085  0.4367 -0.2002  0.1866
   77MPD2    H5 1206   3.756   3.663  12.110 -0.2463 -1.2389  0.7286
   77MPD2    N1 1207   3.419   4.124  12.073  0.1413  0.2578 -0.2611
   77MPD2    H7 1208   3.349   4.073  12.020 -1.6797  0.4280  2.0038
   78TMC2    C1 1209   0.298   0.017   1.474 -0.2352 -0.1724  0.3093
   78TMC2    C2 1210   0.272   4.628   1.516  0.7053 -0.3512 -0.2611
   78TMC2    C3 1211   0.365   4.530   1.480 -0.0311 -0.1541  0.1466
   78TMC2    C4 1212   0.406   0.052   1.396 -0.2004  0.4307  1.0123
   78TMC2    C5 1213   0.494   4.687   1.368 -0.3850 -0.8611  0.6131
   78TMC2    C6 1214   0.474   4.556   1.410  0.0852 -0.1423 -0.3039
   78TMC2     C 1215   0.226   0.131   1.541 -0.0164 -0.4953 -0.5627
   78TMC2     O 1216   0.150   0.109   1.633 -0.0507  0.1464 -0.3515
   78TMC2     H 1217   0.180   4.602   1.567 -0.7754  0.3079 -2.5908
   78TMC2    H1 1218   0.423   0.157   1.380  2.1014 -0.0427  0.4030
   78TMC2    H2 1219   0.539   4.472   1.390 -2.2327 -1.7275 -1.1264
   78TMC2    C7 1220   0.610   4.711   1.291 -0.2884 -0.2460 -0.6718
   78TMC2    C8 1221   0.337   4.387   1.501 -0.0014 -0.3196 -0.1856
   78TMC2    O1 1222   0.701   4.629   1.298 -0.8359  0.3865  0.0627
   78TMC2    O2 1223   0.386   4.300   1.429 -0.1423  0.0152  1.2751
   78TMC2    O5 1224   0.310   4.374   1.635 -0.0428 -0.2404  0.2496
   78TMC2    H5 1225   0.332   4.460   1.678  0.0837 -0.0673 -0.1652
   79MPD1     C 1226   0.122   0.638   1.567 -0.0254 -0.0241  0.0178
   79MPD1    C1 1227   0.120   0.542   1.665  0.5218  0.8414  0.0975
   79MPD1    C2 1228   0.148   0.415   1.621  0.3394  0.2875  1.0533
   79MPD1    C3 1229   0.170   0.370   1.490 -0.0490 -0.7823  0.0624
   79MPD1    C4 1230   0.159   0.465   1.394 -0.0499 -0.5123 -0.4381
   79MPD1    C5 1231   0.136   0.595   1.432  0.6849 -0.2310 -0.3711
   79MPD1     H 1232   0.166   0.354   1.709  1.2320 -2.1769 -0.8170
   79MPD1    H1 1233   0.177   0.441   1.290  0.8400  1.6323 -0.7713
   79MPD1    H2 1234   0.116   0.745   1.580  0.6704 -0.0444  0.5320
   79MPD1    H3 1235   0.132   0.677   1.361  0.8630  0.0556 -0.0510
   79MPD1     N 1236   0.220   0.243   1.458  0.1777  0.3183 -0.1765
   79MPD1    H5 1237   0.245   0.224   1.361  0.7630  2.3551 -0.4190
   79MPD1    N1 1238   0.104   0.579   1.802 -0.3589 -0.2998  0.1769
   79MPD1    H6 1239   0.105   0.513   1.880  1.2649 -0.0750  0.3647
   79MPD1    H7 1240   0.025   0.641   1.819 -0.8964 -1.3563  1.4453
   80TMC2    C1 1241   2.586   4.342  11.224  0.1879  0.0764 -0.0831
   80TMC2    C2 1242   2.475   4.413  11.196  0.3528 -0.6553  0.7531
   80TMC2    C3 1243   2.358   4.345  11.183  0.7208 -0.1332  0.4299
   80TMC2    C4 1244   2.577   4.208  11.271  0.5054 -0.7161 -0.3312
   80TMC2    C5 1245   2.450   4.149  11.277 -0.0909 -0.6097 -0.3430
   80TMC2    C6 1246   2.338   4.217  11.229  0.2247 -0.6132  0.5922
   80TMC2     C 1247   2.701   4.416  11.283 -0.5531 -0.9151 -0.8208
   80TMC2     O 1248   2.807   4.385  11.236 -0.4162 -0.3821  0.1793
   80TMC2     H 1249   2.486   4.513  11.155  1.1190 -0.4202  1.5429
   80TMC2    H1 1250   2.662   4.146  11.298  0.6104 -0.9441 -1.1776
   80TMC2    H2 1251   2.246   4.161  11.218  0.1786 -0.2506 -0.9572
   80TMC2    C7 1252   2.423   4.011  11.313 -0.1166 -0.3131 -0.2178
   80TMC2    C8 1253   2.239   4.426  11.149 -0.1244  0.2895  0.1901
   80TMC2    O1 1254   2.334   3.956  11.253  0.1027 -0.2017  0.0265
   80TMC2    O2 1255   2.237   4.546  11.178  0.4006 -0.5690 -0.3689
   80TMC2    O5 1256   2.211   4.374  11.029  0.1481 -0.1011  0.6766
   80TMC2    H5 1257   2.237   4.280  11.017  0.5006  0.1901 -0.8541
   81MPD2     C 1258   2.871   4.623  11.416 -1.1234  0.0768  0.5321
   81MPD2    C1 1259   2.738   4.602  11.448  0.7240  0.0662 -0.6074
   81MPD2    C2 1260   2.690   4.657  11.560 -0.4561 -0.3037  0.0283
   81MPD2    C3 1261   2.774   4.717  11.646 -0.9885  0.4333  0.1805
   81MPD2    C4 1262   2.912   4.721  11.627  0.2592  0.2083 -0.1510
   81MPD2    C5 1263   2.956   4.674  11.507 -0.6225  0.8843 -0.0839
   81MPD2     H 1264   2.586   4.648  11.591 -0.2904  3.4661  1.6939
   81MPD2    H1 1265   2.982   0.041  11.685 -0.7534  0.4931  0.7891
   81MPD2    H2 1266   2.907   4.581  11.323 -0.3659 -2.1148  1.8039
   81MPD2    H3 1267   3.063   4.683  11.492 -0.9231  2.6894 -1.0743
   81MPD2     N 1268   2.740   0.029  11.775  0.1735 -0.4360  0.1040
   81MPD2    H5 1269   2.819   0.064  11.829  0.0083 -1.9919  1.3577
   81MPD2    N1 1270   2.661   4.511  11.371 -0.3901  0.2541 -0.1107
   81MPD2    H7 1271   2.562   4.508  11.397 -0.2759  0.0040  0.2966
   82TMC2    C1 1272   1.051   2.305  10.972 -0.1654  0.1380  0.4428
   82TMC2    C2 1273   1.188   2.319  10.989  0.1577 -0.3385  0.0905
   82TMC2    C3 1274   1.246   2.251  11.089  0.0281 -0.4247  0.5446
   82TMC2    C4 1275   0.972   2.213  11.037 -0.3141 -0.8678 -0.0065
   82TMC2    C5 1276   1.032   2.146  11.142 -0.1849  0.1001  0.0419
   82TMC2    C6 1277   1.170   2.162  11.163 -0.4112  0.0037 -0.5088
   82TMC2     C 1278   0.969   2.409  10.907  0.6166 -0.0502 -0.1568
   82TMC2     O 1279   0.855   2.381  10.882 -0.4683  0.1776  0.2060
   82TMC2     H 1280   1.250   2.383  10.927 -2.0033  1.4726 -0.2161
   82TMC2    H1 1281   0.865   2.210  11.022 -0.5185 -2.1782  1.7519
   82TMC2    H2 1282   1.221   2.112  11.245 -1.0081 -0.3340 -0.3413
   82TMC2    C7 1283   0.960   2.062  11.236  0.3360 -0.6496 -0.3714
   82TMC2    C8 1284   1.372   2.305  11.134  0.3645 -0.1753  0.7274
   82TMC2    O1 1285   1.001   2.052  11.348 -0.1312 -0.0180  0.2066
   82TMC2    O2 1286   1.436   2.362  11.049  0.1753  0.0094  0.4321
   82TMC2    O5 1287   1.335   2.363  11.251 -0.1873 -0.1208 -0.0826
   82TMC2    H5 1288   1.249   2.345  11.296 -0.3869 -1.2441 -0.9235
   83MPD2     C 1289   0.919   2.852  10.654 -0.0471 -0.1035  0.3685
   83MPD2    C1 1290   0.822   2.755  10.676 -0.3650 -0.2649  0.1604
   83MPD2    C2 1291   0.857   2.649  10.758 -0.2883 -0.3758 -0.1496
   83MPD2    C3 1292   0.987   2.631  10.809 -0.0140 -0.1569  0.1884
   83MPD2    C4 1293   1.080   2.729  10.784 -0.3069 -0.2747 -0.6309
   83MPD2    C5 1294   1.045   2.840  10.704  0.4247  0.1066  0.5013
   83MPD2     H 1295   0.784   2.569  10.768 -0.9011  0.5116  2.5075
   83MPD2    H1 1296   1.181   2.724  10.824 -1.0889 -0.2778  1.3338
   83MPD2    H2 1297   0.907   2.940  10.591  1.0149  0.2639  0.6822
   83MPD2    H3 1298   1.112   2.925  10.694  2.8449 -1.9039 -0.3302
   83MPD2     N 1299   1.039   2.524  10.885 -0.0862 -0.1294 -0.1604
   83MPD2    H5 1300   1.132   2.537  10.924 -0.0729 -0.7963  0.0300
   83MPD2    N1 1301   0.696   2.768  10.610 -0.7477 -0.3882 -0.7503
   83MPD2    H7 1302   0.677   2.863  10.578  1.0741 -0.0972 -1.0037
   84TMC2    C1 1303   2.629   2.555  11.003  0.0595  0.2938  0.5885
   84TMC2    C2 1304   2.744   2.576  11.077 -0.0977  0.4949 -0.0098
   84TMC2    C3 1305   2.864   2.587  11.012  0.2743  0.3037 -0.6948
   84TMC2    C4 1306   2.640   2.552  10.867  0.0415  0.0493  0.1622
   84TMC2    C5 1307   2.759   2.571  10.801 -0.3275  0.3450  0.2752
   84TMC2    C6 1308   2.872   2.596  10.874  0.0582 -0.1516 -0.3658
   84TMC2     C 1309   2.499   2.529  11.066 -0.6025 -0.4886 -0.5453
   84TMC2     O 1310   2.403   2.508  10.993 -0.4578  0.3298 -0.1835
   84TMC2     H 1311   2.741   2.588  11.184  0.2586  1.2362 -0.0845
   84TMC2    H1 1312   2.547   2.536  10.814 -0.4235  0.9400  0.7193
   84TMC2    H2 1313   2.964   2.565  10.825 -0.3106  1.0287 -1.7986
   84TMC2    C7 1314   2.764   2.579  10.650 -0.2543 -0.6393  0.2970
   84TMC2    C8 1315   2.975   2.531  11.080 -0.1102 -0.0310 -0.5660
   84TMC2    O1 1316   2.678   2.515  10.595 -0.7635 -0.0883 -0.3148
   84TMC2    O2 1317   2.979   2.452  11.176 -0.3780  0.1209  0.2774
   84TMC2    O5 1318   3.083   2.596  11.030 -0.2566 -0.3911 -0.5097
   84TMC2    H5 1319   3.045   2.674  10.983 -3.1220 -0.7702  1.2477
   85TMC2    C1 1320   2.744   0.442  15.759 -0.4965 -0.0964  0.0249
   85TMC2    C2 1321   2.635   0.428  15.675  0.6752 -0.5191 -0.7547
   85TMC2    C3 1322   2.619   0.517  15.572 -0.2507  0.3149 -0.0881
   85TMC2    C4 1323   2.835   0.539  15.738  0.4265 -0.5670  0.4196
   85TMC2    C5 1324   2.807   0.630  15.641  0.6764  0.6843 -0.0436
   85TMC2    C6 1325   2.705   0.621  15.557 -0.0922  0.0139 -0.5733
   85TMC2     C 1326   2.774   0.360  15.880  0.2231  0.4154 -0.7928
   85TMC2     O 1327   2.874   0.388  15.951  0.3287 -0.1514  0.9976
   85TMC2     H 1328   2.550   0.365  15.700 -0.7201  1.6896  0.1746
   85TMC2    H1 1329   2.928   0.543  15.795  0.9992 -1.0243 -0.4788
   85TMC2    H2 1330   2.687   0.706  15.492 -1.0130 -0.4422 -0.9057
   85TMC2    C7 1331   2.887   0.748  15.627  0.3299 -0.0730  0.0485
   85TMC2    C8 1332   2.519   0.497  15.469  0.1794 -0.2155 -0.0360
   85TMC2    O1 1333   2.866   0.822  15.531 -0.6597  0.1700  0.0592
   85TMC2    O2 1334   2.482   0.585  15.394  0.1037  0.0256 -0.4050
   85TMC2    O5 1335   2.483   0.369  15.460 -0.0013  0.0312 -0.0436
   85TMC2    H5 1336   2.536   0.309  15.517  0.0922  0.7905  0.6646
   86MPD2     C 1337   2.666   4.708  16.183 -0.5673  0.1932  0.2835
   86MPD2    C1 1338   2.596   4.694  16.069  0.0890  0.1248 -0.1319
   86MPD2    C2 1339   2.608   0.052  15.973  1.2590 -0.1544 -0.0431
   86MPD2    C3 1340   2.690   0.158  15.991  0.3471  0.3030 -1.1450
   86MPD2    C4 1341   2.756   0.177  16.113  0.2738  0.6962 -0.0041
   86MPD2    C5 1342   2.749   0.077  16.210  0.3041 -0.9848 -0.3205
   86MPD2     H 1343   2.569   0.027  15.875 -2.2515  2.8923  0.5818
   86MPD2    H1 1344   2.805   0.269  16.144 -1.3267  0.9085  1.8769
   86MPD2    H2 1345   2.661   4.626  16.254  0.0613  2.1141  2.5486
   86MPD2    H3 1346   2.809   0.089  16.299  0.4844 -1.6082 -0.3566
   86MPD2     N 1347   2.689   0.252  15.886 -0.1373  0.2472 -0.1987
   86MPD2    H5 1348   2.616   0.249  15.816  2.3142  0.2684 -2.7329
   86MPD2    N1 1349   2.513   4.586  16.038 -0.4334  0.8753  0.0525
   86MPD2    H7 1350   2.474   4.600  15.946  0.5310  0.8296 -0.3650
   87TMC2    C1 1351   0.854   3.435   0.880  0.3852  0.8196 -0.7798
   87TMC2    C2 1352   0.993   3.434   0.875  0.5226 -0.3647 -0.7165
   87TMC2    C3 1353   1.057   3.504   0.972  0.1793  0.7840 -0.2808
   87TMC2    C4 1354   0.791   3.533   0.950 -0.4041 -0.2379  0.4212
   87TMC2    C5 1355   0.866   3.607   1.036 -1.0631  0.6939 -0.6011
   87TMC2    C6 1356   1.002   3.591   1.057  0.1066  0.1235  0.2159
   87TMC2     C 1357   0.779   3.372   0.774 -0.1857  0.3888  0.2443
   87TMC2     O 1358   0.691   3.434   0.719 -0.1280  0.3002  0.4480
   87TMC2     H 1359   1.050   3.371   0.807  0.6495 -0.3843 -0.5912
   87TMC2    H1 1360   0.683   3.536   0.957 -0.4131  1.0798 -0.3942
   87TMC2    H2 1361   1.049   3.665   1.120  0.9525  0.3324 -0.6675
   87TMC2    C7 1362   0.799   3.674   1.143  0.5131 -0.0235 -0.2088
   87TMC2    C8 1363   1.198   3.485   0.989 -0.5147 -0.5503  0.3829
   87TMC2    O1 1364   0.831   3.667   1.259 -0.2464  0.5208 -0.3745
   87TMC2    O2 1365   1.265   3.430   0.903  0.1685 -0.3013  0.4418
   87TMC2    O5 1366   1.234   3.471   1.120  0.0571  0.2716 -0.8553
   87TMC2    H5 1367   1.174   3.518   1.182 -0.1529 -0.2478 -0.6695
   88MPD2     C 1368   0.569   3.798   1.294 -0.5857  0.1109  0.6514
   88MPD2    C1 1369   0.591   3.806   1.157 -0.5546  0.2183  0.0381
   88MPD2    C2 1370   0.509   3.886   1.084  0.9674 -0.3873 -0.0259
   88MPD2    C3 1371   0.420   3.968   1.147 -0.3777 -0.2725  0.3892
   88MPD2    C4 1372   0.398   3.960   1.288  0.7375  0.4038  0.1068
   88MPD2    C5 1373   0.472   3.869   1.357 -0.3519 -0.4744  0.0912
   88MPD2     H 1374   0.511   3.882   0.975  0.2465 -1.0957 -0.0102
   88MPD2    H1 1375   0.333   4.035   1.333  0.9965  1.0376 -0.5744
   88MPD2    H2 1376   0.634   3.731   1.349 -2.1453  0.1859  2.5644
   88MPD2    H3 1377   0.473   3.870   1.466 -2.3294  0.9108  0.1050
   88MPD2     N 1378   0.353   4.056   1.060  0.7723 -0.4393 -0.2658
   88MPD2    H5 1379   0.390   4.057   0.966  1.2901 -0.4020 -0.0664
   88MPD2    N1 1380   0.694   3.739   1.087 -0.7586  0.1261  0.0371
   88MPD2    H7 1381   0.687   3.745   0.986  1.7367 -2.1783 -0.2677
   89TMC2    C1 1382   0.758   1.693   1.204  0.8103  0.0693  0.1389
   89TMC2    C2 1383   0.709   1.813   1.243 -0.1757  0.7933 -0.9207
   89TMC2    C3 1384   0.716   1.915   1.149  0.2956 -0.0564 -0.1760
   89TMC2    C4 1385   0.813   1.669   1.073  0.2601  0.9460 -0.5178
   89TMC2    C5 1386   0.822   1.774   0.982  0.4433 -0.3092 -0.2123
   89TMC2    C6 1387   0.780   1.900   1.024  0.4240  1.2625  0.3330
   89TMC2     C 1388   0.806   1.608   1.306 -0.3429  0.2802  0.0147
   89TMC2     O 1389   0.811   1.667   1.416  0.5046 -0.6858  0.5262
   89TMC2     H 1390   0.645   1.822   1.330  0.1301  2.1720 -0.8353
   89TMC2    H1 1391   0.863   1.575   1.052 -1.5017  0.3549 -2.1084
   89TMC2    H2 1392   0.778   1.982   0.952  0.8675  1.4749  0.5594
   89TMC2    C7 1393   0.917   1.749   0.873  0.2457  0.4926 -0.2415
   89TMC2    C8 1394   0.631   2.029   1.163  0.7626  0.7917 -0.9767
   89TMC2    O1 1395   0.924   1.641   0.819 -0.0426 -0.2696 -0.1023
   89TMC2    O2 1396   0.576   2.075   1.066  0.6032  0.3598 -0.1447
   89TMC2    O5 1397   0.596   2.051   1.289  0.3150  0.5350 -0.4251
   89TMC2    H5 1398   0.660   2.029   1.360 -1.0640 -1.7552  0.1509
   90MPD2     C 1399   0.962   1.155   1.505 -0.3796  0.6139 -0.1490
   90MPD2    C1 1400   0.889   1.130   1.396 -0.6041  0.3426  0.3447
   90MPD2    C2 1401   0.836   1.232   1.319 -0.1825 -0.3361  0.0510
   90MPD2    C3 1402   0.857   1.364   1.352 -0.4045 -1.0606 -0.2670
   90MPD2    C4 1403   0.938   1.387   1.458  0.5300  0.8424 -0.5670
   90MPD2    C5 1404   1.001   1.283   1.526 -0.7006 -0.2669  0.3657
   90MPD2     H 1405   0.770   1.211   1.236  0.1671  0.0832 -0.3351
   90MPD2    H1 1406   0.959   1.489   1.487  1.1898  0.7062 -0.5472
   90MPD2    H2 1407   0.995   1.083   1.579  0.2585  0.0577 -0.9782
   90MPD2    H3 1408   1.062   1.295   1.615  0.1384  0.9638 -0.3700
   90MPD2     N 1409   0.803   1.471   1.275  0.0157 -0.4252 -0.9870
   90MPD2    H5 1410   0.767   1.442   1.185 -0.2504  0.0013 -1.0171
   90MPD2    N1 1411   0.857   1.001   1.347 -0.7066 -0.1639 -0.2665
   90MPD2    H7 1412   0.795   1.015   1.268  0.6566 -2.0654 -1.6609
   91TMC2    C1 1413   2.569   0.824  16.319 -0.2234 -0.8584 -0.3672
   91TMC2    C2 1414   2.648   0.818  16.208 -0.2577 -0.0342 -0.0255
   91TMC2    C3 1415   2.597   0.846  16.081  0.6809  0.1023  0.4998
   91TMC2    C4 1416   2.432   0.835  16.307  0.0179 -0.0706 -0.0956
   91TMC2    C5 1417   2.384   0.841  16.179  0.4925  0.3263  0.2454
   91TMC2    C6 1418   2.462   0.849  16.060  0.1241  0.3349  0.3820
   91TMC2     C 1419   2.618   0.770  16.446  0.4299 -0.4011 -0.2818
   91TMC2     O 1420   2.532   0.711  16.509  0.1379 -0.2316 -0.2900
   91TMC2     H 1421   2.754   0.798  16.217 -0.6955 -2.2524  0.2507
   91TMC2    H1 1422   2.372   0.823  16.396 -0.9376  1.4642 -0.5176
   91TMC2    H2 1423   2.410   0.847  15.965 -0.4557  1.0785  0.6825
   91TMC2    C7 1424   2.239   0.849  16.180  0.2008  0.2935 -0.3042
   91TMC2    C8 1425   2.674   0.801  15.970  0.5520 -0.2505 -0.0145
   91TMC2    O1 1426   2.185   0.839  16.286  0.3213 -0.2298  0.1021
   91TMC2    O2 1427   2.768   0.724  15.976  0.5514 -0.8569 -0.2288
   91TMC2    O5 1428   2.617   0.840  15.853 -0.2157  0.2094  0.7377
   91TMC2    H5 1429   2.547   0.907  15.873 -3.1229 -2.2945 -1.0511
   92MPD2     C 1430   2.769   0.645  16.676 -0.0421 -0.6349 -0.0079
   92MPD2    C1 1431   2.826   0.726  16.582 -0.1194 -0.3512 -0.2210
   92MPD2    C2 1432   2.952   0.771  16.597  0.2014  0.0235  0.8029
   92MPD2    C3 1433   3.035   0.718  16.691  0.1389 -0.1779 -0.5404
   92MPD2    C4 1434   2.978   0.626  16.778  0.4315  0.6910 -0.3686
   92MPD2    C5 1435   2.847   0.591  16.768  0.6823 -0.4563  0.6726
   92MPD2     H 1436   2.997   0.840  16.527  1.0027 -1.3716 -0.0762
   92MPD2    H1 1437   3.037   0.577  16.855  1.0365  1.0344 -0.6140
   92MPD2    H2 1438   2.667   0.612  16.662 -0.3125  0.1033  0.2087
   92MPD2    H3 1439   2.812   0.516  16.838 -1.1281  0.5614  0.8721
   92MPD2     N 1440   3.169   0.757  16.700 -0.2795 -0.1059 -0.5079
   92MPD2    H5 1441   3.199   0.836  16.643  3.1479 -1.1635 -0.2128
   92MPD2    N1 1442   2.753   0.787  16.474 -0.1048 -0.2716  0.2015
   92MPD2    H7 1443   2.800   0.856  16.416  0.3867  1.2594  2.3994
   93TMC2    C1 1444   4.645   1.299  13.831 -0.4057 -0.0669 -0.2847
   93TMC2    C2 1445   4.567   1.394  13.903 -0.5500 -0.1569 -0.3142
   93TMC2    C3 1446   4.640   1.509  13.938  0.4418  1.0800  0.1936
   93TMC2    C4 1447   0.041   1.319  13.793  0.1910  0.7274 -0.2884
   93TMC2    C5 1448   0.098   1.442  13.818 -0.0657 -0.5995 -0.4602
   93TMC2    C6 1449   0.032   1.532  13.896 -0.1699  0.4158  0.7119
   93TMC2     C 1450   4.565   1.190  13.772 -0.6285 -0.1030  0.1487
   93TMC2     O 1451   4.621   1.088  13.732 -0.1239  0.6093  0.2506
   93TMC2     H 1452   4.483   1.364  13.963 -1.1295 -0.2344 -1.1576
   93TMC2    H1 1453   0.097   1.247  13.733 -2.4621 -0.0906 -1.7568
   93TMC2    H2 1454   0.071   1.630  13.921 -0.6390  1.2645 -1.9645
   93TMC2    C7 1455   0.189   1.493  13.714  0.4290 -0.8032 -0.4216
   93TMC2    C8 1456   4.567   1.609  14.006 -0.7581 -0.5042 -1.3383
   93TMC2    O1 1457   0.275   1.424  13.665  0.2501  0.2005 -0.6903
   93TMC2    O2 1458   4.624   1.702  14.055 -0.2294 -0.8311 -0.6610
   93TMC2    O5 1459   4.450   1.620  13.936  0.2372  0.2271 -0.0536
   93TMC2    H5 1460   4.441   1.553  13.865  2.1306 -2.9207  2.6683
   94MPD2     C 1461   4.345   0.985  13.750 -0.3706  0.5069 -0.7988
   94MPD2    C1 1462   4.330   1.122  13.743 -0.3090  0.3565 -0.9119
   94MPD2    C2 1463   4.204   1.181  13.733  0.3580  0.3624 -0.6388
   94MPD2    C3 1464   4.086   1.104  13.754  0.1339 -0.2806  0.2209
   94MPD2    C4 1465   4.103   0.965  13.761 -0.1690 -0.2628  0.2821
   94MPD2    C5 1466   4.228   0.910  13.754  0.9811 -0.3607 -0.3567
   94MPD2     H 1467   4.209   1.289  13.741  1.7893  0.3174 -0.9478
   94MPD2    H1 1468   4.019   0.896  13.764 -1.7147  1.5932 -0.8860
   94MPD2    H2 1469   4.437   0.928  13.750  0.0764  1.2412 -2.0272
   94MPD2    H3 1470   4.238   0.802  13.759 -2.0124 -0.6057  0.1979
   94MPD2     N 1471   3.950   1.150  13.755  0.4728  0.3654  0.3403
   94MPD2    H5 1472   3.872   1.091  13.782  1.3580 -0.1143  1.7992
   94MPD2    N1 1473   4.432   1.217  13.762  0.0927 -0.2522  0.6172
   94MPD2    H7 1474   4.409   1.316  13.754  0.5042 -0.2388 -0.5391
   95TMC2    C1 1475   4.293   2.791  16.210  0.0377 -0.3575  0.2236
   95TMC2    C2 1476   4.318   2.673  16.272  0.3394 -0.1117  0.0178
   95TMC2    C3 1477   4.279   2.660  16.403 -0.0688  0.3127 -0.2886
   95TMC2    C4 1478   4.243   2.891  16.286  0.5611  0.5925  0.4120
   95TMC2    C5 1479   4.217   2.877  16.423  0.3195  0.9831  0.7887
   95TMC2    C6 1480   4.239   2.756  16.487  0.0228  0.2492 -0.1875
   95TMC2     C 1481   4.320   2.816  16.068 -0.0368  0.9719 -1.0398
   95TMC2     O 1482   4.359   2.929  16.038 -0.2027  0.1787 -0.1188
   95TMC2     H 1483   4.354   2.590  16.212 -1.1836 -1.3841  0.8541
   95TMC2    H1 1484   4.210   2.979  16.231  2.6970  1.8961  1.2708
   95TMC2    H2 1485   4.212   2.735  16.590  0.5816 -0.8883 -0.2785
   95TMC2    C7 1486   4.164   2.982  16.507  0.4085 -1.1993  0.2582
   95TMC2    C8 1487   4.271   2.528  16.454 -0.6004 -0.2729  0.0832
   95TMC2    O1 1488   4.182   2.981  16.632 -0.3625 -0.4033 -0.0550
   95TMC2    O2 1489   4.248   2.430  16.391  0.5177 -0.3770 -0.1199
   95TMC2    O5 1490   4.333   2.533  16.574 -0.5360  0.1128 -0.8432
   95TMC2    H5 1491   4.367   2.616  16.614 -0.8886 -0.7719  1.2578
   96MPD2     C 1492   4.438   2.608  15.619 -0.4784  0.7824 -0.3071
   96MPD2    C1 1493   4.466   2.734  15.670 -0.8284  0.2064  0.7090
   96MPD2    C2 1494   4.421   2.766  15.797  0.4778  0.0430 -0.6641
   96MPD2    C3 1495   4.357   2.670  15.871 -0.8485 -0.4715 -1.7532
   96MPD2    C4 1496   4.331   2.549  15.823 -1.0121 -0.3861 -0.4523
   96MPD2    C5 1497   4.384   2.514  15.697 -0.7553  0.4314 -0.8212
   96MPD2     H 1498   4.442   2.867  15.833  0.5566  0.0350 -0.6876
   96MPD2    H1 1499   4.286   2.474  15.887 -0.5686  0.4134  0.8070
   96MPD2    H2 1500   4.476   2.583  15.520 -1.4046  0.3195 -0.5523
   96MPD2    H3 1501   4.369   2.411  15.668  0.7560 -0.1981  0.5707
   96MPD2     N 1502   4.308   2.700  15.996 -0.6401 -0.5019  0.0672
   96MPD2    H5 1503   4.258   2.633  16.053 -0.3360 -1.8227 -1.2137
   96MPD2    N1 1504   4.544   2.816  15.585 -0.5611  0.3683 -0.5507
   96MPD2    H7 1505   4.578   2.762  15.506 -2.2357 -0.1832 -0.8909
   97TMC2    C1 1506   1.659   1.349   0.469  0.2841  0.1095 -0.9558
   97TMC2    C2 1507   1.529   1.384   0.480 -0.6427  0.3148 -0.0958
   97TMC2    C3 1508   1.480   1.491   0.410 -0.0236  0.4347 -0.0970
   97TMC2    C4 1509   1.754   1.418   0.390  0.4461 -0.0842  0.4480
   97TMC2    C5 1510   1.694   1.525   0.314  0.8769  0.6491  0.2433
   97TMC2    C6 1511   1.563   1.555   0.319 -0.0014  0.1282  0.0892
   97TMC2     C 1512   1.701   1.230   0.536  0.0146  0.3873  0.4106
   97TMC2     O 1513   1.616   1.147   0.571  0.6132 -0.4155 -0.5555
   97TMC2     H 1514   1.461   1.338   0.551  0.0232 -0.7900 -0.1643
   97TMC2    H1 1515   1.860   1.399   0.380  0.4270  0.3261 -0.4927
   97TMC2    H2 1516   1.521   1.637   0.261 -0.8570 -1.6872 -1.8456
   97TMC2    C7 1517   1.769   1.585   0.205 -0.3804  0.3022  0.2507
   97TMC2    C8 1518   1.342   1.527   0.395 -0.4525  0.6954 -0.5183
   97TMC2    O1 1519   1.886   1.590   0.231  0.0802 -0.2808  0.2249
   97TMC2    O2 1520   1.288   1.532   0.287 -0.1310 -0.0508 -0.5166
   97TMC2    O5 1521   1.284   1.514   0.515  0.2780 -0.3969  0.4728
   97TMC2    H5 1522   1.344   1.511   0.593 -0.8470  0.9512  1.3738
   98MPD2     C 1523   2.080   0.924   0.695  0.4136 -0.4771 -0.9271
   98MPD2    C1 1524   1.947   0.905   0.704 -0.0707 -0.0822 -0.3174
   98MPD2    C2 1525   1.864   1.003   0.650 -0.1423  0.9400 -0.0460
   98MPD2    C3 1526   1.919   1.129   0.601  0.4416  0.2825  0.1828
   98MPD2    C4 1527   2.056   1.149   0.609 -0.5129  0.0944 -0.3865
   98MPD2    C5 1528   2.135   1.049   0.653  0.5356 -0.2259  0.5185
   98MPD2     H 1529   1.760   0.983   0.628 -0.4381  0.4875  1.7890
   98MPD2    H1 1530   2.092   1.248   0.580 -0.3017  0.1702  0.1314
   98MPD2    H2 1531   2.149   0.845   0.721 -2.1367 -2.4112 -0.0522
   98MPD2    H3 1532   2.243   1.053   0.664  0.5274  0.6883  0.2583
   98MPD2     N 1533   1.837   1.233   0.544  0.5428 -0.0497 -0.5716
   98MPD2    H5 1534   1.885   1.317   0.512 -3.7060  3.2533  1.7505
   98MPD2    N1 1535   1.905   0.778   0.749  0.1076 -0.1495  0.2640
   98MPD2    H7 1536   1.974   0.707   0.771 -0.5679 -0.4274  1.5027
   99TMC2    C1 1537   0.995   2.736   1.408 -0.3494  0.3503 -0.1707
   99TMC2    C2 1538   1.009   2.762   1.540 -0.7921 -0.0201 -0.5753
   99TMC2    C3 1539   0.905   2.744   1.632  0.5455 -0.3097 -0.3928
   99TMC2    C4 1540   0.870   2.687   1.369 -0.4051 -0.0944  0.7240
   99TMC2    C5 1541   0.765   2.672   1.462 -0.3210  0.2393 -0.1636
   99TMC2    C6 1542   0.784   2.704   1.596 -0.4936 -0.0118 -0.1313
   99TMC2     C 1543   1.098   2.759   1.308  0.5428  0.3804 -0.4261
   99TMC2     O 1544   1.210   2.764   1.355 -0.2518 -0.3523  0.0053
   99TMC2     H 1545   1.104   2.806   1.571 -1.7340  1.5893  0.0346
   99TMC2    H1 1546   0.849   2.667   1.265  0.2952 -1.2552  0.8004
   99TMC2    H2 1547   0.706   2.686   1.669 -0.7959 -1.2069 -0.7369
   99TMC2    C7 1548   0.632   2.664   1.403 -0.1386  0.0701 -0.2528
   99TMC2    C8 1549   0.921   2.806   1.765  0.4829 -0.6573 -0.0545
   99TMC2    O1 1550   0.631   2.627   1.285 -0.4782 -0.0939 -0.5347
   99TMC2    O2 1551   0.819   2.845   1.822 -0.1505 -0.0141 -0.2827
   99TMC2    O5 1552   1.052   2.801   1.809  0.1009  0.3401  0.1681
   99TMC2    H5 1553   1.107   2.757   1.742  1.1173  1.5836  0.1913
  100MPD2     C 1554   1.293   2.790   1.082 -0.2379  0.4994  0.1597
  100MPD2    C1 1555   1.152   2.772   1.066  0.5528  0.1120  0.1322
  100MPD2    C2 1556   1.108   2.769   0.935  0.5601  0.6201 -0.7062
  100MPD2    C3 1557   1.200   2.775   0.824  0.5559 -0.2201  0.1270
  100MPD2    C4 1558   1.334   2.793   0.846  0.4096  0.8616 -0.6252
  100MPD2    C5 1559   1.376   2.799   0.976 -0.2328 -0.5448  0.1746
  100MPD2     H 1560   1.002   2.760   0.915  0.3231 -1.2805  1.5428
  100MPD2    H1 1561   1.409   2.802   0.769  0.4397  1.9215 -0.4843
  100MPD2    H2 1562   1.345   2.789   1.177  0.6008  0.3355 -0.2991
  100MPD2    H3 1563   1.480   2.807   1.006 -0.0296 -2.0546 -0.1067
  100MPD2     N 1564   1.151   2.769   0.691  0.5417 -0.0176 -0.2557
  100MPD2    H5 1565   1.052   2.749   0.682  0.8869  0.4199 -5.0022
  100MPD2    N1 1566   1.063   2.763   1.174  0.0031  0.9248  0.0387
  100MPD2    H7 1567   0.967   2.763   1.140  0.5920  1.4183 -1.6470
  101TMC2    C1 1568   1.116   4.453  12.849 -0.2772  0.1565  0.0476
  101TMC2    C2 1569   1.033   4.560  12.862 -0.5511 -0.3011 -0.2520
  101TMC2    C3 1570   1.078   4.677  12.809  0.0960  0.1681 -0.4676
  101TMC2    C4 1571   1.231   4.454  12.774  0.7197  0.0421  0.9778
  101TMC2    C5 1572   1.264   4.568  12.710  0.7232  0.5470 -0.0823
  101TMC2    C6 1573   1.193   4.683  12.733 -0.4215  0.0011 -0.2456
  101TMC2     C 1574   1.103   4.356  12.956 -0.3158 -0.5826 -0.0991
  101TMC2     O 1575   0.989   4.329  12.988 -1.1629  0.2398 -0.2082
  101TMC2     H 1576   0.955   4.555  12.937 -0.2985  0.7221  0.0751
  101TMC2    H1 1577   1.298   4.368  12.774  0.2641 -0.3084 -0.0708
  101TMC2    H2 1578   1.240   0.036  12.695 -0.5043 -0.7194 -2.0600
  101TMC2    C7 1579   1.372   4.576  12.615 -0.1806 -0.6837  0.7326
  101TMC2    C8 1580   1.020   0.059  12.854 -0.0041  0.2189  0.3426
  101TMC2    O1 1581   1.414   4.683  12.581  0.1856 -0.3543  0.0707
  101TMC2    O2 1582   0.962   0.079  12.960  0.8841  0.2921  0.3705
  101TMC2    O5 1583   1.004   0.131  12.740 -0.3005  0.3739 -0.0566
  101TMC2    H5 1584   1.037   0.095  12.655 -2.0368  0.9837 -0.9793
  102MPD2     C 1585   1.354   4.228  13.192  0.5692  0.1597  0.6880
  102MPD2    C1 1586   1.245   4.218  13.107 -0.0106 -0.3009 -0.1832
  102MPD2    C2 1587   1.157   4.113  13.118  0.4925 -0.0258 -0.2500
  102MPD2    C3 1588   1.160   4.026  13.223  0.4349 -0.5954 -0.1543
  102MPD2    C4 1589   1.265   4.032  13.310  0.8365 -0.3245  0.0772
  102MPD2    C5 1590   1.359   4.130  13.294  0.2273 -0.8822 -0.2016
  102MPD2     H 1591   1.078   4.107  13.044  0.7323 -0.0838 -0.5003
  102MPD2    H1 1592   1.281   3.960  13.390  0.8987  0.1375  0.4852
  102MPD2    H2 1593   1.424   4.308  13.173 -0.1060  0.3653 -0.9326
  102MPD2    H3 1594   1.437   4.128  13.369 -2.0297  1.0923  2.2037
  102MPD2     N 1595   1.059   3.928  13.226 -0.0757 -0.0499  0.5217
  102MPD2    H5 1596   1.002   3.914  13.144 -1.0234  1.5818  0.9086
  102MPD2    N1 1597   1.226   4.316  13.007 -0.3630  0.0785 -0.6193
  102MPD2    H7 1598   1.306   4.363  12.966  1.0818 -2.3485 -0.5625
  103TMC2    C1 1599   4.495   3.643  12.372 -0.4246  0.6933 -0.1834
  103TMC2    C2 1600   4.607   3.633  12.292 -0.3394  0.6745  0.6030
  103TMC2    C3 1601   4.706   3.723  12.311  0.2094  0.9835  0.4688
  103TMC2    C4 1602   4.478   3.756  12.449 -0.4384 -0.0238 -0.5023
  103TMC2    C5 1603   4.581   3.841  12.472 -0.0520 -0.6179 -0.6714
  103TMC2    C6 1604   4.693   3.823  12.402 -0.6454  1.4503 -0.2032
  103TMC2     C 1605   4.379   3.573  12.329  0.0848 -0.4095 -0.4031
  103TMC2     O 1606   4.271   3.636  12.319  0.4496  0.4171  0.0851
  103TMC2     H 1607   4.637   3.547  12.233  0.8353  0.5525  1.3776
  103TMC2    H1 1608   4.382   3.768  12.498 -0.1763  0.8527 -0.2047
  103TMC2    H2 1609   0.041   3.889  12.412 -0.9230  1.5521  1.4829
  103TMC2    C7 1610   4.580   3.973  12.544  1.0057  0.2108  0.2126
  103TMC2    C8 1611   0.049   3.753  12.197  1.0944 -0.0695  0.1739
  103TMC2    O1 1612   4.689   4.026  12.558 -0.1771 -0.4035  0.4911
  103TMC2    O2 1613   0.154   3.816  12.177 -0.1151  0.3359 -0.5657
  103TMC2    O5 1614   4.707   3.741  12.084  0.6637  0.3718 -0.1315
  103TMC2    H5 1615   4.640   3.671  12.095 -0.1892  0.9001 -1.8724
  104MPD2     C 1616   4.330   3.213  12.300  0.2027 -0.2907 -0.5836
  104MPD2    C1 1617   4.302   3.347  12.293 -0.3034  0.1816  0.6600
  104MPD2    C2 1618   4.174   3.382  12.250 -0.1823  0.1462  0.1452
  104MPD2    C3 1619   4.084   3.283  12.200 -0.3435 -0.1654 -0.3963
  104MPD2    C4 1620   4.119   3.153  12.212  0.2557  0.8669 -0.0689
  104MPD2    C5 1621   4.239   3.118  12.262  0.5563  0.2958 -0.6340
  104MPD2     H 1622   4.141   3.483  12.228  1.1793  0.4344 -0.5584
  104MPD2    H1 1623   4.053   3.074  12.176  0.5804  0.9880 -0.9372
  104MPD2    H2 1624   4.427   3.182  12.337  0.0517 -1.6291 -1.2921
  104MPD2    H3 1625   4.278   3.018  12.245 -1.4907 -0.5212 -0.5635
  104MPD2     N 1626   3.963   3.328  12.131  0.6774  0.2123  0.7377
  104MPD2    H5 1627   3.934   3.421  12.159 -0.3139 -0.3292  1.5049
  104MPD2    N1 1628   4.396   3.446  12.312  0.2395  0.3144 -0.3525
  104MPD2    H7 1629   4.488   3.411  12.334 -0.2009 -1.5762 -1.5340
  105TMC2    C1 1630   0.434   3.056  17.686  0.7005 -0.7602 -0.3879
  105TMC2    C2 1631   0.452   3.186  17.646 -0.1015  0.1832  0.1040
  105TMC2    C3 1632   0.466   3.284  17.744 -0.6145 -0.2907  0.0777
  105TMC2    C4 1633   0.408   3.016   0.069 -0.0646  1.1138  0.6522
  105TMC2    C5 1634   0.429   3.115   0.163 -0.2122  0.4722  0.3488
  105TMC2    C6 1635   0.446   3.246   0.137  0.2777  0.9008  0.1342
  105TMC2     C 1636   0.475   2.947  17.600 -0.4720  0.5106  0.4114
  105TMC2     O 1637   0.457   2.833  17.639  0.1043  0.5324  0.7291
  105TMC2     H 1638   0.455   3.209  17.540 -0.4434 -0.3006 -0.0113
  105TMC2    H1 1639   0.391   2.910   0.088 -1.0773  1.1559 -0.0330
  105TMC2    H2 1640   0.448   3.319   0.216  1.9774 -0.7453  1.6128
  105TMC2    C7 1641   0.505   3.055   0.274 -0.4169 -0.4601  0.2533
  105TMC2    C8 1642   0.431   3.419  17.697  0.0705 -0.4477  0.6117
  105TMC2    O1 1643   0.505   2.932   0.279  0.4659  0.2306 -0.8293
  105TMC2    O2 1644   0.457   3.458  17.590 -0.4462  0.1983  0.2055
  105TMC2    O5 1645   0.324   3.449   0.022  0.0555  0.3357  0.7276
  105TMC2    H5 1646   0.306   3.381   0.090 -1.8990  0.0137 -0.1128
  106MPD2     C 1647   0.753   2.756  17.212 -0.0099 -0.4417  0.3485
  106MPD2    C1 1648   0.781   2.892  17.228  0.6964 -0.8350  0.2439
  106MPD2    C2 1649   0.698   2.958  17.316  0.4031 -0.0747  0.5356
  106MPD2    C3 1650   0.597   2.902  17.394  0.3854  0.1145 -0.4272
  106MPD2    C4 1651   0.587   2.769  17.386  0.3059 -0.4222 -1.2059
  106MPD2    C5 1652   0.659   2.697  17.297 -1.1712  0.0006  0.2827
  106MPD2     H 1653   0.710   3.066  17.324 -0.9048  0.0595  0.6375
  106MPD2    H1 1654   0.521   2.714  17.453  1.5858 -0.1737  0.2532
  106MPD2    H2 1655   0.804   2.682  17.151  1.7262  0.4014  0.7864
  106MPD2    H3 1656   0.632   2.592  17.294 -0.6142 -0.2245  3.5430
  106MPD2     N 1657   0.546   2.987  17.490 -0.2486  0.8039 -0.1757
  106MPD2    H5 1658   0.565   3.086  17.487  1.8382  0.2790 -3.6229
  106MPD2    N1 1659   0.879   2.962  17.150 -0.0984  0.8259  0.0449
  106MPD2    H7 1660   0.872   3.061  17.169 -2.9881  1.1040 -2.4730
  107TMC2    C1 1661   1.615   2.752  11.224  0.4865  0.2613 -0.5890
  107TMC2    C2 1662   1.624   2.727  11.088 -0.2933  0.1319  0.6217
  107TMC2    C3 1663   1.736   2.664  11.041 -1.0494 -0.0567 -0.2943
  107TMC2    C4 1664   1.704   2.705  11.313 -0.0455  0.7048  0.2717
  107TMC2    C5 1665   1.812   2.640  11.262 -0.6963  0.0147 -0.9935
  107TMC2    C6 1666   1.835   2.622  11.128  0.1099  0.0164 -0.2849
  107TMC2     C 1667   1.487   2.808  11.276  0.0264 -0.3377 -0.7829
  107TMC2     O 1668   1.471   2.789  11.399  0.0186  0.0181 -0.9297
  107TMC2     H 1669   1.560   2.769  11.010  1.1662  1.3472  0.0648
  107TMC2    H1 1670   1.694   2.713  11.421 -1.6825  0.9942  0.0849
  107TMC2    H2 1671   1.909   2.552  11.089  1.4241  0.1596  1.9352
  107TMC2    C7 1672   1.913   2.594  11.347 -0.0279  0.4724 -0.1105
  107TMC2    C8 1673   1.733   2.620  10.896 -0.5665 -0.5761  0.6702
  107TMC2    O1 1674   1.870   2.529  11.443  0.0888 -0.0439  0.0675
  107TMC2    O2 1675   1.633   2.625  10.829  0.9481 -0.0479 -0.3497
  107TMC2    O5 1676   1.856   2.666  10.856  0.0358  0.2498  0.0938
  107TMC2    H5 1677   1.907   2.689  10.936  1.0505  2.4670 -1.1846
  108MPD2     C 1678   1.192   2.884  11.083 -0.1457  0.2280  0.0081
  108MPD2    C1 1679   1.271   2.887  11.193  0.5518  0.5294  0.7877
  108MPD2    C2 1680   1.231   2.942  11.308 -0.3649 -0.5397  0.6633
  108MPD2    C3 1681   1.108   2.992  11.324 -0.1841 -0.0276  0.9157
  108MPD2    C4 1682   1.033   3.014  11.202  0.3459  0.7082 -0.7430
  108MPD2    C5 1683   1.076   2.955  11.091  0.5681  0.0604  0.3761
  108MPD2     H 1684   1.297   2.950  11.394  1.1720 -0.6986 -0.4960
  108MPD2    H1 1685   0.931   3.051  11.206  0.7267  1.6897  0.1473
  108MPD2    H2 1686   1.223   2.828  10.995 -2.0434 -0.3364 -0.2871
  108MPD2    H3 1687   1.007   2.941  11.008  0.8864  0.7463 -0.0053
  108MPD2     N 1688   1.046   3.017  11.445  0.0459 -0.1744 -0.1302
  108MPD2    H5 1689   0.955   3.061  11.437  0.8430  1.6735  0.9685
  108MPD2    N1 1690   1.400   2.841  11.177 -0.1371 -0.4527 -0.9484
  108MPD2    H7 1691   1.425   2.818  11.081 -1.5493 -2.4408 -0.8231
  109TMC2    C1 1692   1.539   4.600  17.696 -0.2559  0.5397  0.2680
  109TMC2    C2 1693   1.556   4.549  17.567 -0.5075 -0.0633 -0.3028
  109TMC2    C3 1694   1.681   4.556  17.514  0.2943 -0.1286  0.1752
  109TMC2    C4 1695   1.647   4.660   0.011  0.3550 -0.0868  0.0907
  109TMC2    C5 1696   1.773   4.669  17.695 -0.6582 -0.0184  0.7488
  109TMC2    C6 1697   1.790   4.609  17.573 -0.1671 -0.9634 -0.1433
  109TMC2     C 1698   1.412   4.563   0.007 -0.0967 -0.9796  0.2084
  109TMC2     O 1699   1.318   4.550  17.676 -0.3108 -0.2223  0.3537
  109TMC2     H 1700   1.476   4.501  17.511 -2.1703  1.8134  0.4204
  109TMC2    H1 1701   1.641   4.701   0.111 -3.6230 -0.4767 -0.0100
  109TMC2    H2 1702   1.892   4.614  17.538 -0.2027  2.5573  0.3224
  109TMC2    C7 1703   1.885   4.717   0.024  0.1438 -0.1969  0.2868
  109TMC2    C8 1704   1.691   4.530  17.371 -0.2183  0.6663  0.6460
  109TMC2    O1 1705   1.996   4.667   0.003 -0.0486  0.2684 -0.2703
  109TMC2    O2 1706   1.598   4.568  17.303  0.5172 -0.3973  0.6345
  109TMC2    O5 1707   1.820   4.506  17.345 -0.8598  0.4252 -0.1400
  109TMC2    H5 1708   1.862   4.464  17.423 -1.4033  0.0896 -0.0246
  110MPD2     C 1709   1.090   4.546   0.401  0.2298  0.0097 -0.8203
  110MPD2    C1 1710   1.217   4.523   0.449  0.0584  0.2632 -0.1348
  110MPD2    C2 1711   1.324   4.514   0.368 -0.5966  0.2071 -0.1148
  110MPD2    C3 1712   1.304   4.536   0.229 -0.0710 -0.0433 -0.2276
  110MPD2    C4 1713   1.180   4.566   0.182 -0.4229  0.8943 -0.0961
  110MPD2    C5 1714   1.078   4.568   0.266  0.1900 -0.4496  0.4314
  110MPD2     H 1715   1.421   4.511   0.416 -0.6613  2.5960  0.1356
  110MPD2    H1 1716   1.151   4.585   0.079  1.1849  0.0388 -0.7157
  110MPD2    H2 1717   1.001   4.557   0.462  1.9053  1.4834  1.4023
  110MPD2    H3 1718   0.985   4.602   0.221  1.5523  1.9685 -0.5949
  110MPD2     N 1719   1.423   4.549   0.141 -0.0793 -0.0477  0.0152
  110MPD2    H5 1720   1.518   4.548   0.177  0.0431 -0.7052 -0.3153
  110MPD2    N1 1721   1.230   4.523   0.590 -0.0307 -0.9822  0.1071
  110MPD2    H7 1722   1.144   4.543   0.640  1.8744  2.3189  2.0134
  111TMC2    C1 1723   1.237   0.382  11.474 -0.1275  0.4634 -0.1286
  111TMC2    C2 1724   1.139   0.409  11.569 -0.2314 -0.0254  1.1705
  111TMC2    C3 1725   1.190   0.455  11.689  0.5104 -0.7897  0.0302
  111TMC2    C4 1726   1.372   0.389  11.497  0.3374 -0.0414 -0.6842
  111TMC2    C5 1727   1.409   0.431  11.619 -0.7152  0.3150  0.7707
  111TMC2    C6 1728   1.323   0.465  11.718  0.2958 -1.0494 -0.9054
  111TMC2     C 1729   1.207   0.295  11.361 -0.2279  0.4064 -0.1274
  111TMC2     O 1730   1.279   0.300  11.262  0.2851  0.2154 -0.8848
  111TMC2     H 1731   1.035   0.428  11.547  0.1802  1.5884  0.6583
  111TMC2    H1 1732   1.443   0.342  11.431 -0.9140 -1.6674 -0.8906
  111TMC2    H2 1733   1.356   0.509  11.812 -0.4579 -1.9165 -0.2333
  111TMC2    C7 1734   1.536   0.389  11.658 -0.1379 -0.3518 -0.0737
  111TMC2    C8 1735   1.109   0.538  11.780  0.1019  0.2400 -0.1560
  111TMC2    O1 1736   1.540   0.380  11.780 -0.2213 -0.3827 -0.2759
  111TMC2    O2 1737   1.153   0.624  11.847  0.1069  0.2007 -0.1191
  111TMC2    O5 1738   0.982   0.513  11.756 -0.5857 -0.1502  0.3800
  111TMC2    H5 1739   0.955   0.428  11.714 -0.9121  0.3137 -0.3575
  112MPD2     C 1740   0.904   4.662  11.183  0.0914  0.6389 -0.8476
  112MPD2    C1 1741   0.991   0.002  11.111  0.2713 -0.3273 -0.1269
  112MPD2    C2 1742   1.054   0.102  11.184 -0.5252 -0.0958 -0.7390
  112MPD2    C3 1743   1.032   0.126  11.319  0.1173 -0.6929  0.9007
  112MPD2    C4 1744   0.949   0.043  11.385 -0.1540  0.1868 -0.5813
  112MPD2    C5 1745   0.893   4.678  11.318 -0.4807  0.4683 -0.1106
  112MPD2     H 1746   1.131   0.164  11.139  0.4226 -0.7044  0.0246
  112MPD2    H1 1747   0.937   0.048  11.493  0.0882 -1.3516 -0.4831
  112MPD2    H2 1748   0.850   4.583  11.131 -0.8144  1.5694 -1.3035
  112MPD2    H3 1749   0.814   4.617  11.361  2.5236 -2.8912  0.6107
  112MPD2     N 1750   1.099   0.218  11.402  0.7116  0.2529 -0.2975
  112MPD2    H5 1751   1.068   0.224  11.498 -0.6993  0.1240 -0.7495
  112MPD2    N1 1752   1.032   4.711  10.977  0.7892  0.3153 -0.0773
  112MPD2    H7 1753   1.106   0.030  10.936 -0.5076  2.2291  0.1897
  113TMC2    C1 1754   4.546   2.715   0.450  0.7960 -0.5566  0.1673
  113TMC2    C2 1755   4.462   2.818   0.409  0.1094  0.1448 -0.2234
  113TMC2    C3 1756   4.361   2.795   0.322  0.7240  0.2079 -0.0499
  113TMC2    C4 1757   4.528   2.588   0.404  0.3132 -0.0522 -0.4279
  113TMC2    C5 1758   4.424   2.569   0.315 -0.6848  0.3493 -1.0166
  113TMC2    C6 1759   4.340   2.673   0.279  0.2423  0.7344  0.1711
  113TMC2     C 1760   4.621   2.728   0.581 -0.0248 -1.0006  0.2438
  113TMC2     O 1761   4.585   2.829   0.642  0.6181  0.1884 -0.0421
  113TMC2     H 1762   4.476   2.916   0.451  1.2650  0.6509 -1.7857
  113TMC2    H1 1763   4.594   2.507   0.431  0.2591  0.4042  1.0867
  113TMC2    H2 1764   4.254   2.654   0.215  1.4977  2.4124 -2.0174
  113TMC2    C7 1765   4.367   2.432   0.298  0.2696  0.0020 -0.0321
  113TMC2    C8 1766   4.258   2.898   0.323  0.3376  0.6430 -0.0093
  113TMC2    O1 1767   4.254   2.406   0.262  0.2958  0.2484 -0.1009
  113TMC2    O2 1768   4.213   2.932   0.432  0.6865  0.6177  0.0879
  113TMC2    O5 1769   4.180   2.892   0.214  0.4782  0.6728  0.5537
  113TMC2    H5 1770   4.227   2.863   0.133  0.1791 -1.2159  1.0708
  114MPD2     C 1771   0.292   2.620   0.845  0.3084  0.4890  0.1863
  114MPD2    C1 1772   0.205   2.719   0.879  0.0452  0.1634  0.3193
  114MPD2    C2 1773   0.094   2.724   0.793  0.0813 -0.1244 -0.0016
  114MPD2    C3 1774   0.084   2.638   0.682  0.5041  0.8026 -0.0408
  114MPD2    C4 1775   0.184   2.549   0.660  0.2860  0.4220  0.7421
  114MPD2    C5 1776   0.293   2.534   0.741 -0.6427  0.2428 -0.4588
  114MPD2     H 1777   0.016   2.799   0.802  1.8819  1.7466  0.1606
  114MPD2    H1 1778   0.169   2.469   0.589 -0.5878  2.7723 -1.7336
  114MPD2    H2 1779   0.384   2.602   0.900  1.0137  1.0623 -0.8045
  114MPD2    H3 1780   0.373   2.463   0.722 -2.0164 -0.3308 -4.1875
  114MPD2     N 1781   4.720   2.635   0.591  0.2140 -0.0246 -0.0063
  114MPD2    H5 1782   4.714   2.567   0.516  0.5692 -1.8661  1.6357
  114MPD2    N1 1783   0.217   2.810   0.980  0.8141  0.3252  0.4602
  114MPD2    H7 1784   0.160   2.894   0.985  1.4080  0.6174  2.1712
  115TMC2    C1 1785   0.382   0.151  17.331  0.1535  0.9606  0.1515
  115TMC2    C2 1786   0.496   0.113  17.394  0.1802 -0.4138  0.2886
  115TMC2    C3 1787   0.589   0.208  17.434  0.5095 -0.2052  0.2222
  115TMC2    C4 1788   0.358   0.283  17.304  0.5151  0.1177 -0.0717
  115TMC2    C5 1789   0.450   0.379  17.345  0.4390 -0.5140  0.0995
  115TMC2    C6 1790   0.558   0.333  17.423 -0.0087 -0.0367 -0.1692
  115TMC2     C 1791   0.280   0.045  17.322 -0.4778 -0.1712  1.1007
  115TMC2     O 1792   0.326   4.672  17.321  0.5216  0.0560 -0.9730
  115TMC2     H 1793   0.510   0.008  17.418 -1.0680  0.2045  3.6699
  115TMC2    H1 1794   0.271   0.323  17.252  0.2324  1.4622  1.4531
  115TMC2    H2 1795   0.616   0.411  17.470 -3.0186  2.4365 -0.5842
  115TMC2    C7 1796   0.412   0.517  17.358  0.2671  0.3982 -0.4075
  115TMC2    C8 1797   0.667   0.172  17.552  0.0649 -0.5864  0.5259
  115TMC2    O1 1798   0.293   0.537  17.376  0.2315  0.0956  0.5765
  115TMC2    O2 1799   0.679   0.245  17.649 -0.2462  0.3383 -0.2290
  115TMC2    O5 1800   0.694   0.040  17.539 -0.3749 -0.7025 -0.2044
  115TMC2    H5 1801   0.695   0.010  17.445 -2.1513 -2.8650  0.4692
  116MPD2     C 1802   4.543   4.612  17.279 -0.4162 -0.8197  0.2771
  116MPD2    C1 1803   4.662   4.546  17.242 -0.0445  0.2645 -0.1637
  116MPD2    C2 1804   0.042   4.613  17.260 -0.2894  0.0579 -0.3200
  116MPD2    C3 1805   0.040   0.010  17.301 -0.0290  0.1185 -0.0516
  116MPD2    C4 1806   4.659   0.074  17.335  0.4578 -0.2987 -0.8526
  116MPD2    C5 1807   4.545   0.008  17.321 -0.7332 -0.4991 -0.7284
  116MPD2     H 1808   0.138   4.565  17.244 -0.0761  0.0159  1.0309
  116MPD2    H1 1809   4.659   0.180  17.357  0.7529 -0.3350 -0.6701
  116MPD2    H2 1810   4.449   4.559  17.267 -0.4659  0.0638 -3.2079
  116MPD2    H3 1811   4.449   0.045  17.355 -0.3515  0.1438 -0.3510
  116MPD2     N 1812   0.152   0.086  17.336  0.5855 -0.1592  0.2443
  116MPD2    H5 1813   0.137   0.186  17.349 -0.6164 -0.0203 -2.0704
  116MPD2    N1 1814   4.649   4.415  17.181 -0.5747 -0.0789  0.0373
  116MPD2    H7 1815   4.556   4.377  17.165  0.1620 -1.9085  0.0896
  117TMC2    C1 1816   3.685   1.865  14.121  0.6469 -0.7227 -0.5190
  117TMC2    C2 1817   3.778   1.768  14.105  0.3393 -0.2708 -0.2826
  117TMC2    C3 1818   3.905   1.800  14.094  0.6639  1.1735  0.5720
  117TMC2    C4 1819   3.718   1.997  14.121 -0.7065 -0.9198  0.4347
  117TMC2    C5 1820   3.851   2.019  14.103 -0.3426  0.5853  0.5739
  117TMC2    C6 1821   3.950   1.931  14.093 -0.5261 -0.2436  0.5733
  117TMC2     C 1822   3.547   1.814  14.144  0.4305 -0.0450  0.2925
  117TMC2     O 1823   3.536   1.699  14.179 -0.0617 -0.3755  0.1173
  117TMC2     H 1824   3.756   1.664  14.122 -1.7335  0.1415 -0.4273
  117TMC2    H1 1825   3.652   2.074  14.160  1.1317  0.0345  1.6621
  117TMC2    H2 1826   4.055   1.957  14.102 -0.3071 -0.9554  0.1874
  117TMC2    C7 1827   3.897   2.151  14.072  0.0648  0.4377  0.3633
  117TMC2    C8 1828   3.996   1.696  14.063 -0.0743  0.1788  0.4626
  117TMC2    O1 1829   4.017   2.169  14.084  0.5054  0.4959 -0.1760
  117TMC2    O2 1830   3.950   1.594  14.010 -0.2280 -0.1326 -0.2094
  117TMC2    O5 1831   4.120   1.742  14.040  0.3950  0.7856 -0.3923
  117TMC2    H5 1832   4.150   1.800  14.113 -2.5627  0.3098  1.1729
  118MPD2     C 1833   3.686   2.438  13.994 -0.1502  0.2306 -0.0001
  118MPD2    C1 1834   3.805   2.367  14.008 -0.5111  0.2756  0.0206
  118MPD2    C2 1835   3.925   2.429  13.997  0.0563  0.2653 -0.0227
  118MPD2    C3 1836   3.929   2.562  13.966 -0.6505  0.3479  0.6235
  118MPD2    C4 1837   3.810   2.641  13.958 -0.2041  0.2208  0.1752
  118MPD2    C5 1838   3.686   2.573  13.963 -0.1650  0.9452  0.8971
  118MPD2     H 1839   4.021   2.383  14.018  0.8642  0.1667 -4.0832
  118MPD2    H1 1840   3.807   2.745  13.929 -2.0552 -0.1720 -1.0273
  118MPD2    H2 1841   3.589   2.391  14.003  0.0442 -0.1389  0.1783
  118MPD2    H3 1842   3.589   2.618  13.951 -0.6473  0.6876  3.6497
  118MPD2     N 1843   4.048   2.631  13.950  0.5836  0.0207 -0.5111
  118MPD2    H5 1844   4.039   2.729  13.924  0.4337  0.5419  1.5520
  118MPD2    N1 1845   3.790   2.232  14.043 -0.2711  0.4282 -0.5276
  118MPD2    H7 1846   3.699   2.188  14.039 -0.1597  0.3817 -2.4324
  119TMC2    C1 1847   2.356   3.385  12.746  0.1770 -0.1870  0.6444
  119TMC2    C2 1848   2.441   3.384  12.631  0.2207 -0.1027 -0.2091
  119TMC2    C3 1849   2.389   3.306  12.526 -0.0168  0.5909 -0.8219
  119TMC2    C4 1850   2.247   3.303  12.760 -0.0672  0.1257  0.5180
  119TMC2    C5 1851   2.204   3.233  12.652 -0.1639 -0.6579  0.8258
  119TMC2    C6 1852   2.282   3.221  12.541 -0.1750  0.3258  0.2137
  119TMC2     C 1853   2.414   3.413  12.880  0.5796 -0.0298  0.6876
  119TMC2     O 1854   2.332   3.445  12.968 -0.2079  0.9161 -0.1007
  119TMC2     H 1855   2.537   3.433  12.624  0.6343 -0.7814  0.5856
  119TMC2    H1 1856   2.183   3.311  12.848  0.1235 -0.0115  0.6690
  119TMC2    H2 1857   2.236   3.164  12.461  0.7927 -0.4378  0.1928
  119TMC2    C7 1858   2.092   3.136  12.673 -0.3987 -0.2070  0.0318
  119TMC2    C8 1859   2.468   3.288  12.403  0.3823  0.0842 -0.1644
  119TMC2    O1 1860   2.042   3.082  12.570  0.0963 -0.2877  0.4885
  119TMC2    O2 1861   2.477   3.184  12.345 -0.2007 -0.2465 -0.2360
  119TMC2    O5 1862   2.535   3.405  12.378 -0.1594 -0.3028 -0.6556
  119TMC2    H5 1863   2.500   3.485  12.422 -0.1742 -1.7643  1.9775
  120MPD2     C 1864   2.774   3.383  13.236  0.7656  0.1607  0.7650
  120MPD2    C1 1865   2.652   3.448  13.240  0.9024 -0.3145 -0.5882
  120MPD2    C2 1866   2.576   3.456  13.116  0.2962  0.0554 -0.2173
  120MPD2    C3 1867   2.622   3.395  13.004  0.3086  0.6143  0.3929
  120MPD2    C4 1868   2.740   3.337  12.998  0.5471 -0.3138 -0.6202
  120MPD2    C5 1869   2.815   3.331  13.114 -0.2456 -0.6509  0.1349
  120MPD2     H 1870   2.480   3.506  13.112  0.2129 -0.1659 -1.0293
  120MPD2    H1 1871   2.781   3.292  12.908  0.7968 -2.6470  0.6658
  120MPD2    H2 1872   2.837   3.381  13.324  1.8700 -2.4853 -0.1008
  120MPD2    H3 1873   2.912   3.283  13.110  0.3246  0.3943  1.2359
  120MPD2     N 1874   2.547   3.387  12.882 -0.5836  0.4831 -0.5555
  120MPD2    H5 1875   2.597   3.347  12.803 -0.9653 -1.3165  0.1419
  120MPD2    N1 1876   2.594   3.478  13.363  0.1444  0.2492  0.6804
  120MPD2    H7 1877   2.638   3.464  13.453  1.0770 -2.1009 -0.1550
  121TMC2    C1 1878   3.722   4.499  14.249 -0.5509  0.3089  0.0410
  121TMC2    C2 1879   3.704   4.391  14.333 -0.1035 -0.2159 -0.6436
  121TMC2    C3 1880   3.580   4.364  14.369 -0.7715 -0.6014 -0.1180
  121TMC2    C4 1881   3.621   4.586  14.211 -0.1474 -0.0626 -0.1280
  121TMC2    C5 1882   3.490   4.546  14.250  0.0247 -0.9654 -0.2306
  121TMC2    C6 1883   3.473   4.439  14.336 -0.6867  0.1570  0.1794
  121TMC2     C 1884   3.860   4.536  14.226 -0.1331 -0.5561  0.2896
  121TMC2     O 1885   3.946   4.470  14.281  0.0589 -0.0146  0.3955
  121TMC2     H 1886   3.786   4.342  14.386  0.6380  1.1737 -0.5046
  121TMC2    H1 1887   3.624   4.663  14.134  3.1553 -1.3211 -1.2447
  121TMC2    H2 1888   3.374   4.400  14.357 -1.5910  1.8664 -0.8911
  121TMC2    C7 1889   3.394   4.656  14.255 -0.6136 -0.0341  0.6505
  121TMC2    C8 1890   3.549   4.225  14.347 -0.4249  0.5619 -0.4204
  121TMC2    O1 1891   3.438   0.032  14.234 -0.1657 -0.0334  0.7677
  121TMC2    O2 1892   3.526   4.177  14.235  0.1360 -0.6429 -0.2690
  121TMC2    O5 1893   3.626   4.155  14.431  0.1366 -0.2581  0.6344
  121TMC2    H5 1894   3.667   4.206  14.505  0.7472 -0.2267  0.2787
  122MPD2     C 1895   4.129   4.616  14.108  0.1988  0.2486 -0.5223
  122MPD2    C1 1896   4.007   4.678  14.082 -0.2762 -0.4495  0.1550
  122MPD2    C2 1897   3.998   0.043  13.987  0.3185  0.8270  0.4918
  122MPD2    C3 1898   4.110   0.066  13.902 -0.1567 -0.3757  0.1801
  122MPD2    C4 1899   4.227   0.004  13.934 -0.1137 -0.0776 -0.4199
  122MPD2    C5 1900   4.235   4.655  14.042 -0.9103 -0.8239  0.2578
  122MPD2     H 1901   3.907   0.100  13.973  0.1202 -0.1695 -2.2842
  122MPD2    H1 1902   4.320   0.033  13.885 -0.5712  0.2702 -1.0835
  122MPD2    H2 1903   4.145   4.538  14.181  1.5818  0.7211 -0.3225
  122MPD2    H3 1904   4.335   4.619  14.061  0.6325  2.7867 -0.8947
  122MPD2     N 1905   4.109   0.158  13.799  0.2174  0.6357  0.3428
  122MPD2    H5 1906   4.199   0.169  13.752  0.9342 -0.5295  1.4272
  122MPD2    N1 1907   3.881   4.644  14.141 -0.4618  0.0872  0.1321
  122MPD2    H7 1908   3.798   4.693  14.108 -0.4748  0.9359  1.4029
  123TMC2    C1 1909   2.551   3.893   9.565  0.4241 -0.0781  0.5419
  123TMC2    C2 1910   2.675   3.940   9.601 -0.2718 -0.3039  0.0126
  123TMC2    C3 1911   2.778   3.910   9.517  0.0402 -0.1041  0.2009
  123TMC2    C4 1912   2.532   3.816   9.454 -0.2224  0.4971  0.3917
  123TMC2    C5 1913   2.641   3.771   9.380 -0.6454 -0.2595  0.2887
  123TMC2    C6 1914   2.767   3.827   9.409 -0.2466  0.2102  0.1814
  123TMC2     C 1915   2.457   3.877   9.671  0.0383  0.0787  0.0513
  123TMC2     O 1916   2.436   3.974   9.741  0.0184 -0.5128  0.2957
  123TMC2     H 1917   2.696   3.988   9.696 -0.5769  1.3260 -0.7351
  123TMC2    H1 1918   2.431   3.790   9.425  0.3564 -0.4225 -0.7853
  123TMC2    H2 1919   2.854   3.793   9.354  0.4916 -0.5570  1.8194
  123TMC2    C7 1920   2.631   3.631   9.366  0.3442 -0.1195 -0.2024
  123TMC2    C8 1921   2.915   3.922   9.564  0.0020 -0.1491 -0.8277
  123TMC2    O1 1922   2.517   3.588   9.386 -0.1763  0.0388  0.4041
  123TMC2    O2 1923   3.011   3.848   9.545  0.2864 -0.1581 -0.0237
  123TMC2    O5 1924   2.922   4.032   9.649  0.0127 -0.5282 -0.1064
  123TMC2    H5 1925   2.839   4.085   9.655  0.1410 -0.2146 -1.0977
  124MPD2     C 1926   2.156   3.587   9.985  0.0165 -0.2110 -0.6363
  124MPD2    C1 1927   2.201   3.508   9.885  0.0120 -0.3082 -0.8339
  124MPD2    C2 1928   2.271   3.565   9.781 -0.5889  0.1387  0.3768
  124MPD2    C3 1929   2.318   3.700   9.784 -0.1951  0.3025  0.0934
  124MPD2    C4 1930   2.269   3.780   9.889  0.2252 -0.9610  0.4393
  124MPD2    C5 1931   2.195   3.722   9.993  0.5252 -0.0805  0.5979
  124MPD2     H 1932   2.302   3.509   9.694 -1.4375  1.3770 -0.7301
  124MPD2    H1 1933   2.296   3.884   9.903  1.6628 -1.0421 -1.7238
  124MPD2    H2 1934   2.105   3.543  10.069  0.8359 -0.2772 -0.1651
  124MPD2    H3 1935   2.157   3.782  10.075  1.8915  0.0805  1.1186
  124MPD2     N 1936   2.420   3.746   9.690  0.7014  0.0844  0.3604
  124MPD2    H5 1937   2.458   3.685   9.618  0.0470  1.2988 -1.0037
  124MPD2    N1 1938   2.172   3.368   9.892 -0.1985  0.5472 -0.8445
  124MPD2    H7 1939   2.121   3.346   9.976  2.5744  0.0708  0.7167
  125TMC2    C1 1940   1.802   3.691   9.910 -0.1892 -0.1371  0.0760
  125TMC2    C2 1941   1.756   3.577   9.970  0.1037 -0.1429  0.4554
  125TMC2    C3 1942   1.779   3.458   9.909 -0.0928 -0.2112  0.1041
  125TMC2    C4 1943   1.874   3.689   9.792 -0.2742  0.2648  0.2847
  125TMC2    C5 1944   1.910   3.567   9.741 -0.3007  1.0882  0.1500
  125TMC2    C6 1945   1.860   3.453   9.798 -0.1243 -0.2843  0.2579
  125TMC2     C 1946   1.817   3.800  10.005 -0.0391 -0.1350 -0.2504
  125TMC2     O 1947   1.847   3.774  10.123 -0.1953 -0.9018  0.0858
  125TMC2     H 1948   1.712   3.574  10.069  0.0669 -0.3454  0.4326
  125TMC2    H1 1949   1.906   3.783   9.750  1.4262 -0.6275 -0.4067
  125TMC2    H2 1950   1.878   3.358   9.749  1.5892  0.7285 -1.0283
  125TMC2    C7 1951   1.975   3.554   9.612  0.1959  0.5464 -0.4019
  125TMC2    C8 1952   1.692   3.351   9.943  0.2723  0.0188  0.5151
  125TMC2    O1 1953   1.992   3.443   9.567  0.0851 -0.0220  0.4355
  125TMC2    O2 1954   1.613   3.358  10.034 -0.3107  0.2542  0.3055
  125TMC2    O5 1955   1.782   3.248   9.923  0.2236  0.4002 -0.1911
  125TMC2    H5 1956   1.740   3.172   9.968  2.0591  0.3969  1.5156
  126MPD1     C 1957   1.950   4.297  10.101  0.3299  0.0637 -0.9007
  126MPD1    C1 1958   1.916   4.288   9.969  0.0521  0.3672 -0.0128
  126MPD1    C2 1959   1.890   4.159   9.917  0.5290  0.4876 -0.6500
  126MPD1    C3 1960   1.881   4.050  10.002 -0.0845 -0.4691 -0.4377
  126MPD1    C4 1961   1.926   4.064  10.135  0.4711 -0.3503 -0.5054
  126MPD1    C5 1962   1.958   4.185  10.180  0.1478  0.0237 -0.5996
  126MPD1     H 1963   1.861   4.143   9.814  1.1719 -0.6332 -0.6608
  126MPD1    H1 1964   1.915   3.977  10.199  1.1180  0.3801  0.5983
  126MPD1    H2 1965   1.968   4.393  10.148 -1.6315 -0.2370  0.4759
  126MPD1    H3 1966   1.977   4.199  10.285 -1.1841  0.3878 -0.3968
  126MPD1     N 1967   1.833   3.927   9.941  0.1908 -0.1643  1.0925
  126MPD1    H5 1968   1.799   3.927   9.845 -0.4004 -1.9219  1.3024
  126MPD1    N1 1969   1.922   4.392   9.874  0.2006  0.4089 -0.3781
  126MPD1    H6 1970   1.863   4.377   9.793  2.5292  1.3282 -2.2185
  126MPD1    H7 1971   1.894   4.484   9.910 -0.6021 -0.7629  2.0052
  127TMC2    C1 1972   3.654   3.361   9.546  0.5089  0.4851  0.3392
  127TMC2    C2 1973   3.752   3.268   9.565  0.5138  1.0179 -0.2429
  127TMC2    C3 1974   3.718   3.134   9.581  0.4212  0.4777 -0.4012
  127TMC2    C4 1975   3.517   3.326   9.552 -0.6562  0.2651  1.4048
  127TMC2    C5 1976   3.489   3.191   9.567 -0.7958 -0.7813 -0.2755
  127TMC2    C6 1977   3.587   3.098   9.581  0.0698  0.0942 -0.3996
  127TMC2     C 1978   3.684   3.500   9.514  0.3302  0.4328  0.9796
  127TMC2     O 1979   3.585   3.572   9.508 -0.3639  0.1840 -0.4747
  127TMC2     H 1980   3.860   3.275   9.559  0.5975 -0.4827 -0.6735
  127TMC2    H1 1981   3.442   3.402   9.532 -1.2212 -0.3889  1.0604
  127TMC2    H2 1982   3.561   2.994   9.568  0.6165  0.2476 -2.8407
  127TMC2    C7 1983   3.361   3.152   9.611 -0.3292  0.0829  0.2397
  127TMC2    C8 1984   3.829   3.035   9.590 -0.7418 -0.6653  0.0762
  127TMC2    O1 1985   3.264   3.229   9.600 -0.0038 -0.1031 -0.1709
  127TMC2    O2 1986   3.927   3.048   9.521  0.4167 -0.6251  0.3253
  127TMC2    O5 1987   3.784   2.921   9.638 -0.0556 -0.2782 -0.3887
  127TMC2    H5 1988   3.709   2.938   9.698  1.1678 -2.7312  1.8431
  128MPD2     C 1989   4.023   3.654   9.534  0.4975 -0.0323 -0.5802
  128MPD2    C1 1990   3.888   3.651   9.528 -0.2687 -0.0745  0.5243
  128MPD2    C2 1991   3.820   3.770   9.543 -0.4825 -0.3378 -0.3481
  128MPD2    C3 1992   3.881   3.891   9.588 -0.2999 -1.0878  0.2484
  128MPD2    C4 1993   4.018   3.892   9.600 -0.2224  0.1482  0.6511
  128MPD2    C5 1994   4.082   3.772   9.566  0.1280 -0.2989  0.0307
  128MPD2     H 1995   3.713   3.771   9.531 -0.7092 -0.7739  1.6911
  128MPD2    H1 1996   4.074   3.981   9.627 -0.9735  1.4375 -2.0233
  128MPD2    H2 1997   4.083   3.565   9.515  0.0716 -0.9778  2.5444
  128MPD2    H3 1998   4.189   3.764   9.578  0.3334  3.1528  0.3520
  128MPD2     N 1999   3.794   3.999   9.611 -0.6107  0.6170  0.6217
  128MPD2    H5 2000   3.695   3.985   9.592 -0.1110 -0.6270 -1.0856
  128MPD2    N1 2001   3.824   3.523   9.511  0.9020 -0.2443 -0.2627
  128MPD2    H7 2002   3.891   3.450   9.532 -1.2857 -1.7574  1.4602
  129TMC2    C1 2003   3.234   3.783   1.194 -0.8005  0.1586 -0.1632
  129TMC2    C2 2004   3.222   3.869   1.300  0.2382 -0.0069  0.2480
  129TMC2    C3 2005   3.138   3.832   1.404 -0.6359  0.5571 -0.7048
  129TMC2    C4 2006   3.158   3.667   1.194  0.7554 -0.5995  0.3067
  129TMC2    C5 2007   3.066   3.645   1.290  0.3837  0.4856  0.0780
  129TMC2    C6 2008   3.047   3.730   1.395  0.6200 -1.0076 -0.2709
  129TMC2     C 2009   3.309   3.810   1.069  0.2474  0.5509 -0.1670
  129TMC2     O 2010   3.317   3.722   0.981  0.4237 -0.1184 -0.3126
  129TMC2     H 2011   3.281   3.958   1.316 -0.2705  0.2484  0.7079
  129TMC2    H1 2012   3.170   3.594   1.115  1.6859 -1.9351  1.6898
  129TMC2    H2 2013   2.968   3.710   1.467  2.5844  0.7638  2.3649
  129TMC2    C7 2014   2.983   3.527   1.290  0.7057 -0.1496  0.2071
  129TMC2    C8 2015   3.121   3.923   1.519 -0.0217 -0.2830  0.4451
  129TMC2    O1 2016   2.870   3.538   1.331 -0.2412  0.0205 -0.2259
  129TMC2    O2 2017   3.140   4.043   1.508  0.6063  0.3199 -0.5302
  129TMC2    O5 2018   3.072   3.851   1.623  0.1874 -0.6655  0.1526
  129TMC2    H5 2019   3.098   3.757   1.613  0.1102 -0.3804 -2.7629
  130MPD2     C 2020   3.404   3.947   0.837 -0.2083  0.3386 -0.1727
  130MPD2    C1 2021   3.426   3.988   0.968 -0.1543  0.4246 -1.1504
  130MPD2    C2 2022   3.489   4.110   0.986 -0.5524  0.7925  0.2889
  130MPD2    C3 2023   3.523   4.192   0.883 -0.6571  0.3279 -0.0127
  130MPD2    C4 2024   3.500   4.155   0.755  0.0413 -0.7716  0.1400
  130MPD2    C5 2025   3.439   4.034   0.737 -0.4457  0.5132  1.4799
  130MPD2     H 2026   3.505   4.142   1.088 -0.6078  1.7195  0.0094
  130MPD2    H1 2027   3.518   4.225   0.674  0.2481  0.0725  0.9175
  130MPD2    H2 2028   3.385   3.845   0.805 -2.0039  0.8337 -0.6328
  130MPD2    H3 2029   3.426   4.007   0.632 -0.2950  0.1337  1.5596
  130MPD2     N 2030   3.571   4.320   0.913 -0.9877  0.2788  0.1617
  130MPD2    H5 2031   3.581   4.344   1.011 -0.9204  0.3568  0.1353
  130MPD2    N1 2032   3.371   3.931   1.082 -0.7154 -0.3820  0.0397
  130MPD2    H7 2033   3.362   3.991   1.163  1.1011 -1.0308  0.7203
  131TMC2    C1 2034   1.553   3.641   9.480 -0.2623 -0.0951 -0.2804
  131TMC2    C2 2035   1.526   3.738   9.562 -1.0697  0.0703  0.1412
  131TMC2    C3 2036   1.591   3.859   9.544  0.3938  0.2763  0.4706
  131TMC2    C4 2037   1.647   3.651   9.388  0.3785 -0.2875 -0.4870
  131TMC2    C5 2038   1.719   3.768   9.378 -0.2381  0.0397 -0.6584
  131TMC2    C6 2039   1.685   3.874   9.455  0.5490  0.3221  0.6383
  131TMC2     C 2040   1.546   3.508   9.542  0.1363 -0.0072 -0.4033
  131TMC2     O 2041   1.562   3.507   9.662  0.4153  0.3472 -0.5724
  131TMC2     H 2042   1.453   3.726   9.642 -1.7985  0.2334 -0.4981
  131TMC2    H1 2043   1.676   3.563   9.332 -0.4972 -1.7884  1.4613
  131TMC2    H2 2044   1.725   3.973   9.435  3.1461 -0.8682 -0.1542
  131TMC2    C7 2045   1.804   3.792   9.259  0.1991 -0.3424 -0.7018
  131TMC2    C8 2046   1.590   3.941   9.666 -0.3477  0.2371  0.1443
  131TMC2    O1 2047   1.798   3.700   9.175  0.5179 -0.0922  0.8150
  131TMC2    O2 2048   1.509   3.937   9.754  0.0113  0.1462  0.7190
  131TMC2    O5 2049   1.716   3.979   9.689 -0.6921  0.0144 -0.3326
  131TMC2    H5 2050   1.766   4.013   9.611 -2.0142  0.8991 -0.8022
  132MPD2     C 2051   1.538   3.193   9.361 -0.1390 -0.6251  0.0580
  132MPD2    C1 2052   1.574   3.280   9.461 -0.2470  0.3355 -0.2851
  132MPD2    C2 2053   1.665   3.239   9.556 -0.7723  0.1230 -0.1239
  132MPD2    C3 2054   1.702   3.109   9.556 -0.4056  0.0846  0.3591
  132MPD2    C4 2055   1.668   3.022   9.452  0.2648 -0.6198  0.1317
  132MPD2    C5 2056   1.593   3.064   9.348 -0.2472 -0.3624 -0.2221
  132MPD2     H 2057   1.698   3.312   9.630 -0.0209  0.9933 -1.3285
  132MPD2    H1 2058   1.681   2.915   9.460 -2.5770 -1.0428 -0.6919
  132MPD2    H2 2059   1.477   3.227   9.278  0.3681 -0.1255 -0.1130
  132MPD2    H3 2060   1.571   2.993   9.269  0.7028  0.3453 -1.1288
  132MPD2     N 2061   1.797   3.074   9.653  0.7937  0.2976  0.0458
  132MPD2    H5 2062   1.827   3.148   9.716  2.4375 -1.2134  1.0317
  132MPD2    N1 2063   1.532   3.413   9.446  0.2065 -0.2408  0.3940
  132MPD2    H7 2064   1.468   3.431   9.369 -0.0209 -2.5466  0.0346
  133TMC2    C1 2065   0.940   2.527   9.697  0.7565  0.1919 -0.1303
  133TMC2    C2 2066   1.037   2.429   9.702  0.0052  0.4441  0.1493
  133TMC2    C3 2067   1.010   2.310   9.764  0.9640  0.6308  0.3952
  133TMC2    C4 2068   0.814   2.502   9.743 -0.2696 -0.0303 -0.1015
  133TMC2    C5 2069   0.788   2.382   9.789 -0.3918 -0.1604  0.1515
  133TMC2    C6 2070   0.879   2.277   9.793  0.6652  0.3842 -0.3464
  133TMC2     C 2071   0.974   2.653   9.642  0.0520 -0.2967 -0.3157
  133TMC2     O 2072   0.904   2.747   9.674  0.5723  0.2472 -0.5432
  133TMC2     H 2073   1.136   2.446   9.663 -0.0080  0.6579  0.2108
  133TMC2    H1 2074   0.753   2.587   9.768  0.7714  0.3783  1.0670
  133TMC2    H2 2075   0.848   2.186   9.844 -0.0644  0.7707 -0.0838
  133TMC2    C7 2076   0.658   2.355   9.849  0.4874  0.1023  0.0291
  133TMC2    C8 2077   1.109   2.208   9.752  0.7287 -0.3722 -0.3258
  133TMC2    O1 2078   0.657   2.265   9.933  0.5302 -0.0191  0.0023
  133TMC2    O2 2079   1.210   2.221   9.682  0.2315  0.2636  0.2677
  133TMC2    O5 2080   1.112   2.148   9.876 -0.0303  0.1481 -0.4549
  133TMC2    H5 2081   1.045   2.155   9.947  0.6288  1.3329  0.0498
  134MPD2     C 2082   1.227   2.713   9.369 -0.2132 -0.2311  0.5441
  134MPD2    C1 2083   1.129   2.744   9.465  0.4958 -0.1925  0.0372
  134MPD2    C2 2084   1.085   2.875   9.461 -0.2476 -0.7486 -0.7245
  134MPD2    C3 2085   1.119   2.964   9.361  0.0337  0.2312  0.1150
  134MPD2    C4 2086   1.209   2.928   9.270 -0.5812 -0.0702 -0.6094
  134MPD2    C5 2087   1.263   2.803   9.276  0.5169  0.1144 -0.6760
  134MPD2     H 2088   1.011   2.908   9.533 -1.9141 -1.9768 -1.8582
  134MPD2    H1 2089   1.248   2.995   9.194 -1.4753  0.8649 -0.2464
  134MPD2    H2 2090   1.267   2.612   9.366  1.4481  0.4929 -1.3954
  134MPD2    H3 2091   1.337   2.782   9.201  1.3955 -2.1066  0.8125
  134MPD2     N 2092   1.077   3.103   9.352  0.3620 -0.0520  0.2058
  134MPD2    H5 2093   1.132   3.152   9.282  0.7283  0.5215  0.8940
  134MPD2    N1 2094   1.082   2.646   9.558  0.0219  0.5910  0.2876
  134MPD2    H7 2095   1.132   2.558   9.554  0.0697  0.6846 -1.2848
  135TMC2    C1 2096   2.967   4.613   8.782 -0.2440 -0.5073 -0.6895
  135TMC2    C2 2097   2.839   4.643   8.766 -0.0912  0.1666  0.1886
  135TMC2    C3 2098   2.767   4.705   8.871  0.2466 -0.3688  0.0745
  135TMC2    C4 2099   3.032   4.646   8.899 -0.4670 -0.2601 -0.1161
  135TMC2    C5 2100   2.961   4.712   8.999 -0.6140 -0.6427 -0.9324
  135TMC2    C6 2101   2.828   4.732   8.986  0.3960 -0.1498 -0.4123
  135TMC2     C 2102   3.033   4.541   8.665 -0.2575 -0.7132  0.0490
  135TMC2     O 2103   2.967   4.509   8.564 -0.7223 -0.8473  0.2247
  135TMC2     H 2104   2.783   4.615   8.678 -3.1045  0.5824  1.9474
  135TMC2    H1 2105   3.139   4.631   8.910 -0.5614 -1.3516 -0.7084
  135TMC2    H2 2106   2.776   0.034   9.073  1.0131 -0.9416  0.3146
  135TMC2    C7 2107   3.031   0.034   9.109 -0.3128  0.5814 -0.1895
  135TMC2    C8 2108   2.623   4.698   8.866  0.0051  0.1801  0.5773
  135TMC2    O1 2109   3.152   0.010   9.120  0.4105 -0.1941  0.5553
  135TMC2    O2 2110   2.567   4.633   8.777  0.0230  0.2519 -0.5127
  135TMC2    O5 2111   2.576   0.080   8.912 -0.0386  0.4902 -0.3201
  135TMC2    H5 2112   2.634   0.137   8.967  0.8055 -1.6879  1.0708
  136MPD2     C 2113   3.231   4.384   8.495  0.0352  0.0737 -0.8874
  136MPD2    C1 2114   3.262   4.452   8.617  0.0959  0.3449  0.6158
  136MPD2    C2 2115   3.390   4.423   8.669 -0.4414 -0.6234  0.3075
  136MPD2    C3 2116   3.481   4.337   8.612 -0.0308  0.6619 -0.2743
  136MPD2    C4 2117   3.441   4.267   8.500 -0.2728 -0.1911  0.5162
  136MPD2    C5 2118   3.312   4.285   8.447  0.2501 -0.1054  0.1921
  136MPD2     H 2119   3.413   4.456   8.769  1.3562  0.6813 -0.5470
  136MPD2    H1 2120   3.520   4.205   8.460 -0.6379 -0.3340  0.0148
  136MPD2    H2 2121   3.142   4.403   8.436 -0.3984 -1.0821 -0.6166
  136MPD2    H3 2122   3.286   4.229   8.358 -2.3932  3.1477 -1.0857
  136MPD2     N 2123   3.603   4.303   8.676 -0.1546  0.1685  0.0899
  136MPD2    H5 2124   3.651   4.216   8.656  0.1181  0.5541 -0.9027
  136MPD2    N1 2125   3.167   4.530   8.687 -0.0540 -0.4223 -0.4589
  136MPD2    H7 2126   3.197   4.565   8.777 -1.9702  0.8579 -0.3080
  137TMC2    C1 2127   3.438   4.341   9.029 -0.7386  0.4910  0.3738
  137TMC2    C2 2128   3.530   4.244   9.017 -0.4993 -0.6818 -0.2881
  137TMC2    C3 2129   3.491   4.128   8.964  0.1013  0.4097 -0.1775
  137TMC2    C4 2130   3.309   4.322   8.987 -0.5238  0.1746 -0.6809
  137TMC2    C5 2131   3.283   4.201   8.919  0.0382  0.0627 -0.6914
  137TMC2    C6 2132   3.370   4.097   8.914 -0.1784  0.5435 -0.9631
  137TMC2     C 2133   3.472   4.453   9.115  0.2068 -0.4129 -0.4135
  137TMC2     O 2134   3.593   4.481   9.127  0.0174 -0.5179  0.7833
  137TMC2     H 2135   3.626   4.258   9.065  0.3608 -2.0102 -1.6364
  137TMC2    H1 2136   3.236   4.401   8.996  0.8002  1.4671 -1.4422
  137TMC2    H2 2137   3.342   3.997   8.883 -2.6073  0.8040  0.3856
  137TMC2    C7 2138   3.146   4.171   8.877 -0.1827 -0.2415 -0.1494
  137TMC2    C8 2139   3.587   4.023   8.973  0.3383  0.0401  0.0942
  137TMC2    O1 2140   3.135   4.059   8.841  0.2908 -0.3879  0.0557
  137TMC2    O2 2141   3.679   4.024   9.053 -0.0465 -0.5467 -0.1130
  137TMC2    O5 2142   3.593   3.962   8.855  0.1640  0.3304 -0.4142
  137TMC2    H5 2143   3.520   3.993   8.798 -0.6342  0.5775  0.7465
  138MPD2     C 2144   3.486   4.669   9.311  0.7819  0.0399  0.3358
  138MPD2    C1 2145   3.384   4.576   9.312 -0.1964  0.4457 -0.3363
  138MPD2    C2 2146   3.300   4.574   9.421 -0.2169  0.0078  0.2498
  138MPD2    C3 2147   3.327   4.661   9.533 -0.0541 -0.5284 -0.0791
  138MPD2    C4 2148   3.420   0.025   9.515  0.2702 -0.2768  0.1635
  138MPD2    C5 2149   3.501   0.023   9.410  0.0927  0.1946  0.1264
  138MPD2     H 2150   3.228   4.495   9.437 -1.1448  0.5813 -1.1191
  138MPD2    H1 2151   3.453   0.096   9.590  0.5968  0.9603 -1.1444
  138MPD2    H2 2152   3.563   4.678   9.235 -0.1179  0.3003 -0.5447
  138MPD2    H3 2153   3.580   0.097   9.400 -0.8280  0.6446 -3.6979
  138MPD2     N 2154   3.261   4.651   9.656 -0.3572 -0.0927 -0.2202
  138MPD2    H5 2155   3.288   4.722   9.723  1.4953 -0.1050 -0.9421
  138MPD2    N1 2156   3.372   4.481   9.209  0.1855 -0.4934  0.4355
  138MPD2    H7 2157   3.290   4.424   9.190 -0.4003  0.4279  0.2274
  139TMC2    C1 2158   3.834   3.292  13.502  0.0163 -0.2857 -0.8704
  139TMC2    C2 2159   3.966   3.300  13.459 -0.2136  1.0466 -0.2823
  139TMC2    C3 2160   4.012   3.396  13.373 -1.3797  0.1631  0.1101
  139TMC2    C4 2161   3.737   3.370  13.451  0.1260  0.8714  0.3657
  139TMC2    C5 2162   3.776   3.465  13.361  0.6968 -0.5050  0.7115
  139TMC2    C6 2163   3.910   3.480  13.328 -0.2352 -0.4253 -0.1892
  139TMC2     C 2164   3.798   3.169  13.574 -0.0269 -0.1309  0.1298
  139TMC2     O 2165   3.863   3.064  13.564 -0.0281 -0.2371 -0.1300
  139TMC2     H 2166   4.039   3.232  13.502 -0.7660 -0.0007 -1.0046
  139TMC2    H1 2167   3.634   3.363  13.482  0.0013  1.7758  0.1700
  139TMC2    H2 2168   3.935   3.557  13.257 -0.0571  2.2506  2.7609
  139TMC2    C7 2169   3.677   3.518  13.270  0.5989  0.3117 -0.6186
  139TMC2    C8 2170   4.128   3.360  13.288  1.0042 -0.5640  0.1243
  139TMC2    O1 2171   3.694   3.624  13.218  0.1885  0.3371  0.4241
  139TMC2    O2 2172   4.103   3.287  13.194  0.1353 -0.0826 -0.0912
  139TMC2    O5 2173   4.212   3.337  13.383  0.0334 -0.3164 -0.1291
  139TMC2    H5 2174   4.189   3.391  13.461  0.4834 -1.7455  1.0017
  140MPD2     C 2175   3.495   3.097  13.787  0.4493  0.5456  0.0585
  140MPD2    C1 2176   3.598   3.070  13.697 -0.5057  0.5067  0.3871
  140MPD2    C2 2177   3.610   2.945  13.648 -0.2039  0.1306  0.2185
  140MPD2    C3 2178   3.529   2.842  13.690  0.9581  0.3603  0.0951
  140MPD2    C4 2179   3.433   2.868  13.779 -0.0308  0.2984 -0.2677
  140MPD2    C5 2180   3.418   2.995  13.824 -0.0218  0.3249 -0.6731
  140MPD2     H 2181   3.686   2.917  13.576  0.2331 -0.0946  0.7666
  140MPD2    H1 2182   3.362   2.798  13.822 -1.4114  0.9627 -1.4721
  140MPD2    H2 2183   3.474   3.199  13.815  0.6364  0.5179  0.2971
  140MPD2    H3 2184   3.336   3.005  13.894  0.9932 -0.8197  0.7056
  140MPD2     N 2185   3.534   2.719  13.618 -0.1826  0.1709 -0.3814
  140MPD2    H5 2186   3.599   2.716  13.540  2.5726  3.8286  1.7678
  140MPD2    N1 2187   3.684   3.181  13.651  0.5758 -0.3081 -0.1359
  140MPD2    H7 2188   3.671   3.278  13.678 -1.2031  0.1258 -2.5452
  141TMC2    C1 2189   4.637   3.914  13.506 -0.1639 -0.4461 -0.1960
  141TMC2    C2 2190   4.578   3.798  13.463  0.2745  0.2371  0.2407
  141TMC2    C3 2191   4.526   3.708  13.553 -0.2754  0.2533  0.8268
  141TMC2    C4 2192   4.643   3.938  13.642 -0.6398 -0.0506 -0.2382
  141TMC2    C5 2193   4.571   3.847  13.725  0.5311  0.3730  0.2771
  141TMC2    C6 2194   4.514   3.731  13.686  0.7293  0.2879 -0.4729
  141TMC2     C 2195   4.705   3.998  13.414  0.5936 -0.7375 -0.0516
  141TMC2     O 2196   4.666   4.001  13.297 -0.2682  0.6954  0.4783
  141TMC2     H 2197   4.565   3.778  13.357  0.1128  0.3343  0.2420
  141TMC2    H1 2198   4.692   4.021  13.691 -1.5758 -0.0748  0.7371
  141TMC2    H2 2199   4.481   3.655  13.755 -0.1803 -1.0685 -2.3961
  141TMC2    C7 2200   4.608   3.847  13.866 -0.2171  0.2050  0.2758
  141TMC2    C8 2201   4.451   3.597  13.494  0.8732 -0.0456  0.8482
  141TMC2    O1 2202   4.625   3.736  13.919  0.1990  0.0641 -0.4503
  141TMC2    O2 2203   4.464   3.589  13.372  0.0690 -0.2413  0.2272
  141TMC2    O5 2204   4.463   3.490  13.572 -0.5564 -0.2690 -0.0862
  141TMC2    H5 2205   4.439   3.497  13.667  1.5170  0.6207  0.3586
  142TMC2    C1 2206   2.493   3.015  10.006  0.8002 -0.2841 -0.1813
  142TMC2    C2 2207   2.481   3.088  10.116  1.1028  0.3622  0.0888
  142TMC2    C3 2208   2.492   3.224  10.103  0.4110 -0.8565  0.5649
  142TMC2    C4 2209   2.524   3.078   9.887 -0.1806  0.2296  0.6288
  142TMC2    C5 2210   2.545   3.209   9.878 -0.2471 -0.1712  0.7415
  142TMC2    C6 2211   2.513   3.289   9.983  0.0686  0.0600  0.7288
  142TMC2     C 2212   2.428   2.883   9.997 -0.5783 -0.5043  0.4599
  142TMC2     O 2213   2.391   2.841   9.887 -0.0530 -0.1783  0.1829
  142TMC2     H 2214   2.442   3.049  10.209 -0.7531  1.0904 -0.3707
  142TMC2    H1 2215   2.520   3.012   9.801  0.8805  0.0758  0.7063
  142TMC2    H2 2216   2.527   3.397   9.981  3.5385 -0.4022  0.5589
  142TMC2    C7 2217   2.589   3.283   9.764  0.4751 -0.1277  0.6342
  142TMC2    C8 2218   2.467   3.311  10.220 -0.5087 -0.1598 -0.3547
  142TMC2    O1 2219   2.561   3.402   9.761 -0.3023 -0.0934 -0.2865
  142TMC2    O2 2220   2.430   3.424  10.212 -0.0250  0.1334  0.0872
  142TMC2    O5 2221   2.570   3.274  10.304  0.1252  0.4912 -0.0050
  142TMC2    H5 2222   2.630   3.207  10.264  2.9857  1.7492  2.1734
  143MPD2     C 2223   2.279   2.482  10.275  0.3614 -0.2300 -0.3443
  143MPD2    C1 2224   2.224   2.526  10.154  0.5272  0.3333  0.0151
  143MPD2    C2 2225   2.278   2.640  10.101  0.4526  0.7678  0.7697
  143MPD2    C3 2226   2.374   2.715  10.166  0.0596 -0.1321  0.0589
  143MPD2    C4 2227   2.424   2.663  10.287 -0.4291 -0.6880  0.3937
  143MPD2    C5 2228   2.374   2.549  10.336  0.3322  0.2062 -0.2697
  143MPD2     H 2229   2.245   2.675  10.004  0.0697 -1.8005 -0.0050
  143MPD2    H1 2230   2.503   2.714  10.340 -1.9296  1.3688  0.6520
  143MPD2    H2 2231   2.226   2.407  10.332 -1.1099  0.7130 -0.4698
  143MPD2    H3 2232   2.399   2.509  10.433 -0.7134  0.5077  0.1245
  143MPD2     N 2233   2.433   2.831  10.121 -0.3965  0.6757  0.4194
  143MPD2    H5 2234   2.478   2.890  10.191 -1.6736  0.9055  1.0462
  143MPD2    N1 2235   2.114   2.460  10.099 -0.1832 -0.4574 -0.1780
  143MPD2    H7 2236   2.073   2.379  10.145  1.0045 -1.1376 -0.3236
  144TMC2    C1 2237   0.509   1.371   0.609 -0.4162 -0.3056 -0.0190
  144TMC2    C2 2238   0.595   1.265   0.593  0.0171  0.2505 -0.0602
  144TMC2    C3 2239   0.667   1.232   0.709  0.0047 -0.0944 -0.5509
  144TMC2    C4 2240   0.505   1.441   0.722 -0.5599  0.4636  0.4163
  144TMC2    C5 2241   0.581   1.401   0.830 -0.0893 -0.4938 -0.5198
  144TMC2    C6 2242   0.655   1.285   0.830  0.5605 -0.7495  0.0170
  144TMC2     C 2243   0.432   1.421   0.502  0.1444 -0.5303  0.2554
  144TMC2     O 2244   0.418   1.344   0.402  0.9269 -0.0596 -0.0127
  144TMC2     H 2245   0.592   1.203   0.505  4.0331  1.2057 -0.8782
  144TMC2    H1 2246   0.441   1.528   0.726 -0.2309  0.7318 -0.2313
  144TMC2    H2 2247   0.698   1.242   0.920  1.9487  0.7269  0.0729
  144TMC2    C7 2248   0.569   1.462   0.963 -0.5186  0.3997  0.0585
  144TMC2    C8 2249   0.745   1.107   0.698  0.1564  0.1019 -0.1442
  144TMC2    O1 2250   0.647   1.422   1.048 -0.1797  0.7734  0.0517
  144TMC2    O2 2251   0.750   1.022   0.783 -0.3566 -0.0514  0.3201
  144TMC2    O5 2252   0.835   1.135   0.600 -0.6175  0.1737 -0.2532
  144TMC2    H5 2253   0.807   1.203   0.535  2.5421 -0.0949 -1.8606
  145MPD2     C 2254   0.103   1.770   0.268 -0.1939  0.3925  0.7720
  145MPD2    C1 2255   0.112   1.630   0.259  0.4472 -0.0103  0.4111
  145MPD2    C2 2256   0.212   1.560   0.328  0.3761 -0.0407 -0.4653
  145MPD2    C3 2257   0.296   1.624   0.417 -0.6719  0.4595  0.6169
  145MPD2    C4 2258   0.276   1.754   0.441  0.3408  0.4354 -0.0618
  145MPD2    C5 2259   0.186   1.834   0.360  0.8895 -0.2247  0.0244
  145MPD2     H 2260   0.231   1.454   0.315  4.0291  0.7999 -1.9832
  145MPD2    H1 2261   0.355   1.798   0.501  0.3693  1.7096 -1.0357
  145MPD2    H2 2262   0.033   1.821   0.202  0.2153 -0.4537 -0.3099
  145MPD2    H3 2263   0.181   1.942   0.372 -0.1743 -0.3439  0.6938
  145MPD2     N 2264   0.387   1.556   0.510 -0.0376 -0.0134  0.0456
  145MPD2    H5 2265   0.429   1.607   0.587 -0.5942  0.0536  0.3034
  145MPD2    N1 2266   0.020   1.554   0.179 -0.5620  0.8846 -0.4951
  145MPD2    H7 2267   0.034   1.454   0.163 -1.2923  0.9236 -1.3720
  146TMC2    C1 2268   0.777   0.671  12.893 -0.0474 -0.6090  0.1984
  146TMC2    C2 2269   0.688   0.760  12.838 -0.0927 -0.2636 -0.2409
  146TMC2    C3 2270   0.681   0.772  12.703 -0.2718  0.3353  0.1287
  146TMC2    C4 2271   0.857   0.598  12.808  0.3113 -1.0400 -0.5217
  146TMC2    C5 2272   0.849   0.632  12.674  0.1087  0.5089 -0.3126
  146TMC2    C6 2273   0.760   0.714  12.615 -0.1061 -0.3433 -0.0760
  146TMC2     C 2274   0.829   0.698  13.028  0.2726 -0.5212 -0.2813
  146TMC2     O 2275   0.759   0.779  13.088 -0.1078 -0.3341  0.4890
  146TMC2     H 2276   0.636   0.828  12.904 -1.1018 -0.3887 -0.9039
  146TMC2    H1 2277   0.912   0.514  12.851 -0.3531 -0.5749  1.2647
  146TMC2    H2 2278   0.759   0.744  12.511 -1.5160 -0.8114 -0.1901
  146TMC2    C7 2279   0.941   0.566  12.594 -0.3493  0.5889  0.3888
  146TMC2    C8 2280   0.592   0.862  12.651  0.2281 -0.0301  0.1432
  146TMC2    O1 2281   0.914   0.533  12.482 -0.6151 -1.0243  0.4447
  146TMC2    O2 2282   0.570   0.970  12.707 -0.0163 -0.3248  0.5426
  146TMC2    O5 2283   0.537   0.807  12.537 -0.5749  0.5180 -0.2614
  146TMC2    H5 2284   0.556   0.711  12.527  1.0215  0.9280 -1.0193
  147MPD2     C 2285   1.366   0.272  12.568  0.1227  0.3659 -0.3273
  147MPD2    C1 2286   1.375   0.352  12.678 -0.1175  0.8599  0.6265
  147MPD2    C2 2287   1.262   0.431  12.706  0.0155  0.4898  0.2193
  147MPD2    C3 2288   1.155   0.448  12.616  0.1144  0.5604 -0.3094
  147MPD2    C4 2289   1.158   0.380  12.497  0.6809 -0.7477 -0.5120
  147MPD2    C5 2290   1.256   0.279  12.485  0.2875 -0.5628  0.0384
  147MPD2     H 2291   1.252   0.487  12.797  0.7044  0.5210  0.2763
  147MPD2    H1 2292   1.073   0.381  12.430  0.3686  1.1275 -0.0821
  147MPD2    H2 2293   1.443   0.198  12.554 -1.1185 -0.9241 -0.3049
  147MPD2    H3 2294   1.260   0.214  12.398 -2.0303 -0.5425 -0.0934
  147MPD2     N 2295   1.048   0.537  12.662  0.5728  0.1323 -0.0655
  147MPD2    H5 2296   1.061   0.587  12.750 -1.6189  0.8985 -0.1754
  147MPD2    N1 2297   1.482   0.333  12.767  0.1432 -0.4479 -0.5280
  147MPD2    H7 2298   1.563   0.280  12.736  2.3472  1.8954  1.2103
  148TMC2    C1 2299   1.197   3.776  10.332  0.1246 -0.2621  0.0459
  148TMC2    C2 2300   1.182   3.870  10.431  0.0013  0.3678  0.1448
  148TMC2    C3 2301   1.240   3.844  10.548 -0.6435 -0.8406 -0.1111
  148TMC2    C4 2302   1.269   3.664  10.347  0.5758  0.1272  0.0935
  148TMC2    C5 2303   1.312   3.630  10.473 -0.0744  0.3838  0.4483
  148TMC2    C6 2304   1.310   3.725  10.574  0.2187  0.7233  0.3326
  148TMC2     C 2305   1.110   3.788  10.215 -0.1850  0.0242  0.3611
  148TMC2     O 2306   1.090   3.903  10.177 -0.2118 -0.5767 -0.5402
  148TMC2     H 2307   1.125   3.959  10.404  0.4978  0.1954 -1.4746
  148TMC2    H1 2308   1.285   3.593  10.267  0.3370  1.4323 -1.1160
  148TMC2    H2 2309   1.358   3.702  10.669  0.7096  1.4878  0.2674
  148TMC2    C7 2310   1.373   3.503  10.488 -0.6486  0.1417  0.0371
  148TMC2    C8 2311   1.242   3.942  10.652  0.6012 -0.2501 -0.9385
  148TMC2    O1 2312   1.425   3.451  10.389  0.5103 -0.2515  0.4780
  148TMC2    O2 2313   1.255   4.062  10.637 -0.1221 -0.0998 -0.3504
  148TMC2    O5 2314   1.247   3.882  10.773  0.0579  0.7404  0.0352
  148TMC2    H5 2315   1.215   3.790  10.765 -0.8942  1.0797 -0.0886
  149MPD2     C 2316   0.924   3.756   9.974 -0.4032  0.0002 -0.5625
  149MPD2    C1 2317   0.970   3.653  10.056 -0.4625  0.1934 -0.0669
  149MPD2    C2 2318   0.906   3.532  10.034  0.1222 -0.0950  0.2051
  149MPD2    C3 2319   0.815   3.514   9.930  0.0567 -0.1024  0.1144
  149MPD2    C4 2320   0.780   3.620   9.849  0.4191  1.0864 -0.3227
  149MPD2    C5 2321   0.848   3.734   9.871  0.5214 -0.8643  0.2003
  149MPD2     H 2322   0.934   3.447  10.094  1.3030 -0.0854 -0.3419
  149MPD2    H1 2323   0.704   3.617   9.772 -0.7936  3.2616  0.7641
  149MPD2    H2 2324   0.967   3.856   9.973 -0.9073  0.2383  3.1820
  149MPD2    H3 2325   0.832   3.818   9.805 -3.5204 -0.6645  1.4299
  149MPD2     N 2326   0.746   3.392   9.902 -0.1686  0.5116 -0.6316
  149MPD2    H5 2327   0.686   3.392   9.820  0.3136  0.4927 -0.9849
  149MPD2    N1 2328   1.064   3.668  10.161  0.2280  0.5811  0.1558
  149MPD2    H7 2329   1.069   3.591  10.226  0.8249  0.2950 -0.2368
  150TMC2    C1 2330   3.277   3.405  12.091 -0.1961 -0.2832 -0.3264
  150TMC2    C2 2331   3.199   3.520  12.084  0.3478 -1.0722 -0.2778
  150TMC2    C3 2332   3.226   3.613  12.181 -0.0157  0.9269  0.2002
  150TMC2    C4 2333   3.370   3.379  12.187 -0.4706 -0.0423  0.3347
  150TMC2    C5 2334   3.395   3.482  12.276 -0.8181  0.4232 -0.1617
  150TMC2    C6 2335   3.322   3.598  12.273 -0.0210 -1.3043 -0.1084
  150TMC2     C 2336   3.257   3.299  11.991  0.1953  0.1718  0.0577
  150TMC2     O 2337   3.349   3.214  11.971 -0.6224 -0.6524 -0.2007
  150TMC2     H 2338   3.135   3.535  11.998 -1.0451 -3.4094  0.3564
  150TMC2    H1 2339   3.419   3.283  12.191 -0.5499 -0.0399  1.3911
  150TMC2    H2 2340   3.336   3.671  12.352  1.6174 -2.0962  0.3577
  150TMC2    C7 2341   3.520   3.484  12.348  0.3552 -0.7172  0.1938
  150TMC2    C8 2342   3.186   3.749  12.161 -0.3030 -0.0092 -0.1853
  150TMC2    O1 2343   3.569   3.596  12.371  0.4983  0.2624 -0.2268
  150TMC2    O2 2344   3.141   3.783  12.052  0.5804  0.4836  0.0219
  150TMC2    O5 2345   3.139   3.798  12.273  0.3764  0.1830  0.0187
  150TMC2    H5 2346   3.141   3.730  12.344 -0.7037  1.1328  0.9683
  151MPD2     C 2347   2.973   2.994  11.702  0.9263  0.2344 -0.2548
  151MPD2    C1 2348   2.892   3.089  11.754 -1.0324 -0.1732  0.1377
  151MPD2    C2 2349   2.943   3.197  11.828 -0.2583 -0.2163  0.1001
  151MPD2    C3 2350   3.076   3.187  11.869 -0.4166 -0.2023  0.0344
  151MPD2    C4 2351   3.154   3.080  11.824 -0.0029  0.2762  0.5328
  151MPD2    C5 2352   3.106   3.004  11.727 -0.3873 -0.1607 -0.1802
  151MPD2     H 2353   2.884   3.285  11.847 -0.3686 -0.2150 -0.2395
  151MPD2    H1 2354   3.257   3.061  11.852  0.6801  2.8665 -0.2029
  151MPD2    H2 2355   2.933   2.917  11.638  2.1130  0.7844 -1.6385
  151MPD2    H3 2356   3.163   2.932  11.669 -1.3686  0.0986 -1.4649
  151MPD2     N 2357   3.130   3.289  11.949 -0.2211 -0.4400 -0.1528
  151MPD2    H5 2358   3.068   3.364  11.979  0.4627  0.0627  0.0146
  151MPD2    N1 2359   2.757   3.070  11.735  0.5160  0.0656  1.2517
  151MPD2    H7 2360   2.727   2.980  11.701  1.5913 -0.3286  1.3248
  152TMC2    C1 2361   3.429   3.225  12.660  0.4657  0.3877  0.4108
  152TMC2    C2 2362   3.462   3.092  12.679  0.0325 -0.1863 -0.6907
  152TMC2    C3 2363   3.568   3.064  12.764 -0.3996  0.4753  0.7111
  152TMC2    C4 2364   3.490   3.321  12.735 -0.1932 -0.3108 -0.2532
  152TMC2    C5 2365   3.599   3.287  12.809  0.9567 -0.5341  0.8764
  152TMC2    C6 2366   3.642   3.157  12.833  0.4398 -0.1247  0.2660
  152TMC2     C 2367   3.319   3.258  12.573 -0.3841  0.9001 -0.8496
  152TMC2     O 2368   3.255   3.358  12.603  0.3132 -0.9600 -0.7124
  152TMC2     H 2369   3.389   3.018  12.649  0.9111 -0.6427 -1.7226
  152TMC2    H1 2370   3.476   3.425  12.709  0.7297  0.3897  2.0076
  152TMC2    H2 2371   3.719   3.139  12.907 -0.5051 -2.2188  0.7412
  152TMC2    C7 2372   3.688   3.394  12.837  0.2143 -0.4042  0.0153
  152TMC2    C8 2373   3.574   2.922  12.803  0.3150 -0.4218 -0.3126
  152TMC2    O1 2374   3.649   3.512  12.818  0.0654  0.1513 -0.0440
  152TMC2    O2 2375   3.482   2.852  12.841 -0.0506 -0.3240 -0.1317
  152TMC2    O5 2376   3.705   2.901  12.838  0.1610 -0.1075  0.0738
  152TMC2    H5 2377   3.761   2.970  12.796 -1.0064 -0.4966 -2.1319
  153MPD2     C 2378   3.174   3.052  12.310  0.3879 -0.2830 -0.2044
  153MPD2    C1 2379   3.189   3.163  12.392 -0.5142  0.5868  0.6003
  153MPD2    C2 2380   3.091   3.266  12.381  0.0430  0.3901 -0.1392
  153MPD2    C3 2381   2.991   3.254  12.285  0.3164 -0.9462 -0.6079
  153MPD2    C4 2382   2.984   3.147  12.210 -0.2328 -0.1048 -0.2628
  153MPD2    C5 2383   3.068   3.044  12.225  0.2729  0.3350 -0.1894
  153MPD2     H 2384   3.102   3.360  12.433  1.2894 -1.0985  2.2982
  153MPD2    H1 2385   2.902   3.133  12.141  0.9877 -0.0749 -1.7136
  153MPD2    H2 2386   3.243   2.969  12.320  0.8096 -0.2486 -2.7794
  153MPD2    H3 2387   3.042   2.962  12.160  1.3991 -1.5948  1.8123
  153MPD2     N 2388   2.905   3.367  12.268 -0.5624  1.2074  0.1770
  153MPD2    H5 2389   2.907   3.448  12.330 -3.7740  1.0115  0.5434
  153MPD2    N1 2390   3.298   3.163  12.473  0.2141 -0.2684  0.0085
  153MPD2    H7 2391   3.358   3.082  12.469 -0.2279 -0.5305 -1.1367
  154TMC2    C1 2392   0.311   2.956   0.617 -1.1441  0.6731 -0.5498
  154TMC2    C2 2393   0.367   3.023   0.721 -0.4884 -0.0035 -0.3515
  154TMC2    C3 2394   0.493   2.976   0.758  0.1197 -0.2746  0.8703
  154TMC2    C4 2395   0.358   2.842   0.560 -0.0686  0.4518  0.8112
  154TMC2    C5 2396   0.485   2.804   0.607  0.2599 -0.7567 -0.0263
  154TMC2    C6 2397   0.553   2.870   0.706 -0.0942 -0.1298 -0.1370
  154TMC2     C 2398   0.193   3.031   0.565 -0.7500 -0.2897 -0.6491
  154TMC2     O 2399   0.153   3.128   0.634 -0.4800  0.7226 -0.1444
  154TMC2     H 2400   0.321   3.108   0.770 -0.8601  0.4210 -1.4290
  154TMC2    H1 2401   0.298   2.786   0.490 -0.7915  2.2682 -0.0388
  154TMC2    H2 2402   0.646   2.835   0.748  1.7629  0.8492 -3.4174
  154TMC2    C7 2403   0.533   2.687   0.554 -1.0790  0.2665  0.0147
  154TMC2    C8 2404   0.558   3.026   0.878  0.0965 -0.8998 -0.1766
  154TMC2    O1 2405   0.591   2.610   0.630  0.2807  0.4785 -0.0649
  154TMC2    O2 2406   0.632   2.958   0.945  0.2503  0.3505 -0.7130
  154TMC2    O5 2407   0.511   3.144   0.914 -0.1952  0.3115 -0.1184
  154TMC2    H5 2408   0.464   3.199   0.848  1.2314  1.1071 -0.4721
  155MPD2     C 2409   0.015   2.973   0.237  0.4935 -0.2812  0.4610
  155MPD2    C1 2410   0.038   3.027   0.365 -0.4198 -0.1215 -0.1628
  155MPD2    C2 2411   4.679   3.105   0.425 -0.0221  0.1442 -0.4660
  155MPD2    C3 2412   4.568   3.142   0.357  0.7723 -0.4860 -0.1240
  155MPD2    C4 2413   4.542   3.090   0.230  0.1129 -0.4095  0.1418
  155MPD2    C5 2414   4.637   3.004   0.179 -0.3571  0.3882  0.4288
  155MPD2     H 2415   4.697   3.148   0.523  1.2469 -1.5900  0.0596
  155MPD2    H1 2416   4.466   3.119   0.158  1.5155  0.4695 -0.9856
  155MPD2    H2 2417   0.087   2.914   0.182 -0.3227 -2.1469  1.3796
  155MPD2    H3 2418   4.621   2.960   0.081 -2.8194 -1.4955  1.6618
  155MPD2     N 2419   4.484   3.231   0.422  0.7125 -0.4739  0.2997
  155MPD2    H5 2420   4.521   3.256   0.514 -0.4107  1.1727  0.3088
  155MPD2    N1 2421   0.149   2.979   0.443 -0.0654 -0.1022  0.9410
  155MPD2    H7 2422   0.207   2.904   0.405  0.5721  0.4948  0.7405
  156TMC2    C1 2423   3.388   0.604  11.426  0.2419 -0.2445 -0.0023
  156TMC2    C2 2424   3.429   0.487  11.371 -0.7036 -0.0523  0.0665
  156TMC2    C3 2425   3.382   0.451  11.252 -0.4683 -0.2354 -0.3146
  156TMC2    C4 2426   3.323   0.698  11.351  0.2732 -0.6504 -0.0566
  156TMC2    C5 2427   3.281   0.660  11.224 -0.4511 -0.1292  0.1093
  156TMC2    C6 2428   3.308   0.535  11.170  0.0676 -0.4334 -0.6423
  156TMC2     C 2429   3.408   0.628  11.572 -0.3996  0.3328  0.2186
  156TMC2     O 2430   3.372   0.740  11.605 -0.2537 -0.3541  0.8611
  156TMC2     H 2431   3.491   0.424  11.434  2.4207  1.2739 -1.7108
  156TMC2    H1 2432   3.302   0.798  11.385 -0.5049 -0.1795 -1.9237
  156TMC2    H2 2433   3.285   0.506  11.069  2.2771 -2.8351 -0.4479
  156TMC2    C7 2434   3.206   0.751  11.143  0.1175 -0.0296 -0.4275
  156TMC2    C8 2435   3.419   0.324  11.198 -0.6864 -1.0390 -0.4406
  156TMC2    O1 2436   3.135   0.698  11.054 -0.2721 -0.5834  0.7127
  156TMC2    O2 2437   3.357   0.267  11.108 -0.4697 -0.4831  0.7415
  156TMC2    O5 2438   3.545   0.316  11.224 -0.4043 -0.0082  0.7731
  156TMC2    H5 2439   3.572   0.391  11.282 -0.9949  0.1424  0.8578
  157MPD2     C 2440   3.501   0.372  11.811 -0.0663  0.2684  0.0461
  157MPD2    C1 2441   3.463   0.500  11.769  0.2660 -0.6576  0.5672
  157MPD2    C2 2442   3.464   0.600  11.861  0.4869  0.2986  0.7601
  157MPD2    C3 2443   3.494   0.579  11.993  0.7013  1.1415  0.9090
  157MPD2    C4 2444   3.523   0.447  12.030  0.3706  0.0396 -0.0369
  157MPD2    C5 2445   3.521   0.346  11.939 -0.0795  1.0217  0.0090
  157MPD2     H 2446   3.446   0.704  11.837 -1.4544  0.0386  1.0726
  157MPD2    H1 2447   3.541   0.413  12.131  0.3086 -0.2739 -0.1331
  157MPD2    H2 2448   3.506   0.293  11.737  0.0206  1.2180 -0.9700
  157MPD2    H3 2449   3.537   0.243  11.969 -2.2453  0.1756 -1.7934
  157MPD2     N 2450   3.496   0.681  12.091 -0.9836 -0.1506 -0.1007
  157MPD2    H5 2451   3.463   0.769  12.052 -0.5335  0.0413 -0.0498
  157MPD2    N1 2452   3.441   0.510  11.636 -0.2284  0.5932  0.1883
  157MPD2    H7 2453   3.456   0.425  11.583 -0.5878 -0.1543  1.2796
  158TMC2    C1 2454   4.287   4.201  13.461  0.0624  1.1780 -0.2385
  158TMC2    C2 2455   4.404   4.241  13.396 -0.0358 -0.5823 -0.9066
  158TMC2    C3 2456   4.388   4.302  13.277 -0.1962  0.0780  0.0405
  158TMC2    C4 2457   4.158   4.225  13.409  0.1523 -0.3600  1.1958
  158TMC2    C5 2458   4.151   4.300  13.291  0.3932  0.1781  0.4973
  158TMC2    C6 2459   4.267   4.341  13.226  0.2854  0.0787  0.1916
  158TMC2     C 2460   4.315   4.152  13.594 -0.8221  0.7487 -1.7862
  158TMC2     O 2461   4.427   4.169  13.630  0.6685 -0.0606 -0.2550
  158TMC2     H 2462   4.506   4.220  13.426  0.0342  0.4981 -0.4025
  158TMC2    H1 2463   4.068   4.209  13.468  0.2333  2.1429  1.9973
  158TMC2    H2 2464   4.263   4.409  13.142  0.0789  1.0742  1.0018
  158TMC2    C7 2465   4.023   4.357  13.242  1.1435  0.0934  0.0702
  158TMC2    C8 2466   4.511   4.347  13.223 -0.6978  0.5245 -0.2073
  158TMC2    O1 2467   4.037   4.439  13.153 -0.1557 -0.8482 -0.7109
  158TMC2    O2 2468   4.603   4.388  13.290 -0.3946 -0.2187 -0.1712
  158TMC2    O5 2469   4.492   4.381  13.095  0.2553 -0.1684 -0.7732
  158TMC2    H5 2470   4.426   4.329  13.045  0.5923 -1.3032 -0.0529
  159MPD2     C 2471   4.166   4.010  14.058  0.2675  0.8967  0.0533
  159MPD2    C1 2472   4.056   3.999  13.974  0.2270 -0.3521  0.1370
  159MPD2    C2 2473   4.066   4.017  13.835 -0.3625  0.0245  0.1980
  159MPD2    C3 2474   4.188   4.060  13.788 -0.4819 -0.6064  0.2065
  159MPD2    C4 2475   4.300   4.070  13.873 -0.2436  0.0296  0.8008
  159MPD2    C5 2476   4.289   4.041  14.009 -1.0119  0.0609 -0.2909
  159MPD2     H 2477   3.982   4.014  13.766 -0.4940  1.1667  0.3037
  159MPD2    H1 2478   4.398   4.093  13.831 -0.3370  0.7201  0.9617
  159MPD2    H2 2479   4.156   3.987  14.163 -1.8314 -0.2669 -0.3946
  159MPD2    H3 2480   4.380   4.039  14.069 -2.2788 -0.5743  1.6087
  159MPD2     N 2481   4.198   4.100  13.655  0.2109  0.3537 -0.5980
  159MPD2    H5 2482   4.114   4.121  13.603  0.8778  0.8638 -1.4750
  159MPD2    N1 2483   3.933   3.959  14.037 -0.4854  1.0208 -0.7803
  159MPD2    H7 2484   3.930   3.957  14.138  0.7030  1.7205 -0.7376
  160TMC2    C1 2485   3.251   1.542   1.056  0.5258  0.0672 -0.1544
  160TMC2    C2 2486   3.266   1.451   1.154  0.0712 -0.6559  0.4741
  160TMC2    C3 2487   3.390   1.425   1.197  0.2413  0.4521 -0.4387
  160TMC2    C4 2488   3.355   1.609   0.995  0.1876 -1.1901 -0.1692
  160TMC2    C5 2489   3.479   1.574   1.039  0.0588 -0.1301 -0.1869
  160TMC2    C6 2490   3.495   1.484   1.145  0.0610 -0.4497 -0.9212
  160TMC2     C 2491   3.129   1.530   0.967  0.6308  0.5211  0.0754
  160TMC2     O 2492   3.070   1.423   0.960 -0.0097  0.3175  0.0072
  160TMC2     H 2493   3.174   1.415   1.200 -0.2487 -0.2041  0.1913
  160TMC2    H1 2494   3.347   1.677   0.911 -1.1563 -1.6442 -0.4018
  160TMC2    H2 2495   3.589   1.487   1.199  0.1752  0.5797 -1.1769
  160TMC2    C7 2496   3.602   1.597   0.964  0.2334  0.0033  0.0108
  160TMC2    C8 2497   3.405   1.388   1.341 -0.4780 -0.2667 -0.0020
  160TMC2    O1 2498   3.692   1.513   0.959  0.0277 -0.0428 -0.2172
  160TMC2    O2 2499   3.305   1.402   1.412 -0.4945  0.1919  0.6076
  160TMC2    O5 2500   3.517   1.324   1.370 -0.0170 -0.1102  0.1676
  160TMC2    H5 2501   3.582   1.310   1.298  0.5131  2.7774  0.0757
  161MPD2     C 2502   2.943   1.582   0.745 -0.1450 -0.3022 -0.1681
  161MPD2    C1 2503   3.013   1.676   0.815 -0.4882  0.6442  0.7873
  161MPD2    C2 2504   2.992   1.807   0.788  0.1417  0.9680  0.0167
  161MPD2    C3 2505   2.899   1.848   0.695  0.4365  0.0349 -0.2998
  161MPD2    C4 2506   2.816   1.753   0.638 -0.0140  0.0470  0.1429
  161MPD2    C5 2507   2.844   1.619   0.662 -0.6377  0.2376 -0.1624
  161MPD2     H 2508   3.059   1.876   0.836  2.4953 -1.3195 -0.0136
  161MPD2    H1 2509   2.735   1.767   0.567  0.0200 -1.3504 -0.1703
  161MPD2    H2 2510   2.964   1.476   0.749  0.9529 -0.0506  0.6747
  161MPD2    H3 2511   2.788   1.540   0.612 -0.3380  0.5041 -0.9242
  161MPD2     N 2512   2.881   1.986   0.653 -0.2673 -0.4885  0.3343
  161MPD2    H5 2513   2.805   2.003   0.588  0.3254 -0.7235 -0.4189
  161MPD2    N1 2514   3.104   1.656   0.913  0.0010  0.3777  0.2441
  161MPD2    H7 2515   3.169   1.730   0.939  0.2330 -0.1647  1.1976
  162TMC2    C1 2516   1.876   3.960   1.253 -0.1080 -0.7117  0.4115
  162TMC2    C2 2517   1.785   4.042   1.314  0.0355 -0.3118 -0.7027
  162TMC2    C3 2518   1.800   4.063   1.447  0.9113  0.3497 -0.0623
  162TMC2    C4 2519   1.978   3.897   1.317 -0.7054  0.3198  0.3882
  162TMC2    C5 2520   1.974   3.915   1.455 -0.4713 -0.5842 -0.2579
  162TMC2    C6 2521   1.892   4.002   1.526 -0.5088 -0.3288  0.6430
  162TMC2     C 2522   1.875   3.960   1.109  0.1869 -0.5232 -0.0287
  162TMC2     O 2523   1.764   3.969   1.059  0.0658  0.2454  0.1185
  162TMC2     H 2524   1.735   4.115   1.251 -0.3197  1.0114  1.1417
  162TMC2    H1 2525   2.048   3.836   1.260 -1.0037 -1.8606  2.3758
  162TMC2    H2 2526   1.897   4.021   1.632  1.3159  2.3049  0.0992
  162TMC2    C7 2527   2.069   3.842   1.535 -0.3143  0.4772 -0.6949
  162TMC2    C8 2528   1.751   4.184   1.493 -0.1924 -0.2306 -0.1572
  162TMC2    O1 2529   2.108   3.889   1.644  0.0089 -0.3027  0.9076
  162TMC2    O2 2530   1.811   4.258   1.571 -0.3873  0.1676 -0.4067
  162TMC2    O5 2531   1.620   4.191   1.462 -0.0266 -0.2079  0.2864
  162TMC2    H5 2532   1.582   4.121   1.405 -1.1776 -1.6319  2.8326
  163MPD2     C 2533   2.083   3.987   0.631 -0.3542  0.1426 -0.2364
  163MPD2    C1 2534   1.949   3.989   0.681  0.8511  0.1640 -0.2644
  163MPD2    C2 2535   1.924   3.988   0.815 -0.3242 -0.6999  1.1689
  163MPD2    C3 2536   2.021   3.951   0.900  0.0222 -1.0318 -0.9352
  163MPD2    C4 2537   2.152   3.934   0.856 -0.5974  0.3636  0.1049
  163MPD2    C5 2538   2.177   3.959   0.726 -0.1106  0.1953 -0.3512
  163MPD2     H 2539   1.828   4.016   0.855 -0.6718 -0.3977  0.1183
  163MPD2    H1 2540   2.232   3.918   0.927  0.0368  2.8424 -0.0506
  163MPD2    H2 2541   2.107   4.017   0.530 -0.9906  1.3445 -0.0412
  163MPD2    H3 2542   2.277   3.952   0.686 -0.2126 -0.5778 -0.4666
  163MPD2     N 2543   1.995   3.934   1.039  0.5669 -0.0084  0.4882
  163MPD2    H5 2544   2.077   3.912   1.094  1.0848  1.0019  0.1337
  163MPD2    N1 2545   1.849   4.003   0.582 -0.0392 -0.2738  0.1608
  163MPD2    H7 2546   1.885   4.021   0.488 -2.7639  0.6468 -0.7034
  164TMC2    C1 2547   1.532   3.227  11.099 -0.2516  0.1548  0.5123
  164TMC2    C2 2548   1.530   3.167  11.221 -0.2250 -0.7194  0.3359
  164TMC2    C3 2549   1.467   3.225  11.327  0.6543 -0.1326  0.0477
  164TMC2    C4 2550   1.456   3.335  11.064 -0.0419 -0.4585  0.1888
  164TMC2    C5 2551   1.399   3.391  11.174  0.4548 -0.2007  0.1813
  164TMC2    C6 2552   1.404   3.344  11.306 -0.2433 -0.4973  0.0777
  164TMC2     C 2553   1.608   3.161  10.996  0.5495 -0.6755 -0.3285
  164TMC2     O 2554   1.641   3.044  11.009  0.1043  0.4283 -0.0468
  164TMC2     H 2555   1.573   3.068  11.234  0.8226 -0.4567 -1.2027
  164TMC2    H1 2556   1.442   3.373  10.963 -1.1288  0.9295  0.8766
  164TMC2    H2 2557   1.358   3.398  11.388 -1.0379 -0.3965 -0.4286
  164TMC2    C7 2558   1.313   3.498  11.137  0.0073  0.3842  0.0996
  164TMC2    C8 2559   1.504   3.167  11.459  0.0099 -0.6532  0.0331
  164TMC2    O1 2560   1.250   3.497  11.032 -0.5399 -0.1627  0.0206
  164TMC2    O2 2561   1.598   3.087  11.459 -0.0462  0.0970  0.0292
  164TMC2    O5 2562   1.420   3.211  11.557  0.2157  0.8493 -0.2451
  164TMC2    H5 2563   1.344   3.260  11.516 -0.4405 -0.0541 -0.0975
  165TMC2    C1 2564   4.096   1.417   1.819 -0.9643  0.3393  0.4941
  165TMC2    C2 2565   4.143   1.447   1.947  0.1351  0.5272 -0.0162
  165TMC2    C3 2566   4.131   1.586   1.964 -0.2078 -0.1393 -0.2111
  165TMC2    C4 2567   4.076   1.502   1.710  0.2421  0.2823  0.7567
  165TMC2    C5 2568   4.065   1.636   1.739 -0.3347  0.2731  0.0903
  165TMC2    C6 2569   4.096   1.676   1.867 -0.1083  0.3377  0.1364
  165TMC2     C 2570   4.104   1.277   1.784 -0.4706 -0.7701  0.2862
  165TMC2     O 2571   4.184   1.219   1.853 -0.1400 -0.0824  0.3254
  165TMC2     H 2572   4.177   1.373   2.018 -1.0257  1.3913  1.4285
  165TMC2    H1 2573   4.072   1.474   1.605  0.0443 -0.1585  0.8788
  165TMC2    H2 2574   4.112   1.781   1.886  0.2221 -0.1267  2.4179
  165TMC2    C7 2575   4.049   1.725   1.618 -0.2480 -0.5576  0.5183
  165TMC2    C8 2576   4.191   1.634   2.086 -0.4467 -0.3669 -0.4060
  165TMC2    O1 2577   4.067   1.676   1.506  0.2525  0.0972 -0.3633
  165TMC2    O2 2578   4.133   1.640   2.193 -0.0003 -0.3468 -0.0464
  165TMC2    O5 2579   4.303   1.566   2.072  0.3356  0.3942  0.1174
  165TMC2    H5 2580   4.333   1.572   1.979  1.5758 -2.9629  0.3002
  166MPD2     C 2581   3.983   0.869   1.492 -0.2135  0.3735  0.3931
  166MPD2    C1 2582   4.087   0.876   1.583 -0.2853  0.6470 -0.4170
  166MPD2    C2 2583   4.096   0.992   1.653  0.2405  0.6587  0.3738
  166MPD2    C3 2584   4.012   1.104   1.626 -0.2373 -0.0659  0.2129
  166MPD2    C4 2585   3.909   1.088   1.530  0.6544  0.0573 -0.4364
  166MPD2    C5 2586   3.895   0.972   1.469 -0.2681  0.7199 -0.0477
  166MPD2     H 2587   4.169   1.009   1.732  0.5002 -0.4544  0.3853
  166MPD2    H1 2588   3.833   1.159   1.498  0.9903  0.7991  0.4056
  166MPD2    H2 2589   3.972   0.783   1.427 -0.7283  0.3398  0.5253
  166MPD2    H3 2590   3.825   0.970   1.387  0.5467 -0.6535 -0.7057
  166MPD2     N 2591   4.020   1.235   1.684 -0.3791  0.1958  0.4792
  166MPD2    H5 2592   3.959   1.307   1.647 -2.4319 -1.1156  1.3195
  166MPD2    N1 2593   4.162   0.761   1.605 -0.0660 -0.1019 -0.2230
  166MPD2    H7 2594   4.136   0.678   1.554 -0.5311 -0.1389  0.0712
  167TMC2    C1 2595   0.828   3.004  13.088  0.1574  0.7488  0.2944
  167TMC2    C2 2596   0.698   2.987  13.143  0.0224 -0.3301 -0.0668
  167TMC2    C3 2597   0.631   2.868  13.122  0.1422 -0.6879 -0.2527
  167TMC2    C4 2598   0.901   2.901  13.034  0.1625  0.3455  0.0238
  167TMC2    C5 2599   0.823   2.786  13.017  0.3138 -0.4644 -0.4140
  167TMC2    C6 2600   0.696   2.770  13.054  0.6877  0.2054 -0.0775
  167TMC2     C 2601   0.886   3.140  13.110  0.2995 -0.5988  0.3153
  167TMC2     O 2602   0.844   3.218  13.199  0.2631 -0.3406 -0.2502
  167TMC2     H 2603   0.662   3.066  13.208 -1.0323 -1.5168  0.7893
  167TMC2    H1 2604   1.008   2.897  13.015  0.2799 -0.0464  0.7907
  167TMC2    H2 2605   0.641   2.678  13.037 -1.5757  1.5953 -0.3036
  167TMC2    C7 2606   0.883   2.678  12.946  0.0999  0.0243 -0.2748
  167TMC2    C8 2607   0.517   2.837  13.205  0.2545 -0.1366  0.6753
  167TMC2    O1 2608   0.854   2.561  12.969 -0.0988 -0.4560  0.0429
  167TMC2    O2 2609   0.487   2.726  13.242  0.2252  0.3122  0.7459
  167TMC2    O5 2610   0.439   2.949  13.196  0.0368 -0.5123 -0.4200
  167TMC2    H5 2611   0.479   3.028  13.153 -0.6459  0.5808  0.9311
  168MPD2     C 2612   1.107   3.325  13.162  0.0607  0.4565  0.2047
  168MPD2    C1 2613   1.104   3.239  13.059 -0.4721  0.1937  0.3922
  168MPD2    C2 2614   1.205   3.246  12.961  0.6199  0.1234 -0.0002
  168MPD2    C3 2615   1.309   3.336  12.978 -0.6872  0.9445  0.2739
  168MPD2    C4 2616   1.302   3.425  13.084  0.2163 -0.5806  0.1083
  168MPD2    C5 2617   1.202   3.414  13.175  0.4650 -0.2227  0.1025
  168MPD2     H 2618   1.208   3.173  12.880  1.2339 -0.2190  0.3248
  168MPD2    H1 2619   1.375   3.503  13.098 -0.5078  0.1503 -0.1920
  168MPD2    H2 2620   1.033   3.330  13.242  2.0014  1.1117  1.9413
  168MPD2    H3 2621   1.200   3.483  13.259 -1.0370 -1.3801  1.0373
  168MPD2     N 2622   1.408   3.343  12.875  0.2403  0.2978  0.2949
  168MPD2    H5 2623   1.403   3.281  12.795 -0.4869 -0.9143  1.2672
  168MPD2    N1 2624   0.995   3.152  13.036 -0.9696  0.1745  0.3054
  168MPD2    H7 2625   0.997   3.095  12.952 -1.8524  0.0646  0.3582
  169MPD1     C 2626   3.993   4.374   9.374 -0.0660 -0.5297  0.2075
  169MPD1    C1 2627   3.870   4.358   9.313  0.2870  0.0488 -0.1932
  169MPD1    C2 2628   3.853   4.227   9.264  0.5463  0.6613 -0.2493
  169MPD1    C3 2629   3.958   4.136   9.254 -0.3777 -0.5154 -0.2584
  169MPD1    C4 2630   4.081   4.163   9.304  0.8769  0.3982  0.6932
  169MPD1    C5 2631   4.096   4.281   9.371  0.4209 -0.3662  0.7309
  169MPD1     H 2632   3.757   4.185   9.235  0.3256  1.0908 -0.1535
  169MPD1    H1 2633   4.171   4.101   9.299 -1.4667 -2.9207 -0.3246
  169MPD1    H2 2634   4.024   4.461   9.431  0.1229 -0.9987  0.8102
  169MPD1    H3 2635   4.188   4.315   9.417  0.5661 -0.3958  0.4636
  169MPD1     N 2636   3.926   4.008   9.200  0.0970 -0.4526  0.3157
  169MPD1    H5 2637   3.830   3.989   9.171  0.1834 -0.6368  0.1517
  169MPD1    N1 2638   3.771   4.455   9.329 -0.9522 -0.0385 -0.3308
  169MPD1    H6 2639   3.691   4.449   9.267 -0.3025 -3.7882 -0.7822
  169MPD1    H7 2640   3.806   4.550   9.340 -0.7417 -0.3791  1.8614
  170MPD1     C 2641   1.764   0.911  12.161 -0.1721 -0.4487 -0.2499
  170MPD1    C1 2642   1.862   0.867  12.252 -0.3105  0.1014  0.5231
  170MPD1    C2 2643   1.851   0.900  12.386  0.4337 -0.8446 -0.3023
  170MPD1    C3 2644   1.738   0.966  12.433  0.1874 -0.0338  0.1899
  170MPD1    C4 2645   1.650   1.007  12.346 -0.4569  0.2742 -0.2258
  170MPD1    C5 2646   1.648   0.973  12.214 -0.1573 -0.3607  0.5851
  170MPD1     H 2647   1.931   0.880  12.457  2.1628  2.3837 -1.3397
  170MPD1    H1 2648   1.555   1.052  12.376 -0.3034  0.0236  0.6283
  170MPD1    H2 2649   1.779   0.887  12.057 -2.5170  0.3953 -0.8012
  170MPD1    H3 2650   1.574   1.014  12.147 -0.8170  0.3762  1.7752
  170MPD1     N 2651   1.733   0.990  12.574 -0.0886 -0.5223  0.4050
  170MPD1    H5 2652   1.811   0.958  12.629  0.1998 -0.2498  0.1535
  170MPD1    N1 2653   1.972   0.801  12.207  0.3014 -0.1697 -0.1136
  170MPD1    H6 2654   2.042   0.807  12.281  1.1801  1.4379 -1.0813
  170MPD1    H7 2655   2.010   0.853  12.129  1.1044  0.5657  0.7624
  171MPD1     C 2656   0.091   2.226  16.009  0.5717 -0.1336  0.7155
  171MPD1    C1 2657   0.100   2.087  15.990  0.5145  0.6085  0.3685
  171MPD1    C2 2658   0.225   2.034  15.966 -0.3522  0.0638  0.5810
  171MPD1    C3 2659   0.331   2.114  15.912  0.1942 -0.1044  0.2642
  171MPD1    C4 2660   0.317   2.249  15.917 -0.0182 -0.1208 -0.2464
  171MPD1    C5 2661   0.201   2.305  15.970  1.8682 -0.3349 -0.3744
  171MPD1     H 2662   0.225   1.926  15.975 -1.0427  0.2262  2.6909
  171MPD1    H1 2663   0.399   2.314  15.887 -1.5242  1.1932 -1.4894
  171MPD1    H2 2664   4.733   2.267  16.041 -1.4601 -3.9105 -0.5435
  171MPD1    H3 2665   0.209   2.411  15.992 -0.0390 -0.8107  2.6407
  171MPD1     N 2666   0.454   2.066  15.874  0.1855  0.0491  0.7952
  171MPD1    H5 2667   0.531   2.131  15.862  3.6334 -4.2037  0.1995
  171MPD1    N1 2668   4.727   2.010  16.038 -0.4517 -0.0581  0.0646
  171MPD1    H6 2669   4.644   2.065  16.017 -1.1293 -1.4493 -0.8856
  171MPD1    H7 2670   4.707   1.918  16.000  1.8195 -1.1858  1.6385
  172MPD1     C 2671   0.282   1.269  17.425  0.0580 -0.0105 -0.3858
  172MPD1    C1 2672   0.222   1.375  17.364 -0.4713  0.2060  0.5003
  172MPD1    C2 2673   0.204   1.487  17.435  0.6184  0.4170 -0.0821
  172MPD1    C3 2674   0.261   1.496  17.564  0.0923 -0.5505  0.0484
  172MPD1    C4 2675   0.329   1.392  17.622 -0.1724 -0.6052  0.3083
  172MPD1    C5 2676   0.343   1.284  17.549  0.4328  0.0039 -0.6137
  172MPD1     H 2677   0.134   1.563  17.401  2.0643  1.3827 -0.8887
  172MPD1    H1 2678   0.380   1.396  17.718 -2.0885 -1.2831  1.3557
  172MPD1    H2 2679   0.282   1.170  17.381  0.1306  1.4002 -3.5963
  172MPD1    H3 2680   0.389   1.196  17.594  0.7052  0.2251 -0.4575
  172MPD1     N 2681   0.252   1.597  17.652 -0.4991  0.1961 -0.3912
  172MPD1    H5 2682   0.289   1.589  17.746  2.7663  1.2791 -1.5870
  172MPD1    N1 2683   0.135   1.337  17.257  0.0830  0.3268  0.5969
  172MPD1    H6 2684   0.079   1.403  17.204  2.2899  1.6351 -0.0972
  172MPD1    H7 2685   0.183   1.278  17.190  0.0334  0.2375  0.6394
  173MPD1     C 2686   0.968   1.948  14.267 -0.7744  0.1397  0.2500
  173MPD1    C1 2687   1.089   1.910  14.314 -0.0476  0.0533 -0.0714
  173MPD1    C2 2688   1.099   1.815  14.412 -0.5164 -0.4037  0.2082
  173MPD1    C3 2689   0.988   1.755  14.461 -0.5096 -0.5050  0.2854
  173MPD1    C4 2690   0.865   1.806  14.426 -0.0425 -0.6930  0.3456
  173MPD1    C5 2691   0.854   1.891  14.321  0.4477  0.0925  0.2979
  173MPD1     H 2692   1.200   1.788  14.442  0.5215  1.4566 -1.6652
  173MPD1    H1 2693   0.773   1.750  14.443  0.1910 -0.6951  1.6102
  173MPD1    H2 2694   0.954   2.021  14.188  0.5902 -0.8256 -0.8843
  173MPD1    H3 2695   0.755   1.906  14.281  0.7463  1.9033  0.2702
  173MPD1     N 2696   1.010   1.653  14.554  0.5556 -0.4731  0.1257
  173MPD1    H5 2697   1.104   1.617  14.569  0.6713 -0.8996 -1.6875
  173MPD1    N1 2698   1.200   1.965  14.256  0.5192 -1.0102 -0.1673
  173MPD1    H6 2699   1.277   1.965  14.321  0.4842  0.0593 -0.1182
  173MPD1    H7 2700   1.183   2.059  14.220  2.7241 -0.6927 -0.3656
  174MPD1     C 2701   1.253   0.691  14.445  0.2428 -0.7986 -0.4310
  174MPD1    C1 2702   1.229   0.805  14.370  0.1089 -0.1212 -0.4664
  174MPD1    C2 2703   1.177   0.920  14.427 -0.2890 -0.2502  0.9026
  174MPD1    C3 2704   1.148   0.917  14.567  0.3734 -0.2268 -0.0754
  174MPD1    C4 2705   1.169   0.803  14.636  0.1283 -0.3768  0.4133
  174MPD1    C5 2706   1.217   0.689  14.570 -0.4181  0.2919 -0.5026
  174MPD1     H 2707   1.149   1.008  14.370  0.8362 -0.7601 -0.4323
  174MPD1    H1 2708   1.158   0.798  14.743  0.8018 -3.8406  0.3230
  174MPD1    H2 2709   1.297   0.604  14.399  2.9312  0.9805 -1.2368
  174MPD1    H3 2710   1.231   0.602  14.633 -1.7191  1.8825  1.9853
  174MPD1     N 2711   1.091   1.023  14.641 -0.0025 -0.0187 -0.0811
  174MPD1    H5 2712   1.084   1.006  14.741  1.5847 -0.6573 -0.0770
  174MPD1    N1 2713   1.225   0.790  14.230  0.0787 -0.1007 -0.2622
  174MPD1    H6 2714   1.240   0.877  14.180  1.4045  1.0792  2.1673
  174MPD1    H7 2715   1.287   0.718  14.193  0.2822  0.5693 -1.2317
  175MPD1     C 2716   4.298   2.109  15.489 -0.4602  0.4096  0.2841
  175MPD1    C1 2717   4.425   2.091  15.545  0.1265  0.0775  0.5158
  175MPD1    C2 2718   4.437   2.009  15.654 -0.4786  0.5469  0.3095
  175MPD1    C3 2719   4.326   1.947  15.707  0.3913 -0.6312 -0.2118
  175MPD1    C4 2720   4.203   1.966  15.646  0.0775  0.0676  0.0121
  175MPD1    C5 2721   4.188   2.037  15.533 -0.0525  0.4486  0.0848
  175MPD1     H 2722   4.531   2.000  15.707  0.4270  0.3617 -1.3223
  175MPD1    H1 2723   4.114   1.915  15.682 -0.8375  2.0377  0.5151
  175MPD1    H2 2724   4.276   2.176  15.407  1.5347  1.2271  0.4197
  175MPD1    H3 2725   4.091   2.044  15.485 -0.1846  0.1241  0.3058
  175MPD1     N 2726   4.323   1.884  15.838  0.1391 -0.2990  1.4379
  175MPD1    H5 2727   4.232   1.870  15.880 -0.4336 -1.8058 -0.3353
  175MPD1    N1 2728   4.525   2.179  15.521  0.3041 -0.0607 -1.4219
  175MPD1    H6 2729   4.512   2.220  15.428  1.2864 -2.3526 -2.5855
  175MPD1    H7 2730   4.615   2.132  15.530  0.6451  0.9942  0.6943
  176MPD1     C 2731   0.664   4.147  16.886  0.6342  0.4159 -0.4990
  176MPD1    C1 2732   0.634   4.246  16.984  0.4595  0.4011  0.6157
  176MPD1    C2 2733   0.741   4.305  17.053  0.5480 -0.2323  0.1616
  176MPD1    C3 2734   0.873   4.262  17.030  0.0254  0.2024  0.0506
  176MPD1    C4 2735   0.898   4.162  16.935 -0.7471  0.4196 -0.2399
  176MPD1    C5 2736   0.792   4.102  16.871  0.0881  0.2610 -0.0166
  176MPD1     H 2737   0.709   4.379  17.127 -0.9939  0.4053 -1.1330
  176MPD1    H1 2738   0.994   4.110  16.932 -0.2788  1.2734  0.1338
  176MPD1    H2 2739   0.576   4.104  16.839 -0.2766  0.4461  1.1547
  176MPD1    H3 2740   0.821   4.018  16.809  0.2876 -0.8157  1.5574
  176MPD1     N 2741   0.971   4.317  17.112  0.1333 -0.1064  0.6564
  176MPD1    H5 2742   0.942   4.399  17.165  1.0825  0.3194  0.5158
  176MPD1    N1 2743   0.506   4.298  16.983 -0.0324  0.6646  0.5602
  176MPD1    H6 2744   0.474   4.347  17.065 -0.7333 -1.6527  1.6766
  176MPD1    H7 2745   0.432   4.240  16.943 -0.6477  0.9419  1.3167
  177MPD1     C 2746   3.576   4.586  10.352  0.0972  0.6433 -0.0095
  177MPD1    C1 2747   3.698   4.584  10.289 -0.1126 -0.0633  0.8368
  177MPD1    C2 2748   3.699   4.521  10.168  0.5531 -0.4042 -0.3415
  177MPD1    C3 2749   3.591   4.466  10.107  0.2250 -1.0646  0.1565
  177MPD1    C4 2750   3.473   4.491  10.162  0.2101 -0.2497 -0.1532
  177MPD1    C5 2751   3.462   4.545  10.287  0.3896 -0.2487  0.3869
  177MPD1     H 2752   3.794   4.514  10.116 -0.3870 -1.5490 -1.8815
  177MPD1    H1 2753   3.381   4.451  10.119  1.0495 -0.9361 -1.3091
  177MPD1    H2 2754   3.572   4.623  10.454  0.8093 -1.1333  0.6569
  177MPD1    H3 2755   3.371   4.548  10.345 -0.3119  0.8457 -0.7888
  177MPD1     N 2756   3.603   4.407   9.976  0.0770 -0.3997  0.3979
  177MPD1    H5 2757   3.693   4.412   9.930  0.5232  0.3574  1.3507
  177MPD1    N1 2758   3.814   4.595  10.361  0.1972 -0.1388 -0.2996
  177MPD1    H6 2759   3.891   4.620  10.299  0.7766  1.5442  1.1124
  177MPD1    H7 2760   3.816   4.679  10.418 -2.3992  0.7569 -1.5584
  178MPD1     C 2761   2.018   0.886  17.667 -0.1666 -0.2926  0.6885
  178MPD1    C1 2762   2.148   0.869  17.695 -0.3239 -0.3395  0.1826
  178MPD1    C2 2763   2.221   0.775  17.629 -1.0810 -0.8091 -0.6131
  178MPD1    C3 2764   2.163   0.690  17.536 -0.1615 -0.0997  0.2439
  178MPD1    C4 2765   2.026   0.710  17.503  0.6232 -0.1853 -0.2602
  178MPD1    C5 2766   1.955   0.809  17.566  0.6274 -0.1251 -0.7935
  178MPD1     H 2767   2.328   0.778  17.646 -0.9776  1.2433 -1.6057
  178MPD1    H1 2768   1.971   0.647  17.434  0.9834 -0.0692 -0.6540
  178MPD1    H2 2769   1.966   0.964  17.720  1.4755  1.3021 -0.0383
  178MPD1    H3 2770   1.848   0.813  17.547  0.4860  0.2739  0.0646
  178MPD1     N 2771   2.230   0.588  17.466 -0.3103  0.2653  0.4051
  178MPD1    H5 2772   2.171   0.528  17.409 -0.4698  0.0404  0.8052
  178MPD1    N1 2773   2.214   0.964   0.028  0.2502 -0.0124  0.0778
  178MPD1    H6 2774   2.290   0.924   0.083  0.0356  0.8100  0.9834
  178MPD1    H7 2775   2.162   1.015   0.099 -0.0545 -0.3597  0.0978
  179MPD1     C 2776   1.581   3.590  14.633 -0.3276 -0.5470  0.1425
  179MPD1    C1 2777   1.632   3.650  14.741 -0.2554 -0.3247  0.1739
  179MPD1    C2 2778   1.616   3.585  14.861  0.1107 -0.4742 -0.1607
  179MPD1    C3 2779   1.563   3.455  14.874 -0.3196 -0.4353  0.1068
  179MPD1    C4 2780   1.507   3.392  14.761 -0.4978  0.8769  0.2393
  179MPD1    C5 2781   1.516   3.466  14.646 -0.1551 -1.1049  0.3874
  179MPD1     H 2782   1.650   3.639  14.948  3.3271 -0.4066 -1.4578
  179MPD1    H1 2783   1.465   3.293  14.765  1.6503 -0.1459 -2.2551
  179MPD1    H2 2784   1.581   3.637  14.536 -1.9843  0.0291  0.4180
  179MPD1    H3 2785   1.477   3.425  14.553 -1.1910  1.5990 -0.3539
  179MPD1     N 2786   1.538   3.399  14.997 -0.3426 -0.6455  1.2347
  179MPD1    H5 2787   1.494   3.309  15.011 -0.8969 -0.6604 -0.5243
  179MPD1    N1 2788   1.699   3.766  14.732 -0.1967  0.4222  0.2414
  179MPD1    H6 2789   1.655   3.823  14.661 -0.8228 -0.9031 -0.4371
  179MPD1    H7 2790   1.706   3.820  14.818 -3.3396  2.6161 -0.9098
  180MPD1     C 2791   2.033   4.344  15.344  0.0414 -1.1623  0.2702
  180MPD1    C1 2792   2.130   4.349  15.243 -0.2693 -0.7013 -0.2024
  180MPD1    C2 2793   2.092   4.296  15.120 -0.2723  0.4157  0.1360
  180MPD1    C3 2794   1.962   4.251  15.099  0.4605  0.2936  0.2281
  180MPD1    C4 2795   1.867   4.250  15.203  0.8886 -0.2881  0.2575
  180MPD1    C5 2796   1.907   4.297  15.324  0.7283 -0.7648 -0.6451
  180MPD1     H 2797   2.158   4.302  15.034  0.8162  1.2330  1.0315
  180MPD1    H1 2798   1.766   4.214  15.194 -0.3435  2.6782  2.2503
  180MPD1    H2 2799   2.062   4.388  15.439 -1.0059  1.7073 -0.7529
  180MPD1    H3 2800   1.840   4.300  15.409  1.3632 -1.1548 -0.1268
  180MPD1     N 2801   1.935   4.212  14.971  0.3230  0.0623  0.5659
  180MPD1    H5 2802   2.013   4.201  14.907  0.0645 -1.6615  0.5570
  180MPD1    N1 2803   2.266   4.366  15.276 -0.3451 -0.1189 -0.2566
  180MPD1    H6 2804   2.320   4.379  15.191 -1.7651  0.5883 -1.0495
  180MPD1    H7 2805   2.301   4.420  15.355  0.0820  1.1082 -1.2811
  181MPD1     C 2806   3.327   1.600  10.270  0.2863 -0.4429 -0.5848
  181MPD1    C1 2807   3.375   1.726  10.298 -0.1846  0.1765  0.4747
  181MPD1    C2 2808   3.505   1.768  10.265 -0.5845 -0.7584 -0.6870
  181MPD1    C3 2809   3.590   1.689  10.193  0.4543  0.0438 -0.0694
  181MPD1    C4 2810   3.539   1.566  10.156 -0.3039  0.2859  0.1445
  181MPD1    C5 2811   3.419   1.527  10.200 -0.3109  0.6320  0.3641
  181MPD1     H 2812   3.539   1.866  10.297 -1.5960 -0.7469  0.3567
  181MPD1    H1 2813   3.596   1.506  10.087  1.1886  0.8764  0.8442
  181MPD1    H2 2814   3.223   1.571  10.281 -0.4992  1.7983 -2.0772
  181MPD1    H3 2815   3.377   1.430  10.173  0.0695  1.1751 -2.0971
  181MPD1     N 2816   3.723   1.725  10.147  0.5268  0.4870 -0.2687
  181MPD1    H5 2817   3.781   1.657  10.100  0.4409 -0.2323  0.6692
  181MPD1    N1 2818   3.300   1.817  10.380 -0.0199  0.2816  0.5756
  181MPD1    H6 2819   3.201   1.800  10.359 -0.2671 -0.7423  2.5939
  181MPD1    H7 2820   3.326   1.914  10.363  4.3373 -1.2040 -1.2746
  182MPD1     C 2821   4.685   0.535   1.024 -0.5117  0.1120  0.2253
  182MPD1    C1 2822   4.644   0.441   0.932 -0.2206 -0.4286 -0.3794
  182MPD1    C2 2823   4.545   0.469   0.838 -0.7412  0.1976  0.0199
  182MPD1    C3 2824   4.466   0.577   0.863  0.2006  0.4091  0.1891
  182MPD1    C4 2825   4.496   0.661   0.966  0.3792  0.5246 -0.1364
  182MPD1    C5 2826   4.616   0.651   1.033 -0.4321 -0.4275 -0.2363
  182MPD1     H 2827   4.545   0.399   0.755 -1.1724 -0.2297  0.3760
  182MPD1    H1 2828   4.429   0.742   0.990  1.0513  1.1661 -0.4227
  182MPD1    H2 2829   0.020   0.516   1.103 -0.4027  1.3049  0.4056
  182MPD1    H3 2830   4.646   0.734   1.096  1.0699 -0.8702 -0.3721
  182MPD1     N 2831   4.347   0.600   0.793  0.3510  0.4719  0.6954
  182MPD1    H5 2832   4.280   0.664   0.835 -0.2142 -0.5458  1.3510
  182MPD1    N1 2833   4.732   0.332   0.920 -0.1584 -0.3998  0.0902
  182MPD1    H6 2834   0.030   0.300   1.010 -0.2005  1.1379  0.6602
  182MPD1    H7 2835   4.685   0.249   0.884  2.3508 -1.1711 -1.3446
  183MPD1     C 2836   0.272   1.859   9.379  0.0949  0.2395 -0.6528
  183MPD1    C1 2837   0.159   1.913   9.437 -0.0699 -0.1239  0.2995
  183MPD1    C2 2838   0.040   1.839   9.449 -0.0422  0.0513 -0.2707
  183MPD1    C3 2839   0.039   1.705   9.413  0.0937 -0.0741 -0.3442
  183MPD1    C4 2840   0.148   1.655   9.351  0.1614 -0.5854  0.1376
  183MPD1    C5 2841   0.266   1.720   9.341  0.0407  0.5394  0.3377
  183MPD1     H 2842   4.687   1.877   9.494 -0.0784  0.6499 -0.8505
  183MPD1    H1 2843   0.161   1.555   9.311 -2.3022  0.0802 -2.3057
  183MPD1    H2 2844   0.360   1.917   9.353 -0.0869  1.3899  1.2574
  183MPD1    H3 2845   0.351   1.680   9.286  0.0953  1.1240 -0.0059
  183MPD1     N 2846   4.654   1.638   9.440 -0.7949  0.9796  0.4091
  183MPD1    H5 2847   4.586   1.695   9.487 -2.7389 -0.3905 -0.7355
  183MPD1    N1 2848   0.147   2.050   9.459 -0.1636 -0.0451 -0.1006
  183MPD1    H6 2849   0.231   2.097   9.492 -1.8313  2.8438  0.0993
  183MPD1    H7 2850   0.067   2.071   9.519  0.8966  3.3057  0.1911
  184MPD1     C 2851   2.926   4.499  10.522  0.1751 -0.1796  0.1588
  184MPD1    C1 2852   3.063   4.470  10.550  0.0913  0.0025 -0.1091
  184MPD1    C2 2853   3.140   4.383  10.476 -0.2963 -0.4288 -0.4486
  184MPD1    C3 2854   3.081   4.337  10.357 -0.6239  0.6013 -1.2214
  184MPD1    C4 2855   2.951   4.377  10.322 -0.1772  0.3596 -0.3418
  184MPD1    C5 2856   2.877   4.455  10.401 -0.1733 -0.2638 -0.2407
  184MPD1     H 2857   3.243   4.359  10.503  0.5259  1.9175 -1.4991
  184MPD1    H1 2858   2.897   4.330  10.241  0.5595  1.2321 -1.3419
  184MPD1    H2 2859   2.859   4.565  10.576 -0.8183 -0.4665 -0.7148
  184MPD1    H3 2860   2.780   4.488  10.365 -0.7371 -1.4067  0.2091
  184MPD1     N 2861   3.146   4.247  10.267 -1.1002 -0.1266 -0.6874
  184MPD1    H5 2862   3.096   4.217  10.184  2.3514  0.7328 -3.0705
  184MPD1    N1 2863   3.116   4.532  10.662 -0.1814 -0.1165  0.7215
  184MPD1    H6 2864   3.083   4.628  10.668 -1.6326 -0.4543 -2.0150
  184MPD1    H7 2865   3.217   4.525  10.671  0.0192  0.2549 -1.2622
  185MPD1     C 2866   2.684   3.654   9.912 -0.1449 -0.3444  0.3890
  185MPD1    C1 2867   2.794   3.646   9.828 -0.2087 -0.0550  0.1493
  185MPD1    C2 2868   2.905   3.712   9.865  0.1142 -0.4373  0.1740
  185MPD1    C3 2869   2.915   3.779   9.988 -1.0266  0.3735 -0.4461
  185MPD1    C4 2870   2.806   3.783  10.066  1.0426 -0.1097 -0.9207
  185MPD1    C5 2871   2.692   3.717  10.031 -0.3035 -0.1083 -0.3093
  185MPD1     H 2872   2.990   3.719   9.797  1.1605  1.2618  1.6459
  185MPD1    H1 2873   2.793   3.840  10.158 -1.1596 -0.6855 -0.8763
  185MPD1    H2 2874   2.588   3.613   9.883 -0.0927 -2.2789  2.9909
  185MPD1    H3 2875   2.600   3.719  10.089 -0.4176  3.2268 -0.6053
  185MPD1     N 2876   3.037   3.840  10.032 -0.3288 -0.4941 -1.0975
  185MPD1    H5 2877   3.033   3.881  10.125 -1.5828 -1.1927 -0.8522
  185MPD1    N1 2878   2.770   3.612   9.692  0.2684  0.6665 -0.1171
  185MPD1    H6 2879   2.691   3.548   9.693  1.9163 -1.3447  1.6967
  185MPD1    H7 2880   2.850   3.576   9.642 -1.6767 -1.2168 -1.8736
  186MPD1     C 2881   1.948   2.619  16.208  0.4870  0.1130  0.0337
  186MPD1    C1 2882   2.029   2.670  16.107 -0.4001  0.2038 -0.4538
  186MPD1    C2 2883   2.079   2.796  16.123 -1.0209  0.3112  0.3724
  186MPD1    C3 2884   2.056   2.874  16.233 -0.3939 -0.5818 -0.2987
  186MPD1    C4 2885   1.960   2.827  16.325 -0.0650  0.5501 -0.2729
  186MPD1    C5 2886   1.911   2.699  16.314 -0.0372 -0.5270 -0.2010
  186MPD1     H 2887   2.140   2.840  16.045  0.7828 -1.5066  0.7662
  186MPD1    H1 2888   1.919   2.885  16.406 -1.7253  0.1219 -0.8022
  186MPD1    H2 2889   1.900   2.524  16.191 -0.0973  0.3869  0.1602
  186MPD1    H3 2890   1.825   2.674  16.374  2.2317  0.9156  3.6671
  186MPD1     N 2891   2.108   3.008  16.250 -0.2043 -0.3370 -0.0978
  186MPD1    H5 2892   2.090   3.051  16.340  1.0860 -0.5889  0.2815
  186MPD1    N1 2893   2.053   2.601  15.991 -0.9957 -0.0592  0.8554
  186MPD1    H6 2894   2.146   2.625  15.958 -0.8760 -0.6191  0.7904
  186MPD1    H7 2895   2.054   2.501  16.006 -0.1667 -0.6113 -2.8991
  187MPD1     C 2896   1.668   0.471   0.039  0.3234 -0.1968 -0.4886
  187MPD1    C1 2897   1.572   0.395  17.723 -0.2470 -0.8096 -0.3748
  187MPD1    C2 2898   1.512   0.439  17.611 -0.5523 -0.1103  0.2512
  187MPD1    C3 2899   1.544   0.567  17.560 -0.5613 -0.3906  0.2423
  187MPD1    C4 2900   1.630   0.645  17.629 -0.2688  0.0425  0.2906
  187MPD1    C5 2901   1.702   0.597  17.738 -0.6141  0.2161  0.2684
  187MPD1     H 2902   1.433   0.382  17.565  0.1172  0.3970 -1.5337
  187MPD1    H1 2903   1.656   0.744  17.594  0.8144 -0.6052 -0.6968
  187MPD1    H2 2904   1.733   0.434   0.118  0.7072  0.7019 -0.3734
  187MPD1    H3 2905   1.770   0.663   0.042 -1.1083  0.6083  0.4250
  187MPD1     N 2906   1.477   0.616  17.444 -0.3453 -0.2722 -0.4338
  187MPD1    H5 2907   1.483   0.716  17.430 -1.3262 -0.4767 -2.2870
  187MPD1    N1 2908   1.571   0.259   0.021 -0.5625  0.2370 -0.9735
  187MPD1    H6 2909   1.482   0.210   0.015 -0.7975  0.7375 -1.6307
  187MPD1    H7 2910   1.585   0.254   0.121  0.8113 -0.7324 -1.2132
  188MPD1     C 2911   1.056   0.415  10.307 -0.6740  0.3219  0.1491
  188MPD1    C1 2912   1.153   0.340  10.368 -0.0323  0.4406  0.6666
  188MPD1    C2 2913   1.225   0.258  10.290 -0.0860  0.1170 -0.3283
  188MPD1    C3 2914   1.217   0.264  10.151 -0.0558  0.4713 -0.2172
  188MPD1    C4 2915   1.142   0.361  10.093  0.5128 -0.6880 -0.3161
  188MPD1    C5 2916   1.060   0.437  10.172 -0.1443  0.2776  0.6021
  188MPD1     H 2917   1.297   0.196  10.342  0.4572  0.1645 -1.0271
  188MPD1    H1 2918   1.116   0.338   9.990 -1.1278  0.3300 -0.1280
  188MPD1    H2 2919   0.987   0.479  10.361  0.8696  1.4488  0.8000
  188MPD1    H3 2920   0.986   0.495  10.119 -0.9700 -1.9663 -0.6988
  188MPD1     N 2921   1.275   0.170  10.069  0.7250 -0.1955 -0.1870
  188MPD1    H5 2922   1.268   0.178   9.969 -1.5964  1.1570  0.0932
  188MPD1    N1 2923   1.150   0.322  10.509  1.2384  0.9994  0.1781
  188MPD1    H6 2924   1.119   0.407  10.554 -2.0854 -0.6260  0.9756
  188MPD1    H7 2925   1.234   0.286  10.554  1.8358  1.6841 -0.3895
  189MPD1     C 2926   2.791   1.079  17.731 -0.6031  0.3942 -0.0445
  189MPD1    C1 2927   2.667   1.083  17.673  0.1719 -0.2223  0.1922
  189MPD1    C2 2928   2.609   1.208  17.660 -0.9791  0.0665  0.4232
  189MPD1    C3 2929   2.681   1.324  17.693  0.2332 -0.3612  0.4902
  189MPD1    C4 2930   2.801   1.318   0.011 -0.0100 -0.0114 -0.0919
  189MPD1    C5 2931   2.852   1.192   0.032  0.6425 -0.3717  0.6122
  189MPD1     H 2932   2.509   1.220  17.620 -0.7082 -1.3556 -0.6943
  189MPD1    H1 2933   2.847   1.404   0.057  1.6800 -2.1287  2.2103
  189MPD1    H2 2934   2.832   0.982   0.010  2.4503  1.4577 -0.8659
  189MPD1    H3 2935   2.935   1.179   0.100  1.7259 -0.4130 -0.7121
  189MPD1     N 2936   2.613   1.447  17.674 -0.0603  0.1074  0.6319
  189MPD1    H5 2937   2.524   1.440  17.625  0.0143 -1.4401  0.7167
  189MPD1    N1 2938   2.590   0.968  17.656  0.7368 -0.3452 -0.0597
  189MPD1    H6 2939   2.514   0.982  17.589 -0.9313  1.2215  2.1609
  189MPD1    H7 2940   2.637   0.881  17.633 -1.6146 -1.4196 -0.8900
  190MPD1     C 2941   1.885   4.553  14.840 -0.5319 -0.0762  0.3676
  190MPD1    C1 2942   1.994   4.632  14.812 -0.3127  0.7694  0.0259
  190MPD1    C2 2943   2.053   4.704  14.914 -0.4988 -0.1910 -0.5404
  190MPD1    C3 2944   2.025   4.677  15.048  0.6114 -0.0679 -0.4744
  190MPD1    C4 2945   1.924   4.589  15.080 -0.5884 -1.0757 -0.2295
  190MPD1    C5 2946   1.855   4.533  14.974 -0.2339  0.1047 -0.0154
  190MPD1     H 2947   2.130   0.036  14.883 -1.4493  2.0814  2.2213
  190MPD1    H1 2948   1.888   4.568  15.181 -1.3864  0.6169 -0.1583
  190MPD1    H2 2949   1.827   4.494  14.770 -0.4321 -1.6996  1.6367
  190MPD1    H3 2950   1.766   4.471  14.984  0.0461  0.1172  2.6007
  190MPD1     N 2951   2.112   0.000  15.143 -0.4266  0.0740 -0.6304
  190MPD1    H5 2952   2.191   0.060  15.118 -1.6830  1.4327 -1.3333
  190MPD1    N1 2953   2.053   4.640  14.680 -0.3304  0.2399 -0.2742
  190MPD1    H6 2954   2.126   4.709  14.667  2.6790 -2.6586  1.3418
  190MPD1    H7 2955   1.985   4.633  14.604 -0.8239 -2.1921  0.3953
  191MPD1     C 2956   1.689   2.317  11.261 -0.1352 -0.1645 -0.0893
  191MPD1    C1 2957   1.636   2.279  11.380  0.5968  0.0461 -0.9094
  191MPD1    C2 2958   1.650   2.145  11.415 -0.3749  0.8116  0.0721
  191MPD1    C3 2959   1.717   2.056  11.335  0.3601  0.0502  0.2379
  191MPD1    C4 2960   1.774   2.105  11.221  0.4753  0.5183  0.3734
  191MPD1    C5 2961   1.756   2.231  11.180  0.0233  0.3905  0.7357
  191MPD1     H 2962   1.605   2.114  11.509 -1.2887 -0.3122 -0.7262
  191MPD1    H1 2963   1.830   2.041  11.154  2.8181 -0.4476  3.2473
  191MPD1    H2 2964   1.683   2.422  11.236  2.1095 -0.0231 -0.0469
  191MPD1    H3 2965   1.809   2.272  11.095 -0.2396 -0.5905  0.0983
  191MPD1     N 2966   1.757   1.922  11.372 -0.1484 -0.1790 -0.1574
  191MPD1    H5 2967   1.830   1.868  11.326 -0.6510  1.0646 -2.3760
  191MPD1    N1 2968   1.562   2.368  11.455 -0.6399  0.6009  0.0697
  191MPD1    H6 2969   1.518   2.331  11.538 -0.3900 -0.8685 -0.4433
  191MPD1    H7 2970   1.488   2.411  11.400  0.7807  0.5564 -1.8890
  192MPD1     C 2971   2.134   1.297  10.894  0.5401  0.3055  0.0390
  192MPD1    C1 2972   2.154   1.241  11.018 -0.4965  0.0442  0.1586
  192MPD1    C2 2973   2.091   1.302  11.128 -0.6908  0.6624  0.4470
  192MPD1    C3 2974   2.018   1.421  11.112  0.2069 -0.3038 -0.3380
  192MPD1    C4 2975   1.995   1.462  10.987 -0.6643 -0.0404  0.1149
  192MPD1    C5 2976   2.061   1.406  10.881  0.2771  0.0083 -0.6572
  192MPD1     H 2977   2.100   1.257  11.226 -0.7234  3.7545  1.8878
  192MPD1    H1 2978   1.949   1.559  10.971  0.8674  1.0030  1.9615
  192MPD1    H2 2979   2.185   1.251  10.810  0.8578 -0.1095  0.4620
  192MPD1    H3 2980   2.054   1.445  10.780  0.8974  1.9703  0.0631
  192MPD1     N 2981   1.961   1.493  11.215 -0.2058 -0.8871  0.5699
  192MPD1    H5 2982   1.919   1.580  11.183  1.8904 -0.4495 -0.9258
  192MPD1    N1 2983   2.225   1.121  11.024  0.0756  0.6636 -0.3482
  192MPD1    H6 2984   2.307   1.127  10.964  1.2601 -1.8860  1.0395
  192MPD1    H7 2985   2.268   1.114  11.116  0.4110 -2.6196 -0.7532
  193MPD1     C 2986   0.763   1.716  16.146  0.2131  0.2423 -0.0578
  193MPD1    C1 2987   0.689   1.831  16.185 -0.2720 -0.5960 -0.2234
  193MPD1    C2 2988   0.762   1.948  16.204 -0.2962 -0.4837  0.4082
  193MPD1    C3 2989   0.898   1.951  16.215 -0.2898  0.3587  0.0720
  193MPD1    C4 2990   0.965   1.836  16.189 -0.0819 -0.0205 -0.3349
  193MPD1    C5 2991   0.900   1.723  16.161  0.1494  0.3295  0.4523
  193MPD1     H 2992   0.704   2.038  16.216 -1.0251 -0.5463 -2.6795
  193MPD1    H1 2993   1.073   1.832  16.196 -0.1093  0.6737  0.4179
  193MPD1    H2 2994   0.723   1.617  16.127  1.7742 -0.2308 -0.9035
  193MPD1    H3 2995   0.955   1.632  16.140 -1.3479 -1.1785  2.9971
  193MPD1     N 2996   0.970   2.067  16.230 -0.3536  0.0584 -0.6958
  193MPD1    H5 2997   1.069   2.054  16.215 -0.2990 -1.4981  1.0779
  193MPD1    N1 2998   0.546   1.837  16.178  0.1968  0.6776  0.6658
  193MPD1    H6 2999   0.516   1.899  16.252 -1.4008 -0.3857  0.9111
  193MPD1    H7 3000   0.514   1.746  16.211  1.0358  1.0502  2.4716
  194MPD1     C 3001   3.457   4.144  16.104 -0.1675 -0.5075  1.0973
  194MPD1    C1 3002   3.512   4.032  16.051  0.3812 -0.3782 -0.5985
  194MPD1    C2 3003   3.554   3.939  16.145 -0.4508  0.0164  0.2543
  194MPD1    C3 3004   3.553   3.967  16.283  0.0886  0.2208  0.0106
  194MPD1    C4 3005   3.511   4.088  16.326 -0.4849 -0.4058  0.1577
  194MPD1    C5 3006   3.455   4.176  16.235 -0.1721  0.1436  0.4171
  194MPD1     H 3007   3.588   3.839  16.119 -0.1216 -0.5800  2.9912
  194MPD1    H1 3008   3.515   4.122  16.429  1.3988 -0.5529  0.1181
  194MPD1    H2 3009   3.401   4.212  16.040 -0.1992  1.3565  3.0805
  194MPD1    H3 3010   3.411   4.271  16.262 -0.7185 -0.3618  1.3015
  194MPD1     N 3011   3.611   3.884  16.384 -0.3958 -0.2415 -0.4572
  194MPD1    H5 3012   3.605   3.918  16.480 -2.4126  1.1156 -1.0612
  194MPD1    N1 3013   3.485   4.002  15.919  0.1725 -0.1436 -0.4698
  194MPD1    H6 3014   3.557   3.937  15.890 -0.0595 -1.1858  1.3232
  194MPD1    H7 3015   3.498   4.089  15.868 -0.1080  0.8426  1.1407
  195MPD1     C 3016   1.103   1.526  17.329  0.7345 -0.6891 -0.8576
  195MPD1    C1 3017   1.016   1.507  17.430 -0.4279 -0.4072 -0.3275
  195MPD1    C2 3018   0.970   1.384  17.456  0.4356 -0.2284 -0.1407
  195MPD1    C3 3019   1.026   1.272  17.399  0.5530 -0.1490  0.0839
  195MPD1    C4 3020   1.133   1.296  17.315  0.0978 -0.7916 -0.2358
  195MPD1    C5 3021   1.163   1.421  17.273 -0.1554  0.1540 -1.2390
  195MPD1     H 3022   0.883   1.384  17.520 -0.1646 -1.6912 -0.9478
  195MPD1    H1 3023   1.179   1.213  17.262  0.7388 -0.6201  0.0552
  195MPD1    H2 3024   1.125   1.621  17.282  1.0366  0.5813  1.8416
  195MPD1    H3 3025   1.223   1.436  17.184  2.7504 -0.2750  0.6609
  195MPD1     N 3026   0.993   1.139  17.437  0.3978 -0.4085  0.4566
  195MPD1    H5 3027   1.046   1.063  17.397 -0.2663  0.0385 -1.2635
  195MPD1    N1 3028   0.934   1.618  17.473  0.1278 -0.5469 -0.2437
  195MPD1    H6 3029   0.903   1.602  17.569  2.6327 -1.8623  0.3360
  195MPD1    H7 3030   0.970   1.713  17.471  0.5099 -0.6818  0.3448
  196MPD1     C 3031   4.435   0.081   0.093  0.3955  0.9169 -0.2770
  196MPD1    C1 3032   4.442   0.182   0.005 -0.2499  0.1561 -0.7633
  196MPD1    C2 3033   4.515   0.294   0.037 -0.5669 -0.2975  0.5511
  196MPD1    C3 3034   4.567   0.302   0.167 -0.4591  0.1470 -0.6392
  196MPD1    C4 3035   4.564   0.197   0.254 -0.2654  0.0925  0.5694
  196MPD1    C5 3036   4.496   0.083   0.215 -0.0263 -0.1094 -0.7401
  196MPD1     H 3037   4.506   0.382  17.723 -2.9778 -0.2687  0.9378
  196MPD1    H1 3038   4.603   0.208   0.354 -0.0524 -3.1043  0.8218
  196MPD1    H2 3039   4.375   4.729   0.082 -0.9915  1.8543 -0.1806
  196MPD1    H3 3040   4.488   4.736   0.283 -0.1579 -1.0281 -1.8918
  196MPD1     N 3041   4.636   0.412   0.226 -0.1580  0.4114 -0.7202
  196MPD1    H5 3042   4.650   0.410   0.326 -0.2470  1.9600 -0.6742
  196MPD1    N1 3043   4.370   0.179  17.635  0.3459 -0.4751  0.1294
  196MPD1    H6 3044   4.347   0.084  17.608  0.1652 -0.5324  0.4817
  196MPD1    H7 3045   4.409   0.239  17.563 -0.3099  1.0911  1.0760
  197MPD1     C 3046   4.436   1.665  17.292 -1.0834  0.4984  0.2100
  197MPD1    C1 3047   4.556   1.732  17.316  0.4450  0.6846  0.3739
  197MPD1    C2 3048   4.585   1.853  17.252 -0.3190  0.0027  0.0195
  197MPD1    C3 3049   4.495   1.890  17.149 -0.1177  0.1028 -0.2560
  197MPD1    C4 3050   4.391   1.807  17.105  0.3203  1.3185  0.0253
  197MPD1    C5 3051   4.360   1.691  17.179 -0.4919  0.1719 -0.0462
  197MPD1     H 3052   4.659   1.919  17.297 -0.6817  0.0250  0.5869
  197MPD1    H1 3053   4.326   1.827  17.020  0.5434 -1.7535 -0.8523
  197MPD1    H2 3054   4.404   1.596  17.369 -1.9219 -0.7636 -1.2619
  197MPD1    H3 3055   4.272   1.630  17.166 -0.9816  0.9272 -0.2996
  197MPD1     N 3056   4.512   2.013  17.072  0.5760 -0.5922 -0.1446
  197MPD1    H5 3057   4.487   2.008  16.974  0.0007 -1.7479  0.0612
  197MPD1    N1 3058   4.616   1.690  17.435 -0.7390  0.7220 -0.3263
  197MPD1    H6 3059   4.717   1.702  17.433 -0.5888 -0.4915 -0.3700
  197MPD1    H7 3060   4.613   1.589  17.447  1.9141  0.5792 -0.8741
  198MPD1     C 3061   1.389   0.526  14.942  0.1791 -0.0264 -0.1619
  198MPD1    C1 3062   1.433   0.482  15.065 -0.0867 -0.1836 -0.9851
  198MPD1    C2 3063   1.482   0.580  15.150 -0.2381 -0.7482 -0.2719
  198MPD1    C3 3064   1.515   0.713  15.113  0.2755 -0.2579  0.0759
  198MPD1    C4 3065   1.455   0.748  14.992 -0.2343 -0.8457  0.3571
  198MPD1    C5 3066   1.388   0.665  14.915 -0.1270 -0.1236 -0.4690
  198MPD1     H 3067   1.524   0.550  15.245 -0.5226 -1.1583 -0.2757
  198MPD1    H1 3068   1.475   0.847  14.952 -1.4635 -1.1816 -1.0866
  198MPD1    H2 3069   1.350   0.456  14.869 -0.0517  2.1861 -2.1455
  198MPD1    H3 3070   1.359   0.705  14.819 -1.2269 -2.8106 -1.2683
  198MPD1     N 3071   1.594   0.796  15.192 -0.0106 -0.0012 -0.4641
  198MPD1    H5 3072   1.627   0.764  15.282  1.3385  0.5564 -0.7570
  198MPD1    N1 3073   1.415   0.345  15.105  0.3433  0.2628 -0.3804
  198MPD1    H6 3074   1.419   0.279  15.028 -0.6038  0.7096 -0.8098
  198MPD1    H7 3075   1.485   0.312  15.172 -0.8214 -2.4977 -0.5414
  199MPD1     C 3076   3.902   2.370   9.798 -0.2004 -0.2203  0.4134
  199MPD1    C1 3077   3.789   2.405   9.859 -0.1838 -0.4296 -0.3508
  199MPD1    C2 3078   3.700   2.476   9.786  0.7118 -0.1736  0.2066
  199MPD1    C3 3079   3.734   2.520   9.662 -0.0096 -0.5447 -0.2252
  199MPD1    C4 3080   3.858   2.502   9.607  0.0812 -0.2885  0.4275
  199MPD1    C5 3081   3.941   2.430   9.681  0.1316 -0.1960  0.4766
  199MPD1     H 3082   3.602   2.500   9.826 -0.3714  0.1674 -2.6988
  199MPD1    H1 3083   3.888   2.536   9.508 -1.5044 -2.0494 -0.6661
  199MPD1    H2 3084   3.976   2.303   9.841 -0.0831  0.4290  1.2356
  199MPD1    H3 3085   4.039   2.410   9.638 -0.3115  0.5894 -0.8728
  199MPD1     N 3086   3.639   2.593   9.579 -0.0073 -0.1737 -0.1290
  199MPD1    H5 3087   3.670   2.621   9.486  0.2925  0.0187  0.0292
  199MPD1    N1 3088   3.746   2.335   9.972 -0.4400 -0.5968  0.3712
  199MPD1    H6 3089   3.816   2.307  10.039  1.4739 -2.6207 -2.4862
  199MPD1    H7 3090   3.669   2.378  10.024  0.6681  1.9596 -0.1018
  200MPD1     C 3091   1.707   2.552  13.091  0.0770  0.0587  0.6363
  200MPD1    C1 3092   1.744   2.441  13.160  0.4131  0.2504  0.2492
  200MPD1    C2 3093   1.875   2.398  13.150 -0.1933 -0.1085 -0.5266
  200MPD1    C3 3094   1.966   2.466  13.079  0.2819 -0.0536  0.1790
  200MPD1    C4 3095   1.929   2.585  13.020  0.5687 -0.1398 -0.9252
  200MPD1    C5 3096   1.800   2.623  13.016 -0.1610 -0.3026 -0.1683
  200MPD1     H 3097   1.911   2.308  13.197  0.9690  0.7015  0.1341
  200MPD1    H1 3098   2.005   2.650  12.977  1.3611 -1.3521 -1.3774
  200MPD1    H2 3099   1.604   2.583  13.095 -0.5829 -2.2487  1.0543
  200MPD1    H3 3100   1.776   2.720  12.974  1.0616  0.3638  0.6664
  200MPD1     N 3101   2.095   2.410  13.076  0.2794  0.3124 -0.1094
  200MPD1    H5 3102   2.095   2.321  13.125 -3.6568  0.7738  0.6883
  200MPD1    N1 3103   1.651   2.358  13.227 -0.2420 -0.1336  0.1820
  200MPD1    H6 3104   1.573   2.402  13.275  0.2887 -0.3291  1.2313
  200MPD1    H7 3105   1.691   2.298  13.299  3.1353  1.9733  0.0563
  201MPD1     C 3106   4.603   1.451  13.322 -1.5696 -0.7380 -0.6154
  201MPD1    C1 3107   4.691   1.441  13.219  0.1172 -0.4707 -0.0322
  201MPD1    C2 3108   0.065   1.362  13.232 -0.6272  0.1441 -0.0350
  201MPD1    C3 3109   0.089   1.285  13.345  0.6457  0.0285 -0.2596
  201MPD1    C4 3110   4.729   1.288  13.440 -0.3661  0.3063 -0.6903
  201MPD1    C5 3111   4.621   1.372  13.432  0.4609 -0.0808 -0.7252
  201MPD1     H 3112   0.132   1.347  13.148  1.1736  1.8960  1.0760
  201MPD1    H1 3113   4.737   1.230  13.532 -1.2817 -0.0237 -0.8244
  201MPD1    H2 3114   4.510   1.506  13.317 -0.1664  1.5430 -1.9433
  201MPD1    H3 3115   4.536   1.367  13.499 -0.2935  2.2457 -1.5308
  201MPD1     N 3116   0.202   1.202  13.346  0.5795 -0.3485  0.6922
  201MPD1    H5 3117   0.262   1.195  13.264 -0.4687 -2.9845  0.1536
  201MPD1    N1 3118   4.673   1.516  13.104  0.1050  0.0482  0.2094
  201MPD1    H6 3119   4.574   1.518  13.080  0.5465 -0.4216 -1.7049
  201MPD1    H7 3120   4.700   1.456  13.026 -0.9339 -1.3788  0.9470
  202MPD1     C 3121   0.724   0.651  10.317 -0.2351  0.6498 -0.6447
  202MPD1    C1 3122   0.591   0.613  10.307 -0.5204  0.8282 -0.0570
  202MPD1    C2 3123   0.546   0.634  10.177 -0.0685 -0.6178 -0.0938
  202MPD1    C3 3124   0.620   0.639  10.066 -0.0792 -0.2026 -0.0791
  202MPD1    C4 3125   0.757   0.655  10.084  0.1541 -0.3589 -0.2777
  202MPD1    C5 3126   0.808   0.677  10.208 -0.1912 -0.1324  0.1532
  202MPD1     H 3127   0.439   0.616  10.170 -0.2022 -0.4643  1.6792
  202MPD1    H1 3128   0.819   0.674   9.997  3.3894 -0.3069  2.0032
  202MPD1    H2 3129   0.758   0.671  10.418  0.9914 -0.9715 -0.7469
  202MPD1    H3 3130   0.913   0.703  10.215 -0.2525  0.6695 -1.9624
  202MPD1     N 3131   0.565   0.630   9.932 -0.7978  1.0502 -0.3098
  202MPD1    H5 3132   0.621   0.630   9.847  0.2013 -0.7622  0.3476
  202MPD1    N1 3133   0.497   0.628  10.411 -0.1833 -0.4099 -0.3131
  202MPD1    H6 3134   0.534   0.602  10.502 -0.2084  1.2160  0.1665
  202MPD1    H7 3135   0.412   0.575  10.393 -0.8763  1.0520 -1.4039
  203MPD1     C 3136   3.741   1.931  12.767 -0.4750 -0.2362 -0.5795
  203MPD1    C1 3137   3.664   1.839  12.706 -0.5949  0.1145  0.0936
  203MPD1    C2 3138   3.710   1.712  12.703 -0.6423 -0.2330 -0.5374
  203MPD1    C3 3139   3.831   1.674  12.759 -0.2159 -0.0827  0.1639
  203MPD1    C4 3140   3.917   1.775  12.801  0.0902  0.4227  0.3522
  203MPD1    C5 3141   3.867   1.902  12.807 -0.0809  1.2461 -0.5588
  203MPD1     H 3142   3.654   1.637  12.647  0.5114 -1.7524  0.3583
  203MPD1    H1 3143   4.019   1.746  12.824  0.5410  1.0718 -0.7964
  203MPD1    H2 3144   3.709   2.034  12.771  1.2520  0.3627 -1.9763
  203MPD1    H3 3145   3.930   1.983  12.842  0.0881  1.0826 -0.4862
  203MPD1     N 3146   3.869   1.530  12.766 -0.8381  0.1687  0.3199
  203MPD1    H5 3147   3.808   1.463  12.719 -0.4339 -1.2172  1.7798
  203MPD1    N1 3148   3.534   1.881  12.670 -0.2954 -0.0817 -0.2074
  203MPD1    H6 3149   3.504   1.824  12.591 -0.0462  0.9077 -1.0212
  203MPD1    H7 3150   3.540   1.980  12.647  0.5094 -0.7177 -2.7379
  204MPD1     C 3151   3.379   3.028  17.426  0.0558  0.6159 -0.1339
  204MPD1    C1 3152   3.439   3.022  17.298 -0.2810 -0.4551  0.1376
  204MPD1    C2 3153   3.466   2.897  17.242 -0.5307 -0.5340  0.1451
  204MPD1    C3 3154   3.436   2.783  17.320  0.3460 -0.3940 -0.4949
  204MPD1    C4 3155   3.394   2.792  17.446  0.2134 -0.4293  0.1458
  204MPD1    C5 3156   3.367   2.913  17.498 -0.0297  0.0671  0.1536
  204MPD1     H 3157   3.502   2.889  17.140  0.2224 -0.4436  0.4047
  204MPD1    H1 3158   3.371   2.704  17.505  2.5474 -1.0166  0.1733
  204MPD1    H2 3159   3.361   3.124  17.472 -1.4728  0.7712 -1.0327
  204MPD1    H3 3160   3.327   2.909  17.599 -0.7776 -1.4566 -0.2037
  204MPD1     N 3161   3.459   2.658  17.257 -0.2636 -0.7289 -0.4085
  204MPD1    H5 3162   3.489   2.661  17.160 -0.2874 -1.4517 -0.4400
  204MPD1    N1 3163   3.426   3.131  17.214 -1.5080  0.6835  0.0319
  204MPD1    H6 3164   3.433   3.221  17.261 -0.1223 -0.1676  1.4503
  204MPD1    H7 3165   3.499   3.134  17.144 -1.6929 -0.5247 -0.2214
  205MPD1     C 3166   3.893   0.669  16.964  0.5366 -0.0340 -0.5281
  205MPD1    C1 3167   3.939   0.796  16.957 -0.5247 -0.6276 -0.0529
  205MPD1    C2 3168   3.862   0.895  17.018 -0.5254  0.1644  0.3326
  205MPD1    C3 3169   3.733   0.868  17.069 -0.2341  0.3360 -0.0191
  205MPD1    C4 3170   3.687   0.740  17.067  0.2071  0.7895  0.0058
  205MPD1    C5 3171   3.770   0.640  17.028 -0.0771  0.2000 -0.0025
  205MPD1     H 3172   3.908   0.993  17.013  2.9610 -1.4403  1.1887
  205MPD1    H1 3173   3.593   0.712  17.112  0.2062  1.5763  0.5000
  205MPD1    H2 3174   3.953   0.583  16.936 -0.1081 -0.3190 -1.0186
  205MPD1    H3 3175   3.729   0.540  17.036 -2.1381  1.1651  1.5501
  205MPD1     N 3176   3.642   0.969  17.122  0.1502  0.1586  0.5099
  205MPD1    H5 3177   3.546   0.945  17.143 -0.5506  1.9579 -0.6475
  205MPD1    N1 3178   4.071   0.817  16.914 -0.4538  0.7550  0.6483
  205MPD1    H6 3179   4.079   0.754  16.834  0.9807  2.0421 -0.2176
  205MPD1    H7 3180   4.085   0.912  16.881 -2.2522  1.3532  1.5882
  206MPD1     C 3181   4.099   3.866  16.538 -0.0774  0.6163 -0.3283
  206MPD1    C1 3182   4.124   3.800  16.421  0.3906  0.0219 -0.5414
  206MPD1    C2 3183   4.051   3.846  16.313  0.1754  0.6638 -0.1511
  206MPD1    C3 3184   3.957   3.952  16.324 -0.2503  0.0352  0.1093
  206MPD1    C4 3185   3.933   4.005  16.443 -0.5977  0.3481  0.6123
  206MPD1    C5 3186   4.010   3.974  16.553 -0.4827 -0.1598  0.1745
  206MPD1     H 3187   4.080   3.805  16.217  0.6790  0.9986 -0.1459
  206MPD1    H1 3188   3.854   4.075  16.467 -0.0581  1.7761 -1.7399
  206MPD1    H2 3189   4.149   3.836  16.630  2.0163 -1.2793 -2.0709
  206MPD1    H3 3190   4.003   4.013  16.653  2.5022 -2.5563  1.3380
  206MPD1     N 3191   3.878   4.003  16.213 -0.3111  0.3898 -0.5368
  206MPD1    H5 3192   3.823   4.086  16.231  0.6099  0.2837  2.6333
  206MPD1    N1 3193   4.230   3.716  16.413 -0.4526 -0.2429 -0.4239
  206MPD1    H6 3194   4.255   3.666  16.499  2.1008 -0.3218 -1.2337
  206MPD1    H7 3195   4.215   3.644  16.343  1.8543 -0.8785 -0.2662
  207MPD1     C 3196   1.101   2.571  10.014 -0.3233 -0.2392 -0.0011
  207MPD1    C1 3197   1.186   2.651   9.938  0.2373 -0.4727  0.2060
  207MPD1    C2 3198   1.306   2.595   9.907  0.0631 -0.3522 -0.2850
  207MPD1    C3 3199   1.336   2.465   9.956  0.9703 -0.2045  0.0517
  207MPD1    C4 3200   1.249   2.381  10.022 -0.5653 -0.5620  0.1695
  207MPD1    C5 3201   1.128   2.439  10.049  0.9154 -0.6483 -0.3904
  207MPD1     H 3202   1.361   2.645   9.828  3.7415 -1.3808  1.6386
  207MPD1    H1 3203   1.281   2.287  10.064  0.6844 -0.3735 -0.3455
  207MPD1    H2 3204   1.005   2.606  10.049  0.2948  2.9103 -1.5084
  207MPD1    H3 3205   1.054   2.386  10.108  2.0375 -1.1483  0.5625
  207MPD1     N 3206   1.458   2.403   9.929  0.4241  0.0515  0.3924
  207MPD1    H5 3207   1.468   2.309   9.966  2.6495  0.5173  0.9637
  207MPD1    N1 3208   1.147   2.785   9.903  0.3999 -0.1407 -0.2429
  207MPD1    H6 3209   1.052   2.790   9.866  0.1870 -2.8139 -0.0627
  207MPD1    H7 3210   1.203   2.829   9.831 -0.9900 -0.9756 -1.8434
  208MPD1     C 3211   3.245   4.251  17.439 -0.3403 -0.7128  0.2468
  208MPD1    C1 3212   3.360   4.298  17.494 -0.1096 -0.1138  0.6946
  208MPD1    C2 3213   3.349   4.414  17.571 -0.0673 -0.2166 -0.4840
  208MPD1    C3 3214   3.237   4.490  17.580  0.1906 -0.1717 -0.4957
  208MPD1    C4 3215   3.112   4.442  17.529  0.5164  0.2423  0.6213
  208MPD1    C5 3216   3.127   4.328  17.453 -0.3771  0.8549  1.0251
  208MPD1     H 3217   3.443   4.447  17.616  0.2902 -1.7489 -0.1116
  208MPD1    H1 3218   3.013   4.487  17.533  0.9017  1.1869 -0.4289
  208MPD1    H2 3219   3.249   4.176  17.361 -1.2845  0.4514 -0.9179
  208MPD1    H3 3220   3.041   4.282  17.406  0.3319  0.6869 -0.1157
  208MPD1     N 3221   3.248   4.616  17.647 -0.0995  0.0586 -0.5498
  208MPD1    H5 3222   3.341   4.637  17.683  0.0160 -0.2448 -0.6730
  208MPD1    N1 3223   3.469   4.216  17.501 -0.7236 -0.1629 -0.0424
  208MPD1    H6 3224   3.557   4.267  17.501  0.2757 -1.8958 -1.1563
  208MPD1    H7 3225   3.472   4.162  17.415  0.4784  0.8468 -0.6418
  209MPD1     C 3226   0.948   1.745   9.652 -0.2919 -0.4278 -0.4129
  209MPD1    C1 3227   0.939   1.606   9.657 -0.3671 -0.3424  0.2191
  209MPD1    C2 3228   1.051   1.535   9.706  0.2831  0.3952 -0.1851
  209MPD1    C3 3229   1.159   1.603   9.759  0.5083 -0.4222 -0.5676
  209MPD1    C4 3230   1.155   1.736   9.767  0.0971  0.2239 -0.5528
  209MPD1    C5 3231   1.055   1.806   9.701  0.1995 -0.5473 -0.5525
  209MPD1     H 3232   1.056   1.427   9.707  0.0766  0.3848 -0.9812
  209MPD1    H1 3233   1.244   1.773   9.817 -1.2954  2.9212 -0.0960
  209MPD1    H2 3234   0.869   1.794   9.596 -0.3081 -0.4454 -0.4059
  209MPD1    H3 3235   1.065   1.914   9.687 -0.4435 -0.0981  2.4866
  209MPD1     N 3236   1.277   1.537   9.813 -0.4433 -0.1897 -0.0772
  209MPD1    H5 3237   1.353   1.603   9.830 -1.5332  1.1217 -0.3101
  209MPD1    N1 3238   0.832   1.536   9.602 -0.2377  0.2127  0.4335
  209MPD1    H6 3239   0.746   1.589   9.589  0.4464  0.5249 -2.9814
  209MPD1    H7 3240   0.822   1.443   9.642 -2.2692  0.3616  0.2893
  210MPD1     C 3241   1.336   0.639  10.228 -0.1077 -0.3327  0.0563
  210MPD1    C1 3242   1.444   0.703  10.292 -0.2406  0.3450  0.0447
  210MPD1    C2 3243   1.466   0.842  10.269  0.3447  0.5167  0.8065
  210MPD1    C3 3244   1.391   0.903  10.166 -0.0185 -0.6285  0.1095
  210MPD1    C4 3245   1.284   0.838  10.106  0.0883  0.2909 -0.3853
  210MPD1    C5 3246   1.258   0.706  10.134  0.8009 -0.5671  0.3006
  210MPD1     H 3247   1.541   0.902  10.318 -0.1310  2.5504 -0.9590
  210MPD1    H1 3248   1.216   0.885  10.036 -0.6725 -0.4334 -0.1378
  210MPD1    H2 3249   1.297   0.541  10.254  0.5917 -0.9037 -1.0447
  210MPD1    H3 3250   1.175   0.666  10.077  0.7965 -0.8304  0.4923
  210MPD1     N 3251   1.410   1.036  10.120 -0.5707 -0.3264  0.3436
  210MPD1    H5 3252   1.342   1.061  10.049  0.0374 -1.0866 -0.4927
  210MPD1    N1 3253   1.516   0.641  10.399  0.2853 -0.4469 -0.1597
  210MPD1    H6 3254   1.606   0.683  10.421 -1.2180  1.8697  1.5380
  210MPD1    H7 3255   1.524   0.540  10.399  0.4611 -0.4455  3.6434
  211MPD1     C 3256   3.912   0.208  16.449  0.5082 -0.2616  0.0632
  211MPD1    C1 3257   3.838   0.186  16.560  0.4037 -0.3359 -0.0808
  211MPD1    C2 3258   3.771   0.286  16.618 -0.4927  0.4728  0.2624
  211MPD1    C3 3259   3.774   0.413  16.558  0.2392  0.7660  0.3718
  211MPD1    C4 3260   3.848   0.434  16.437  0.6391  0.5683 -0.2114
  211MPD1    C5 3261   3.925   0.333  16.399  0.0795 -0.1007  0.3640
  211MPD1     H 3262   3.712   0.261  16.705 -1.9743 -1.3844 -1.3078
  211MPD1    H1 3263   3.849   0.528  16.383 -0.9600  0.8013  0.1568
  211MPD1    H2 3264   3.968   0.123  16.413 -0.5992 -0.7602 -0.4640
  211MPD1    H3 3265   3.989   0.343  16.311  2.0058  0.7577  1.8648
  211MPD1     N 3266   3.696   0.511  16.616  0.1143  0.2668  0.4001
  211MPD1    H5 3267   3.649   0.484  16.702 -0.9882 -0.8429 -0.5455
  211MPD1    N1 3268   3.827   0.049  16.605 -0.1115 -0.4877 -0.2171
  211MPD1    H6 3269   3.899   4.726  16.565  0.4121  0.2571 -0.3971
  211MPD1    H7 3270   3.816   0.041  16.706 -0.3268  0.4617 -0.1655
  212MPD1     C 3271   3.156   4.322  16.006 -0.0116 -0.2679  0.3523
  212MPD1    C1 3272   3.115   4.358  16.134 -0.0765  0.0490  0.1943
  212MPD1    C2 3273   3.059   4.270  16.211  0.1954 -0.1564 -0.4237
  212MPD1    C3 3274   3.070   4.136  16.181  0.1394  0.0862  0.2962
  212MPD1    C4 3275   3.115   4.100  16.056  0.1368  0.5761  0.1505
  212MPD1    C5 3276   3.156   4.196  15.966 -0.3968 -0.2998 -0.7385
  212MPD1     H 3277   3.013   4.308  16.302 -0.3208 -0.2349 -0.6554
  212MPD1    H1 3278   3.119   3.999  16.016  3.1284  1.3781 -1.5769
  212MPD1    H2 3279   3.174   4.401  15.934 -0.4320  0.0383  0.5852
  212MPD1    H3 3280   3.196   4.166  15.870  0.1813  1.6495 -1.1170
  212MPD1     N 3281   3.011   4.034  16.264  0.6820  0.3382 -0.2458
  212MPD1    H5 3282   3.009   3.937  16.236 -2.2785 -0.5323  2.9784
  212MPD1    N1 3283   3.090   4.496  16.156 -0.0535  0.0197  0.7324
  212MPD1    H6 3284   3.083   4.520  16.254 -2.2310  0.6097  0.4168
  212MPD1    H7 3285   3.166   4.545  16.109  0.4735  2.0755  3.7812
  213MPD1     C 3286   1.338   4.459  15.789  0.2151  0.2175 -0.5144
  213MPD1    C1 3287   1.315   4.370  15.688  1.0146 -0.0771 -0.8162
  213MPD1    C2 3288   1.268   4.425  15.567  0.0140  0.0222 -0.4482
  213MPD1    C3 3289   1.281   4.556  15.530 -0.1076  0.8643  0.3335
  213MPD1    C4 3290   1.352   4.631  15.624 -0.2355  0.2173  0.5894
  213MPD1    C5 3291   1.362   4.594  15.755 -0.5664  0.5184 -0.0239
  213MPD1     H 3292   1.227   4.363  15.489 -0.0562  2.3853 -2.2765
  213MPD1    H1 3293   1.373   4.736  15.609 -2.1072 -0.0633 -3.9423
  213MPD1    H2 3294   1.361   4.419  15.887 -0.5747 -0.7820 -0.7377
  213MPD1    H3 3295   1.385   4.664  15.834 -0.3026 -0.0450  0.3982
  213MPD1     N 3296   1.231   4.597  15.403 -0.7166  0.0516  0.7096
  213MPD1    H5 3297   1.180   4.532  15.344  2.0829 -0.8807 -0.6655
  213MPD1    N1 3298   1.294   4.233  15.718 -0.2187  0.6102  0.5434
  213MPD1    H6 3299   1.298   4.177  15.633  0.7855 -0.5701  1.3792
  213MPD1    H7 3300   1.352   4.190  15.790 -0.8091 -2.3388 -0.7414
  214MPD1     C 3301   0.822   4.235  14.611  0.5597  0.1418 -0.7713
  214MPD1    C1 3302   0.930   4.202  14.688 -0.0122 -0.2571  0.0517
  214MPD1    C2 3303   0.992   4.296  14.765 -0.2076  0.1554 -0.3806
  214MPD1    C3 3304   0.946   4.429  14.767  0.0549 -0.8899 -0.7473
  214MPD1    C4 3305   0.838   4.460  14.688  0.1213  0.7024 -0.1622
  214MPD1    C5 3306   0.777   4.365  14.612  0.2992  0.1211 -0.3793
  214MPD1     H 3307   1.077   4.265  14.824 -1.5719 -0.7596  1.1278
  214MPD1    H1 3308   0.802   4.562  14.688 -2.1659 -0.0946  2.2180
  214MPD1    H2 3309   0.780   4.167  14.539 -0.4915  0.0870 -0.1134
  214MPD1    H3 3310   0.695   4.393  14.546 -0.8090  1.9817  1.7591
  214MPD1     N 3311   1.004   4.531  14.844  0.1188  0.1962 -0.0098
  214MPD1    H5 3312   0.976   4.628  14.838 -3.6868 -0.8861  0.4148
  214MPD1    N1 3313   0.993   4.076  14.668  0.5549  0.2961 -0.1291
  214MPD1    H6 3314   1.059   4.043  14.737  1.1762 -0.8548 -1.2685
  214MPD1    H7 3315   0.924   4.004  14.646  0.5554  0.5757 -1.0430
  215MPD1     C 3316   1.914   0.648  10.289  0.2559 -0.3576 -0.2405
  215MPD1    C1 3317   1.870   0.758  10.215 -0.5649  0.3923 -0.1283
  215MPD1    C2 3318   1.806   0.857  10.287 -0.3337 -0.1387  0.8448
  215MPD1    C3 3319   1.809   0.866  10.421  0.5289 -0.2120  0.1809
  215MPD1    C4 3320   1.857   0.761  10.496  0.2939  0.0651  0.3686
  215MPD1    C5 3321   1.900   0.647  10.427  0.4825  0.2441  0.2799
  215MPD1     H 3322   1.773   0.939  10.225  1.3249  0.3751  0.6237
  215MPD1    H1 3323   1.853   0.768  10.604 -1.6680 -1.8786  0.4344
  215MPD1    H2 3324   1.949   0.556  10.242 -0.9250 -2.1862  2.4381
  215MPD1    H3 3325   1.933   0.559  10.482 -1.1848 -0.3287  0.3805
  215MPD1     N 3326   1.760   0.987  10.480 -0.5441  0.2744 -1.0458
  215MPD1    H5 3327   1.763   1.065  10.416 -3.4255  1.2652  0.0572
  215MPD1    N1 3328   1.862   0.753  10.078 -0.1992  0.2883  0.4680
  215MPD1    H6 3329   1.952   0.718  10.046 -0.3212 -0.2884  0.7452
  215MPD1    H7 3330   1.870   0.845  10.036 -1.1889 -0.2278 -0.8542
  216MPD1     C 3331   3.267   3.768  16.326  0.5930 -0.2704 -0.0247
  216MPD1    C1 3332   3.231   3.636  16.347  0.0694  0.2490 -0.5151
  216MPD1    C2 3333   3.195   3.595  16.471  0.6921 -0.1189  0.2904
  216MPD1    C3 3334   3.194   3.684  16.573 -0.1356 -0.3935  0.2473
  216MPD1    C4 3335   3.207   3.822  16.548  0.7952  0.3116  0.0967
  216MPD1    C5 3336   3.239   3.864  16.424 -0.6201  0.6188 -0.3860
  216MPD1     H 3337   3.172   3.492  16.494 -2.3042  0.8721  1.8144
  216MPD1    H1 3338   3.195   3.900  16.622 -1.8736  0.4963 -0.5364
  216MPD1    H2 3339   3.305   3.810  16.233  2.6828 -0.2307  0.8447
  216MPD1    H3 3340   3.242   3.967  16.392 -1.3140  0.1224 -2.0382
  216MPD1     N 3341   3.141   3.629  16.693  0.2347 -0.1941 -0.1429
  216MPD1    H5 3342   3.126   3.528  16.697 -0.5023 -0.1845 -2.3333
  216MPD1    N1 3343   3.257   3.533  16.254 -0.3419 -0.1076 -0.0990
  216MPD1    H6 3344   3.246   3.565  16.158 -0.6064 -0.9933 -0.3607
  216MPD1    H7 3345   3.194   3.453  16.262  0.6654 -0.8608  0.3937
  217MPD1     C 3346   3.911   3.519   8.749 -0.3035 -0.0649 -0.5928
  217MPD1    C1 3347   4.030   3.589   8.739 -0.8760 -0.3992 -0.2257
  217MPD1    C2 3348   4.017   3.726   8.748 -0.3472 -0.1220 -0.0745
  217MPD1    C3 3349   3.904   3.785   8.805  0.7231 -0.6327 -0.5771
  217MPD1    C4 3350   3.793   3.703   8.827 -1.6098  0.2884 -0.1236
  217MPD1    C5 3351   3.793   3.574   8.785  0.3227  0.4566  0.1545
  217MPD1     H 3352   4.109   3.779   8.725 -2.1574  2.0280 -2.4657
  217MPD1    H1 3353   3.705   3.752   8.866 -1.6910  0.1856 -0.1791
  217MPD1    H2 3354   3.905   3.411   8.743  0.2595  0.0082 -2.5186
  217MPD1    H3 3355   3.713   3.506   8.812  2.4130 -1.7145  0.8508
  217MPD1     N 3356   3.881   3.927   8.827 -0.1586 -0.1326  0.1723
  217MPD1    H5 3357   3.789   3.961   8.854 -0.0483 -0.5220  1.0398
  217MPD1    N1 3358   4.151   3.525   8.694 -0.9009 -0.0192 -0.2556
  217MPD1    H6 3359   4.154   3.425   8.711 -1.7679 -0.1339 -0.7499
  217MPD1    H7 3360   4.237   3.577   8.709 -0.4157 -0.8018 -0.3761
  218MPD1     C 3361   0.677   2.372  13.153  0.7299  0.1575  0.5325
  218MPD1    C1 3362   0.546   2.323  13.186  0.4153 -0.1709  0.2794
  218MPD1    C2 3363   0.523   2.184  13.177  0.3357 -0.4868 -1.1074
  218MPD1    C3 3364   0.622   2.096  13.129 -0.9144  0.1472 -0.0161
  218MPD1    C4 3365   0.748   2.148  13.091  0.1810  0.3163  0.2722
  218MPD1    C5 3366   0.779   2.286  13.109 -0.0720  0.6135 -0.4222
  218MPD1     H 3367   0.427   2.147  13.212  0.0976 -0.7112 -1.9859
  218MPD1    H1 3368   0.824   2.081  13.053  0.1632 -0.4192  1.5459
  218MPD1    H2 3369   0.705   2.477  13.164  2.6049 -0.2933  0.0999
  218MPD1    H3 3370   0.877   2.325  13.086  0.5644  0.0951  1.4082
  218MPD1     N 3371   0.589   1.960  13.106 -0.4483  0.2718  0.6205
  218MPD1    H5 3372   0.489   1.943  13.111 -0.6482  1.3879  0.2814
  218MPD1    N1 3373   0.450   2.414  13.235 -0.4507 -0.3498  0.9809
  218MPD1    H6 3374   0.370   2.417  13.172  0.6133  2.7927 -0.2460
  218MPD1    H7 3375   0.475   2.512  13.218  0.4137 -0.6723  0.4160
  219MPD1     C 3376   0.146   1.512  12.331  0.0417  0.6777  0.7518
  219MPD1    C1 3377   0.193   1.638  12.359 -0.5274  0.4381 -0.0277
  219MPD1    C2 3378   0.253   1.659  12.487 -0.2803 -0.4773  0.3990
  219MPD1    C3 3379   0.268   1.557  12.580  0.2326 -0.1114  0.8965
  219MPD1    C4 3380   0.202   1.439  12.555  0.4314  0.2394  0.1642
  219MPD1    C5 3381   0.139   1.422  12.434 -0.6952 -0.2389  0.7560
  219MPD1     H 3382   0.283   1.757  12.522 -1.2131  0.7556 -2.2811
  219MPD1    H1 3383   0.195   1.358  12.627 -2.7056 -0.3511 -0.8402
  219MPD1    H2 3384   0.102   1.483  12.236 -0.8450  2.4069  0.6233
  219MPD1    H3 3385   0.094   1.325  12.417 -2.0105  0.6227 -0.7078
  219MPD1     N 3386   0.320   1.569  12.712  0.3348  0.1356 -0.0806
  219MPD1    H5 3387   0.297   1.491  12.772  0.8167 -0.0189 -0.1036
  219MPD1    N1 3388   0.177   1.740  12.261  0.2799  0.3079  0.0657
  219MPD1    H6 3389   0.258   1.801  12.260  0.6613 -0.1699  2.0404
  219MPD1    H7 3390   0.177   1.699  12.167  1.3050  1.7546 -0.5694
  220MPD1     C 3391   0.338   1.363   9.468 -0.0007  0.1991 -0.5031
  220MPD1    C1 3392   0.289   1.408   9.589 -0.3246 -0.5668 -0.2352
  220MPD1    C2 3393   0.375   1.405   9.702 -0.4894  0.0090 -0.1877
  220MPD1    C3 3394   0.511   1.374   9.690  0.5994 -0.0208 -0.5217
  220MPD1    C4 3395   0.555   1.333   9.566  0.6165 -1.0891  0.1745
  220MPD1    C5 3396   0.468   1.328   9.458  0.1506  0.1304  0.2858
  220MPD1     H 3397   0.345   1.430   9.803 -1.2505  1.0043 -0.6603
  220MPD1    H1 3398   0.657   1.299   9.551  0.7685 -0.2037 -0.7981
  220MPD1    H2 3399   0.278   1.372   9.378  1.3373  0.0158 -1.4044
  220MPD1    H3 3400   0.513   1.296   9.365  0.0657 -0.8443  0.5773
  220MPD1     N 3401   0.590   1.372   9.805 -0.2585 -0.6362  0.5396
  220MPD1    H5 3402   0.537   1.387   9.890  0.5073  4.1401  0.2040
  220MPD1    N1 3403   0.151   1.431   9.601  0.0486 -0.1281  0.2267
  220MPD1    H6 3404   0.134   1.515   9.656 -0.2801 -0.1374  0.1335
  220MPD1    H7 3405   0.109   1.438   9.508 -0.4750  2.3132  0.6424
  221MPD1     C 3406   3.041   0.515  16.380  0.7095 -0.7417  0.3316
  221MPD1    C1 3407   3.034   0.506  16.246 -0.4755 -0.3401  0.0699
  221MPD1    C2 3408   3.141   0.467  16.175 -0.0910 -0.3361 -0.0476
  221MPD1    C3 3409   3.246   0.410  16.237  0.1528  0.5764 -0.1950
  221MPD1    C4 3410   3.262   0.419  16.376  1.1225  0.1330  0.0512
  221MPD1    C5 3411   3.156   0.481  16.447 -0.2354 -0.1823  0.5994
  221MPD1     H 3412   3.129   0.469  16.067 -0.5554 -1.5222 -0.0185
  221MPD1    H1 3413   3.350   0.376  16.421 -0.0019 -2.4527 -0.2199
  221MPD1    H2 3414   2.955   0.550  16.436  3.3318  2.5750  2.2973
  221MPD1    H3 3415   3.155   0.481  16.555 -1.3654 -1.6995  0.5790
  221MPD1     N 3416   3.345   0.336  16.172 -0.5445 -0.3936  0.5154
  221MPD1    H5 3417   3.419   0.299  16.231  1.1999 -0.4389 -1.7250
  221MPD1    N1 3418   2.936   0.580  16.176  1.0059  0.3105  0.3657
  221MPD1    H6 3419   2.845   0.586  16.221 -0.2422 -1.8838 -1.8941
  221MPD1    H7 3420   2.919   0.550  16.080 -3.1222  0.6277  1.0273
  222MPD1     C 3421   2.840   4.047  17.602  0.2755  0.1355 -0.7004
  222MPD1    C1 3422   2.767   4.111  17.509 -0.6589  0.3748  0.0473
  222MPD1    C2 3423   2.709   4.228  17.539 -0.5639 -0.6073 -0.5012
  222MPD1    C3 3424   2.744   4.292  17.655 -0.4257  0.3399  0.3631
  222MPD1    C4 3425   2.834   4.237  17.743  0.2401  0.2098 -0.4070
  222MPD1    C5 3426   2.878   4.114  17.713 -0.1026  0.0113  0.2151
  222MPD1     H 3427   2.642   4.287  17.477 -1.4340 -1.1430 -0.0780
  222MPD1    H1 3428   2.871   4.287   0.084  0.5960  0.8552 -0.9256
  222MPD1    H2 3429   2.870   3.943  17.595 -0.5822 -0.1726  0.2563
  222MPD1    H3 3430   2.949   4.067   0.032  0.9464 -0.9706 -1.5940
  222MPD1     N 3431   2.692   4.417  17.693 -0.5726  0.5419  0.0081
  222MPD1    H5 3432   2.723   4.446   0.038 -0.9223  1.3996 -0.1491
  222MPD1    N1 3433   2.718   4.043  17.394  0.8606 -0.3802  0.2319
  222MPD1    H6 3434   2.778   3.967  17.363  0.4885 -1.2441  1.6376
  222MPD1    H7 3435   2.699   4.108  17.318  0.8158 -2.4253 -1.5179
  223MPD1     C 3436   1.910   0.311  17.498 -0.1267 -0.3894 -0.1415
  223MPD1    C1 3437   1.953   0.202  17.426 -0.1443 -0.1915 -0.5883
  223MPD1    C2 3438   2.071   0.136  17.475 -0.1413 -0.4339 -0.5156
  223MPD1    C3 3439   2.151   0.201  17.569 -0.0193 -0.4213  0.4264
  223MPD1    C4 3440   2.105   0.311  17.631  0.5297  0.1526  0.4191
  223MPD1    C5 3441   1.984   0.365  17.600  0.1882  0.5384  0.3255
  223MPD1     H 3442   2.106   0.044  17.430 -0.7629 -0.5742 -0.7077
  223MPD1    H1 3443   2.158   0.362  17.710 -1.0311  0.7075  1.1028
  223MPD1    H2 3444   1.818   0.365  17.479 -0.3768 -1.0977 -0.9894
  223MPD1    H3 3445   1.950   0.447  17.662  0.8016  0.5162  0.6849
  223MPD1     N 3446   2.276   0.139  17.602 -0.1816 -0.0943 -0.6751
  223MPD1    H5 3447   2.295   0.055  17.549 -0.0672 -0.2617 -0.3651
  223MPD1    N1 3448   1.874   0.142  17.326  0.4047 -0.0265  0.1736
  223MPD1    H6 3449   1.932   0.081  17.269 -1.4738 -1.4390 -0.2279
  223MPD1    H7 3450   1.819   0.203  17.266 -0.5629 -0.1133  0.9536
  224MPD1     C 3451   3.372   0.711   9.839  0.2143  0.4918  0.7260
  224MPD1    C1 3452   3.441   0.620   9.760  0.1857 -0.4454 -0.5876
  224MPD1    C2 3453   3.574   0.652   9.737 -0.1432 -0.0120  0.1965
  224MPD1    C3 3454   3.635   0.759   9.803  0.6013 -0.3922 -0.1713
  224MPD1    C4 3455   3.564   0.841   9.889 -0.0901 -0.1488  0.4361
  224MPD1    C5 3456   3.428   0.826   9.905  0.2326 -0.0497 -0.7309
  224MPD1     H 3457   3.631   0.586   9.672 -1.4854 -0.0239 -0.9644
  224MPD1    H1 3458   3.610   0.924   9.941  0.2035  1.2130 -1.9863
  224MPD1    H2 3459   3.266   0.699   9.823  0.8289 -1.4318 -1.8989
  224MPD1    H3 3460   3.362   0.895   9.955 -1.0154 -0.0639 -2.3846
  224MPD1     N 3461   3.768   0.797   9.787  0.1898  0.2056  0.6296
  224MPD1    H5 3462   3.792   0.864   9.859 -0.7925  1.5246 -0.2709
  224MPD1    N1 3463   3.376   0.515   9.693  0.3476  0.4170 -0.3267
  224MPD1    H6 3464   3.302   0.469   9.745  0.4156  0.6925  0.0122
  224MPD1    H7 3465   3.446   0.444   9.670 -1.4129 -0.6100 -2.5612
  225MPD1     C 3466   0.927   2.065  12.181 -0.2997 -0.4927 -0.0024
  225MPD1    C1 3467   0.856   2.179  12.153 -0.6851  0.0559  0.1281
  225MPD1    C2 3468   0.749   2.215  12.229 -0.1037  0.7266  0.6737
  225MPD1    C3 3469   0.714   2.142  12.343  0.0083  0.9600  0.0029
  225MPD1    C4 3470   0.784   2.035  12.370  0.0511  0.4475  0.7198
  225MPD1    C5 3471   0.885   1.994  12.287 -0.3253 -0.2324 -0.4942
  225MPD1     H 3472   0.698   2.302  12.190  1.6061  0.7067 -1.6044
  225MPD1    H1 3473   0.766   1.978  12.461  1.3658 -0.1597  0.6007
  225MPD1    H2 3474   1.014   2.034  12.125  1.4854  0.7638  2.0433
  225MPD1    H3 3475   0.952   1.910  12.302 -1.5475 -1.0995  0.0651
  225MPD1     N 3476   0.598   2.169  12.427  0.1978  0.0053  0.5608
  225MPD1    H5 3477   0.588   2.112  12.510  4.8917 -2.3930 -0.5390
  225MPD1    N1 3478   0.890   2.256  12.039  0.3024 -0.3094 -0.1513
  225MPD1    H6 3479   0.885   2.355  12.062  3.1941 -0.4693  1.2229
  225MPD1    H7 3480   0.988   2.247  12.010  0.4398 -0.0113  0.2266
  226MPD1     C 3481   3.133   1.106  10.195 -0.3405 -0.0523  0.7664
  226MPD1    C1 3482   3.053   1.214  10.185 -0.2155  0.4624 -1.0390
  226MPD1    C2 3483   3.093   1.307  10.091  0.5060  0.3352  0.5994
  226MPD1    C3 3484   3.206   1.297  10.018 -0.2351  0.5619 -0.1084
  226MPD1    C4 3485   3.291   1.191  10.034 -0.8016  0.0186  0.6897
  226MPD1    C5 3486   3.248   1.096  10.123 -1.0879  1.2192  0.4663
  226MPD1     H 3487   3.027   1.391  10.071  1.3836  1.3780  2.1199
  226MPD1    H1 3488   3.386   1.171   9.986 -1.3978 -0.2622 -0.3720
  226MPD1    H2 3489   3.121   1.033  10.274  0.7387  0.5782  1.5138
  226MPD1    H3 3490   3.304   1.005  10.142  0.2941  1.8685 -0.4508
  226MPD1     N 3491   3.244   1.416   9.941 -0.6192 -0.1561  0.0363
  226MPD1    H5 3492   3.166   1.479   9.922 -0.1787  0.1639 -0.7402
  226MPD1    N1 3493   2.927   1.215  10.244  0.5904 -0.2694  0.1303
  226MPD1    H6 3494   2.873   1.301  10.251 -0.2264 -0.7882  0.1159
  226MPD1    H7 3495   2.928   1.173  10.336 -2.5876  0.5206  0.5173
  227MPD1     C 3496   2.699   1.849   9.521  0.0477 -0.2154  0.5946
  227MPD1    C1 3497   2.705   1.736   9.608  0.1567 -0.8410  0.1172
  227MPD1    C2 3498   2.820   1.720   9.679  0.3282  0.5010 -0.0152
  227MPD1    C3 3499   2.917   1.821   9.686 -0.1861  0.5364 -0.0891
  227MPD1    C4 3500   2.899   1.936   9.606  0.0815 -0.0735  0.5875
  227MPD1    C5 3501   2.792   1.951   9.525 -0.3860 -0.0558  0.1017
  227MPD1     H 3502   2.842   1.623   9.721 -0.5370 -0.3059 -1.4358
  227MPD1    H1 3503   2.978   2.009   9.603  0.6663 -0.7263  0.1542
  227MPD1    H2 3504   2.608   1.869   9.465  1.2104 -0.1341 -1.2518
  227MPD1    H3 3505   2.781   2.040   9.464  0.1814 -0.8684 -1.1927
  227MPD1     N 3506   3.038   1.791   9.747  0.4104 -0.3350 -0.6845
  227MPD1    H5 3507   3.041   1.697   9.786  0.1448  0.2625  0.7870
  227MPD1    N1 3508   2.611   1.630   9.588 -0.3001 -0.6718 -0.2201
  227MPD1    H6 3509   2.518   1.657   9.557 -1.4976 -4.0495  0.3856
  227MPD1    H7 3510   2.603   1.556   9.657 -1.4723  0.7711  1.2017
  228MPD1     C 3511   2.004   0.905  13.381 -0.0997 -0.3390 -0.1992
  228MPD1    C1 3512   1.888   0.920  13.308  0.2011  0.9898  1.0985
  228MPD1    C2 3513   1.841   0.812  13.237 -0.1706 -0.5329 -0.8364
  228MPD1    C3 3514   1.898   0.688  13.255 -0.7519 -0.2232 -0.4707
  228MPD1    C4 3515   1.995   0.662  13.347  0.0802 -0.0636 -0.0885
  228MPD1    C5 3516   2.052   0.778  13.398  0.2162 -0.6556  0.2120
  228MPD1     H 3517   1.749   0.820  13.180 -0.7466  1.4103  0.3725
  228MPD1    H1 3518   2.034   0.565  13.374 -1.4137 -0.6026  0.1188
  228MPD1    H2 3519   2.062   0.988  13.420 -0.5147  0.4162 -1.1797
  228MPD1    H3 3520   2.132   0.759  13.468  0.9759  2.1722  0.1039
  228MPD1     N 3521   1.846   0.578  13.181  0.4762 -0.0570  0.0532
  228MPD1    H5 3522   1.781   0.603  13.108  0.9279  1.6171  0.2335
  228MPD1    N1 3523   1.842   1.051  13.285 -0.6642 -0.2473  0.4745
  228MPD1    H6 3524   1.741   1.049  13.282 -0.6496  0.3089 -0.6717
  228MPD1    H7 3525   1.859   1.122  13.356  0.7665  1.5549 -1.6521
  229MPD1     C 3526   1.296   3.272  13.910 -1.0299 -0.2028 -0.2206
  229MPD1    C1 3527   1.340   3.364  14.009  0.7302  0.0155 -0.9337
  229MPD1    C2 3528   1.427   3.319  14.106  0.0019 -0.3979 -1.3462
  229MPD1    C3 3529   1.481   3.192  14.111 -0.4524  0.5702  0.0556
  229MPD1    C4 3530   1.444   3.102  14.018 -0.4013  1.0509 -0.0591
  229MPD1    C5 3531   1.351   3.147  13.927  0.0962 -0.4247 -0.4384
  229MPD1     H 3532   1.441   3.387  14.189 -0.8429 -3.0343  0.9492
  229MPD1    H1 3533   1.470   2.996  14.017  1.0674  1.4109 -0.4570
  229MPD1    H2 3534   1.231   3.293  13.826 -1.3230  0.3462  0.1470
  229MPD1    H3 3535   1.313   3.073  13.858  0.7328 -0.5965 -0.6010
  229MPD1     N 3536   1.573   3.148  14.203  0.1158  0.0577 -0.0875
  229MPD1    H5 3537   1.608   3.054  14.192  1.7146  0.4644  1.6099
  229MPD1    N1 3538   1.301   3.498  13.992 -0.2119 -0.3255 -0.1490
  229MPD1    H6 3539   1.222   3.507  13.929 -1.2219  2.8522  1.5525
  229MPD1    H7 3540   1.287   3.543  14.083  0.2735 -3.0149  1.2489
  230MPD1     C 3541   2.094   3.242  15.179  0.0834 -0.8636  0.0184
  230MPD1    C1 3542   2.173   3.167  15.101 -0.0476 -0.7223 -0.2231
  230MPD1    C2 3543   2.145   3.150  14.962 -0.0630  0.7442  0.3600
  230MPD1    C3 3544   2.024   3.203  14.913  0.2206  0.3532 -1.1089
  230MPD1    C4 3545   1.944   3.273  15.001  0.2458  0.7341 -0.5281
  230MPD1    C5 3546   1.975   3.289  15.131  0.1403  0.2202 -0.2567
  230MPD1     H 3547   2.216   3.098  14.899 -0.9729  1.1249 -0.9704
  230MPD1    H1 3548   1.863   3.334  14.963 -1.1582 -0.9005 -0.1694
  230MPD1    H2 3549   2.112   3.241  15.286  1.0117 -1.5626 -0.1421
  230MPD1    H3 3550   1.914   3.342  15.203 -0.3536 -0.4119 -0.2079
  230MPD1     N 3551   1.981   3.171  14.778 -0.0425 -0.4558 -0.1071
  230MPD1    H5 3552   2.027   3.091  14.736  1.4453  0.0172  0.5871
  230MPD1    N1 3553   2.294   3.117  15.156  0.3849  0.6425 -0.2322
  230MPD1    H6 3554   2.325   3.026  15.122 -0.8650  0.0956  0.1044
  230MPD1    H7 3555   2.289   3.118  15.257  0.7075 -0.5210 -0.2133
  231MPD1     C 3556   4.674   4.664  15.493  0.3567  0.2898  0.0539
  231MPD1    C1 3557   4.691   4.667  15.358  0.3138  0.5860 -0.4944
  231MPD1    C2 3558   0.028   0.036  15.308  0.5264 -0.6843  0.5389
  231MPD1    C3 3559   0.101   0.111  15.390  0.1122  0.2780  0.3085
  231MPD1    C4 3560   0.102   0.091  15.529 -0.2824  0.5544  0.3020
  231MPD1    C5 3561   0.013   4.737  15.580 -0.0962 -1.0391 -0.1893
  231MPD1     H 3562   0.034   0.052  15.201  1.7156 -1.4709  0.4852
  231MPD1    H1 3563   0.144   0.168  15.592  1.7727  2.7186 -3.7113
  231MPD1    H2 3564   4.593   4.600  15.527 -1.4595  1.7476 -1.5641
  231MPD1    H3 3565   4.733   4.729  15.686 -1.1612 -2.0608 -0.4432
  231MPD1     N 3566   0.179   0.209  15.337 -0.0872  0.5503 -0.1489
  231MPD1    H5 3567   0.162   0.202  15.238 -1.3549 -0.4776  0.1482
  231MPD1    N1 3568   4.604   4.598  15.276 -0.3356  0.1636 -0.1880
  231MPD1    H6 3569   4.571   4.508  15.309 -0.7953  0.2432 -0.4287
  231MPD1    H7 3570   4.640   4.587  15.182  2.3513  1.0550  0.7349
  232MPD1     C 3571   2.345   3.222   0.377 -0.5450  0.2855  0.0277
  232MPD1    C1 3572   2.372   3.151   0.268 -0.3375  0.4537  0.4421
  232MPD1    C2 3573   2.270   3.148   0.171  0.0023  0.2241 -0.2735
  232MPD1    C3 3574   2.161   3.238   0.175 -0.7554  0.6667  0.1269
  232MPD1    C4 3575   2.143   3.316   0.280  0.6380  0.3262 -0.2122
  232MPD1    C5 3576   2.233   3.305   0.384 -0.3632 -0.7974  0.1187
  232MPD1     H 3577   2.278   3.075   0.092  1.9734  1.0107 -0.8258
  232MPD1    H1 3578   2.062   3.385   0.297  0.9317  0.3968  0.8865
  232MPD1    H2 3579   2.414   3.228   0.461  0.6036  1.8524 -1.0158
  232MPD1    H3 3580   2.228   3.365   0.474  1.0473 -0.1710 -0.2156
  232MPD1     N 3581   2.073   3.225   0.069  0.2053  0.0089 -0.4795
  232MPD1    H5 3582   2.093   3.152   0.001  1.7102  1.4116 -1.5591
  232MPD1    N1 3583   2.486   3.066   0.266 -0.9593  0.5542 -0.0986
  232MPD1    H6 3584   2.563   3.096   0.324 -1.4640 -1.1854  1.4631
  232MPD1    H7 3585   2.535   3.059   0.177 -1.0677 -1.6940  0.0070
  233MPD1     C 3586   3.534   1.828   1.433 -0.2361  0.3744  0.5229
  233MPD1    C1 3587   3.597   1.743   1.520 -0.1846  0.2806  0.3223
  233MPD1    C2 3588   3.694   1.656   1.471 -0.2708 -0.2998 -0.3182
  233MPD1    C3 3589   3.742   1.665   1.342  0.1609  0.1509 -0.0309
  233MPD1    C4 3590   3.680   1.757   1.260  0.3449 -0.0776 -0.0747
  233MPD1    C5 3591   3.586   1.844   1.309 -0.5704  0.2698 -0.4288
  233MPD1     H 3592   3.727   1.578   1.539  2.2416  1.3698  0.3394
  233MPD1    H1 3593   3.702   1.758   1.154 -4.7770 -0.1730 -1.1204
  233MPD1    H2 3594   3.437   1.874   1.448  0.4904  2.6232 -1.6224
  233MPD1    H3 3595   3.530   1.905   1.239  0.8344  1.6223 -0.3727
  233MPD1     N 3596   3.845   1.576   1.294  0.4384 -0.3532 -0.1684
  233MPD1    H5 3597   3.907   1.593   1.215  0.9884 -0.4729  0.2348
  233MPD1    N1 3598   3.525   1.708   1.634  0.3647  0.3334 -0.0243
  233MPD1    H6 3599   3.585   1.673   1.709  0.0461  1.3478  0.7068
  233MPD1    H7 3600   3.466   1.783   1.669 -1.3974 -0.1140 -2.0731
  234MPD1     C 3601   0.633   4.386   9.347  0.5260 -0.3152 -1.0705
  234MPD1    C1 3602   0.611   4.517   9.388 -0.4741  0.0591  0.3535
  234MPD1    C2 3603   0.484   4.556   9.430 -0.0693  0.3415 -0.5944
  234MPD1    C3 3604   0.378   4.468   9.426 -0.4281  0.9064  0.4466
  234MPD1    C4 3605   0.397   4.334   9.395  0.3087 -0.4132  0.1961
  234MPD1    C5 3606   0.524   4.304   9.347 -0.7114 -0.1065  0.2042
  234MPD1     H 3607   0.460   4.661   9.443  0.2959  0.7591 -3.2088
  234MPD1    H1 3608   0.314   4.266   9.408  0.1622 -0.3894 -0.6142
  234MPD1    H2 3609   0.732   4.356   9.316  0.2086 -1.9758 -0.4728
  234MPD1    H3 3610   0.539   4.204   9.308  0.6494  0.1013  0.1716
  234MPD1     N 3611   0.255   4.520   9.473 -0.7561 -0.2145  0.0175
  234MPD1    H5 3612   0.251   4.615   9.509 -1.2774  0.4152 -1.6883
  234MPD1    N1 3613   0.699   4.623   9.373  0.3597  0.3025  0.1275
  234MPD1    H6 3614   0.796   4.594   9.363  0.5626  0.8605  0.4609
  234MPD1    H7 3615   0.695   4.679   9.458 -0.0750  1.7977 -0.8888
  235MPD1     C 3616   1.972   2.611  10.495 -0.9784 -0.2447 -0.5236
  235MPD1    C1 3617   1.895   2.580  10.390 -0.1162 -0.3699  0.3626
  235MPD1    C2 3618   1.917   2.643  10.269 -0.4780 -0.0294 -0.1718
  235MPD1    C3 3619   1.999   2.756  10.265  0.1192 -0.1600  0.8633
  235MPD1    C4 3620   2.054   2.803  10.384 -0.2281  0.1628 -0.4107
  235MPD1    C5 3621   2.045   2.727  10.492  0.3412  0.9358  0.0949
  235MPD1     H 3622   1.863   2.612  10.181 -1.3452  2.8983 -0.6674
  235MPD1    H1 3623   2.120   2.889  10.384  1.0703 -0.8418  0.3341
  235MPD1    H2 3624   1.959   2.565  10.592  0.1365 -2.1130 -1.2348
  235MPD1    H3 3625   2.084   2.762  10.587 -1.1663 -0.2526  1.1582
  235MPD1     N 3626   2.014   2.820  10.139 -0.0035  0.8599 -0.1978
  235MPD1    H5 3627   1.986   2.764  10.059 -1.2699  2.6254 -0.9776
  235MPD1    N1 3628   1.815   2.465  10.388 -0.2532 -0.1532  0.4315
  235MPD1    H6 3629   1.728   2.482  10.336  1.2632  2.5280 -1.2737
  235MPD1    H7 3630   1.786   2.438  10.481  0.3476 -0.5295  0.5058
  236MPD1     C 3631   0.077   3.347   9.451 -0.0172 -0.3774  0.3563
  236MPD1    C1 3632   0.047   3.289   9.571 -0.3673 -0.6624 -0.0487
  236MPD1    C2 3633   0.143   3.224   9.643 -0.9489 -0.6339 -0.0950
  236MPD1    C3 3634   0.274   3.236   9.610 -0.0813  0.0505 -0.1178
  236MPD1    C4 3635   0.304   3.310   9.496  0.6136 -0.2733  0.3181
  236MPD1    C5 3636   0.204   3.356   9.408 -0.0131  1.2003  0.6351
  236MPD1     H 3637   0.111   3.172   9.733  0.4279 -0.7925  0.3144
  236MPD1    H1 3638   0.406   3.331   9.465 -0.2168  3.3534  0.0467
  236MPD1    H2 3639   4.735   3.391   9.391  0.6760  2.7213  1.6923
  236MPD1    H3 3640   0.222   3.419   9.321  1.5465  0.9548  0.7917
  236MPD1     N 3641   0.379   3.192   9.687 -0.1168  0.3536 -0.4806
  236MPD1    H5 3642   0.469   3.238   9.673 -0.2604  0.1394 -2.0434
  236MPD1    N1 3643   4.651   3.274   9.603 -0.5437 -0.2096  0.0607
  236MPD1    H6 3644   4.635   3.253   9.701 -0.5589  1.0171  0.3203
  236MPD1    H7 3645   4.589   3.350   9.576 -0.3033  0.6220  1.8896
  237MPD1     C 3646   0.890   2.278  14.783  0.1249  0.3922 -0.1030
  237MPD1    C1 3647   0.868   2.259  14.920  0.0989  0.9149  1.0135
  237MPD1    C2 3648   0.769   2.164  14.957  0.2693  0.4952  0.0904
  237MPD1    C3 3649   0.697   2.105  14.855 -0.1029  0.2300 -0.3105
  237MPD1    C4 3650   0.726   2.121  14.719  0.6183  0.2377  0.2166
  237MPD1    C5 3651   0.820   2.212  14.685  0.1827  0.0224 -0.3224
  237MPD1     H 3652   0.749   2.149  15.062 -1.4733  0.4569 -0.2483
  237MPD1    H1 3653   0.656   2.092  14.642  0.3383  0.2029  0.4804
  237MPD1    H2 3654   0.972   2.341  14.751 -1.0927  0.8321 -2.3928
  237MPD1    H3 3655   0.839   2.243  14.583  0.7079 -3.7579 -1.3911
  237MPD1     N 3656   0.570   2.043  14.881  0.1282  0.9309 -0.2293
  237MPD1    H5 3657   0.512   2.029  14.799  0.4268 -0.3220 -0.2256
  237MPD1    N1 3658   0.955   2.306  15.018  0.2604  0.0751 -0.2569
  237MPD1    H6 3659   0.991   2.391  14.977 -1.1738 -0.2650 -2.2158
  237MPD1    H7 3660   0.915   2.334  15.107 -0.2527 -1.2347 -0.0728
  238MPD1     C 3661   2.782   0.409  15.028 -0.3604 -0.0580  0.0031
  238MPD1    C1 3662   2.711   0.295  15.052  0.6195 -0.1734 -0.4570
  238MPD1    C2 3663   2.579   0.299  15.026 -1.4884 -0.0691  0.2375
  238MPD1    C3 3664   2.503   0.408  14.989  0.6651  0.3571  0.1976
  238MPD1    C4 3665   2.572   0.526  14.975  0.6132 -0.2698 -0.5817
  238MPD1    C5 3666   2.711   0.523  14.988 -1.1718  0.9393  0.6581
  238MPD1     H 3667   2.525   0.206  15.013  1.1352 -1.5578  0.0685
  238MPD1    H1 3668   2.523   0.617  14.940 -2.1449 -1.9581 -1.0851
  238MPD1    H2 3669   2.890   0.409  15.025 -0.3021 -1.7828  1.6849
  238MPD1    H3 3670   2.765   0.614  14.967  0.9576 -0.2673  0.9270
  238MPD1     N 3671   2.372   0.406  14.942  0.1534  0.2113 -0.2640
  238MPD1    H5 3672   2.332   0.493  14.907  0.9743  1.1727  1.1724
  238MPD1    N1 3673   2.769   0.164  15.052  0.2039 -0.0456 -0.0994
  238MPD1    H6 3674   2.866   0.158  15.084 -0.0295 -0.6972  0.4698
  238MPD1    H7 3675   2.709   0.099  15.103  0.9415 -1.2042 -0.7025
  239MPD1     C 3676   2.595   0.873  14.814  0.4409 -0.1352 -0.5742
  239MPD1    C1 3677   2.480   0.925  14.876 -0.1653  0.5215 -0.0977
  239MPD1    C2 3678   2.384   0.979  14.800 -0.2610  0.2679  0.8373
  239MPD1    C3 3679   2.389   0.979  14.659  0.1688 -0.2857  0.3954
  239MPD1    C4 3680   2.498   0.928  14.600  0.3040 -0.1160  0.0217
  239MPD1    C5 3681   2.600   0.878  14.673  0.3156 -0.4925  0.0873
  239MPD1     H 3682   2.301   1.019  14.856  0.4070  2.0622  0.5383
  239MPD1    H1 3683   2.506   0.930  14.492  0.4914  1.9243  0.0738
  239MPD1    H2 3684   2.670   0.817  14.869 -1.2595 -1.4749  0.3612
  239MPD1    H3 3685   2.691   0.825  14.649  1.1555  0.7580  0.5362
  239MPD1     N 3686   2.283   1.026  14.573  0.5538  0.6450  0.0409
  239MPD1    H5 3687   2.303   1.031  14.474 -0.1801 -0.8696 -0.1810
  239MPD1    N1 3688   2.480   0.947  15.013 -0.1052 -0.1670 -0.0733
  239MPD1    H6 3689   2.388   0.970  15.050 -0.7575 -1.3346 -0.9934
  239MPD1    H7 3690   2.507   0.863  15.065  1.2451 -1.6174 -3.1272
  240MPD1     C 3691   1.564   1.491  14.120 -0.2981  0.1705 -0.9153
  240MPD1    C1 3692   1.616   1.400  14.025  0.2300  0.0450  0.3455
  240MPD1    C2 3693   1.609   1.261  14.049 -0.4369  0.0525  0.0469
  240MPD1    C3 3694   1.580   1.213  14.177 -0.2336  0.1721  0.6191
  240MPD1    C4 3695   1.548   1.312  14.271  0.1927 -0.2263  0.0351
  240MPD1    C5 3696   1.524   1.446  14.244  0.2305 -1.0903  0.0166
  240MPD1     H 3697   1.628   1.197  13.963 -1.7790 -1.4400  0.8534
  240MPD1    H1 3698   1.528   1.291  14.376  3.9291  2.3421  1.2608
  240MPD1    H2 3699   1.557   1.597  14.104  1.1710  0.4924  0.5375
  240MPD1    H3 3700   1.494   1.511  14.325 -1.9724 -0.2084 -1.5178
  240MPD1     N 3701   1.589   1.076  14.207 -0.1367  0.3103  0.1004
  240MPD1    H5 3702   1.609   1.017  14.127  0.6547  0.2719  0.3277
  240MPD1    N1 3703   1.661   1.439  13.897  0.5543 -0.6479 -0.3461
  240MPD1    H6 3704   1.705   1.369  13.838 -0.3255  0.2512 -2.0975
  240MPD1    H7 3705   1.611   1.500  13.831  0.7356 -0.1845 -0.0556
  241MPD1     C 3706   1.956   0.720  15.069  1.1894  0.8797 -1.1565
  241MPD1    C1 3707   1.850   0.639  15.039  0.0162  0.2655 -0.1165
  241MPD1    C2 3708   1.803   0.633  14.906 -0.1605 -0.1060  0.3803
  241MPD1    C3 3709   1.844   0.722  14.808  0.0131  0.3487 -0.4850
  241MPD1    C4 3710   1.947   0.812  14.849  0.2998  0.0847  0.0339
  241MPD1    C5 3711   2.003   0.806  14.975 -0.3290  0.9262 -0.9520
  241MPD1     H 3712   1.717   0.573  14.877 -0.5930 -0.6642  2.8088
  241MPD1    H1 3713   1.973   0.883  14.771  1.3120 -0.9935 -0.6008
  241MPD1    H2 3714   2.004   0.703  15.164 -1.7139  3.1209  0.7252
  241MPD1    H3 3715   2.082   0.879  14.988  0.6568 -0.1905 -0.7334
  241MPD1     N 3716   1.789   0.741  14.683  0.2998 -0.0084  0.0653
  241MPD1    H5 3717   1.798   0.833  14.643  2.8185  0.0131  0.6828
  241MPD1    N1 3718   1.798   0.540  15.125  0.0166  0.2485 -0.6487
  241MPD1    H6 3719   1.805   0.562  15.225  1.2392  1.4165 -0.9892
  241MPD1    H7 3720   1.698   0.534  15.106 -0.1235  0.9372 -0.1439
  242MPD1     C 3721   1.153   3.396  15.711  0.0224  0.0021 -0.1635
  242MPD1    C1 3722   1.281   3.445  15.725 -0.2631  0.4287  0.3181
  242MPD1    C2 3723   1.326   3.533  15.626  0.3437 -0.5726  0.4797
  242MPD1    C3 3724   1.249   3.572  15.515 -0.6424 -0.1338 -0.0675
  242MPD1    C4 3725   1.122   3.522  15.507 -0.8489  0.8104 -0.5188
  242MPD1    C5 3726   1.078   3.440  15.609  0.8756 -0.2670 -0.0272
  242MPD1     H 3727   1.422   3.582  15.634 -0.6493  1.4958 -0.2785
  242MPD1    H1 3728   1.051   3.535  15.426 -1.9215  0.0597  0.3090
  242MPD1    H2 3729   1.099   3.327  15.775  0.3858 -0.4985 -0.3942
  242MPD1    H3 3730   0.984   3.389  15.592  0.1682  0.6062  1.2751
  242MPD1     N 3731   1.293   3.660  15.411  0.1669 -0.2490  0.7796
  242MPD1    H5 3732   1.232   3.662  15.330  0.0478 -0.6185  0.8611
  242MPD1    N1 3733   1.367   3.398  15.829  0.4341 -0.4387 -0.8783
  242MPD1    H6 3734   1.317   3.407  15.918 -2.4559 -3.6953 -2.1772
  242MPD1    H7 3735   1.448   3.458  15.841 -0.4717  0.3908  1.1346
  243MPD1     C 3736   2.953   3.081  17.445  0.0057 -0.4375 -0.1956
  243MPD1    C1 3737   2.947   2.982  17.538  0.6197 -1.1609  0.0344
  243MPD1    C2 3738   3.001   2.859  17.500 -0.5412  0.3453 -0.8322
  243MPD1    C3 3739   3.019   2.825  17.366  0.1092  0.0961 -1.0115
  243MPD1    C4 3740   3.011   2.929  17.273  0.5016 -0.1722 -0.5708
  243MPD1    C5 3741   2.971   3.058  17.313  0.1482  0.3745  0.0183
  243MPD1     H 3742   2.995   2.778  17.572  0.8825 -0.6433 -1.8230
  243MPD1    H1 3743   3.013   2.902  17.168  1.5487 -1.2478 -0.2698
  243MPD1    H2 3744   2.933   3.185  17.470 -1.7706 -1.0541  0.9619
  243MPD1    H3 3745   2.964   3.144  17.248  0.7428 -0.6391 -1.3847
  243MPD1     N 3746   3.054   2.694  17.333  0.0291 -0.1922 -0.1709
  243MPD1    H5 3747   3.060   2.631  17.412  0.3201 -1.8450 -1.4874
  243MPD1    N1 3748   2.940   3.020  17.673 -0.1474 -0.5565 -0.3918
  243MPD1    H6 3749   2.922   2.940  17.734 -0.4240 -1.2529 -1.3826
  243MPD1    H7 3750   2.872   3.095  17.675  0.2098 -0.1928 -2.1043
  244MPD1     C 3751   3.304   2.040   0.109 -0.0606 -0.5497 -0.3565
  244MPD1    C1 3752   3.384   2.148   0.065  0.2977  0.2829 -0.5355
  244MPD1    C2 3753   3.344   2.221  17.704  0.2117  1.1314  0.1858
  244MPD1    C3 3754   3.225   2.189  17.639  0.4343 -0.3624 -0.2479
  244MPD1    C4 3755   3.137   2.098  17.686  0.2427  1.1870 -0.0789
  244MPD1    C5 3756   3.173   2.036   0.055  0.0053 -0.0302 -0.1518
  244MPD1     H 3757   3.409   2.302  17.674  0.2790 -0.0388 -2.8444
  244MPD1    H1 3758   3.035   2.095  17.648 -0.0682  1.4351  0.7282
  244MPD1    H2 3759   3.320   1.978   0.196 -0.3223 -0.3466 -0.1648
  244MPD1    H3 3760   3.103   1.966   0.099  1.3421 -1.9199 -1.0394
  244MPD1     N 3761   3.203   2.260  17.522 -0.0204 -0.7607  0.6586
  244MPD1    H5 3762   3.254   2.347  17.514 -1.3417  0.3414  4.5213
  244MPD1    N1 3763   3.499   2.187   0.140  0.3695  0.0626  0.4134
  244MPD1    H6 3764   3.514   2.132   0.224  1.2167 -1.7943 -0.9679
  244MPD1    H7 3765   3.582   2.189   0.081 -0.5704  0.8614 -0.8885
  245MPD1     C 3766   0.674   2.514  13.627  0.4815  0.0028  0.0426
  245MPD1    C1 3767   0.729   2.573  13.736 -0.3076 -0.2854  0.4418
  245MPD1    C2 3768   0.705   2.710  13.758  0.1601 -0.6575 -0.0820
  245MPD1    C3 3769   0.609   2.780  13.687 -0.9754  0.2381 -0.1612
  245MPD1    C4 3770   0.548   2.709  13.587 -0.6291  0.1724  0.4328
  245MPD1    C5 3771   0.589   2.590  13.550  0.7069  0.9403  0.6204
  245MPD1     H 3772   0.753   2.760  13.841  0.9144  0.4062 -1.1813
  245MPD1    H1 3773   0.469   2.742  13.520 -0.6051 -2.3911 -0.8737
  245MPD1    H2 3774   0.689   2.408  13.610 -0.9297 -0.1288 -0.3387
  245MPD1    H3 3775   0.550   2.537  13.464  0.0344  0.5221  1.1764
  245MPD1     N 3776   0.580   2.915  13.721 -0.0454 -0.3103 -0.3899
  245MPD1    H5 3777   0.640   2.956  13.792 -1.2765  0.3245  0.2759
  245MPD1    N1 3778   0.823   2.510  13.829 -1.1904  0.1335  0.0039
  245MPD1    H6 3779   0.806   2.543  13.924  1.1836  2.0981 -0.2423
  245MPD1    H7 3780   0.802   2.411  13.827 -0.0352 -0.1095  0.1698
  246MPD1     C 3781   0.154   2.463   9.934 -0.2829 -0.4471  0.2353
  246MPD1    C1 3782   0.206   2.550   9.844  0.0131  0.1680  0.3270
  246MPD1    C2 3783   0.334   2.533   9.800 -0.7733  0.1264 -0.1591
  246MPD1    C3 3784   0.423   2.439   9.849  0.2084  0.4402  0.9008
  246MPD1    C4 3785   0.373   2.355   9.945 -0.6971  0.0487  0.1727
  246MPD1    C5 3786   0.236   2.361   9.974 -0.1655  0.4252 -0.2729
  246MPD1     H 3787   0.380   2.592   9.722  0.5320 -0.7118 -0.0146
  246MPD1    H1 3788   0.427   2.270   9.985 -1.3607  0.1846  1.3620
  246MPD1    H2 3789   0.056   2.474   9.980 -0.1850  0.9901  0.0807
  246MPD1    H3 3790   0.200   2.296  10.052 -0.4568  1.4633  0.4591
  246MPD1     N 3791   0.561   2.443   9.808  0.1595 -0.3793 -0.4349
  246MPD1    H5 3792   0.590   2.513   9.740 -1.9684  0.7735 -0.1677
  246MPD1    N1 3793   0.136   2.666   9.808  0.3899 -0.3477  0.2112
  246MPD1    H6 3794   0.176   2.717   9.730  0.5170  1.4219  1.4436
  246MPD1    H7 3795   0.035   2.658   9.798  0.3710  0.8810 -0.6009
  247MPD1     C 3796   3.953   3.459  16.537 -0.4844  0.7666 -0.7310
  247MPD1    C1 3797   4.005   3.386  16.638 -0.2122 -0.0111  0.3696
  247MPD1    C2 3798   4.050   3.257  16.603  0.4868 -0.8533 -0.0936
  247MPD1    C3 3799   4.058   3.213  16.471  0.0137  0.5867  0.4082
  247MPD1    C4 3800   4.000   3.294  16.379 -0.5005 -0.5359  0.6428
  247MPD1    C5 3801   3.952   3.415  16.406  0.5188 -0.3330  0.0483
  247MPD1     H 3802   4.094   3.202  16.686  1.1081  0.6075  0.5514
  247MPD1    H1 3803   3.992   3.259  16.276  0.7373  1.3891 -0.1155
  247MPD1    H2 3804   3.903   3.554  16.550 -1.2762  0.3273 -0.5734
  247MPD1    H3 3805   3.903   3.480  16.335 -0.5776  0.6084  1.6777
  247MPD1     N 3806   4.113   3.089  16.431 -0.5095 -0.0011  0.0270
  247MPD1    H5 3807   4.120   3.069  16.332  0.5919 -0.8223  0.2735
  247MPD1    N1 3808   4.015   3.449  16.762  0.0469  0.1270  0.0873
  247MPD1    H6 3809   4.006   3.381  16.836  0.8616 -0.4269 -0.3160
  247MPD1    H7 3810   3.971   3.539  16.782  0.7186  0.4650  0.0720
  248MPD1     C 3811   0.626   2.376   0.156 -0.6201  0.2641  0.2585
  248MPD1    C1 3812   0.590   2.500   0.110  0.5899 -0.3786 -0.3681
  248MPD1    C2 3813   0.580   2.605   0.199 -0.1352 -0.5255  0.3837
  248MPD1    C3 3814   0.576   2.578   0.334  0.6819 -0.2787  0.9262
  248MPD1    C4 3815   0.599   2.449   0.376 -0.2829  0.0338 -0.2366
  248MPD1    C5 3816   0.630   2.352   0.287  0.9885 -0.6339 -0.0386
  248MPD1     H 3817   0.556   2.707   0.173  1.4795 -0.3753 -0.5378
  248MPD1    H1 3818   0.610   2.417   0.479 -0.1463  0.0152 -0.2564
  248MPD1    H2 3819   0.651   2.296   0.087  0.9334  1.0775 -0.1145
  248MPD1    H3 3820   0.666   2.256   0.324 -1.0267 -1.0745  0.7691
  248MPD1     N 3821   0.527   2.680   0.414  0.3812 -0.0717  0.3353
  248MPD1    H5 3822   0.496   2.762   0.364  0.4035  0.2341  0.8219
  248MPD1    N1 3823   0.589   2.522  17.724 -0.2566 -0.4428  0.4207
  248MPD1    H6 3824   0.529   2.596  17.689 -0.8393  0.3903  3.1524
  248MPD1    H7 3825   0.567   2.440  17.668 -1.9661  0.3337 -0.0417
  249MPD1     C 3826   2.371   1.870  10.391  1.0208 -0.1240  0.9614
  249MPD1    C1 3827   2.474   1.954  10.428  0.0990 -0.1751 -0.0349
  249MPD1    C2 3828   2.497   2.060  10.336 -0.2198  0.2121 -0.1870
  249MPD1    C3 3829   2.409   2.096  10.234 -0.8885  0.0974  0.5540
  249MPD1    C4 3830   2.317   2.000  10.197 -0.4293 -0.8215 -0.2917
  249MPD1    C5 3831   2.304   1.889  10.276  0.4949  0.1308 -0.4937
  249MPD1     H 3832   2.585   2.121  10.350 -0.4146 -0.3391  3.3146
  249MPD1    H1 3833   2.261   1.999  10.104  0.6676 -0.9761 -0.9462
  249MPD1    H2 3834   2.359   1.770  10.431 -0.4182 -0.1231  0.5209
  249MPD1    H3 3835   2.237   1.814  10.236  0.2056 -0.6126  1.3849
  249MPD1     N 3836   2.450   2.208  10.152  0.6154  0.4622  0.0350
  249MPD1    H5 3837   2.519   2.267  10.196  0.4342 -0.0413  0.9973
  249MPD1    N1 3838   2.575   1.921  10.520 -0.2972 -0.3992  0.1138
  249MPD1    H6 3839   2.616   2.004  10.561 -0.0395 -0.1772 -0.5924
  249MPD1    H7 3840   2.540   1.863  10.596  1.9007 -1.4747  0.2923
  250MPD2     C 3841   3.095   1.941  13.047 -0.0356  0.1216 -0.5293
  250MPD2    C1 3842   3.106   1.992  12.920  0.7856 -0.4420 -0.5593
  250MPD2    C2 3843   3.052   1.913  12.817  0.3135  0.4760  0.5155
  250MPD2    C3 3844   2.975   1.801  12.844 -0.0135  0.1497 -0.1046
  250MPD2    C4 3845   2.952   1.766  12.973 -0.0274  0.4068 -0.2102
  250MPD2    C5 3846   3.016   1.832  13.073 -0.2885  0.0516 -0.4249
  250MPD2     H 3847   3.081   1.933  12.715 -0.3532  0.9896  0.4264
  250MPD2    H1 3848   2.879   1.691  12.998  4.0245 -3.5859 -0.3370
  250MPD2    H2 3849   3.134   1.994  13.133 -0.0577  1.2024 -1.1829
  250MPD2    H3 3850   3.000   1.789  13.171  0.5035 -1.2685 -0.8764
  250MPD2     N 3851   2.923   1.716  12.746  0.3634  0.3485 -0.2340
  250MPD2    H5 3852   2.876   1.632  12.778  1.6057 -0.2457  0.0205
  250MPD2    N1 3853   3.175   2.114  12.912 -0.0885  0.3342 -0.3584
  250MPD2    H7 3854   3.201   2.146  13.005 -0.6682  0.3788 -0.2096
  251TMC3    C1 3855   3.231   2.320  12.825 -0.2619  0.3194 -0.2136
  251TMC3    C2 3856   3.190   2.425  12.741  0.2265 -0.3929 -0.2388
  251TMC3    C3 3857   3.233   2.555  12.769  0.4849  0.8200 -0.1586
  251TMC3    C4 3858   3.308   2.343  12.937  0.0459  0.1123  0.1060
  251TMC3    C5 3859   3.351   2.471  12.948  0.3169  0.6044  0.0930
  251TMC3    C6 3860   3.319   2.577  12.876  0.0735  0.1309 -0.0963
  251TMC3     C 3861   3.164   2.195  12.802  0.5432  0.1692  0.0864
  251TMC3     O 3862   3.101   2.174  12.699 -0.5123 -0.0897 -0.1712
  251TMC3     H 3863   3.124   2.409  12.656 -0.7805 -0.8563  0.6243
  251TMC3    H1 3864   3.348   2.261  12.995  0.4805 -0.0174 -0.3783
  251TMC3    H2 3865   3.353   2.676  12.904  0.6240 -0.6038  1.8488
  251TMC3    C7 3866   3.451   2.484  13.056 -0.0218  0.3113  0.6478
  251TMC3    C8 3867   3.135   2.656  12.748  0.6119  0.0993 -0.8622
  251TMC3    O1 3868   3.428   2.412  13.155 -0.1639 -0.0125 -0.2316
  251TMC3    O2 3869   3.025   2.614  12.717 -0.3996 -0.5460  0.5970
  252TMC3    C1 3870   3.965   3.785   9.132 -0.3917 -0.4036  0.0702
  252TMC3    C2 3871   4.063   3.691   9.112 -0.6768  0.5354 -0.4750
  252TMC3    C3 3872   4.031   3.560   9.102 -0.6505 -0.2242 -0.0999
  252TMC3    C4 3873   3.833   3.747   9.164  0.3598 -0.4453  0.3668
  252TMC3    C5 3874   3.808   3.611   9.152  0.1591  0.8642 -0.1006
  252TMC3    C6 3875   3.905   3.513   9.125 -0.0452 -0.3246 -0.1003
  252TMC3     C 3876   4.018   3.911   9.168 -0.1166 -0.0992 -1.0191
  252TMC3     O 3877   4.138   3.932   9.163  0.3503 -0.4901 -0.1853
  252TMC3     H 3878   4.169   3.714   9.102 -0.4480 -0.1288  0.3745
  252TMC3    H1 3879   3.758   3.817   9.198 -1.1123 -1.6574 -0.3820
  252TMC3    H2 3880   3.876   3.409   9.116 -2.0839  0.3783 -1.5620
  252TMC3    C7 3881   3.661   3.577   9.176 -0.4736  0.0849  0.5041
  252TMC3    C8 3882   4.135   3.472   9.143  0.0107 -0.0561  0.0306
  252TMC3    O1 3883   3.585   3.671   9.178  0.0473 -0.2969  0.2280
  252TMC3    O2 3884   4.248   3.497   9.101 -0.1525 -0.4504 -0.0760
  253MPD2     C 3885   0.004   2.116  15.177  0.3128  0.4112  0.1939
  253MPD2    C1 3886   4.606   2.103  15.169 -0.4859  0.5129 -0.1162
  253MPD2    C2 3887   4.549   1.988  15.222  0.1162 -0.5265  0.1795
  253MPD2    C3 3888   4.619   1.904  15.315 -0.0144 -0.1955  0.9419
  253MPD2    C4 3889   0.015   1.933  15.336  0.1827  0.0321 -0.1434
  253MPD2    C5 3890   0.078   2.032  15.262  0.5667 -0.2356 -0.4642
  253MPD2     H 3891   4.444   1.974  15.199 -0.2042 -1.1788  2.0031
  253MPD2    H1 3892   0.069   1.870  15.405  1.8354  0.2180 -1.2597
  253MPD2    H2 3893   0.057   2.175  15.103  0.9622 -1.2735 -0.6911
  253MPD2    H3 3894   0.186   2.036  15.265  0.5529  0.5183 -1.0230
  253MPD2     N 3895   4.553   1.806  15.394  0.4772  0.6588  0.0851
  253MPD2    H5 3896   4.615   1.771  15.467 -0.0160  0.8304  0.5876
  253MPD2    N1 3897   4.523   2.185  15.091  1.2325  0.7675 -0.0875
  253MPD2    H7 3898   4.427   2.165  15.064  1.6891 -1.5590  0.0327
  254TMC3    C1 3899   4.378   1.679  15.483  0.3194 -0.4092 -0.1069
  254TMC3    C2 3900   4.241   1.671  15.505  0.2557 -1.1109  0.5434
  254TMC3    C3 3901   4.195   1.578  15.584  0.2138  0.3121  0.2358
  254TMC3    C4 3902   4.466   1.595  15.546  0.2137 -0.2495  0.3848
  254TMC3    C5 3903   4.414   1.509  15.637  0.0544  0.9325  0.3229
  254TMC3    C6 3904   4.280   1.495  15.650 -0.7136  0.5962  0.0265
  254TMC3     C 3905   4.426   1.755  15.372  0.4636  0.5566 -0.1859
  254TMC3     O 3906   4.344   1.790  15.289 -0.3535  0.7290  0.1276
  254TMC3     H 3907   4.184   1.752  15.460  1.5250  0.0388  1.0140
  254TMC3    H1 3908   4.570   1.599  15.519  0.2192  0.1390  0.4528
  254TMC3    H2 3909   4.239   1.416  15.712  3.1864 -0.7864  0.8552
  254TMC3    C7 3910   4.492   1.469  15.752 -0.4576 -0.5946 -0.0300
  254TMC3    C8 3911   4.061   1.587  15.636  0.4228  0.4023 -0.5978
  254TMC3    O1 3912   4.435   1.383  15.815  0.1142 -0.1292  0.0813
  254TMC3    O2 3913   4.051   1.539  15.748 -0.3251 -0.0592 -0.0370
  255MPD2     C 3914   2.429   0.110   9.966 -0.3311  0.3900 -0.0861
  255MPD2    C1 3915   2.541   0.190   9.968  0.7168  0.0145 -0.3488
  255MPD2    C2 3916   2.667   0.133   9.983 -0.7719 -0.7593  0.5502
  255MPD2    C3 3917   2.674   4.730   9.985 -0.0128  0.9789  0.6025
  255MPD2    C4 3918   2.568   4.655   9.983  0.1192 -0.4016  0.7791
  255MPD2    C5 3919   2.444   4.716   9.969 -0.3350 -0.0767  0.4262
  255MPD2     H 3920   2.753   0.195  10.003 -1.7313  0.2137  1.6597
  255MPD2    H1 3921   2.575   4.548   9.970 -1.3582 -0.1130 -2.6577
  255MPD2    H2 3922   2.332   0.156   9.950 -1.0842 -0.8640  0.8966
  255MPD2    H3 3923   2.360   4.652   9.944 -0.2256  0.1204 -0.4419
  255MPD2     N 3924   2.800   4.675   9.996  0.2766 -0.4921  0.2439
  255MPD2    H5 3925   2.871   0.009  10.007 -0.3775  0.5170 -1.9412
  255MPD2    N1 3926   2.525   0.331   9.944 -0.0948  0.0722  0.6777
  255MPD2    H7 3927   2.431   0.359   9.915  0.4926  0.3168 -0.9801
  256TMC3    C1 3928   2.617   0.523   9.848 -0.6809  0.0024  0.1191
  256TMC3    C2 3929   2.746   0.558   9.791  0.1816 -0.5218 -0.0959
  256TMC3    C3 3930   2.760   0.594   9.658  0.3518 -0.7167 -0.1225
  256TMC3    C4 3931   2.511   0.514   9.766 -0.2057  1.0548  0.0171
  256TMC3    C5 3932   2.527   0.557   9.632 -0.3383  0.1588  0.3160
  256TMC3    C6 3933   2.653   0.591   9.576 -0.3130 -0.3990 -0.4677
  256TMC3     C 3934   2.623   0.426   9.949 -0.2575  0.7595 -0.2911
  256TMC3     O 3935   2.734   0.433  10.005  0.3745  0.4199  0.4947
  256TMC3     H 3936   2.840   0.543   9.842  0.0017 -0.1679  0.3436
  256TMC3    H1 3937   2.412   0.500   9.808  0.0683 -1.4071 -0.1899
  256TMC3    H2 3938   2.668   0.613   9.471  0.2956 -1.3783 -0.5788
  256TMC3    C7 3939   2.445   0.492   9.534  0.0041  0.3162  0.9160
  256TMC3    C8 3940   2.882   0.559   9.599 -0.1998 -0.4083 -0.3271
  256TMC3    O1 3941   2.514   0.450   9.441 -0.1980  0.2595 -0.0928
  256TMC3    O2 3942   2.990   0.593   9.642  0.1370  0.0665  0.2049
  257MPD2     C 3943   1.716   1.874  13.036  0.9534 -0.1164 -0.7367
  257MPD2    C1 3944   1.671   1.845  12.904  0.0024  0.3259  1.1070
  257MPD2    C2 3945   1.624   1.710  12.882  0.7196  0.4804  0.0336
  257MPD2    C3 3946   1.637   1.614  12.980  0.3143 -0.3811 -0.6115
  257MPD2    C4 3947   1.674   1.652  13.110 -0.1863 -1.1638 -0.0897
  257MPD2    C5 3948   1.711   1.781  13.136  0.2131  0.0815  0.2871
  257MPD2     H 3949   1.594   1.678  12.784  0.5817  3.1951 -0.8214
  257MPD2    H1 3950   1.670   1.597  13.203  2.4249 -0.2657  0.5361
  257MPD2    H2 3951   1.749   1.975  13.055 -1.2453  0.4043  0.1992
  257MPD2    H3 3952   1.726   1.794  13.242  1.3081  0.1701  0.1194
  257MPD2     N 3953   1.609   1.474  12.939  0.5420  0.3698 -0.1459
  257MPD2    H5 3954   1.587   1.457  12.842 -1.4794  1.6285  0.0704
  257MPD2    N1 3955   1.684   1.944  12.807  0.6173 -0.1786  0.1202
  257MPD2    H7 3956   1.728   2.031  12.835  1.0376 -0.5564  0.6298
  258TMC3    C1 3957   1.666   1.238  12.956  0.0115  0.5258 -0.1666
  258TMC3    C2 3958   1.608   1.192  12.842  0.0392 -0.2050  0.3311
  258TMC3    C3 3959   1.681   1.092  12.777 -0.0364  0.6204  0.1245
  258TMC3    C4 3960   1.783   1.185  13.007 -0.4046  0.0809  0.2272
  258TMC3    C5 3961   1.850   1.088  12.937 -0.2741 -0.0786  0.2687
  258TMC3    C6 3962   1.800   1.038  12.820  0.0808 -0.2071 -0.2079
  258TMC3     C 3963   1.635   1.363  13.024  0.3467  0.0274 -0.5431
  258TMC3     O 3964   1.651   1.376  13.143  0.5320  1.0958 -0.6240
  258TMC3     H 3965   1.515   1.237  12.808 -0.1866 -2.0178 -1.4613
  258TMC3    H1 3966   1.820   1.238  13.093 -2.4881  0.6796  0.7582
  258TMC3    H2 3967   1.856   0.957  12.774  0.5210  0.6167 -1.1268
  258TMC3    C7 3968   1.989   1.083  12.943  0.1917  0.2943  0.5264
  258TMC3    C8 3969   1.637   1.060  12.637  0.5340  0.0011 -0.3789
  258TMC3    O1 3970   2.043   1.072  12.831 -0.0432 -0.1847 -0.4851
  258TMC3    O2 3971   1.533   1.110  12.603  0.1887 -0.7438 -0.1294
  259MPD2     C 3972   1.221   3.553   0.572 -0.4333 -0.6273 -0.0517
  259MPD2    C1 3973   1.217   3.428   0.514  0.7704 -0.5973  0.0122
  259MPD2    C2 3974   1.158   3.421   0.384 -0.2003  0.9500 -0.2166
  259MPD2    C3 3975   1.107   3.539   0.328 -0.5788 -0.3334 -0.2978
  259MPD2    C4 3976   1.125   3.661   0.393 -0.5172 -0.8717 -0.4933
  259MPD2    C5 3977   1.182   3.667   0.512  0.6670 -0.5136  0.1583
  259MPD2     H 3978   1.156   3.330   0.327 -1.8694  0.5146  0.5320
  259MPD2    H1 3979   1.088   3.751   0.347  3.2178  0.6439 -0.5904
  259MPD2    H2 3980   1.266   3.571   0.670  1.5323 -1.1828 -0.8617
  259MPD2    H3 3981   1.186   3.764   0.560  1.4647 -0.7895  0.6531
  259MPD2     N 3982   1.057   3.535   0.194  0.3975 -0.1321 -0.0770
  259MPD2    H5 3983   1.057   3.441   0.156 -0.4334  0.4569 -1.5582
  259MPD2    N1 3984   1.266   3.317   0.585  0.1903  0.2681  0.8457
  259MPD2    H7 3985   1.325   3.340   0.665  0.5294  0.7155  0.4628
  260TMC3    C1 3986   0.980   3.592  17.722  0.0041  0.0160 -0.2962
  260TMC3    C2 3987   0.991   3.683  17.619  0.5686 -0.3262 -0.1706
  260TMC3    C3 3988   0.997   3.638  17.492  0.0875 -0.6183  0.2990
  260TMC3    C4 3989   0.971   3.461  17.702  0.0681 -0.4013 -0.5417
  260TMC3    C5 3990   0.972   3.420  17.577 -0.5100 -0.2014 -0.2008
  260TMC3    C6 3991   0.996   3.507  17.468  0.5172  0.2588  0.5983
  260TMC3     C 3992   1.014   3.638   0.111 -0.5684 -0.0428  0.1786
  260TMC3     O 3993   1.018   3.759   0.131 -0.0159  0.2439 -0.6095
  260TMC3     H 3994   0.997   3.790  17.638 -0.5255 -0.6693  2.1199
  260TMC3    H1 3995   0.952   3.398   0.041  0.2970 -0.2525 -0.3832
  260TMC3    H2 3996   0.990   3.474  17.365  1.0641  3.7461 -0.5517
  260TMC3    C7 3997   0.935   3.281  17.541  0.1770  0.2390  0.2761
  260TMC3    C8 3998   1.093   3.713  17.413 -0.0779  0.1052  0.3218
  260TMC3    O1 3999   0.976   3.235  17.432 -0.1227  0.2373 -0.2575
  260TMC3    O2 4000   1.079   3.835  17.408 -0.1335  0.1724 -0.1125
  261MPD2     C 4001   2.835   1.469  11.939  0.2116 -0.3255 -0.0023
  261MPD2    C1 4002   2.842   1.587  12.004  0.2014  0.2145 -0.2564
  261MPD2    C2 4003   2.870   1.703  11.932 -0.1950 -0.0075 -0.7930
  261MPD2    C3 4004   2.874   1.706  11.796 -0.5283  0.0185 -0.5522
  261MPD2    C4 4005   2.876   1.584  11.729  0.9218  0.0017  1.3562
  261MPD2    C5 4006   2.851   1.466  11.800 -0.1087  0.0946  1.1184
  261MPD2     H 4007   2.881   1.793  11.992 -0.2856  0.2721 -1.1891
  261MPD2    H1 4008   2.882   1.587  11.621 -2.6712  0.8140  1.1753
  261MPD2    H2 4009   2.823   1.369  11.977  0.2438 -0.1788  0.3878
  261MPD2    H3 4010   2.861   1.373  11.746 -0.8971 -0.5327  2.0393
  261MPD2     N 4011   2.887   1.831  11.734  0.0139 -0.7184  0.0758
  261MPD2    H5 4012   2.883   1.918  11.786  2.8657  1.5000 -3.4427
  261MPD2    N1 4013   2.855   1.586  12.145 -0.4435 -0.8215  0.2393
  261MPD2    H7 4014   2.904   1.665  12.186 -0.3921  0.0643 -1.5286
  262TMC3    C1 4015   2.924   1.987  11.578 -0.2164 -0.1033  0.0469
  262TMC3    C2 4016   2.821   2.061  11.597  0.9250  0.2162  0.3043
  262TMC3    C3 4017   2.840   2.194  11.628  0.4602  0.4071 -0.3084
  262TMC3    C4 4018   3.054   2.029  11.580  0.3805  0.5340  0.2032
  262TMC3    C5 4019   3.072   2.161  11.615 -0.3089 -0.2254  1.3667
  262TMC3    C6 4020   2.966   2.247  11.630 -0.2224 -0.2344  0.2511
  262TMC3     C 4021   2.905   1.850  11.601  0.4467 -0.3623 -0.2914
  262TMC3     O 4022   2.947   1.774  11.514  0.6506 -0.0061  0.3066
  262TMC3     H 4023   2.718   2.027  11.596  0.4113  1.9443 -3.9769
  262TMC3    H1 4024   3.142   1.968  11.564  0.9181  1.3759 -0.1046
  262TMC3    H2 4025   2.963   2.347  11.672 -0.0810 -0.5475  0.9947
  262TMC3    C7 4026   3.189   2.218  11.555  0.3102  0.2536  0.4781
  262TMC3    C8 4027   2.735   2.292  11.615 -0.4934  0.3152 -0.1464
  262TMC3    O1 4028   3.293   2.158  11.549 -0.0639  0.6572 -0.6845
  262TMC3    O2 4029   2.764   2.387  11.546  0.1415  0.2760 -0.3585
  263MPD2     C 4030   3.299   1.106  11.548  0.1089  0.1536  0.0308
  263MPD2    C1 4031   3.438   1.116  11.571  0.8027  0.4210  0.5118
  263MPD2    C2 4032   3.511   1.212  11.504  0.4749  0.5815  0.9032
  263MPD2    C3 4033   3.450   1.294  11.407 -0.5612  0.2391 -0.3432
  263MPD2    C4 4034   3.315   1.270  11.380 -0.2942 -0.0036  0.2363
  263MPD2    C5 4035   3.241   1.175  11.446 -0.3061  0.2991 -0.1437
  263MPD2     H 4036   3.616   1.234  11.516  1.1290 -0.2962 -3.1095
  263MPD2    H1 4037   3.273   1.329  11.299 -1.0049  0.3419  0.8645
  263MPD2    H2 4038   3.239   1.050  11.619 -0.2953 -0.7651 -1.0540
  263MPD2    H3 4039   3.133   1.168  11.434  0.1472 -3.6238 -1.7074
  263MPD2     N 4040   3.538   1.388  11.344  0.0664 -0.5237  0.1235
  263MPD2    H5 4041   3.624   1.399  11.397  0.2013  3.2757 -0.8568
  263MPD2    N1 4042   3.497   1.023  11.654 -0.2083 -0.4562  0.2406
  263MPD2    H7 4043   3.465   0.929  11.673  0.7804 -0.6114  1.1752
  264TMC3    C1 4044   3.635   1.511  11.179 -1.3247 -0.3258  0.3299
  264TMC3    C2 4045   3.674   1.606  11.277  0.0360 -0.1377 -0.3384
  264TMC3    C3 4046   3.784   1.674  11.238  0.2680 -0.0569 -0.6247
  264TMC3    C4 4047   3.699   1.488  11.060  0.0035  0.8026 -0.2628
  264TMC3    C5 4048   3.802   1.568  11.028 -0.4626 -0.0432 -0.5492
  264TMC3    C6 4049   3.856   1.646  11.126  0.2574 -0.4405 -0.3922
  264TMC3     C 4050   3.529   1.428  11.210  0.2906 -0.6670  0.3276
  264TMC3     O 4051   3.452   1.394  11.119  0.1363 -0.0307  0.1508
  264TMC3     H 4052   3.618   1.630  11.367  1.9841 -1.1643  1.1409
  264TMC3    H1 4053   3.658   1.411  10.996  0.0439 -1.2319  2.1734
  264TMC3    H2 4054   3.950   1.697  11.108  0.2720 -0.3357 -0.0174
  264TMC3    C7 4055   3.895   1.542  10.921  0.1303  0.2242  0.3047
  264TMC3    C8 4056   3.851   1.759  11.339  0.2613  0.1758 -0.3914
  264TMC3    O1 4057   3.896   1.430  10.876 -0.2898  0.1272 -0.0329
  264TMC3    O2 4058   3.975   1.752  11.345  0.1219  0.2208 -0.2664
  265MPD2     C 4059   0.907   1.317  15.780  0.5470 -0.4083  0.1947
  265MPD2    C1 4060   0.936   1.419  15.697 -0.3113  0.1705 -0.2469
  265MPD2    C2 4061   1.005   1.392  15.581 -0.2605  0.5878  1.2109
  265MPD2    C3 4062   1.052   1.269  15.556 -0.2018  0.0264  0.3572
  265MPD2    C4 4063   1.037   1.172  15.642 -0.4498  0.1849 -0.5764
  265MPD2    C5 4064   0.962   1.197  15.754  0.0130  0.1176  0.1911
  265MPD2     H 4065   1.025   1.479  15.519 -0.2856  0.0850  0.4887
  265MPD2    H1 4066   1.075   1.071  15.631 -0.2033  0.1019  0.9112
  265MPD2    H2 4067   0.862   1.328  15.878  0.6104  3.4255 -0.2205
  265MPD2    H3 4068   0.951   1.115  15.824  0.8789  0.2870  0.5154
  265MPD2     N 4069   1.128   1.241  15.441  0.0321  0.0396 -0.5279
  265MPD2    H5 4070   1.181   1.154  15.445  1.3169  0.6750 -3.3351
  265MPD2    N1 4071   0.886   1.546  15.713  0.1141 -0.2904  0.1261
  265MPD2    H7 4072   0.906   1.623  15.650  0.0872  0.5233  1.1153
  266TMC3    C1 4073   0.772   1.736  15.794 -0.6999 -0.1931  0.6146
  266TMC3    C2 4074   0.882   1.822  15.802 -0.3494 -0.0789 -0.1962
  266TMC3    C3 4075   0.853   1.952  15.827 -0.0369  1.0229  0.1956
  266TMC3    C4 4076   0.649   1.772  15.815  0.1573 -0.4571 -0.4974
  266TMC3    C5 4077   0.626   1.904  15.848  0.4888 -0.6010 -1.0122
  266TMC3    C6 4078   0.728   1.998  15.836  0.5360  0.2685 -0.6737
  266TMC3     C 4079   0.796   1.591  15.814 -0.7091 -0.0775 -0.1421
  266TMC3     O 4080   0.729   1.524  15.890 -0.0414 -0.1139  0.2072
  266TMC3     H 4081   0.983   1.782  15.803  0.3436  1.6012 -1.4929
  266TMC3    H1 4082   0.569   1.700  15.817 -1.6555  1.5541 -0.6599
  266TMC3    H2 4083   0.707   2.100  15.867 -0.2919  0.3838 -1.6189
  266TMC3    C7 4084   0.488   1.928  15.857  0.6784  0.2340 -0.0553
  266TMC3    C8 4085   0.963   2.041  15.865  0.3429 -0.0817  0.6712
  266TMC3    O1 4086   0.404   1.842  15.837 -0.5428 -0.1519 -0.0942
  266TMC3    O2 4087   1.072   1.990  15.843  0.4560 -0.1249  0.2314
  267MPD2     C 4088   3.286   3.782  17.591  0.0760  0.3817  0.0103
  267MPD2    C1 4089   3.266   3.653  17.564 -0.7741  0.3786 -0.0557
  267MPD2    C2 4090   3.175   3.626  17.466 -0.6768 -0.1406  0.8351
  267MPD2    C3 4091   3.115   3.723  17.389 -0.9046  0.1867 -0.1212
  267MPD2    C4 4092   3.121   3.854  17.435 -0.1917  0.1029 -0.3772
  267MPD2    C5 4093   3.219   3.878  17.526 -0.0739 -0.2610  0.2486
  267MPD2     H 4094   3.161   3.522  17.438  0.9513 -0.6218  1.7924
  267MPD2    H1 4095   3.070   3.931  17.379 -0.2067 -1.6210 -2.7237
  267MPD2    H2 4096   3.359   3.814  17.665  1.9659 -1.4512 -1.0634
  267MPD2    H3 4097   3.232   3.982  17.553  3.4686 -0.8771  0.9424
  267MPD2     N 4098   3.021   3.691  17.284  0.5140  0.3734  0.0446
  267MPD2    H5 4099   2.982   3.766  17.228 -2.4577 -0.1325  1.4127
  267MPD2    N1 4100   3.339   3.557  17.637  0.0687 -0.7817  0.1257
  267MPD2    H7 4101   3.414   3.597  17.691 -0.2669 -0.9058  0.6847
  268TMC3    C1 4102   3.448   3.357  17.674  0.5051  0.0934  0.2990
  268TMC3    C2 4103   3.550   3.370  17.586  0.4793  0.3280  0.1955
  268TMC3    C3 4104   3.645   3.270  17.576 -0.0331 -0.2404  0.2767
  268TMC3    C4 4105   3.450   3.240   0.006 -0.5276 -0.7951 -0.1424
  268TMC3    C5 4106   3.549   3.150  17.738 -0.0986  0.0213  0.5877
  268TMC3    C6 4107   3.658   3.165  17.654  0.9391 -0.2720  0.8414
  268TMC3     C 4108   3.329   3.419  17.629  0.7334 -0.0730 -0.3077
  268TMC3     O 4109   3.234   3.351  17.594 -0.0179  0.0294  0.7038
  268TMC3     H 4110   3.552   3.458  17.523  0.7886 -0.8420 -1.4533
  268TMC3    H1 4111   3.366   3.227   0.072  0.0805 -0.3701  0.7146
  268TMC3    H2 4112   3.749   3.108  17.645  0.9944 -0.2182  1.0516
  268TMC3    C7 4113   3.550   3.022   0.061 -0.5904 -0.0666  0.4916
  268TMC3    C8 4114   3.735   3.284  17.466 -0.1928  0.3180 -0.5845
  268TMC3    O1 4115   3.654   2.967   0.074  0.2097 -0.2797  0.1328
  268TMC3    O2 4116   3.851   3.256  17.490  0.3076  0.1516 -0.4658
  269MPD2     C 4117   3.529   1.888  15.291 -0.4719  0.1758 -0.4908
  269MPD2    C1 4118   3.425   1.951  15.359  0.6078 -0.4351  0.2653
  269MPD2    C2 4119   3.372   2.069  15.309 -0.6043  0.4231 -0.4039
  269MPD2    C3 4120   3.439   2.138  15.208  0.6637 -0.1739  0.3087
  269MPD2    C4 4121   3.537   2.073  15.135 -0.1252 -0.0375 -0.6651
  269MPD2    C5 4122   3.587   1.956  15.191 -0.4243  0.1353 -0.1245
  269MPD2     H 4123   3.275   2.101  15.347 -0.8963 -2.6440  1.3548
  269MPD2    H1 4124   3.593   2.115  15.052 -0.0476 -0.6473 -0.9221
  269MPD2    H2 4125   3.577   1.797  15.326  0.1830 -0.1155 -2.1511
  269MPD2    H3 4126   3.674   1.905  15.153 -2.1728 -2.0583 -1.1938
  269MPD2     N 4127   3.387   2.268  15.167 -0.2865  0.0922 -0.6190
  269MPD2    H5 4128   3.317   2.315  15.224 -0.8509 -0.7395 -0.6209
  269MPD2    N1 4129   3.363   1.880  15.464  0.5123 -0.2766  0.2925
  269MPD2    H7 4130   3.395   1.784  15.467  0.3195 -0.4291 -2.2852
  270TMC3    C1 4131   3.208   1.786  15.582  0.0308 -0.8593  0.1615
  270TMC3    C2 4132   3.099   1.757  15.503  1.1513 -0.1291  0.5590
  270TMC3    C3 4133   3.091   1.642  15.434  0.1272  0.0625 -0.0322
  270TMC3    C4 4134   3.305   1.694  15.606 -0.4632  0.2023 -0.5442
  270TMC3    C5 4135   3.292   1.569  15.551  0.1271 -0.3484  0.7835
  270TMC3    C6 4136   3.185   1.543  15.467 -0.0818 -0.6155 -0.0762
  270TMC3     C 4137   3.262   1.910  15.539  0.3544  0.0936  0.2372
  270TMC3     O 4138   3.186   2.008  15.536 -0.5592  0.0611  0.3179
  270TMC3     H 4139   3.029   1.839  15.491  1.0829 -0.4523 -1.2635
  270TMC3    H1 4140   3.395   1.715  15.663 -0.1172 -1.9257 -0.2826
  270TMC3    H2 4141   3.169   1.448  15.416 -1.9625 -0.1621 -0.3422
  270TMC3    C7 4142   3.422   1.527  15.502  0.5432 -0.0757 -0.4862
  270TMC3    C8 4143   3.069   1.651  15.293 -0.1675  0.4642  0.1443
  270TMC3    O1 4144   3.514   1.530  15.585  0.2082 -0.0667 -0.2998
  270TMC3    O2 4145   3.159   1.595  15.234  0.1005  0.2786 -0.0058
  271MPD2     C 4146   2.805   1.547  13.886 -0.6905  0.4584 -0.5019
  271MPD2    C1 4147   2.723   1.605  13.983 -0.1308  0.7645 -0.2830
  271MPD2    C2 4148   2.616   1.693  13.945  1.1514 -0.4479 -0.0464
  271MPD2    C3 4149   2.584   1.701  13.808  0.5745 -0.2012 -0.6594
  271MPD2    C4 4150   2.661   1.643  13.712 -0.9312 -0.2314 -0.6202
  271MPD2    C5 4151   2.776   1.567  13.754  0.6299  0.0683 -0.0423
  271MPD2     H 4152   2.554   1.738  14.022  0.6211  0.9836 -1.3096
  271MPD2    H1 4153   2.652   1.662  13.606 -2.2131  1.0398 -0.2821
  271MPD2    H2 4154   2.892   1.487  13.911 -0.5236  0.5974 -0.7386
  271MPD2    H3 4155   2.832   1.524  13.672  1.0753 -0.8747  0.7612
  271MPD2     N 4156   2.475   1.777  13.764  0.6299  0.7107  0.0749
  271MPD2    H5 4157   2.450   1.773  13.666  2.1277 -1.3601 -0.2135
  271MPD2    N1 4158   2.745   1.586  14.119  0.0216 -0.0984  0.3923
  271MPD2    H7 4159   2.677   1.625  14.184  0.2778  1.6696 -0.4151
  272TMC3    C1 4160   2.821   1.511  14.330  0.6279  0.1286 -0.1659
  272TMC3    C2 4161   2.934   1.483  14.400 -0.4414 -0.1876  0.2302
  272TMC3    C3 4162   2.945   1.531  14.527  0.4729 -0.3296 -0.8274
  272TMC3    C4 4163   2.719   1.584  14.384 -0.7688 -0.5654  0.2393
  272TMC3    C5 4164   2.746   1.639  14.507 -0.1875 -0.2040  0.0242
  272TMC3    C6 4165   2.853   1.619  14.580 -0.0528  0.7582 -0.0199
  272TMC3     C 4166   2.839   1.508  14.182 -0.0231 -0.3267 -0.1304
  272TMC3     O 4167   2.923   1.433  14.130  0.1223  0.6223  0.4374
  272TMC3     H 4168   3.019   1.431  14.358 -2.0296 -1.4840 -1.3924
  272TMC3    H1 4169   2.624   1.593  14.334 -0.3440  1.5067 -0.1742
  272TMC3    H2 4170   2.869   1.660  14.679  1.2737  2.1001 -0.7889
  272TMC3    C7 4171   2.685   1.769  14.524  0.5286  0.4501 -0.1536
  272TMC3    C8 4172   3.085   1.539  14.586  0.3907 -0.4590 -0.4377
  272TMC3    O1 4173   2.584   1.789  14.460 -0.0692 -0.2788  0.5055
  272TMC3    O2 4174   3.104   1.642  14.651 -0.2195 -0.4987  0.4608
  273MPD2     C 4175   0.142   0.375  11.450 -0.6949 -0.5075 -0.1708
  273MPD2    C1 4176   0.116   0.449  11.340 -0.3258 -0.2507 -0.0354
  273MPD2    C2 4177   0.001   0.413  11.262  0.6668  0.5012 -0.1858
  273MPD2    C3 4178   4.649   0.316  11.315 -0.1172 -0.5473 -0.2533
  273MPD2    C4 4179   4.684   0.250  11.425 -0.6333  0.0846 -0.0134
  273MPD2    C5 4180   0.057   0.279  11.495  0.6023 -0.2735 -0.5408
  273MPD2     H 4181   4.710   0.472  11.175  0.1122  0.1483 -0.2472
  273MPD2    H1 4182   4.621   0.164  11.445  0.4559 -0.5274  0.7848
  273MPD2    H2 4183   0.237   0.386  11.502 -0.9980 -2.0074  0.7207
  273MPD2    H3 4184   0.080   0.222  11.584  0.9104  0.2486 -0.2825
  273MPD2     N 4185   4.537   0.273  11.245 -0.1560  0.1993 -0.3203
  273MPD2    H5 4186   4.480   0.203  11.290  1.0991 -0.7982 -0.2702
  273MPD2    N1 4187   0.217   0.545  11.301  0.1664 -0.0873 -0.4013
  273MPD2    H7 4188   0.292   0.566  11.366 -0.2591  0.1276  0.0202
  274TMC3    C1 4189   4.349   0.295  11.108 -0.3204 -0.0269 -0.1801
  274TMC3    C2 4190   4.297   0.309  10.981 -0.5623 -0.4760  0.5613
  274TMC3    C3 4191   4.161   0.311  10.968  0.3154  0.1561  0.0476
  274TMC3    C4 4192   4.266   0.292  11.219 -0.2892 -0.0853 -0.1309
  274TMC3    C5 4193   4.128   0.305  11.201 -0.3130 -0.5913  0.3788
  274TMC3    C6 4194   4.069   0.307  11.073  0.0312 -0.6312  0.2113
  274TMC3     C 4195   4.495   0.320  11.124 -0.1998  0.2741 -0.5371
  274TMC3     O 4196   4.565   0.362  11.034 -0.9528 -0.2992 -0.0428
  274TMC3     H 4197   4.365   0.323  10.898 -0.9343 -1.3657  0.1011
  274TMC3    H1 4198   4.303   0.289  11.321 -0.5566  1.1703  0.0002
  274TMC3    H2 4199   3.963   0.323  11.056 -0.0531  1.6530  2.9357
  274TMC3    C7 4200   4.041   0.327  11.314  0.0202 -0.1810  0.6812
  274TMC3    C8 4201   4.114   0.358  10.839 -0.1723  0.0367  0.4035
  274TMC3    O1 4202   3.938   0.396  11.293  0.0324 -0.2128 -0.6867
  274TMC3    O2 4203   3.991   0.344  10.831  0.2146  0.0199 -0.3418
  275MPD2     C 4204   4.342   2.814  14.318 -0.7554 -0.6231 -0.0312
  275MPD2    C1 4205   4.284   2.937  14.299  0.7509 -0.3766  0.3884
  275MPD2    C2 4206   4.147   2.940  14.288 -0.2082 -0.0932 -0.3473
  275MPD2    C3 4207   4.070   2.825  14.308  0.9707 -0.4790 -0.0850
  275MPD2    C4 4208   4.131   2.705  14.333 -0.8391  0.0861 -0.4476
  275MPD2    C5 4209   4.269   2.700  14.346  0.4427 -0.1357  0.1261
  275MPD2     H 4210   4.096   3.033  14.267  0.7804  0.1340 -1.6905
  275MPD2    H1 4211   4.073   2.614  14.351 -1.4064  0.3846 -0.7719
  275MPD2    H2 4212   4.446   2.803  14.346 -0.4824 -2.0526 -1.5785
  275MPD2    H3 4213   4.312   2.609  14.386  1.0394  0.5362  1.0201
  275MPD2     N 4214   3.926   2.823  14.300 -0.0613  0.1109 -1.1694
  275MPD2    H5 4215   3.891   2.728  14.297 -0.6121  0.3099 -1.0021
  275MPD2    N1 4216   4.351   3.060  14.304 -0.3005 -0.0800 -0.2926
  275MPD2    H7 4217   4.294   3.140  14.279  0.7838  0.2051 -1.7994
  276TMC3    C1 4218   4.509   3.215  14.365 -0.5886  0.0093 -0.6360
  276TMC3    C2 4219   4.410   3.263  14.450  0.4452  0.9318 -0.3937
  276TMC3    C3 4220   4.444   3.357  14.543  0.9564 -1.0288  0.3385
  276TMC3    C4 4221   4.643   3.241  14.386  0.9036 -0.4515 -0.4903
  276TMC3    C5 4222   4.669   3.320  14.494  0.1590  0.3006  0.2541
  276TMC3    C6 4223   4.575   3.387  14.567 -0.2691 -0.2941  0.2658
  276TMC3     C 4224   4.483   3.078  14.325  0.8103  0.4634  0.0753
  276TMC3     O 4225   4.578   2.997  14.328  0.6819  0.7199  0.5547
  276TMC3     H 4226   4.303   3.251  14.441  0.4860 -0.3384  0.8347
  276TMC3    H1 4227   4.724   3.202  14.325 -0.4011 -1.1846 -1.7439
  276TMC3    H2 4228   4.607   3.436  14.658  2.2665 -1.2151 -0.1096
  276TMC3    C7 4229   0.017   3.248  14.585 -0.2099 -0.3241  0.1915
  276TMC3    C8 4230   4.372   3.329  14.665  0.8135 -0.2301 -0.2716
  276TMC3    O1 4231   0.067   3.311  14.677  0.2848 -1.1504  0.3415
  276TMC3    O2 4232   4.382   3.412  14.756  0.2660 -0.4251 -0.4971
  277MPD2     C 4233   1.254   2.000  12.775  0.1513 -0.6539 -0.3295
  277MPD2    C1 4234   1.120   2.020  12.816  0.1896  0.3736 -0.3290
  277MPD2    C2 4235   1.065   1.964  12.933 -0.5204  0.8972 -0.6452
  277MPD2    C3 4236   1.140   1.881  13.013 -0.0625  0.4248  0.0466
  277MPD2    C4 4237   1.274   1.848  12.970 -0.4653  0.0453 -0.0696
  277MPD2    C5 4238   1.323   1.910  12.853  0.0907  0.7635  0.5303
  277MPD2     H 4239   0.964   1.989  12.964 -0.3244 -0.7522  1.2948
  277MPD2    H1 4240   1.339   1.805  13.045 -0.3671 -1.6236 -1.1182
  277MPD2    H2 4241   1.313   2.044  12.695 -0.8723  1.8324  0.2793
  277MPD2    H3 4242   1.420   1.880  12.814  0.2938  1.5529  0.4278
  277MPD2     N 4243   1.076   1.845  13.129 -0.4306 -0.7082 -0.0773
  277MPD2    H5 4244   0.978   1.866  13.142 -0.4476  0.5049 -2.2426
  277MPD2    N1 4245   1.051   2.107  12.728 -0.2969  0.7260 -0.6022
  277MPD2    H7 4246   1.111   2.161  12.666 -0.9598  0.4606 -1.4681
  278TMC3    C1 4247   1.044   1.737  13.341 -0.1086 -0.2908  0.2922
  278TMC3    C2 4248   1.083   1.652  13.440  0.3453  0.0140  1.0598
  278TMC3    C3 4249   1.000   1.606  13.535 -0.2230  0.4083  0.1763
  278TMC3    C4 4250   0.917   1.787  13.348 -0.7761 -0.0082 -0.6029
  278TMC3    C5 4251   0.842   1.749  13.454 -0.1910 -0.1586 -0.4740
  278TMC3    C6 4252   0.873   1.657  13.546  0.9550  0.2776  0.9781
  278TMC3     C 4253   1.135   1.768  13.229 -0.3168 -0.7382  0.2569
  278TMC3     O 4254   1.252   1.734  13.235  0.5940 -0.0919 -0.4054
  278TMC3     H 4255   1.172   1.594  13.417 -1.5431 -2.5372  0.1888
  278TMC3    H1 4256   0.882   1.873  13.292 -0.7297  0.2951 -0.1670
  278TMC3    H2 4257   0.807   1.625  13.625 -2.6499 -0.2181 -2.2065
  278TMC3    C7 4258   0.705   1.804  13.451 -0.0216 -0.0637 -0.4193
  278TMC3    C8 4259   1.033   1.476  13.590  0.5369  0.1672  0.1699
  278TMC3    O1 4260   0.696   1.919  13.415  0.2251 -0.3294 -0.5797
  278TMC3    O2 4261   1.146   1.446  13.592 -0.6676  0.2460 -0.2158
  279MPD2     C 4262   0.627   1.510   0.122 -0.6543  0.2108 -0.2711
  279MPD2    C1 4263   0.602   1.642   0.085  0.0314  0.7373  0.4207
  279MPD2    C2 4264   0.599   1.669  17.693 -0.1898  0.0899  0.6938
  279MPD2    C3 4265   0.609   1.572  17.595 -0.0225 -0.0408  0.0641
  279MPD2    C4 4266   0.647   1.447  17.647  0.5466  0.3186  0.5952
  279MPD2    C5 4267   0.658   1.416   0.036  1.0656  0.2122  0.1301
  279MPD2     H 4268   0.580   1.769  17.657  3.8700  1.4484  2.2998
  279MPD2    H1 4269   0.664   1.355  17.592  0.2856  1.1623 -0.8657
  279MPD2    H2 4270   0.615   1.481   0.226 -0.9502  0.8115 -0.1342
  279MPD2    H3 4271   0.675   1.312   0.061  0.2322 -0.5256 -2.3412
  279MPD2     N 4272   0.584   1.589  17.456 -0.2151 -0.4055 -0.0751
  279MPD2    H5 4273   0.585   1.505  17.400 -0.5642  0.5366 -1.4821
  279MPD2    N1 4274   0.576   1.737   0.191 -0.0807  0.1034  0.4135
  279MPD2    H7 4275   0.600   1.696   0.280 -0.6583  0.6011  0.7962
  280TMC3    C1 4276   0.421   1.896   0.081  0.0372 -0.1955 -0.1571
  280TMC3    C2 4277   0.338   1.793   0.053 -0.4082 -0.0447 -0.2319
  280TMC3    C3 4278   0.229   1.821  17.725  0.4604  0.1991 -0.1762
  280TMC3    C4 4279   0.390   2.030   0.062  0.5858 -1.3847  0.2974
  280TMC3    C5 4280   0.275   2.058  17.736 -0.6334  0.3934 -0.0827
  280TMC3    C6 4281   0.202   1.951  17.687 -0.3171  0.3081  0.1382
  280TMC3     C 4282   0.517   1.861   0.184  1.0155 -0.5219  0.2097
  280TMC3     O 4283   0.515   1.945   0.272  0.1338  0.1109  0.0327
  280TMC3     H 4284   0.356   1.699   0.103 -0.8680 -0.5607 -1.0488
  280TMC3    H1 4285   0.455   2.111   0.092  0.0148 -1.3143  1.3546
  280TMC3    H2 4286   0.122   1.962  17.615 -0.4189  3.1500  0.6855
  280TMC3    C7 4287   0.222   2.191  17.732 -1.0405 -0.3588 -0.0461
  280TMC3    C8 4288   0.195   1.721  17.623 -0.3819  0.1813  0.0678
  280TMC3    O1 4289   0.291   2.285   0.034 -0.3458  0.1959 -0.6877
  280TMC3    O2 4290   0.154   1.760  17.516  0.2216 -0.0214 -0.0347
  281TMC3    C1 4291   3.503   2.491  13.555 -0.6879 -0.0940  1.0916
  281TMC3    C2 4292   3.631   2.481  13.517 -0.7181 -0.0912  0.5402
  281TMC3    C3 4293   3.665   2.364  13.457  0.3286 -0.2078 -0.9280
  281TMC3    C4 4294   3.410   2.394  13.537 -0.9322  0.3089 -0.0742
  281TMC3    C5 4295   3.453   2.281  13.466 -0.2333  0.5037 -0.3084
  281TMC3    C6 4296   3.582   2.263  13.435  0.3284 -0.5223 -0.7673
  281TMC3     C 4297   3.468   2.602  13.645  0.7954 -0.7385 -0.1621
  281TMC3     O 4298   3.373   2.587  13.719  0.2656  0.0471  1.0644
  281TMC3     H 4299   3.705   2.548  13.561 -0.0375 -0.2152 -0.4206
  281TMC3    H1 4300   3.304   2.411  13.548 -1.2356 -1.0885 -0.8208
  281TMC3    H2 4301   3.612   2.167  13.396  2.3733  0.1953 -0.9450
  281TMC3    C7 4302   3.367   2.172  13.465  0.0070  0.5107 -0.1787
  281TMC3    C8 4303   3.801   2.333  13.441 -0.2753  0.1832 -0.2613
  281TMC3    O1 4304   3.247   2.198  13.447 -0.3361  0.3047 -0.0730
  281TMC3    O2 4305   3.826   2.234  13.503  0.0109 -0.0247 -0.5449
  282MPD2     C 4306   0.875   3.303  14.760  0.2218 -0.6220 -0.0044
  282MPD2    C1 4307   0.780   3.223  14.830  0.1149 -0.6568  0.4423
  282MPD2    C2 4308   0.728   3.112  14.775  0.3695  1.0041 -0.1356
  282MPD2    C3 4309   0.769   3.075  14.643 -0.6074  0.2040  0.5275
  282MPD2    C4 4310   0.875   3.145  14.587 -0.0171  0.7273 -0.2585
  282MPD2    C5 4311   0.914   3.262  14.639 -0.2642  0.0875 -0.2332
  282MPD2     H 4312   0.644   3.063  14.821  0.4908 -0.9802 -2.0400
  282MPD2    H1 4313   0.927   3.120  14.495 -1.0308  0.2934 -0.7142
  282MPD2    H2 4314   0.935   3.386  14.798 -1.6938 -0.6084  3.0015
  282MPD2    H3 4315   0.991   3.329  14.602  1.0077 -1.8179 -1.0157
  282MPD2     N 4316   0.721   2.952  14.598 -0.5023 -0.1123 -0.2668
  282MPD2    H5 4317   0.664   2.894  14.658  2.0742  0.4297  2.6753
  282MPD2    N1 4318   0.736   3.256  14.959 -0.6399 -0.2315 -0.0951
  282MPD2    H7 4319   0.666   3.190  14.991 -1.5757  0.9327  0.2576
  283TMC3    C1 4320   0.722   3.383  15.152 -0.2148 -0.2581 -0.5035
  283TMC3    C2 4321   0.755   3.501  15.223  0.6357 -0.7240 -0.3606
  283TMC3    C3 4322   0.704   3.511  15.351 -0.0967  0.1497  0.1643
  283TMC3    C4 4323   0.639   3.285  15.201  0.1308 -0.2862  0.0149
  283TMC3    C5 4324   0.599   3.305  15.327 -0.4615 -0.4270  0.5888
  283TMC3    C6 4325   0.631   3.414  15.404 -0.3867  0.1284 -0.2274
  283TMC3     C 4326   0.790   3.364  15.028 -0.1867 -0.5473  0.1096
  283TMC3     O 4327   0.887   3.440  15.002  0.6249 -0.3760  0.1755
  283TMC3     H 4328   0.825   3.571  15.178 -0.4333  0.5431 -0.0261
  283TMC3    H1 4329   0.616   3.192  15.150 -1.7259 -0.6439  1.5108
  283TMC3    H2 4330   0.580   3.426  15.499 -1.3830  1.0137 -0.8738
  283TMC3    C7 4331   0.528   3.203  15.405  0.4914  0.1078  0.4401
  283TMC3    C8 4332   0.754   3.613  15.433 -0.2607 -0.1786  0.1093
  283TMC3    O1 4333   0.532   3.219  15.526  0.2945 -0.1558 -0.1190
  283TMC3    O2 4334   0.722   3.608  15.555 -0.0263  0.3727 -0.0502
  284MPD2     C 4335   3.455   2.849  11.802 -0.3549  0.3533 -0.0779
  284MPD2    C1 4336   3.591   2.858  11.759  0.1677  0.0095  0.1734
  284MPD2    C2 4337   3.695   2.811  11.834 -1.2714  0.0205 -0.4527
  284MPD2    C3 4338   3.667   2.743  11.945 -0.1144 -0.4064 -0.0609
  284MPD2    C4 4339   3.533   2.737  11.996  0.2115  0.8500 -0.0858
  284MPD2    C5 4340   3.433   2.790  11.930 -0.3186  0.3014 -0.1283
  284MPD2     H 4341   3.790   2.830  11.786 -0.3425  1.7016  2.0359
  284MPD2    H1 4342   3.496   2.690  12.086 -0.8623  0.5133 -0.7046
  284MPD2    H2 4343   3.374   2.897  11.749  0.9641  0.3402 -2.0952
  284MPD2    H3 4344   3.332   2.785  11.967  0.7225 -1.5765  2.4184
  284MPD2     N 4345   3.781   2.686  12.016  0.5961 -0.7475  0.2599
  284MPD2    H5 4346   3.877   2.683  11.984  0.7390  0.2237  0.6004
  284MPD2    N1 4347   3.621   2.920  11.642  0.3648  0.3072  0.8813
  284MPD2    H7 4348   3.716   2.932  11.608  1.1070 -1.8558  2.1431
  285TMC3    C1 4349   3.593   3.004  11.433  0.3749  0.2975 -0.0315
  285TMC3    C2 4350   3.699   2.931  11.392 -0.4458  0.4883 -0.0109
  285TMC3    C3 4351   3.790   2.986  11.309 -0.0398  0.5319 -0.5789
  285TMC3    C4 4352   3.579   3.131  11.388 -0.0107 -0.0248 -0.2663
  285TMC3    C5 4353   3.679   3.187  11.310 -1.3039  0.0010 -0.6917
  285TMC3    C6 4354   3.784   3.116  11.262  0.3662  0.3362  0.3858
  285TMC3     C 4355   3.528   2.975  11.555  0.1309 -0.7689 -0.4014
  285TMC3     O 4356   3.409   2.990  11.552 -0.4419 -0.2347 -0.0432
  285TMC3     H 4357   3.711   2.832  11.433  2.8276  1.1483  0.6424
  285TMC3    H1 4358   3.502   3.195  11.431  1.0436  0.0347  1.5003
  285TMC3    H2 4359   3.866   3.150  11.199  0.3902  0.0609  0.2706
  285TMC3    C7 4360   3.694   3.328  11.300 -0.0018 -0.7308  0.4000
  285TMC3    C8 4361   3.908   2.903  11.282 -1.2738  0.1360 -0.3911
  285TMC3    O1 4362   3.801   3.368  11.259  0.0159  0.3831 -0.0385
  285TMC3    O2 4363   3.888   2.785  11.312  0.1495 -0.0203  0.1231
  286MPD2     C 4364   4.289   1.565   1.104 -0.3495  0.2042 -0.4561
  286MPD2    C1 4365   4.277   1.559   0.968 -0.2585 -0.1265  0.4870
  286MPD2    C2 4366   4.354   1.463   0.900  0.3188  0.0357  0.1694
  286MPD2    C3 4367   4.442   1.380   0.961 -0.0427  0.3901 -0.9293
  286MPD2    C4 4368   4.467   1.396   1.095 -0.3166  0.1096  0.3174
  286MPD2    C5 4369   4.382   1.481   1.163 -0.3503 -0.6856  0.0816
  286MPD2     H 4370   4.336   1.461   0.793 -1.7155 -1.5501  0.5484
  286MPD2    H1 4371   4.525   1.326   1.154 -1.2771 -0.3039  0.7723
  286MPD2    H2 4372   4.239   1.633   1.172 -1.8517 -1.3505 -0.0136
  286MPD2    H3 4373   4.376   1.486   1.271  1.2319  0.0757  0.1284
  286MPD2     N 4374   4.514   1.275   0.893 -0.8159 -0.7325  0.2590
  286MPD2    H5 4375   4.580   1.222   0.947  1.5252  1.6324 -0.2803
  286MPD2    N1 4376   4.180   1.639   0.893  0.8484  0.3705  0.6965
  286MPD2    H7 4377   4.194   1.647   0.793 -1.0350 -2.2763  0.2260
  287TMC3    C1 4378   4.565   1.118   0.722 -0.0316 -0.4667  0.1534
  287TMC3    C2 4379   4.513   1.036   0.631 -0.1215  0.2358  0.3218
  287TMC3    C3 4380   4.573   0.914   0.612 -1.2503  0.1280 -0.0870
  287TMC3    C4 4381   4.678   1.078   0.799  0.2511 -0.2081  0.6979
  287TMC3    C5 4382   4.730   0.956   0.775 -0.4215 -0.1124  0.0397
  287TMC3    C6 4383   4.678   0.865   0.684 -0.2060 -0.4598  0.0496
  287TMC3     C 4384   4.485   1.231   0.763 -0.7205  0.1902 -1.1489
  287TMC3     O 4385   4.397   1.271   0.689 -0.1488 -0.1869 -0.4060
  287TMC3     H 4386   4.426   1.068   0.575 -0.9289  0.3131  1.6176
  287TMC3    H1 4387   4.725   1.143   0.871 -0.4274  0.5547  0.4514
  287TMC3    H2 4388   4.730   0.772   0.663  2.0886  0.6304  0.9426
  287TMC3    C7 4389   0.064   0.897   0.889 -0.6704  0.4129  0.5542
  287TMC3    C8 4390   4.510   0.826   0.511 -0.1078  0.0785  0.7659
  287TMC3    O1 4391   0.140   0.803   0.865 -0.0850  0.3550 -0.2118
  287TMC3    O2 4392   4.548   0.712   0.499  0.3416 -0.4149  0.5580
  288TMC3    C1 4393   1.010   1.242  14.681  0.4375 -0.3496  0.1578
  288TMC3    C2 4394   0.943   1.205  14.784  0.3244  0.0973 -0.4391
  288TMC3    C3 4395   0.870   1.303  14.844  0.0046  0.6154  0.3067
  288TMC3    C4 4396   1.020   1.376  14.637 -0.2833  0.1688  0.4281
  288TMC3    C5 4397   0.951   1.471  14.703  0.1746 -0.1429  1.0603
  288TMC3    C6 4398   0.868   1.432  14.805  0.2878 -0.4038  0.0177
  288TMC3     C 4399   1.055   1.143  14.585 -0.2950 -0.3927 -0.3763
  288TMC3     O 4400   1.067   1.192  14.475  0.1218 -0.4129  0.0630
  288TMC3     H 4401   0.918   1.103  14.813  1.1326 -0.2692 -1.0352
  288TMC3    H1 4402   1.081   1.402  14.551 -1.5027  0.7712 -0.2567
  288TMC3    H2 4403   0.815   1.511  14.857 -1.7812 -1.1532 -0.9456
  288TMC3    C7 4404   0.915   1.596  14.637  0.2507  0.2011 -0.4633
  288TMC3    C8 4405   0.809   1.290  14.977  0.0615 -0.1378  0.2742
  288TMC3    O1 4406   0.807   1.647  14.657 -0.0349  0.5129 -0.3624
  288TMC3    O2 4407   0.839   1.370  15.066  0.3668  0.3681  0.3252
  289MPD2     C 4408   1.426   0.213  14.203  0.5044 -0.2200  0.2182
  289MPD2    C1 4409   1.399   0.346  14.184  0.5960 -0.6302  0.6911
  289MPD2    C2 4410   1.283   0.375  14.118 -0.5664 -0.0941  0.0433
  289MPD2    C3 4411   1.200   0.275  14.066  0.0841 -0.1523  0.0377
  289MPD2    C4 4412   1.240   0.146  14.067 -0.0622 -0.8279  0.4259
  289MPD2    C5 4413   1.346   0.110  14.144  0.1684  0.3344  0.7318
  289MPD2     H 4414   1.255   0.479  14.108  1.2667  0.4936  1.0171
  289MPD2    H1 4415   1.173   0.067  14.037 -2.5167  1.8845 -1.2556
  289MPD2    H2 4416   1.516   0.179  14.252  0.7633  0.2981  0.1009
  289MPD2    H3 4417   1.367   0.006  14.160  0.3100  0.1604 -0.5406
  289MPD2     N 4418   1.078   0.296  13.996  0.0023  0.4677  0.1296
  289MPD2    H5 4419   1.026   0.211  13.977  0.2709  0.5988 -1.1547
  289MPD2    N1 4420   1.499   0.446  14.231 -0.3214  0.1629 -0.2232
  289MPD2    H7 4421   1.577   0.414  14.288  0.2381  1.0828 -0.4797
  290TMC3    C1 4422   0.891   0.414  13.903  0.0200  0.5624 -0.2964
  290TMC3    C2 4423   0.817   0.524  13.906  0.2310 -0.1470 -0.5123
  290TMC3    C3 4424   0.710   0.535  13.820 -0.7974  0.3748  0.0223
  290TMC3    C4 4425   0.842   0.298  13.845  0.4356 -0.5501  0.6286
  290TMC3    C5 4426   0.734   0.311  13.760  0.4366 -0.1917 -0.0446
  290TMC3    C6 4427   0.660   0.427  13.747 -0.1645 -0.0211 -0.6357
  290TMC3     C 4428   1.019   0.421  13.974 -0.2031  0.3487 -0.3554
  290TMC3     O 4429   1.059   0.533  14.010  0.5748  0.5541 -0.0221
  290TMC3     H 4430   0.859   0.609  13.957  1.4007 -1.9532  1.5355
  290TMC3    H1 4431   0.906   0.212  13.830  0.3843 -0.0166 -2.5521
  290TMC3    H2 4432   0.571   0.426  13.685 -1.3593 -1.7953  1.0760
  290TMC3    C7 4433   0.644   0.191  13.756  0.4023  0.3993 -0.2519
  290TMC3    C8 4434   0.624   0.651  13.807 -0.5093  1.0525 -0.1235
  290TMC3    O1 4435   0.529   0.211  13.720 -0.0345 -0.0910  0.1247
  290TMC3    O2 4436   0.524   0.632  13.743  0.3607  0.0432  0.4205
  291MPD2     C 4437   0.244   0.510  17.719  0.5745  0.1409  0.4702
  291MPD2    C1 4438   0.372   0.462  17.733  0.0595  0.1235  0.2079
  291MPD2    C2 4439   0.475   0.551  17.736 -0.3941 -0.2411 -0.7342
  291MPD2    C3 4440   0.465   0.688  17.738 -0.1850 -0.1558 -0.5622
  291MPD2    C4 4441   0.330   0.733  17.729  0.2182 -0.0567 -0.3390
  291MPD2    C5 4442   0.220   0.650  17.712 -0.4432  0.0766 -0.4784
  291MPD2     H 4443   0.569   0.499   0.001  0.4284  1.3584 -0.1737
  291MPD2    H1 4444   0.315   0.840  17.714 -0.2722  0.0994  1.2185
  291MPD2    H2 4445   0.158   0.445  17.713  0.9340 -0.1559 -1.6320
  291MPD2    H3 4446   0.119   0.685  17.695 -0.0275  1.2235 -0.5936
  291MPD2     N 4447   0.584   0.766  17.744  0.8705  0.0593 -0.1939
  291MPD2    H5 4448   0.570   0.867  17.735  2.6521  0.2948 -0.3073
  291MPD2    N1 4449   0.401   0.322  17.742 -0.5623  0.0658  0.4959
  291MPD2    H7 4450   0.498   0.293  17.731 -0.7468  1.1922 -4.0630
  292TMC3    C1 4451   0.367   0.084   0.009  0.5414  0.0731  0.1545
  292TMC3    C2 4452   0.472   0.075   0.095  0.2172  0.6666  0.5544
  292TMC3    C3 4453   0.553   4.697   0.081 -1.2577  0.1498  0.0712
  292TMC3    C4 4454   0.335   4.720  17.669 -0.4566  0.4504  0.2902
  292TMC3    C5 4455   0.416   4.610  17.655  0.4658 -0.1971  0.2001
  292TMC3    C6 4456   0.526   4.597  17.737  0.4560 -0.6493 -0.9429
  292TMC3     C 4457   0.310   0.216  17.740 -0.1432  0.1045  0.4978
  292TMC3     O 4458   0.195   0.223  17.696 -0.2974  0.2695  0.2864
  292TMC3     H 4459   0.497   0.139   0.179 -0.4108  3.7059 -1.5684
  292TMC3    H1 4460   0.269   0.011  17.588  0.7376 -0.2702 -0.9281
  292TMC3    H2 4461   0.581   4.505  17.722  0.8296 -0.3239 -1.5603
  292TMC3    C7 4462   0.368   4.487  17.597 -0.8656 -0.6126 -0.3924
  292TMC3    C8 4463   0.636   4.656   0.195  0.3383  0.2614 -0.0314
  292TMC3    O1 4464   0.446   4.391  17.604  0.3938  0.1232  0.5672
  292TMC3    O2 4465   0.757   4.640   0.172 -0.3212 -0.6623 -0.5780
  293MPD2     C 4466   2.019   1.400  12.552  0.0390  0.0425 -0.1191
  293MPD2    C1 4467   1.893   1.428  12.607  0.3881  0.0613  0.1279
  293MPD2    C2 4468   1.882   1.473  12.738 -0.6307 -0.6221 -0.3736
  293MPD2    C3 4469   1.994   1.489  12.816 -0.0260 -0.0580 -0.2133
  293MPD2    C4 4470   2.117   1.471  12.749  0.0315  0.0780  0.1706
  293MPD2    C5 4471   2.130   1.431  12.619  0.1259  0.2096 -0.2831
  293MPD2     H 4472   1.784   1.505  12.773  0.2020  0.1282  1.2624
  293MPD2    H1 4473   2.215   1.483  12.793  0.4940 -0.3021 -0.7584
  293MPD2    H2 4474   2.037   1.359  12.453 -0.9009 -1.0513  0.1658
  293MPD2    H3 4475   2.228   1.427  12.575  0.0524 -0.6479 -0.3804
  293MPD2     N 4476   1.986   1.518  12.954 -0.5899  0.3133  0.0856
  293MPD2    H5 4477   1.891   1.509  12.990 -0.0955  0.4471  1.3905
  293MPD2    N1 4478   1.779   1.406  12.526  0.2538 -0.6781 -0.3633
  293MPD2    H7 4479   1.791   1.357  12.437  0.4619  1.0977 -1.3068
  294TMC3    C1 4480   1.557   1.411  12.443 -0.0320 -0.3639 -0.0930
  294TMC3    C2 4481   1.424   1.408  12.470  0.5563 -0.3436  0.7401
  294TMC3    C3 4482   1.342   1.386  12.367 -0.6667  0.6471 -0.7633
  294TMC3    C4 4483   1.601   1.415  12.312 -0.1838  0.3813  0.5024
  294TMC3    C5 4484   1.509   1.410  12.209 -0.9953  0.2735 -1.1658
  294TMC3    C6 4485   1.376   1.394  12.233 -1.2486 -0.3378  0.5484
  294TMC3     C 4486   1.649   1.435  12.558  0.1830  0.1576  0.3811
  294TMC3     O 4487   1.600   1.446  12.673 -0.5010  0.5037  0.1807
  294TMC3     H 4488   1.410   1.385  12.575 -2.4522 -3.1455 -0.2858
  294TMC3    H1 4489   1.704   1.397  12.283 -0.1678  0.4764  0.5003
  294TMC3    H2 4490   1.303   1.398  12.152  0.0080 -0.5494 -0.5953
  294TMC3    C7 4491   1.545   1.317  12.107 -0.1168  0.3656 -0.3102
  294TMC3    C8 4492   1.243   1.280  12.384 -0.8014 -0.6850 -0.1361
  294TMC3    O1 4493   1.458   1.233  12.081  0.3463 -0.6155 -0.0030
  294TMC3    O2 4494   1.200   1.287  12.497  0.2019 -0.9796 -0.1535
  295MPD2     C 4495   3.768   0.648   0.734 -0.5728 -0.7427  0.0114
  295MPD2    C1 4496   3.704   0.550   0.660 -0.6032 -0.4734 -1.0671
  295MPD2    C2 4497   3.711   0.417   0.697  0.8852  0.0524 -0.7698
  295MPD2    C3 4498   3.783   0.380   0.812  0.2030 -0.1921  0.1510
  295MPD2    C4 4499   3.847   0.481   0.881 -0.0687 -0.1606  0.1137
  295MPD2    C5 4500   3.841   0.612   0.842  0.2483 -0.8484 -0.6505
  295MPD2     H 4501   3.662   0.342   0.635  0.4955  0.6023 -1.1250
  295MPD2    H1 4502   3.899   0.459   0.974  2.1084 -0.6731 -1.2225
  295MPD2    H2 4503   3.767   0.753   0.707 -1.2860 -0.5452  0.8044
  295MPD2    H3 4504   3.903   0.682   0.898 -0.5034 -1.7667  1.3349
  295MPD2     N 4505   3.795   0.254   0.866 -0.5836  0.1536  0.1614
  295MPD2    H5 4506   3.851   0.247   0.951  0.3822  0.3753 -0.4551
  295MPD2    N1 4507   3.620   0.577   0.548 -0.4726  0.0846 -0.0140
  295MPD2    H7 4508   3.572   0.495   0.511 -2.1878  0.4040  1.5015
  296TMC3    C1 4509   3.750   0.020   0.872  0.4632 -0.3474 -0.3627
  296TMC3    C2 4510   3.843   0.004   0.971  0.0005 -0.1344 -0.7796
  296TMC3    C3 4511   3.833   4.625   1.036  0.1368  0.0608 -0.3769
  296TMC3    C4 4512   3.666   4.664   0.828 -0.1424  0.6042  0.7455
  296TMC3    C5 4513   3.667   4.544   0.889  0.2761  0.1886  0.0853
  296TMC3    C6 4514   3.751   4.521   0.994 -0.0581 -0.3271  0.3734
  296TMC3     C 4515   3.736   0.145   0.805  0.0460 -0.4496 -0.1669
  296TMC3     O 4516   3.653   0.143   0.714  0.0486 -0.1375 -0.7262
  296TMC3     H 4517   3.914   0.082   0.996 -0.9734  0.2715  0.7147
  296TMC3    H1 4518   3.602   4.669   0.740  1.1530  1.5303 -0.1611
  296TMC3    H2 4519   3.753   4.424   1.042  0.2711 -0.0219  0.9882
  296TMC3    C7 4520   3.597   4.427   0.828 -0.4729  0.9213 -0.1101
  296TMC3    C8 4521   3.941   4.594   1.129 -0.6608  0.1078  0.6160
  296TMC3    O1 4522   3.554   4.449   0.717 -0.2446 -0.2331  0.0456
  296TMC3    O2 4523   3.986   4.483   1.115 -0.3698  0.2669 -0.2986
  297MPD2     C 4524   0.132   1.800  16.472 -0.5216  0.1233 -0.0328
  297MPD2    C1 4525   0.106   1.864  16.358 -0.1186 -0.4514  0.2065
  297MPD2    C2 4526   0.202   1.944  16.307  0.1284  0.3206  0.1823
  297MPD2    C3 4527   0.313   1.988  16.381  0.5958  0.6710  0.5222
  297MPD2    C4 4528   0.337   1.933  16.508  0.1286  0.2709  0.0274
  297MPD2    C5 4529   0.250   1.828  16.542 -0.6222 -0.6117 -0.2544
  297MPD2     H 4530   0.180   1.992  16.212 -2.9474 -0.6076  0.4227
  297MPD2    H1 4531   0.433   1.947  16.556  0.0109  1.8832 -0.2231
  297MPD2    H2 4532   0.066   1.725  16.515  0.2275 -0.1944  0.5697
  297MPD2    H3 4533   0.265   1.780  16.638  0.2057  1.5504  0.7025
  297MPD2     N 4534   0.389   2.097  16.331 -0.3829  0.2614  0.1282
  297MPD2    H5 4535   0.364   2.127  16.237  0.7445  0.3623 -0.1404
  297MPD2    N1 4536   4.721   1.855  16.291  0.4094 -0.5608  0.8324
  297MPD2    H7 4537   4.718   1.900  16.200 -0.3926  0.4864  1.3731
  298TMC3    C1 4538   4.489   1.825  16.256 -0.0024 -0.0439  0.7012
  298TMC3    C2 4539   4.510   1.804  16.124  0.4392 -0.1613  0.1194
  298TMC3    C3 4540   4.399   1.815  16.049 -0.0184 -0.7229 -0.4791
  298TMC3    C4 4541   4.374   1.867  16.319 -0.4131 -0.7791 -0.0061
  298TMC3    C5 4542   4.270   1.889  16.229  0.5325 -0.3889 -0.4637
  298TMC3    C6 4543   4.279   1.854  16.096  0.0180 -0.3072 -0.6415
  298TMC3     C 4544   4.602   1.802  16.344  0.1033 -0.5187 -0.5051
  298TMC3     O 4545   4.578   1.759  16.458  0.0356 -0.0798  0.6122
  298TMC3     H 4546   4.600   1.755  16.087 -0.2920 -2.4721  1.3780
  298TMC3    H1 4547   4.380   1.881  16.427  2.5701  1.3700 -0.4444
  298TMC3    H2 4548   4.189   1.854  16.035 -1.2960  1.7694  1.2605
  298TMC3    C7 4549   4.148   1.944  16.279 -0.6970 -0.7219  0.1599
  298TMC3    C8 4550   4.429   1.839  15.907  0.3879  0.7518  0.6460
  298TMC3    O1 4551   4.158   2.016  16.380 -0.4347 -0.5268 -0.0227
  298TMC3    O2 4552   4.547   1.855  15.874 -0.0540  0.1404  0.6757
  299MPD2     C 4553   0.809   1.605  10.793  1.0159 -0.4036  0.1310
  299MPD2    C1 4554   0.776   1.632  10.662 -0.2668 -1.0821 -0.0046
  299MPD2    C2 4555   0.642   1.640  10.624 -0.3848  0.3186  0.3265
  299MPD2    C3 4556   0.543   1.630  10.727 -0.2133  0.0200  0.0550
  299MPD2    C4 4557   0.579   1.607  10.858  0.0808 -0.2159 -0.3974
  299MPD2    C5 4558   0.706   1.583  10.887  0.4181 -0.0047 -0.4786
  299MPD2     H 4559   0.620   1.668  10.521  1.1006  5.0326  1.2750
  299MPD2    H1 4560   0.500   1.584  10.928  0.8178 -0.0103  0.4940
  299MPD2    H2 4561   0.910   1.587  10.827  1.5533 -0.5856 -1.5456
  299MPD2    H3 4562   0.738   1.563  10.989  0.1123 -1.8928 -0.7383
  299MPD2     N 4563   0.403   1.626  10.704 -0.5659  0.1824  0.3646
  299MPD2    H5 4564   0.344   1.611  10.785 -0.8891  1.9191  0.4687
  299MPD2    N1 4565   0.890   1.641  10.577  0.3399  0.3468 -0.4923
  299MPD2    H7 4566   0.977   1.616  10.621  0.7547 -0.5989 -1.8389
  300TMC3    C1 4567   0.204   1.668  10.597 -0.0183 -0.0331  0.2983
  300TMC3    C2 4568   0.145   1.767  10.509  0.2268 -0.4610 -0.5110
  300TMC3    C3 4569   0.021   1.814  10.539  0.9595  0.3196  0.6020
  300TMC3    C4 4570   0.136   1.617  10.704 -0.3536  0.1704  0.0162
  300TMC3    C5 4571   0.008   1.665  10.727 -0.6671 -0.2592  0.2730
  300TMC3    C6 4572   4.689   1.763  10.648 -0.1589 -0.8226  0.1219
  300TMC3     C 4573   0.348   1.653  10.582 -0.4909  0.3549 -0.0401
  300TMC3     O 4574   0.398   1.663  10.471  0.2273  0.4441 -0.4013
  300TMC3     H 4575   0.200   1.811  10.427 -1.5330 -1.3742 -2.1660
  300TMC3    H1 4576   0.181   1.543  10.769  0.5116 -0.6536 -1.5129
  300TMC3    H2 4577   4.595   1.812  10.673 -0.0188  0.7605 -2.4711
  300TMC3    C7 4578   4.685   1.628  10.853  0.1097  0.6815 -0.1889
  300TMC3    C8 4579   4.707   1.938  10.487  0.1239 -0.1390 -0.1360
  300TMC3    O1 4580   4.697   1.515  10.905  0.2494 -0.1424  0.0587
  300TMC3    O2 4581   4.615   1.984  10.551 -0.1137 -0.1780  0.8741
  301MPD2     C 4582   3.258   2.929   0.894  0.0017 -0.7934 -0.6393
  301MPD2    C1 4583   3.156   2.933   0.803 -0.1810  0.3552 -0.1689
  301MPD2    C2 4584   3.116   2.830   0.733  0.5338  0.0011 -0.0594
  301MPD2    C3 4585   3.175   2.706   0.758  0.3010 -0.3377 -0.4718
  301MPD2    C4 4586   3.278   2.697   0.848 -0.2484 -0.1756 -0.1602
  301MPD2    C5 4587   3.326   2.809   0.910  0.2374  0.2095  0.0016
  301MPD2     H 4588   3.048   2.838   0.649  1.8706  0.0786 -1.1351
  301MPD2    H1 4589   3.319   2.599   0.873 -0.9606 -0.3111  0.5029
  301MPD2    H2 4590   3.298   3.021   0.936  0.5409 -0.4714 -1.8454
  301MPD2    H3 4591   3.413   2.802   0.974  0.0033  4.7965  0.8377
  301MPD2     N 4592   3.129   2.585   0.710 -0.5038  0.1922  0.4070
  301MPD2    H5 4593   3.159   2.500   0.756  0.3919  0.7876  0.9182
  301MPD2    N1 4594   3.088   3.052   0.776 -0.0142 -0.1587 -0.6100
  301MPD2    H7 4595   3.001   3.036   0.726 -0.8209 -4.0978  2.0998
  302TMC3    C1 4596   2.954   2.459   0.608 -0.5459  0.1689 -0.9469
  302TMC3    C2 4597   2.990   2.343   0.667 -0.2634 -0.9440  0.0965
  302TMC3    C3 4598   2.915   2.228   0.633  0.0735  0.0559 -0.5415
  302TMC3    C4 4599   2.839   2.465   0.537 -0.2391  0.4233  0.5476
  302TMC3    C5 4600   2.759   2.355   0.516 -0.5139  0.2823  0.1062
  302TMC3    C6 4601   2.801   2.231   0.555 -0.4657  0.0138  0.8054
  302TMC3     C 4602   3.042   2.575   0.601 -0.0786  0.0553  0.0359
  302TMC3     O 4603   3.008   2.657   0.518 -0.0138 -0.4160  0.7277
  302TMC3     H 4604   3.087   2.327   0.711 -0.6919  0.6398  1.6038
  302TMC3    H1 4605   2.807   2.560   0.497 -0.6521  0.0748  0.0604
  302TMC3    H2 4606   2.733   2.148   0.541  0.2368 -0.1552 -1.5358
  302TMC3    C7 4607   2.665   2.346   0.411  0.2702  0.3005  0.0115
  302TMC3    C8 4608   2.951   2.101   0.696  0.4080  0.2238 -0.0026
  302TMC3    O1 4609   2.679   2.256   0.329  0.0890 -0.1244  0.4039
  302TMC3    O2 4610   3.034   2.106   0.785 -0.2548 -0.6438 -0.4398
  303MPD2     C 4611   3.387   2.148  10.204 -0.7475  0.6368 -0.0591
  303MPD2    C1 4612   3.276   2.143  10.280  0.4059  0.0482 -0.0566
  303MPD2    C2 4613   3.159   2.109  10.215  0.1589  0.1426 -0.4809
  303MPD2    C3 4614   3.150   2.092  10.077 -0.0846 -0.0216  0.2141
  303MPD2    C4 4615   3.259   2.110  10.002 -0.7053 -0.4023 -0.0113
  303MPD2    C5 4616   3.382   2.130  10.067 -0.3553  0.5595  0.6534
  303MPD2     H 4617   3.072   2.092  10.277  0.3078 -0.7398 -0.5108
  303MPD2    H1 4618   3.258   2.109   9.894  0.8103 -0.1548 -0.0252
  303MPD2    H2 4619   3.477   2.174  10.257 -1.4536  1.3478  0.7994
  303MPD2    H3 4620   3.471   2.161  10.015 -0.8616 -3.7600 -2.8229
  303MPD2     N 4621   3.024   2.066  10.016 -0.0306 -0.4595  0.1019
  303MPD2    H5 4622   3.017   2.081   9.916  0.4312  0.2937  0.1767
  303MPD2    N1 4623   3.285   2.148  10.427  0.3721 -0.1970  0.3290
  303MPD2    H7 4624   3.378   2.141  10.467  0.3043 -0.8809  0.3579
  304TMC3    C1 4625   3.231   2.143  10.653  0.2397 -0.5977  0.4077
  304TMC3    C2 4626   3.145   2.214  10.733  0.0445 -0.7861  0.7415
  304TMC3    C3 4627   3.096   2.168  10.846 -0.8646 -0.5570 -0.2392
  304TMC3    C4 4628   3.261   2.012  10.685  0.4968 -0.1028 -0.7135
  304TMC3    C5 4629   3.196   1.960  10.798 -0.2799  0.3468 -0.0402
  304TMC3    C6 4630   3.130   2.041  10.884 -0.3394  0.1883 -0.0148
  304TMC3     C 4631   3.183   2.165  10.514 -0.5268 -0.0850  0.3822
  304TMC3     O 4632   3.069   2.200  10.499  0.3113  0.5196 -1.0140
  304TMC3     H 4633   3.126   2.317  10.702  0.1696 -1.1138 -0.4146
  304TMC3    H1 4634   3.316   1.948  10.617 -0.4225 -0.4032 -1.1755
  304TMC3    H2 4635   3.090   1.997  10.974 -0.1942  2.1886  1.0362
  304TMC3    C7 4636   3.121   1.842  10.775  0.1488 -0.1981  1.3039
  304TMC3    C8 4637   2.957   2.204  10.870 -0.2418 -0.6362 -0.5151
  304TMC3    O1 4638   3.009   1.847  10.822  0.6664  0.6503 -0.2085
  304TMC3    O2 4639   2.921   2.307  10.812  0.0981 -0.3287 -0.0778
  305MPD2     C 4640   0.885   3.005  13.737 -0.2433 -0.7815  0.2970
  305MPD2    C1 4641   0.886   3.129  13.794 -0.6963  0.3570  0.0546
  305MPD2    C2 4642   0.851   3.242  13.715  0.2739  0.5100  0.9434
  305MPD2    C3 4643   0.845   3.222  13.580 -0.0860  0.4504  0.4976
  305MPD2    C4 4644   0.858   3.100  13.524 -0.1901  0.5010  0.7162
  305MPD2    C5 4645   0.869   2.992  13.606  0.0423 -0.0662 -0.4206
  305MPD2     H 4646   0.828   3.339  13.756 -0.8810  0.8004 -0.3724
  305MPD2    H1 4647   0.847   3.078  13.418 -0.3446 -1.8871  1.2155
  305MPD2    H2 4648   0.897   2.919  13.802  0.6137 -0.6780  0.2784
  305MPD2    H3 4649   0.856   2.894  13.561  0.9606  0.3511 -1.5956
  305MPD2     N 4650   0.822   3.328  13.490 -0.1226  0.0085 -0.2798
  305MPD2    H5 4651   0.813   3.300  13.393  0.2782  0.3754 -0.4222
  305MPD2    N1 4652   0.899   3.139  13.936 -0.0971 -0.8699 -0.6120
  305MPD2    H7 4653   0.916   3.054  13.988  0.1265 -0.6248 -0.2794
  306TMC3    C1 4654   0.982   3.231  14.137 -0.4327  0.1953 -0.1241
  306TMC3    C2 4655   1.073   3.128  14.158 -0.0574  0.3637 -0.5740
  306TMC3    C3 4656   1.158   3.140  14.265 -0.4437  0.5155 -0.6719
  306TMC3    C4 4657   0.989   3.343  14.215  0.6474  0.1174  0.5180
  306TMC3    C5 4658   1.083   3.357  14.315  0.2384 -0.5549  0.0202
  306TMC3    C6 4659   1.169   3.251  14.342  0.0670 -0.8491 -0.2123
  306TMC3     C 4660   0.918   3.255  14.004 -0.4615 -0.0290 -0.2464
  306TMC3     O 4661   0.897   3.369  13.964 -0.3790  0.1131 -0.9103
  306TMC3     H 4662   1.093   3.068  14.070 -0.0705 -1.0355  0.3934
  306TMC3    H1 4663   0.922   3.423  14.185  1.1093 -0.3941 -1.8342
  306TMC3    H2 4664   1.248   3.256  14.417  1.1996  1.6469 -1.5769
  306TMC3    C7 4665   1.132   3.487  14.328 -0.0587  0.4976 -0.3174
  306TMC3    C8 4666   1.237   3.023  14.297  0.2653  0.4575  0.2289
  306TMC3    O1 4667   1.125   3.560  14.227 -0.0261 -0.1142 -0.3945
  306TMC3    O2 4668   1.325   3.030  14.381 -0.1701 -0.0255 -0.2789
  307MPD2     C 4669   3.972   1.442   0.313  0.7564 -0.4837  0.1333
  307MPD2    C1 4670   3.911   1.560   0.279  0.0879  0.2253 -0.1737
  307MPD2    C2 4671   3.778   1.563   0.276 -0.4660 -0.2759 -0.4741
  307MPD2    C3 4672   3.695   1.453   0.301  0.4149 -0.3871 -0.2662
  307MPD2    C4 4673   3.755   1.335   0.322 -0.8000 -0.1857 -0.7775
  307MPD2    C5 4674   3.894   1.334   0.333  0.1126 -0.5588 -0.1334
  307MPD2     H 4675   3.727   1.641   0.222 -0.4852  0.4156  0.5269
  307MPD2    H1 4676   3.701   1.246   0.350 -1.4768  0.1145 -1.1188
  307MPD2    H2 4677   4.079   1.439   0.333  1.1960  2.0963 -1.8778
  307MPD2    H3 4678   3.949   1.242   0.350  1.3824  0.1432 -0.4519
  307MPD2     N 4679   3.553   1.478   0.310  0.2350 -0.3292  0.2307
  307MPD2    H5 4680   3.527   1.569   0.273 -1.1257 -1.1705 -0.8638
  307MPD2    N1 4681   3.984   1.683   0.251 -0.0323 -0.5186 -0.4559
  307MPD2    H7 4682   3.926   1.757   0.214  2.0926  0.8509 -1.0358
  308TMC3    C1 4683   3.124   1.493   0.364 -0.2351 -0.0159  0.0944
  308TMC3    C2 4684   3.130   1.601   0.449  0.1334  0.4868 -0.0323
  308TMC3    C3 4685   3.260   1.631   0.494 -0.6725  0.4517 -0.3090
  308TMC3    C4 4686   3.230   1.413   0.335  0.9046  0.2594 -0.4347
  308TMC3    C5 4687   3.348   1.450   0.386  0.3972 -0.6758 -0.1512
  308TMC3    C6 4688   3.367   1.547   0.473 -0.9633  0.2845 -0.0158
  308TMC3     C 4689   2.992   1.448   0.333  0.1976 -0.0239  0.3583
  308TMC3     O 4690   2.980   1.327   0.313 -0.0924 -0.5549  0.0557
  308TMC3     H 4691   3.053   1.677   0.462 -0.2564 -0.6563  4.3015
  308TMC3    H1 4692   3.206   1.332   0.268  2.0822 -1.6452  1.4323
  308TMC3    H2 4693   3.466   1.563   0.513 -1.6683  2.4997  0.8947
  308TMC3    C7 4694   3.463   1.380   0.353  0.4988  0.1604  0.2344
  308TMC3    C8 4695   3.281   1.751   0.576 -0.4872 -0.1510 -0.8320
  308TMC3    O1 4696   3.464   1.262   0.393  0.2111  0.6197  0.2800
  308TMC3    O2 4697   3.389   1.738   0.640 -0.3837 -0.3086 -0.0677
  309MPD2     C 4698   2.748   2.060  17.005  0.4553 -0.0526 -0.2205
  309MPD2    C1 4699   2.677   2.026  16.892 -0.7340 -0.7570 -0.0291
  309MPD2    C2 4700   2.548   2.076  16.879  0.3598  0.7297 -0.4173
  309MPD2    C3 4701   2.489   2.161  16.974  0.4315 -0.2547 -0.6808
  309MPD2    C4 4702   2.570   2.210  17.080 -0.4762  0.1070 -0.6384
  309MPD2    C5 4703   2.694   2.157  17.086  0.3266  0.3625  0.1964
  309MPD2     H 4704   2.497   2.036  16.793 -0.5597 -0.4716  0.6926
  309MPD2    H1 4705   2.548   2.279  17.161 -0.7164 -0.4573 -0.2294
  309MPD2    H2 4706   2.832   2.001  17.040 -1.9292 -3.0170  0.4538
  309MPD2    H3 4707   2.754   2.188  17.170  0.4990  1.3393 -0.2950
  309MPD2     N 4708   2.351   2.189  16.981  0.5210 -0.0712 -0.0495
  309MPD2    H5 4709   2.316   2.261  17.044  1.3837 -1.1998  1.7066
  309MPD2    N1 4710   2.710   1.936  16.794  0.7034  0.0389  0.4375
  309MPD2    H7 4711   2.647   1.923  16.715  0.9367  1.9106 -0.0623
  310TMC3    C1 4712   2.854   1.779  16.676  0.7629 -0.6136  0.9722
  310TMC3    C2 4713   2.807   1.818  16.553 -0.3437  0.1424  0.2856
  310TMC3    C3 4714   2.855   1.747  16.449  0.3330 -0.0793  0.3245
  310TMC3    C4 4715   2.938   1.672  16.696 -0.3269  0.8393  0.1603
  310TMC3    C5 4716   2.960   1.587  16.588 -0.1632  0.2247 -0.3051
  310TMC3    C6 4717   2.918   1.620  16.466  0.2457 -0.0263 -0.4549
  310TMC3     C 4718   2.829   1.863  16.793  0.2497 -0.3183  0.0590
  310TMC3     O 4719   2.915   1.855  16.877  0.2580 -0.1689  0.3084
  310TMC3     H 4720   2.740   1.903  16.541 -2.0378 -1.6952 -3.4389
  310TMC3    H1 4721   2.952   1.635  16.797 -1.6612  0.0076  0.0400
  310TMC3    H2 4722   2.954   1.559  16.384 -0.5187 -1.0900 -0.0058
  310TMC3    C7 4723   3.071   1.501  16.605 -0.0727  0.0687 -0.0197
  310TMC3    C8 4724   2.849   1.810  16.323  0.2443  0.8045  0.0263
  310TMC3    O1 4725   3.081   1.415  16.524 -0.5551 -0.1718  0.2934
  310TMC3    O2 4726   2.759   1.892  16.303 -0.2296  0.2686 -0.0331
  311MPD2     C 4727   0.277   3.471  12.166 -0.7192  0.6807  0.3794
  311MPD2    C1 4728   0.334   3.521  12.278 -0.5152 -0.3979 -0.4012
  311MPD2    C2 4729   0.265   3.506  12.397 -0.2046 -0.3506  0.4249
  311MPD2    C3 4730   0.143   3.432  12.400  0.4059  0.1797 -0.9772
  311MPD2    C4 4731   0.090   3.381  12.280 -0.1440 -0.3013  0.0285
  311MPD2    C5 4732   0.157   3.403  12.168  0.2780  0.4355 -0.2785
  311MPD2     H 4733   0.288   3.550  12.493  0.0035 -0.3066  0.3534
  311MPD2    H1 4734   4.730   3.335  12.271 -0.7316  1.2847 -1.8712
  311MPD2    H2 4735   0.324   3.476  12.068  2.2570 -2.7043  1.6475
  311MPD2    H3 4736   0.122   3.377  12.069 -3.0569  0.6725  0.8336
  311MPD2     N 4737   0.066   3.439  12.516 -0.1985 -0.0316  0.1973
  311MPD2    H5 4738   0.099   3.494  12.594  1.8047 -0.2903 -0.4696
  311MPD2    N1 4739   0.451   3.594  12.281  0.0429  0.2573 -0.0567
  311MPD2    H7 4740   0.479   3.637  12.369  0.3127 -0.3514  0.1494
  312TMC3    C1 4741   4.645   3.371  12.673 -0.2057 -1.0397  0.4052
  312TMC3    C2 4742   4.514   3.354  12.690 -0.2876 -0.2055  0.2492
  312TMC3    C3 4743   4.471   3.369  12.820 -0.4399 -0.9525 -0.1462
  312TMC3    C4 4744   4.729   3.426  12.766  0.2566  0.8865  0.1106
  312TMC3    C5 4745   4.679   3.432  12.888  0.5954 -0.3180  1.0819
  312TMC3    C6 4746   4.552   3.400  12.922  0.1809 -0.3981 -0.0377
  312TMC3     C 4747   4.690   3.363  12.536  0.3667 -0.6627 -0.5980
  312TMC3     O 4748   4.616   3.313  12.453  0.1777 -0.3681  0.1811
  312TMC3     H 4749   4.454   3.321  12.606 -1.2718  0.0747  0.8353
  312TMC3    H1 4750   0.097   3.449  12.753 -0.0195  0.8038 -2.3554
  312TMC3    H2 4751   4.511   3.409  13.022 -4.4160  1.0254 -2.0596
  312TMC3    C7 4752   0.020   3.519  12.977 -0.4844  0.0876 -0.5679
  312TMC3    C8 4753   4.327   3.367  12.832  0.1852  0.6613 -0.0514
  312TMC3    O1 4754   0.103   3.594  12.927 -0.0293  0.1250 -0.8042
  312TMC3    O2 4755   4.268   3.303  12.749 -0.6876 -0.2289 -0.5863
  313MPD2     C 4756   3.634   3.043  10.955 -0.0482  0.0344 -0.2196
  313MPD2    C1 4757   3.748   3.122  10.933  0.3749 -0.0582 -0.3589
  313MPD2    C2 4758   3.871   3.063  10.919  0.2872 -0.1967  0.6092
  313MPD2    C3 4759   3.893   2.928  10.929 -0.5453 -0.2325  0.2511
  313MPD2    C4 4760   3.779   2.849  10.952 -0.1115  0.4674  0.1890
  313MPD2    C5 4761   3.654   2.905  10.967  0.5135  0.2486  0.2273
  313MPD2     H 4762   3.943   3.142  10.905 -3.1234  2.7967 -0.2182
  313MPD2    H1 4763   3.787   2.742  10.963  2.1022  0.5895 -0.2936
  313MPD2    H2 4764   3.534   3.085  10.960  0.8949  2.2760 -0.1819
  313MPD2    H3 4765   3.576   2.833  10.989  0.0617  0.0240 -2.1280
  313MPD2     N 4766   4.019   2.873  10.911  0.2919  0.0921 -0.5453
  313MPD2    H5 4767   4.086   2.929  10.859 -0.3624 -0.9136 -2.4576
  313MPD2    N1 4768   3.751   3.262  10.932  0.3936  0.3546 -0.5236
  313MPD2    H7 4769   3.831   3.300  10.882  1.2107 -2.5983 -1.4473
  314TMC3    C1 4770   3.675   3.474  10.896 -0.4356  0.6573 -0.3557
  314TMC3    C2 4771   3.802   3.510  10.910  0.1461 -0.4121 -0.5770
  314TMC3    C3 4772   3.860   3.584  10.807 -0.0774 -0.3448 -0.1249
  314TMC3    C4 4773   3.599   3.509  10.787  0.4745 -0.7866  0.3360
  314TMC3    C5 4774   3.657   3.576  10.680 -0.6736 -0.3086  0.2728
  314TMC3    C6 4775   3.784   3.618  10.698  0.1374 -0.6199 -0.4616
  314TMC3     C 4776   3.640   3.340  10.935  1.6230  0.3992 -0.8151
  314TMC3     O 4777   3.520   3.319  10.948 -0.0407  0.4096  0.0619
  314TMC3     H 4778   3.859   3.482  10.998 -0.0549 -3.0246 -1.2807
  314TMC3    H1 4779   3.504   3.461  10.769  0.4300 -0.3030 -0.7044
  314TMC3    H2 4780   3.836   3.671  10.619  0.5739 -1.8478 -0.9991
  314TMC3    C7 4781   3.621   3.517  10.552 -1.0657  0.3930  1.3126
  314TMC3    C8 4782   4.002   3.582  10.795 -0.2431  0.3408 -0.3053
  314TMC3    O1 4783   3.499   3.497  10.534 -0.0079 -0.0383 -0.5088
  314TMC3    O2 4784   4.050   3.585  10.685 -0.3040  0.4592 -0.2101
  315MPD2     C 4785   3.973   1.661  17.676  0.3103  0.4899  0.2939
  315MPD2    C1 4786   4.102   1.704  17.660  0.4453 -0.2860 -0.4949
  315MPD2    C2 4787   4.123   1.837  17.624  0.5395 -0.0179  0.4888
  315MPD2    C3 4788   4.019   1.929  17.607 -0.0118 -0.7986 -0.5759
  315MPD2    C4 4789   3.887   1.886  17.634  0.1889 -0.1714 -0.6786
  315MPD2    C5 4790   3.871   1.754  17.673  0.2421  0.1320  0.1503
  315MPD2     H 4791   4.220   1.883  17.608  0.2275 -0.0263 -1.4010
  315MPD2    H1 4792   3.802   1.950  17.614 -1.0541 -1.7155 -0.3247
  315MPD2    H2 4793   3.940   1.559  17.685 -1.3257  0.8467 -1.4824
  315MPD2    H3 4794   3.774   1.705  17.672 -0.7952  2.1897  1.3918
  315MPD2     N 4795   4.056   2.063  17.569  0.1695  0.3636  0.0277
  315MPD2    H5 4796   4.155   2.083  17.555  0.7672 -2.0688  0.8085
  315MPD2    N1 4797   4.220   1.624  17.683  0.1208 -0.1715  0.2296
  315MPD2    H7 4798   4.309   1.667  17.661  0.4158 -1.2363 -0.6409
  316TMC3    C1 4799   4.034   2.283  17.512 -1.1278 -0.3906 -0.1563
  316TMC3    C2 4800   4.150   2.312  17.583 -1.3425  0.4335  0.1943
  316TMC3    C3 4801   4.189   2.439  17.572  0.4452  0.4441  0.7441
  316TMC3    C4 4802   3.959   2.372  17.433  0.3510 -0.6067 -0.1552
  316TMC3    C5 4803   4.013   2.499  17.418 -0.4640  1.0879  0.4583
  316TMC3    C6 4804   4.116   2.534  17.500  0.8198 -0.1470 -0.4369
  316TMC3     C 4805   3.971   2.154  17.513  0.1807 -0.9661 -0.3843
  316TMC3     O 4806   3.855   2.139  17.479  0.3442  0.3597 -0.2453
  316TMC3     H 4807   4.204   2.247  17.651 -1.2476 -0.8088 -1.0693
  316TMC3    H1 4808   3.867   2.351  17.379  0.3244  0.7878 -0.6696
  316TMC3    H2 4809   4.154   2.636  17.504 -0.4728  0.2373  2.2078
  316TMC3    C7 4810   3.944   2.606  17.352 -0.2836  0.1055  0.0085
  316TMC3    C8 4811   4.295   2.483  17.661 -0.3642  0.4192 -0.0303
  316TMC3    O1 4812   3.990   2.716  17.388 -0.4629  0.3543 -0.7031
  316TMC3    O2 4813   4.294   2.597  17.698 -0.2654  0.2974 -0.0073
  317MPD2     C 4814   1.023   0.766  13.248  0.0531  0.7373  0.0932
  317MPD2    C1 4815   1.040   0.657  13.159  0.4253 -0.7871 -0.2145
  317MPD2    C2 4816   1.152   0.583  13.163  0.3400 -0.6568  0.3213
  317MPD2    C3 4817   1.242   0.604  13.266 -0.1120 -0.2419  0.5645
  317MPD2    C4 4818   1.217   0.701  13.364 -0.4651 -0.7802 -0.0359
  317MPD2    C5 4819   1.109   0.778  13.349  0.5085 -0.1190 -0.3917
  317MPD2     H 4820   1.181   0.515  13.085 -0.8044  0.4356 -1.0698
  317MPD2    H1 4821   1.271   0.711  13.457  0.3234 -1.2900 -0.4450
  317MPD2    H2 4822   0.935   0.828  13.259 -2.3031 -2.4531 -0.7785
  317MPD2    H3 4823   1.091   0.857  13.420  0.1066  0.3353 -0.9944
  317MPD2     N 4824   1.340   0.506  13.284 -0.4821 -0.0880  0.7895
  317MPD2    H5 4825   1.343   0.437  13.210  1.0072 -0.3723  1.1216
  317MPD2    N1 4826   0.947   0.631  13.054  0.1320 -0.6332  0.0500
  317MPD2    H7 4827   0.974   0.545  13.006 -1.4677 -0.0370 -1.8862
  318TMC3    C1 4828   1.505   0.376  13.394  0.4872  0.0143 -0.3805
  318TMC3    C2 4829   1.449   0.257  13.350 -0.3591  0.6020 -0.0969
  318TMC3    C3 4830   1.522   0.140  13.360  0.2575  0.4058 -0.8043
  318TMC3    C4 4831   1.639   0.379  13.435 -0.0373  0.3154 -0.1899
  318TMC3    C5 4832   1.699   0.254  13.465 -0.0933  0.5640 -0.8020
  318TMC3    C6 4833   1.641   0.141  13.423  0.0992 -0.0073  1.2647
  318TMC3     C 4834   1.424   0.493  13.391 -0.0902 -0.4171  0.0943
  318TMC3     O 4835   1.450   0.574  13.476  0.1613 -0.8590  0.0679
  318TMC3     H 4836   1.343   0.266  13.326 -0.5333  0.6508  0.7062
  318TMC3    H1 4837   1.678   0.477  13.459 -0.1386  0.3067  0.0048
  318TMC3    H2 4838   1.681   0.050  13.467  0.0400  0.5480  2.4556
  318TMC3    C7 4839   1.821   0.264  13.548 -0.1299  0.1974 -0.3804
  318TMC3    C8 4840   1.465   0.007  13.330 -0.1122  0.2564 -0.0761
  318TMC3    O1 4841   1.871   0.380  13.559  0.7385  0.4445  0.0816
  318TMC3    O2 4842   1.523   4.655  13.392  0.1749  0.0961 -0.4392
  319MPD2     C 4843   1.930   1.301  16.587  0.4710 -0.2681  0.8385
  319MPD2    C1 4844   1.846   1.386  16.645  0.4175  0.0945 -0.3694
  319MPD2    C2 4845   1.741   1.439  16.576 -0.0916  0.0024 -0.3471
  319MPD2    C3 4846   1.725   1.403  16.444  0.1269 -0.1373 -0.6189
  319MPD2    C4 4847   1.817   1.328  16.379  0.2262 -0.3982 -0.0886
  319MPD2    C5 4848   1.919   1.275  16.454  0.4077  0.5380  1.0183
  319MPD2     H 4849   1.674   1.503  16.632  0.0845  0.0801 -0.2266
  319MPD2    H1 4850   1.807   1.296  16.276 -0.0611 -0.9959  0.1238
  319MPD2    H2 4851   2.014   1.261  16.643  0.3668 -0.3712  0.9216
  319MPD2    H3 4852   1.992   1.208  16.409 -0.2564 -0.2957  1.2070
  319MPD2     N 4853   1.606   1.436  16.367  0.2973  0.2348 -0.1965
  319MPD2    H5 4854   1.598   1.388  16.278  0.3410  0.3649 -0.2702
  319MPD2    N1 4855   1.848   1.413  16.784  0.0286 -0.6602  0.0068
  319MPD2    H7 4856   1.771   1.469  16.818  0.4893  0.0705 -0.1487
  320TMC3    C1 4857   1.385   1.483  16.327 -0.3091  0.2720  0.1319
  320TMC3    C2 4858   1.380   1.558  16.218  0.2213 -0.7613 -0.2003
  320TMC3    C3 4859   1.311   1.507  16.116  0.3378  0.9032  0.0590
  320TMC3    C4 4860   1.334   1.358  16.340  0.1563 -0.3719 -0.0575
  320TMC3    C5 4861   1.279   1.303  16.226  0.0880  0.1699 -0.0860
  320TMC3    C6 4862   1.266   1.379  16.117  0.3462 -0.5587  0.0496
  320TMC3     C 4863   1.495   1.510  16.409  0.2954 -0.3651 -0.1805
  320TMC3     O 4864   1.475   1.559  16.518 -1.6344 -0.2771  0.4697
  320TMC3     H 4865   1.423   1.658  16.218 -0.1414 -0.6038  0.8711
  320TMC3    H1 4866   1.351   1.305  16.433 -2.3615  0.9451  1.1597
  320TMC3    H2 4867   1.227   1.344  16.022 -0.6019 -2.4138  1.1052
  320TMC3    C7 4868   1.277   1.162  16.211 -0.4546  0.0668 -0.9819
  320TMC3    C8 4869   1.290   1.600  16.006 -0.4158 -0.5788 -0.1601
  320TMC3    O1 4870   1.257   1.115  16.104  0.1805 -0.7801 -0.3741
  320TMC3    O2 4871   1.246   1.713  16.032  0.0937  0.9036 -0.1125
  321TMC3    C1 4872   1.902   1.385  17.016  0.5132 -0.5298  0.1711
  321TMC3    C2 4873   1.947   1.287  17.101  0.3023  0.2683 -0.2440
  321TMC3    C3 4874   1.996   1.328  17.221 -0.2868  0.3553 -0.0153
  321TMC3    C4 4875   1.904   1.520  17.048 -0.5576  0.2835 -0.8034
  321TMC3    C5 4876   1.942   1.551  17.176 -0.1101 -0.2624 -0.4332
  321TMC3    C6 4877   1.970   1.455  17.267  0.5428  0.5098  0.2363
  321TMC3     C 4878   1.937   1.353  16.876  0.6611  0.1561  0.3096
  321TMC3     O 4879   2.033   1.281  16.863  0.1456  0.2880 -0.4620
  321TMC3     H 4880   1.943   1.184  17.066  1.7759  0.5796 -1.3724
  321TMC3    H1 4881   1.910   1.600  16.975 -0.7622 -1.2893 -2.5322
  321TMC3    H2 4882   2.008   1.486  17.364  0.1819  1.3502  0.1127
  321TMC3    C7 4883   2.028   1.669  17.185  0.0998 -0.3596  0.2512
  321TMC3    C8 4884   2.133   1.288  17.248 -0.1820 -0.2846 -0.2876
  321TMC3    O1 4885   1.982   1.778  17.151  0.1456 -0.7985  0.1462
  321TMC3    O2 4886   2.206   1.373  17.300 -0.0098 -0.5210 -0.1633
  322MPD2     C 4887   1.408   2.849  12.885 -0.2396  0.0557  0.9101
  322MPD2    C1 4888   1.351   2.836  13.007  0.6819 -0.1026 -0.2336
  322MPD2    C2 4889   1.328   2.708  13.063  0.0435 -1.1112 -0.5350
  322MPD2    C3 4890   1.359   2.599  12.989 -0.2214  0.1529  0.2349
  322MPD2    C4 4891   1.431   2.610  12.874  0.5319 -0.0656 -0.1768
  322MPD2    C5 4892   1.460   2.739  12.822 -0.5479  0.4194  0.1324
  322MPD2     H 4893   1.277   2.699  13.158 -0.7555 -2.2261 -1.0759
  322MPD2    H1 4894   1.447   2.518  12.820  1.1549 -0.1792  0.1958
  322MPD2    H2 4895   1.438   2.944  12.843  0.0726 -0.4537 -0.0404
  322MPD2    H3 4896   1.520   2.737  12.733 -1.0457 -3.6872 -0.1435
  322MPD2     N 4897   1.335   2.473  13.054 -0.3757 -0.4217 -0.9257
  322MPD2    H5 4898   1.291   2.479  13.145 -2.6036 -2.1927 -1.8800
  322MPD2    N1 4899   1.325   2.958  13.074  0.0747  0.1484  0.0589
  322MPD2    H7 4900   1.378   3.038  13.040 -0.2869  1.6310  3.0172
  323TMC3    C1 4901   1.267   3.081  13.276  0.7427  0.0314  0.0375
  323TMC3    C2 4902   1.368   3.167  13.263  0.0282  0.0299  0.5625
  323TMC3    C3 4903   1.420   3.235  13.375 -0.4042 -1.2287 -0.7825
  323TMC3    C4 4904   1.222   3.063  13.399  0.4971 -1.0555  0.4098
  323TMC3    C5 4905   1.286   3.113  13.509  0.2507 -0.2149  0.6390
  323TMC3    C6 4906   1.373   3.210  13.498 -0.2063  0.1935 -0.0102
  323TMC3     C 4907   1.250   2.965  13.189  0.0812  0.1578 -0.7519
  323TMC3     O 4908   1.163   2.888  13.216 -0.2398 -0.3104  0.0168
  323TMC3     H 4909   1.404   3.187  13.162  0.2667  0.6878  0.7750
  323TMC3    H1 4910   1.139   2.995  13.410 -0.4958  0.3539  1.7255
  323TMC3    H2 4911   1.411   3.258  13.588  2.1993  0.2125 -1.0274
  323TMC3    C7 4912   1.344   3.001  13.574  0.1989  0.8566  0.0868
  323TMC3    C8 4913   1.557   3.280  13.380 -0.6257 -0.1762  0.2886
  323TMC3    O1 4914   1.291   2.894  13.572  0.3663 -0.3867  0.1837
  323TMC3    O2 4915   1.607   3.281  13.492 -0.1000 -0.2529  0.6097
  324MPD2     C 4916   2.482   3.666  13.934  0.2738  0.1235 -0.6022
  324MPD2    C1 4917   2.392   3.680  14.041  0.2834 -0.2575 -0.1996
  324MPD2    C2 4918   2.254   3.684  14.022 -0.6301  0.3144 -0.3593
  324MPD2    C3 4919   2.211   3.691  13.886 -0.2193 -0.3440 -0.2602
  324MPD2    C4 4920   2.302   3.685  13.788  0.3215 -0.2153 -0.5087
  324MPD2    C5 4921   2.434   3.669  13.811  0.8011  0.1823 -0.0919
  324MPD2     H 4922   2.189   3.706  14.105  0.5166  1.8956  0.1352
  324MPD2    H1 4923   2.267   3.701  13.687 -1.2296 -0.7746 -0.0525
  324MPD2    H2 4924   2.591   3.666  13.936  0.2886 -0.4076 -1.3350
  324MPD2    H3 4925   2.507   3.665  13.731  0.4321  0.1517 -0.4288
  324MPD2     N 4926   2.075   3.702  13.850 -0.3028 -0.0130  0.3416
  324MPD2    H5 4927   2.057   3.709  13.750  0.9151  2.2942  0.2875
  324MPD2    N1 4928   2.440   3.683  14.178  0.4378  0.2788  0.7865
  324MPD2    H7 4929   2.375   3.715  14.249 -1.6011  0.3817 -1.1219
  325TMC3    C1 4930   1.855   3.756  13.857 -0.3908 -0.4455 -0.7030
  325TMC3    C2 4931   1.869   3.736  13.720  0.1555 -0.4566  0.0709
  325TMC3    C3 4932   1.862   3.842  13.637  0.4206  0.3148  0.3602
  325TMC3    C4 4933   1.819   3.885  13.902 -0.3045  0.2020  0.1896
  325TMC3    C5 4934   1.811   3.991  13.812  0.2302  0.1650 -0.4826
  325TMC3    C6 4935   1.829   3.968  13.683  0.1672 -0.4129 -0.2077
  325TMC3     C 4936   1.970   3.708  13.938 -0.2264  0.4626  0.5374
  325TMC3     O 4937   1.964   3.716  14.059 -0.4840 -0.5549  0.3094
  325TMC3     H 4938   1.890   3.637  13.683  1.6906 -0.2830  0.4846
  325TMC3    H1 4939   1.810   3.896  14.009  1.4266  2.0636  0.1533
  325TMC3    H2 4940   1.873   4.052  13.631  2.4292 -0.0616  2.2208
  325TMC3    C7 4941   1.839   4.132  13.854  0.1860 -0.6383 -0.0134
  325TMC3    C8 4942   1.928   3.834  13.507  0.6351 -0.4146 -0.8672
  325TMC3    O1 4943   1.828   4.206  13.756  0.3510 -0.2505  0.5203
  325TMC3    O2 4944   2.003   3.737  13.506  0.2693  0.1994  0.6896
  326MPD2     C 4945   3.326   0.768  10.766  0.4709 -0.0961  0.1932
  326MPD2    C1 4946   3.416   0.672  10.756 -0.0439  0.1475  0.0426
  326MPD2    C2 4947   3.518   0.673  10.850  0.3921  0.3596 -0.0121
  326MPD2    C3 4948   3.540   0.775  10.943 -0.1716 -0.6793 -0.1384
  326MPD2    C4 4949   3.448   0.879  10.937  0.8000 -0.5605 -0.2345
  326MPD2    C5 4950   3.337   0.876  10.851  1.1450  0.1489 -0.2085
  326MPD2     H 4951   3.589   0.593  10.831 -0.4665 -0.6845  1.1240
  326MPD2    H1 4952   3.454   0.963  11.004 -0.0659 -1.8697  1.4909
  326MPD2    H2 4953   3.236   0.765  10.706  0.4747 -0.2398  0.1945
  326MPD2    H3 4954   3.260   0.953  10.851  0.4286 -0.5636 -1.8046
  326MPD2     N 4955   3.661   0.786  11.024  0.5499  0.2725  0.8051
  326MPD2    H5 4956   3.665   0.860  11.093 -1.6339  1.8915 -0.8079
  326MPD2    N1 4957   3.409   0.571  10.656  0.2916 -0.3122 -0.1847
  326MPD2    H7 4958   3.475   0.494  10.657  0.4010 -0.2004  1.1956
  327TMC3    C1 4959   3.423   0.533  10.430  0.3493 -0.3937 -0.3198
  327TMC3    C2 4960   3.416   0.616  10.316  0.4543 -0.3240 -1.0880
  327TMC3    C3 4961   3.527   0.652  10.245  0.0337 -0.0964  0.4642
  327TMC3    C4 4962   3.544   0.474  10.456 -0.7052  0.4080  0.2833
  327TMC3    C5 4963   3.651   0.504  10.374  0.3569  0.6331 -0.3909
  327TMC3    C6 4964   3.645   0.604  10.281 -0.7181 -0.8247 -0.5162
  327TMC3     C 4965   3.344   0.598  10.534 -0.3053  0.0766  0.0397
  327TMC3     O 4966   3.284   0.698  10.492  0.3681  0.3858  0.0012
  327TMC3     H 4967   3.324   0.650  10.270  0.5145 -2.2260 -2.5939
  327TMC3    H1 4968   3.563   0.415  10.545 -0.0122  0.5807  0.2526
  327TMC3    H2 4969   3.727   0.621  10.212 -1.7590  1.8514 -1.1037
  327TMC3    C7 4970   3.779   0.482  10.431 -0.1522 -0.1012 -0.1978
  327TMC3    C8 4971   3.542   0.794  10.245 -0.2903  0.3059  0.1405
  327TMC3    O1 4972   3.797   0.371  10.477  0.5028 -0.3379  0.3687
  327TMC3    O2 4973   3.652   0.837  10.218  0.4848 -0.2135  0.0053
  328MPD2     C 4974   1.696   0.066  17.005 -0.3158 -0.3125 -0.2346
  328MPD2    C1 4975   1.582   0.014  16.962 -0.7731 -0.4413 -0.1109
  328MPD2    C2 4976   1.514   0.066  16.856 -0.4968 -0.1929 -0.5959
  328MPD2    C3 4977   1.558   0.183  16.792  0.2928  0.5989  1.0328
  328MPD2    C4 4978   1.687   0.223  16.826  0.2421 -0.1960 -0.5094
  328MPD2    C5 4979   1.745   0.176  16.940  0.3215  0.1807 -0.3278
  328MPD2     H 4980   1.420   0.019  16.832 -1.5501  1.2385  0.7493
  328MPD2    H1 4981   1.717   0.323  16.796 -2.1035  1.2901  2.1255
  328MPD2    H2 4982   1.747   0.008  17.081  3.2288  1.0186 -1.6263
  328MPD2    H3 4983   1.835   0.228  16.969  0.3897 -0.1917  0.1093
  328MPD2     N 4984   1.473   0.258  16.707 -0.3108  0.0310  0.5146
  328MPD2    H5 4985   1.507   0.345  16.667  2.0938 -0.8633  0.6160
  328MPD2    N1 4986   1.518   4.662  17.052  0.6764  0.0773  0.0891
  328MPD2    H7 4987   1.561   4.662  17.143  3.0299 -0.8459 -1.0335
  329TMC3    C1 4988   1.352   4.524  17.152 -0.2969  0.0769 -0.0553
  329TMC3    C2 4989   1.292   4.617  17.238 -0.1159 -0.0638  0.0936
  329TMC3    C3 4990   1.177   4.583  17.297  0.1539 -0.8107 -0.5919
  329TMC3    C4 4991   1.307   4.403  17.130 -0.2620 -0.7166 -0.5992
  329TMC3    C5 4992   1.193   4.367  17.196  0.1318  0.5438 -0.6087
  329TMC3    C6 4993   1.130   4.450  17.286  0.4985 -0.8676 -0.5985
  329TMC3     C 4994   1.401   4.586  17.026 -0.3230 -0.5271  0.0633
  329TMC3     O 4995   1.348   4.547  16.923 -0.0760 -0.7563 -0.6197
  329TMC3     H 4996   1.333   4.717  17.236 -0.2518 -0.0412 -2.0767
  329TMC3    H1 4997   1.360   4.326  17.075  1.5002  0.1759 -0.1504
  329TMC3    H2 4998   1.040   4.421  17.337  1.4514 -1.3142  0.8137
  329TMC3    C7 4999   1.109   4.295  17.104 -0.2047 -0.3256 -0.0884
  329TMC3    C8 5000   1.067   4.680  17.277  0.6115  0.5598  0.0503
  329TMC3    O1 5001   1.168   4.227  17.020 -0.1205  0.1958 -0.0654
  329TMC3    O2 5002   0.960   4.627  17.240  0.3916  0.6069  0.3196
  330TMC3    C1 5003   3.512   4.243   9.548 -0.0065 -0.3160 -0.5331
  330TMC3    C2 5004   3.642   4.191   9.538  0.1224  0.4180  0.2819
  330TMC3    C3 5005   3.714   4.207   9.650 -0.0935  0.0278 -0.1546
  330TMC3    C4 5006   3.469   4.304   9.667  0.1642  0.1071 -0.4479
  330TMC3    C5 5007   3.555   4.316   9.770  0.0793  0.2102  0.6676
  330TMC3    C6 5008   3.681   4.272   9.762 -0.5129 -0.6212 -0.0041
  330TMC3     C 5009   3.428   4.195   9.443  0.4145 -0.0239 -0.3849
  330TMC3     O 5010   3.482   4.146   9.342  0.3910  0.3119 -0.4607
  330TMC3     H 5011   3.687   4.151   9.448  0.4779  0.5751  0.3902
  330TMC3    H1 5012   3.366   4.335   9.676  0.7045  1.3959  1.5283
  330TMC3    H2 5013   3.745   4.257   9.848  1.5913  0.0260 -1.4691
  330TMC3    C7 5014   3.504   4.363   9.897  0.4013  0.1349 -0.4590
  330TMC3    C8 5015   3.825   4.116   9.667  0.1288 -0.4983  0.0450
  330TMC3    O1 5016   3.383   4.346   9.917  0.4681 -0.2291 -0.1308
  330TMC3    O2 5017   3.925   4.143   9.725 -0.2334  0.3987  0.1112
  331MPD2     C 5018   2.769   4.307  12.525  0.3325  0.3618 -0.4616
  331MPD2    C1 5019   2.763   4.318  12.385 -0.1157 -0.2555 -0.6756
  331MPD2    C2 5020   2.768   4.204  12.307  0.4953  0.3104  0.3029
  331MPD2    C3 5021   2.784   4.079  12.370  0.3900  1.0106 -0.2492
  331MPD2    C4 5022   2.807   4.075  12.507 -0.5843 -0.0677 -0.6691
  331MPD2    C5 5023   2.794   4.186  12.576  0.1336  0.0487 -0.7285
  331MPD2     H 5024   2.753   4.210  12.200  1.0625 -0.8679  0.1516
  331MPD2    H1 5025   2.843   3.984  12.554  2.9663  3.0880  2.7457
  331MPD2    H2 5026   2.750   4.397  12.582  1.4953  0.8056 -0.7571
  331MPD2    H3 5027   2.799   4.189  12.684 -3.0068 -1.2836 -0.5525
  331MPD2     N 5028   2.789   3.970  12.282  0.4834 -0.0246  0.0726
  331MPD2    H5 5029   2.796   3.989  12.183 -0.7677 -3.2935 -0.6270
  331MPD2    N1 5030   2.737   4.447  12.331  0.5741 -0.0617  0.0079
  331MPD2    H7 5031   2.725   4.521  12.399 -1.0620 -0.3229  0.0042
  332TMC3    C1 5032   2.805   3.749  12.214 -0.5712 -0.3439  0.1796
  332TMC3    C2 5033   2.781   3.783  12.082 -0.0170  0.0952  0.3190
  332TMC3    C3 5034   2.760   3.690  11.980  0.2134  0.3160 -0.0508
  332TMC3    C4 5035   2.802   3.614  12.246  0.4713  0.0517 -0.4663
  332TMC3    C5 5036   2.775   3.530  12.141 -0.9914  0.0487  0.6051
  332TMC3    C6 5037   2.751   3.563  12.017  0.0798 -0.0315 -0.3613
  332TMC3     C 5038   2.790   3.838  12.326  0.8658 -0.1252  0.6901
  332TMC3     O 5039   2.779   3.789  12.437 -0.1778 -0.1401 -0.2318
  332TMC3     H 5040   2.777   3.888  12.055  1.0485  0.3502  1.2031
  332TMC3    H1 5041   2.817   3.569  12.343  0.4845  0.0285 -0.4789
  332TMC3    H2 5042   2.722   3.483  11.950  2.3648 -1.1865  0.0178
  332TMC3    C7 5043   2.807   3.387  12.164  0.3996 -0.1020  0.8423
  332TMC3    C8 5044   2.705   3.744  11.854  0.3127 -0.9428 -0.0164
  332TMC3    O1 5045   2.772   3.312  12.077 -0.3785 -0.0653 -0.3896
  332TMC3    O2 5046   2.735   3.853  11.819 -0.5803  0.3778 -0.0370
  333MPD2     C 5047   2.131   3.722  10.716 -0.5778 -0.5360  0.0824
  333MPD2    C1 5048   2.230   3.622  10.723  0.6541 -0.4053  0.5111
  333MPD2    C2 5049   2.204   3.504  10.797 -0.2190 -0.1589 -0.0854
  333MPD2    C3 5050   2.086   3.492  10.868  0.4561  0.1040 -0.1600
  333MPD2    C4 5051   1.989   3.582  10.850 -0.2466  0.3039  0.6403
  333MPD2    C5 5052   2.006   3.697  10.773  0.4207  0.1528  0.5752
  333MPD2     H 5053   2.270   3.419  10.790 -0.1890 -0.3397  2.4742
  333MPD2    H1 5054   1.890   3.575  10.895  0.2155 -2.0433  1.2699
  333MPD2    H2 5055   2.146   3.813  10.658  0.1506  0.1245  1.2970
  333MPD2    H3 5056   1.927   3.771  10.766  1.1769  0.8703 -0.3778
  333MPD2     N 5057   2.069   3.373  10.948 -0.5694  0.2154  0.3600
  333MPD2    H5 5058   2.148   3.309  10.950  1.2267  2.4156  0.2108
  333MPD2    N1 5059   2.354   3.659  10.657  0.0590  0.3235 -0.9284
  333MPD2    H7 5060   2.370   3.754  10.624  0.1836 -0.0479 -1.9358
  334TMC3    C1 5061   2.577   3.630  10.586  0.3130 -0.5340  0.3304
  334TMC3    C2 5062   2.668   3.557  10.510 -0.1530  0.0129  0.0242
  334TMC3    C3 5063   2.784   3.623  10.485  0.1175  0.2812  0.5547
  334TMC3    C4 5064   2.598   3.752  10.638  0.3828  0.3669 -0.1541
  334TMC3    C5 5065   2.718   3.811  10.613  0.0552 -0.6685 -0.6520
  334TMC3    C6 5066   2.808   3.754  10.529  0.4982 -0.4821  0.3553
  334TMC3     C 5067   2.456   3.566  10.633 -0.1865 -0.7173  0.9485
  334TMC3     O 5068   2.456   3.448  10.661 -0.7454  0.4627 -0.3933
  334TMC3     H 5069   2.644   3.460  10.467  0.1988 -0.0103 -0.1205
  334TMC3    H1 5070   2.541   3.780  10.725 -1.7888 -1.4925 -0.9932
  334TMC3    H2 5071   2.902   3.804  10.514 -0.7011  1.2415 -1.3314
  334TMC3    C7 5072   2.742   3.940  10.663 -0.0562 -0.1099  0.1396
  334TMC3    C8 5073   2.875   3.560  10.388 -0.0172  0.5425  0.4120
  334TMC3    O1 5074   2.854   3.983  10.642  0.2287 -0.2115  0.4739
  334TMC3    O2 5075   2.832   3.467  10.318 -0.3129  0.7823 -0.4298
  335TMC3    C1 5076   2.393   0.440  17.393 -0.2085 -0.4842  0.5460
  335TMC3    C2 5077   2.295   0.384  17.310 -0.4939  0.1828 -0.3012
  335TMC3    C3 5078   2.326   0.260  17.264  0.3205 -0.5322  0.5408
  335TMC3    C4 5079   2.520   0.390  17.410  0.3970 -0.7654  0.1326
  335TMC3    C5 5080   2.546   0.270  17.344 -0.4571  1.0797  0.1676
  335TMC3    C6 5081   2.445   0.197  17.284  0.1849  0.6547  0.8942
  335TMC3     C 5082   2.360   0.555  17.477 -0.2565  0.4466 -0.0758
  335TMC3     O 5083   2.445   0.607  17.551  0.0600  0.2261 -0.3457
  335TMC3     H 5084   2.204   0.439  17.286 -0.6068  0.1552  0.0600
  335TMC3    H1 5085   2.600   0.441  17.463  1.1888 -3.3217  1.3976
  335TMC3    H2 5086   2.464   0.098  17.242 -2.0547 -0.1673  1.7855
  335TMC3    C7 5087   2.672   0.208  17.352  0.1095 -0.5461 -0.4802
  335TMC3    C8 5088   2.234   0.211  17.162  0.2088  0.2442  0.2128
  335TMC3    O1 5089   2.666   0.084  17.340  0.6637  0.6861 -0.8862
  335TMC3    O2 5090   2.187   0.294  17.088 -0.1104 -0.1211  0.2970
  336MPD2     C 5091   1.768   3.144  15.764 -0.0778  0.6486 -0.3582
  336MPD2    C1 5092   1.703   3.082  15.659 -0.3217 -0.3232 -0.1267
  336MPD2    C2 5093   1.734   2.953  15.628  0.1221 -0.6358  0.2248
  336MPD2    C3 5094   1.808   2.875  15.718 -0.4936 -0.5224  0.2084
  336MPD2    C4 5095   1.848   2.930  15.838  0.0887 -0.0171  0.1831
  336MPD2    C5 5096   1.840   3.059  15.850 -0.1888  0.5032  0.1038
  336MPD2     H 5097   1.687   2.910  15.541  2.3936  0.2948 -1.4605
  336MPD2    H1 5098   1.898   2.869  15.913  1.4421 -1.2651 -1.7475
  336MPD2    H2 5099   1.779   3.246  15.800  1.2413 -0.3208  2.0284
  336MPD2    H3 5100   1.886   3.091  15.943  1.0335  1.7043 -0.9097
  336MPD2     N 5101   1.834   2.738  15.696 -1.1309 -0.4723  0.0763
  336MPD2    H5 5102   1.891   2.695  15.769  2.0040  2.8976 -0.3770
  336MPD2    N1 5103   1.623   3.153  15.572 -0.8930  0.2736  0.3302
  336MPD2    H7 5104   1.575   3.109  15.494  0.9097 -3.1880  1.1379
  337TMC3    C1 5105   1.514   3.313  15.457 -0.5944  0.3176  0.2943
  337TMC3    C2 5106   1.401   3.241  15.438 -0.1179  0.6157 -0.5317
  337TMC3    C3 5107   1.331   3.270  15.324  0.0786 -0.6608  0.6756
  337TMC3    C4 5108   1.573   3.390  15.359  0.1534  0.4149  0.5380
  337TMC3    C5 5109   1.513   3.390  15.232  0.6566 -0.1658  0.0764
  337TMC3    C6 5110   1.388   3.343  15.222 -0.2512 -0.4872 -0.9351
  337TMC3     C 5111   1.592   3.288  15.569  0.0799 -0.1124 -0.1008
  337TMC3     O 5112   1.652   3.377  15.624 -0.8340 -0.5234 -0.3348
  337TMC3     H 5113   1.365   3.171  15.513  0.3230 -0.7703 -1.6090
  337TMC3    H1 5114   1.649   3.464  15.380  1.9091 -1.0210 -0.7634
  337TMC3    H2 5115   1.336   3.359  15.128 -0.0556  1.2805 -0.7454
  337TMC3    C7 5116   1.581   3.454  15.114 -0.5710  0.0765  0.7149
  337TMC3    C8 5117   1.204   3.203  15.313  0.8693  0.1413 -0.1469
  337TMC3    O1 5118   1.657   3.544  15.142 -0.0137  0.3996 -0.8584
  337TMC3    O2 5119   1.151   3.167  15.416 -0.2930  0.1363 -0.0169
  338MPD2     C 5120   2.090   2.373   0.734  0.3616  0.3678 -0.3546
  338MPD2    C1 5121   2.049   2.347   0.605  0.1414 -0.0932  0.1569
  338MPD2    C2 5122   1.920   2.382   0.571 -0.3160 -0.1267  0.0005
  338MPD2    C3 5123   1.837   2.445   0.658  0.2282  0.5589  0.6761
  338MPD2    C4 5124   1.875   2.460   0.787  0.5132 -0.3873  0.0234
  338MPD2    C5 5125   2.007   2.432   0.823  0.8844 -0.5046 -0.0381
  338MPD2     H 5126   1.884   2.362   0.470 -1.2658  0.0945  0.2983
  338MPD2    H1 5127   1.813   2.508   0.861  1.6036 -1.3875  1.5991
  338MPD2    H2 5128   2.182   2.351   0.788  0.4038 -3.6535 -2.0564
  338MPD2    H3 5129   2.036   2.448   0.926 -2.7945 -0.7635  1.0387
  338MPD2     N 5130   1.712   2.476   0.614  0.1251  0.3326 -0.3408
  338MPD2    H5 5131   1.700   2.469   0.514  1.4566  0.7036 -0.5257
  338MPD2    N1 5132   2.125   2.259   0.520 -0.3216 -0.2729  0.7041
  338MPD2    H7 5133   2.070   2.229   0.440 -0.9129  0.2986  0.8988
  339TMC3    C1 5134   1.495   2.505   0.610 -0.2152 -0.2627  0.5051
  339TMC3    C2 5135   1.418   2.390   0.601  0.8669  1.2115  0.1550
  339TMC3    C3 5136   1.354   2.366   0.482  0.0629 -0.5134 -0.3682
  339TMC3    C4 5137   1.522   2.574   0.497  0.2159 -0.7149 -0.1760
  339TMC3    C5 5138   1.468   2.538   0.375 -0.1077 -0.1912  0.1563
  339TMC3    C6 5139   1.397   2.424   0.367  0.1135 -0.0482  0.1919
  339TMC3     C 5140   1.606   2.488   0.695  0.3537  0.2976  0.1426
  339TMC3     O 5141   1.586   2.457   0.814  0.3851  1.0120 -0.5532
  339TMC3     H 5142   1.407   2.324   0.687 -0.1110  0.8394 -0.2531
  339TMC3    H1 5143   1.591   2.657   0.508 -0.9001  0.1908  0.0149
  339TMC3    H2 5144   1.332   2.412   0.281  1.0709 -0.8127 -0.4356
  339TMC3    C7 5145   1.490   2.627   0.263 -0.4237  0.4850  0.4640
  339TMC3    C8 5146   1.291   2.238   0.466 -0.4063 -0.0244  0.0922
  339TMC3    O1 5147   1.519   2.742   0.287 -0.0235  0.0621 -0.2925
  339TMC3    O2 5148   1.307   2.182   0.359 -0.2596  0.2466  0.1500
  340MPD2     C 5149   2.013   0.242   9.420 -0.5090 -0.6094 -0.3953
  340MPD2    C1 5150   2.145   0.211   9.389  0.1464 -0.6849  0.3523
  340MPD2    C2 5151   2.243   0.292   9.444 -0.1724  0.4330  0.9999
  340MPD2    C3 5152   2.212   0.407   9.508  0.0133  0.4625 -0.3256
  340MPD2    C4 5153   2.085   0.431   9.546 -0.1449 -0.5275  0.2243
  340MPD2    C5 5154   1.991   0.350   9.501 -0.2542  0.3156  0.1341
  340MPD2     H 5155   2.347   0.263   9.437  0.2525  1.5981  2.3605
  340MPD2    H1 5156   2.053   0.527   9.585  0.1502 -0.5171  0.4372
  340MPD2    H2 5157   1.923   0.205   9.371 -0.4203  1.7097 -2.3235
  340MPD2    H3 5158   1.892   0.387   9.524 -0.4259  0.8834 -1.4977
  340MPD2     N 5159   2.310   0.492   9.566 -0.2311 -0.2779  0.6712
  340MPD2    H5 5160   2.280   0.561   9.635  2.0274  0.8054  0.5753
  340MPD2    N1 5161   2.175   0.090   9.320  0.2221 -0.2071 -0.0935
  340MPD2    H7 5162   2.091   0.050   9.279  0.9253  0.9271 -2.6564
  341TMC3    C1 5163   2.311   4.656   9.218 -0.3913 -0.2439 -0.5651
  341TMC3    C2 5164   2.199   4.581   9.196  0.4013  0.5307 -0.2080
  341TMC3    C3 5165   2.209   4.465   9.126  1.0145  0.2498  0.1032
  341TMC3    C4 5166   2.433   4.607   9.182 -0.0836 -0.2057  0.6405
  341TMC3    C5 5167   2.447   4.486   9.109  0.0094  0.0045 -0.2355
  341TMC3    C6 5168   2.327   4.417   9.079 -0.8778  0.1545 -0.2030
  341TMC3     C 5169   2.305   0.040   9.302 -0.1104  0.3621 -0.2368
  341TMC3     O 5170   2.405   0.064   9.365 -0.3969 -0.0582  0.1991
  341TMC3     H 5171   2.103   4.602   9.242  0.3684 -1.8919  0.8709
  341TMC3    H1 5172   2.515   4.677   9.192 -0.7879  0.9188 -1.4992
  341TMC3    H2 5173   2.345   4.321   9.032 -0.5307  0.2281 -0.2232
  341TMC3    C7 5174   2.572   4.448   9.057  0.3631  0.5436  0.3669
  341TMC3    C8 5175   2.106   4.366   9.149 -0.0728 -0.2718 -0.2443
  341TMC3    O1 5176   2.668   4.498   9.116 -0.1766  0.1855  0.1070
  341TMC3    O2 5177   2.055   4.367   9.260 -0.7599 -0.0720  0.0900
  342MPD2     C 5178   0.113   2.994  17.501 -0.6593  0.2751 -0.2715
  342MPD2    C1 5179   0.165   3.030  17.376 -0.0412  0.1876 -0.0934
  342MPD2    C2 5180   0.186   3.161  17.344 -0.0810 -0.2324 -0.0884
  342MPD2    C3 5181   0.154   3.269  17.433 -0.0657  0.1120 -0.2472
  342MPD2    C4 5182   0.100   3.228  17.555  0.7264 -0.0418  1.2602
  342MPD2    C5 5183   0.087   3.095  17.584 -0.6547  0.3469  0.1062
  342MPD2     H 5184   0.221   3.185  17.245  1.4359  2.4261  1.1193
  342MPD2    H1 5185   0.066   3.305  17.622 -0.1713  0.2865  0.4322
  342MPD2    H2 5186   0.094   2.892  17.533  1.4250 -0.3736 -1.1002
  342MPD2    H3 5187   0.044   3.066  17.680 -0.3274 -1.7426 -0.3830
  342MPD2     N 5188   0.184   3.407  17.416 -0.8351 -0.2782  0.3853
  342MPD2    H5 5189   0.165   3.476  17.488  2.4054 -1.5215  2.4499
  342MPD2    N1 5190   0.216   2.934  17.286  0.1128  0.5797  0.2357
  342MPD2    H7 5191   0.252   2.959  17.194 -2.5471  0.2165 -0.8999
  343TMC3    C1 5192   0.284   2.735  17.193 -0.7330  0.8696  0.1035
  343TMC3    C2 5193   0.370   2.797  17.109  0.4902  0.0751  0.4652
  343TMC3    C3 5194   0.420   2.721  17.002 -0.9408  0.2344  0.2473
  343TMC3    C4 5195   0.258   2.599  17.185 -0.0318 -0.1179  0.1688
  343TMC3    C5 5196   0.305   2.533  17.072  0.4691  0.5273  0.9053
  343TMC3    C6 5197   0.404   2.586  16.991  0.9288  0.0983 -0.4102
  343TMC3     C 5198   0.237   2.802  17.313 -0.0711 -0.5619 -0.2141
  343TMC3     O 5199   0.199   2.733  17.406  0.4229  0.1318  0.8824
  343TMC3     H 5200   0.395   2.902  17.119 -1.2870  0.5244  0.2059
  343TMC3    H1 5201   0.186   2.550  17.249 -1.2588  0.2010 -0.9656
  343TMC3    H2 5202   0.440   2.522  16.912  0.0400 -0.8425 -0.0520
  343TMC3    C7 5203   0.266   2.397  17.047 -0.9861 -0.2770  0.3883
  343TMC3    C8 5204   0.513   2.795  16.914 -0.2596 -0.9749 -1.0963
  343TMC3    O1 5205   0.279   2.369  16.931  0.1096 -0.5924  0.1479
  343TMC3    O2 5206   0.529   2.910  16.956  0.0894 -0.1496 -0.0972
  344MPD2     C 5207   1.012   2.356  10.394  0.5036  0.1845 -0.5108
  344MPD2    C1 5208   1.143   2.308  10.375  0.3471 -0.2013 -0.0613
  344MPD2    C2 5209   1.254   2.385  10.371 -0.0903 -0.1854  0.2644
  344MPD2    C3 5210   1.236   2.519  10.390 -0.9601  0.2794  0.0301
  344MPD2    C4 5211   1.107   2.567  10.416  0.0306 -0.7938 -0.1013
  344MPD2    C5 5212   0.997   2.487  10.413 -0.7770  0.0530  0.4709
  344MPD2     H 5213   1.352   2.339  10.362 -0.3796 -0.2557 -2.5643
  344MPD2    H1 5214   1.093   2.674  10.427  2.5461 -0.5184  0.3562
  344MPD2    H2 5215   0.921   2.298  10.403  1.1258 -0.8317 -0.8515
  344MPD2    H3 5216   0.897   2.523  10.435 -1.0745  0.3704 -1.3582
  344MPD2     N 5217   1.341   2.612  10.363 -0.0698 -0.7471 -0.0106
  344MPD2    H5 5218   1.324   2.707  10.396 -1.4595 -0.5785 -1.1639
  344MPD2    N1 5219   1.173   2.167  10.368  0.1374 -0.1787  0.0040
  344MPD2    H7 5220   1.267   2.131  10.356 -0.6577 -2.3795  0.3858
  345TMC3    C1 5221   1.541   2.712  10.285 -1.2444 -0.1582 -0.2128
  345TMC3    C2 5222   1.555   2.783  10.399 -0.6676  0.3889  0.2710
  345TMC3    C3 5223   1.637   2.894  10.381 -0.8010  0.6719  0.2415
  345TMC3    C4 5224   1.612   2.730  10.165 -0.5332  0.4166 -0.6708
  345TMC3    C5 5225   1.683   2.847  10.155  0.5879  0.3031 -0.9885
  345TMC3    C6 5226   1.703   2.927  10.262  0.5079  1.2490 -0.1327
  345TMC3     C 5227   1.463   2.586  10.298  0.1261  0.2264 -0.0140
  345TMC3     O 5228   1.494   2.485  10.237  0.7368 -0.3404  0.7527
  345TMC3     H 5229   1.514   2.756  10.496  3.1533  1.0087  2.1019
  345TMC3    H1 5230   1.591   2.673  10.075 -1.0971  0.0283 -0.2823
  345TMC3    H2 5231   1.771   3.011  10.255  1.6059  0.3899  0.1980
  345TMC3    C7 5232   1.654   2.933  10.039  0.8516  0.0969  0.8733
  345TMC3    C8 5233   1.599   3.012  10.443 -0.8890 -0.2533 -0.0816
  345TMC3    O1 5234   1.699   3.046  10.050 -0.2282 -0.5623  0.0577
  345TMC3    O2 5235   1.622   3.115  10.381 -0.6066 -0.1073  0.1549
  346MPD2     C 5236   1.440   3.896  14.059 -0.2736 -0.0500 -0.7520
  346MPD2    C1 5237   1.440   4.034  14.053  0.0144 -0.6106 -0.4697
  346MPD2    C2 5238   1.480   4.110  14.161  0.3854 -1.0073  0.4091
  346MPD2    C3 5239   1.529   4.050  14.275  0.3753 -0.0378  0.4351
  346MPD2    C4 5240   1.531   3.913  14.278 -0.0547 -0.0922 -0.1854
  346MPD2    C5 5241   1.495   3.837  14.170 -0.7394  0.1745 -0.3847
  346MPD2     H 5242   1.479   4.218  14.149  0.4593 -1.1157 -0.6072
  346MPD2    H1 5243   1.595   3.862  14.348 -1.2801 -2.5188 -0.8341
  346MPD2    H2 5244   1.419   3.834  13.973  4.1607 -1.6520 -0.6893
  346MPD2    H3 5245   1.526   3.733  14.163 -0.7529  0.1437  0.0276
  346MPD2     N 5246   1.573   4.135  14.383 -0.6671  0.1590 -0.2697
  346MPD2    H5 5247   1.551   4.233  14.371  2.7866  0.8625 -0.9665
  346MPD2    N1 5248   1.408   4.106  13.938 -0.1996 -0.7259 -0.0006
  346MPD2    H7 5249   1.400   4.206  13.950  0.3675 -0.6909  0.0929
  347TMC3    C1 5250   1.671   4.193  14.591 -0.3949  0.3995 -0.2281
  347TMC3    C2 5251   1.746   4.289  14.538  0.0947  0.1952 -0.3181
  347TMC3    C3 5252   1.867   4.312  14.582  0.6113  0.0368 -0.8257
  347TMC3    C4 5253   1.703   4.142  14.718 -0.3643 -0.1283  0.1473
  347TMC3    C5 5254   1.817   4.181  14.771 -0.4288  0.3416 -0.1605
  347TMC3    C6 5255   1.910   4.260  14.702 -0.7066  0.8475  0.1306
  347TMC3     C 5256   1.617   4.091  14.504 -0.2405 -0.3576 -0.1396
  347TMC3     O 5257   1.634   3.975  14.542 -0.3063 -0.2443  0.0296
  347TMC3     H 5258   1.712   4.337  14.447 -0.5842 -0.2082 -0.2806
  347TMC3    H1 5259   1.636   4.080  14.776 -4.1106  3.0734 -0.7498
  347TMC3    H2 5260   2.012   4.271  14.735 -0.6286  2.3850 -0.6409
  347TMC3    C7 5261   1.813   4.198  14.916  0.6732 -0.1610  0.1681
  347TMC3    C8 5262   1.963   4.296  14.477 -0.3075  0.6226  0.3608
  347TMC3    O1 5263   1.704   4.192  14.975 -0.0690  0.9899  0.0092
  347TMC3    O2 5264   2.036   4.196  14.470 -0.2365 -0.7899 -0.6450
  348MPD2     C 5265   0.603   4.289  11.450  0.5119  0.3500  0.1102
  348MPD2    C1 5266   0.498   4.246  11.370  0.6079 -0.1302  0.1022
  348MPD2    C2 5267   0.442   4.338  11.290 -0.4160 -0.2788  0.1508
  348MPD2    C3 5268   0.481   4.470  11.291 -0.2472  0.0809  0.7319
  348MPD2    C4 5269   0.577   4.515  11.380 -0.8337  0.5177  0.1878
  348MPD2    C5 5270   0.642   4.419  11.457 -0.2042 -0.6067  0.7885
  348MPD2     H 5271   0.357   4.302  11.234 -1.3458 -0.1376  1.4746
  348MPD2    H1 5272   0.606   4.618  11.390  0.8077  0.2932 -2.1613
  348MPD2    H2 5273   0.658   4.221  11.514 -0.8744 -0.4139  0.4888
  348MPD2    H3 5274   0.722   4.449  11.523  0.7655 -1.1369 -0.1563
  348MPD2     N 5275   0.404   4.560  11.216 -0.1769  0.2752 -0.1441
  348MPD2    H5 5276   0.339   4.517  11.151  0.3557  0.5663 -0.8637
  348MPD2    N1 5277   0.461   4.107  11.359  0.1543  0.4249 -0.0444
  348MPD2    H7 5278   0.385   4.080  11.297 -0.3861  1.1306  0.3085
  349TMC3    C1 5279   0.435   3.882  11.418  0.3521  0.2754 -0.5406
  349TMC3    C2 5280   0.478   3.772  11.491 -0.0930  0.2581 -0.3219
  349TMC3    C3 5281   0.408   3.657  11.475 -0.0688  0.2409  0.2080
  349TMC3    C4 5282   0.342   3.872  11.322  0.0188  0.2191  0.2154
  349TMC3    C5 5283   0.271   3.756  11.310 -0.1783  0.1209  0.2634
  349TMC3    C6 5284   0.312   3.647  11.375 -0.3656  0.2636  0.6932
  349TMC3     C 5285   0.500   4.004  11.445  0.6999 -0.2005 -0.1084
  349TMC3     O 5286   0.555   4.015  11.555  0.3815  0.1988 -0.1659
  349TMC3     H 5287   0.552   3.778  11.570 -0.5460 -0.2742  0.1418
  349TMC3    H1 5288   0.312   3.955  11.257  0.0807 -0.4137 -0.6225
  349TMC3    H2 5289   0.241   3.565  11.366  0.6988 -0.4615 -1.0602
  349TMC3    C7 5290   0.144   3.754  11.237 -0.0332  0.3675  0.9353
  349TMC3    C8 5291   0.417   3.558  11.587 -0.1991 -0.3682 -0.1702
  349TMC3    O1 5292   0.065   3.671  11.274  0.0494 -0.9082 -0.2195
  349TMC3    O2 5293   0.497   3.584  11.673 -0.4708  0.0199  0.2415
  350MPD2     C 5294   4.209   2.383  10.062  0.3884 -0.3389  0.8930
  350MPD2    C1 5295   4.182   2.297  10.166 -0.8363  0.2882 -0.2997
  350MPD2    C2 5296   4.183   2.344  10.302  1.0885 -0.3410 -0.4244
  350MPD2    C3 5297   4.201   2.477  10.327  0.1642  0.4506 -0.0647
  350MPD2    C4 5298   4.218   2.568  10.226  0.0729  0.3092 -0.0518
  350MPD2    C5 5299   4.227   2.519  10.091 -0.0563 -1.1163  0.0502
  350MPD2     H 5300   4.158   2.272  10.379 -1.9891  0.8596 -0.3311
  350MPD2    H1 5301   4.240   2.674  10.234  0.8655 -0.0644  2.5187
  350MPD2    H2 5302   4.192   2.349   9.960 -0.0531 -1.5149  1.3590
  350MPD2    H3 5303   4.241   2.592  10.012  0.2446 -0.4642  0.6966
  350MPD2     N 5304   4.210   2.503  10.465  0.2847 -0.5317  0.3159
  350MPD2    H5 5305   4.244   2.426  10.522 -2.0150 -0.6055  1.5610
  350MPD2    N1 5306   4.156   2.162  10.142 -0.1694  0.1921 -0.1994
  350MPD2    H7 5307   4.136   2.109  10.226 -1.6388 -0.2859 -0.8481
  351TMC3    C1 5308   4.115   1.957  10.056  0.4117 -0.0946 -0.6405
  351TMC3    C2 5309   4.173   1.841  10.002  0.5253 -0.5146  1.3449
  351TMC3    C3 5310   4.106   1.722  10.021 -0.2599  0.3875  0.3620
  351TMC3    C4 5311   3.998   1.953  10.125 -0.3106  0.2733  0.1783
  351TMC3    C5 5312   3.937   1.829  10.135 -0.3215  0.5907  0.4450
  351TMC3    C6 5313   3.992   1.717  10.090  0.2936  1.2645  0.1902
  351TMC3     C 5314   4.172   2.084  10.026  0.5329 -0.6289 -0.1788
  351TMC3     O 5315   4.226   2.105   9.917  0.9684 -0.0788 -0.1330
  351TMC3     H 5316   4.259   1.850   9.937  0.4798  0.1264  1.3708
  351TMC3    H1 5317   3.938   2.040  10.148 -2.6079 -1.3725  0.4598
  351TMC3    H2 5318   3.938   1.623  10.100 -1.8292  2.4630  0.0374
  351TMC3    C7 5319   3.796   1.835  10.187 -0.1330 -0.4656  0.0283
  351TMC3    C8 5320   4.151   1.606   9.962  0.0949  0.3298 -0.2532
  351TMC3    O1 5321   3.760   1.936  10.240  0.0398  0.0016  0.1237
  351TMC3    O2 5322   4.061   1.525   9.938 -0.1853  0.6448  0.5975
  352MPD2     C 5323   2.926   4.031   0.689  0.1386  0.0767  0.0382
  352MPD2    C1 5324   2.810   3.978   0.751 -0.2528 -0.0858  0.2904
  352MPD2    C2 5325   2.822   3.849   0.806 -0.1846 -0.0972  1.0453
  352MPD2    C3 5326   2.944   3.781   0.785 -0.2033  0.2530 -0.4633
  352MPD2    C4 5327   3.051   3.841   0.719 -0.4150  0.2520 -0.5514
  352MPD2    C5 5328   3.042   3.961   0.668  0.8941  0.5876  0.4387
  352MPD2     H 5329   2.744   3.814   0.872  1.2955 -0.5896  2.5364
  352MPD2    H1 5330   3.145   3.787   0.712 -0.8646 -0.6561  0.3255
  352MPD2    H2 5331   2.924   4.131   0.647  0.3094  0.3849  0.7765
  352MPD2    H3 5332   3.123   4.001   0.609  1.2948 -1.9394 -0.7059
  352MPD2     N 5333   2.960   3.651   0.841  0.0373  0.0440  0.4583
  352MPD2    H5 5334   3.035   3.589   0.812  1.9737  1.6046  2.1618
  352MPD2    N1 5335   2.697   4.066   0.763  0.3034 -0.7802 -0.1654
  352MPD2    H7 5336   2.707   4.156   0.718 -1.2331 -0.0064  1.0400
  353TMC3    C1 5337   2.885   3.444   0.908 -0.4528 -0.5891 -0.3970
  353TMC3    C2 5338   2.999   3.389   0.859  0.1217 -0.1618 -0.5463
  353TMC3    C3 5339   2.992   3.263   0.815 -0.5762  0.8626 -0.2520
  353TMC3    C4 5340   2.773   3.378   0.910 -0.1545 -0.0130 -0.1870
  353TMC3    C5 5341   2.768   3.257   0.850  0.2819 -0.6309 -0.0412
  353TMC3    C6 5342   2.878   3.193   0.810 -0.2174  0.1263 -0.0111
  353TMC3     C 5343   2.862   3.587   0.914  0.0918  0.5369 -0.2019
  353TMC3     O 5344   2.761   3.623   0.975 -0.3116  0.3199 -0.2110
  353TMC3     H 5345   3.095   3.440   0.863  0.3776 -0.8156  1.9923
  353TMC3    H1 5346   2.679   3.426   0.931  0.6151  0.9182  1.1275
  353TMC3    H2 5347   2.871   3.085   0.805 -2.5802  0.2025  1.4761
  353TMC3    C7 5348   2.641   3.190   0.835 -0.3377  0.3249 -0.3570
  353TMC3    C8 5349   3.113   3.186   0.813 -0.1281  0.1101 -0.4725
  353TMC3    O1 5350   2.638   3.085   0.774  0.1683 -0.0635  0.1056
  353TMC3    O2 5351   3.205   3.241   0.873  0.4287 -0.3810  0.4861
  354TMC3    C1 5352   4.044   0.333  13.650 -0.5124  0.3769 -0.0098
  354TMC3    C2 5353   4.017   0.462  13.673  0.0083  0.1683  1.0065
  354TMC3    C3 5354   4.062   0.555  13.578  0.1662  0.1394 -0.5311
  354TMC3    C4 5355   4.114   0.288  13.538  0.1401 -0.1362 -0.6008
  354TMC3    C5 5356   4.142   0.380  13.441  0.5216 -0.4526  0.3422
  354TMC3    C6 5357   4.132   0.517  13.467 -0.0189 -0.0464 -0.4615
  354TMC3     C 5358   4.010   0.245  13.761  0.9915  0.6189 -0.1859
  354TMC3     O 5359   3.914   0.271  13.828 -0.0634  0.1576 -0.2934
  354TMC3     H 5360   3.969   0.487  13.766  2.7768  1.2988  2.1430
  354TMC3    H1 5361   4.122   0.181  13.520 -0.1778 -0.1973 -0.3922
  354TMC3    H2 5362   4.188   0.587  13.407  0.3936 -0.7004 -0.8431
  354TMC3    C7 5363   4.238   0.336  13.341 -0.0364 -0.2228 -0.1016
  354TMC3    C8 5364   3.990   0.684  13.565  0.0575 -0.4792  0.3733
  354TMC3    O1 5365   4.301   0.235  13.370 -0.0856  0.0914  0.2749
  354TMC3    O2 5366   3.926   0.719  13.661 -0.5104  0.2722 -0.4257
  355MPD2     C 5367   3.699   1.782  12.268 -0.5761  1.0490  0.0996
  355MPD2    C1 5368   3.721   1.677  12.187 -0.2629 -0.2125 -0.2756
  355MPD2    C2 5369   3.823   1.582  12.221 -0.7703  0.2801 -0.1316
  355MPD2    C3 5370   3.908   1.600  12.328  0.4476 -0.1051  0.4294
  355MPD2    C4 5371   3.886   1.712  12.403 -0.1874  0.1703  0.3281
  355MPD2    C5 5372   3.785   1.799  12.377  0.9447 -0.2379 -0.3586
  355MPD2     H 5373   3.845   1.502  12.151 -1.9116 -0.2289  0.0996
  355MPD2    H1 5374   3.951   1.732  12.488  0.7951  2.1814 -0.8896
  355MPD2    H2 5375   3.619   1.854  12.258 -0.6665  0.5051 -3.0765
  355MPD2    H3 5376   3.766   1.889  12.435  1.7042  0.1019 -0.6320
  355MPD2     N 5377   4.023   1.523  12.358 -0.3867 -0.0667 -0.4156
  355MPD2    H5 5378   4.077   1.548  12.440  3.3391 -1.1266 -2.5471
  355MPD2    N1 5379   3.647   1.672  12.066 -0.7868  0.1336 -0.3183
  355MPD2    H7 5380   3.576   1.744  12.063 -1.4987 -0.6221 -1.8443
  356TMC3    C1 5381   4.217   1.413  12.301  0.5525  0.3660  0.3532
  356TMC3    C2 5382   4.290   1.376  12.192 -0.1455  0.2967 -0.1876
  356TMC3    C3 5383   4.424   1.414  12.188 -0.6018  0.0398  0.4489
  356TMC3    C4 5384   4.287   1.465  12.412 -0.1713 -0.1150 -0.6921
  356TMC3    C5 5385   4.422   1.491  12.405  0.0648 -0.3951 -0.5962
  356TMC3    C6 5386   4.495   1.475  12.288 -0.1043  0.5785 -0.5845
  356TMC3     C 5387   4.076   1.418  12.287 -0.3183 -0.2917  0.4809
  356TMC3     O 5388   4.042   1.376  12.179  0.8318 -0.5133  0.1620
  356TMC3     H 5389   4.246   1.321  12.109  2.3956  0.8445 -1.8731
  356TMC3    H1 5390   4.236   1.461  12.507  1.1769 -1.5124 -0.0157
  356TMC3    H2 5391   4.603   1.487  12.286  0.0005 -0.4727 -1.1397
  356TMC3    C7 5392   4.484   1.531  12.528  0.0718  0.5384  0.8098
  356TMC3    C8 5393   4.485   1.402  12.060  0.7801 -0.5443  0.8262
  356TMC3    O1 5394   4.438   1.488  12.635  0.2683 -0.5628 -0.0516
  356TMC3    O2 5395   4.423   1.336  11.977 -0.3678 -0.2438  0.2799
  357MPD2     C 5396   3.711   1.097   0.569  0.5351  0.0110  0.8508
  357MPD2    C1 5397   3.837   1.052   0.614  0.1066  0.3479 -0.4015
  357MPD2    C2 5398   3.898   1.120   0.718 -0.3103 -0.2423 -0.6212
  357MPD2    C3 5399   3.839   1.226   0.779 -0.3655 -1.2236  0.4346
  357MPD2    C4 5400   3.710   1.262   0.740  0.8068  0.0115  0.3818
  357MPD2    C5 5401   3.648   1.200   0.640  0.4733  0.2362  0.0250
  357MPD2     H 5402   3.988   1.079   0.761  0.1635  0.2366 -1.1573
  357MPD2    H1 5403   3.655   1.338   0.794  1.8452 -0.0261  1.4877
  357MPD2    H2 5404   3.660   1.055   0.483 -2.0364 -0.9202  2.8433
  357MPD2    H3 5405   3.546   1.224   0.610 -0.6000 -0.6831  3.0076
  357MPD2     N 5406   3.892   1.297   0.884 -0.8072 -0.1546  0.1023
  357MPD2    H5 5407   3.833   1.354   0.942  0.8839  1.1384  0.5256
  357MPD2    N1 5408   3.891   0.935   0.555 -0.0885 -0.1809 -0.1608
  357MPD2    H7 5409   3.820   0.875   0.514 -0.6763 -0.0508  0.6684
  358TMC3    C1 5410   4.051   0.760   0.556  0.3336  0.3274  0.2602
  358TMC3    C2 5411   3.976   0.672   0.483  0.2106 -0.2077 -0.6952
  358TMC3    C3 5412   4.009   0.539   0.482  0.4598  0.6081  0.2619
  358TMC3    C4 5413   4.156   0.706   0.634  0.1097 -0.5064 -0.1740
  358TMC3    C5 5414   4.180   0.573   0.636  0.6866 -0.0617  0.7048
  358TMC3    C6 5415   4.103   0.485   0.565 -0.2763 -0.0217  0.2406
  358TMC3     C 5416   4.025   0.904   0.572  0.0792  0.1997  1.2284
  358TMC3     O 5417   4.120   0.971   0.608  0.0333  0.0714 -0.2836
  358TMC3     H 5418   3.892   0.712   0.428 -2.9534 -2.1308  2.7112
  358TMC3    H1 5419   4.222   0.768   0.694 -1.0214  0.0656  0.4617
  358TMC3    H2 5420   4.121   0.378   0.561 -0.2626 -0.0165  0.1666
  358TMC3    C7 5421   4.305   0.527   0.691  0.1222  0.7868  0.6478
  358TMC3    C8 5422   3.922   0.446   0.411  0.0166 -0.2277  0.0168
  358TMC3    O1 5423   4.360   0.438   0.632  0.4127 -0.0827 -0.4986
  358TMC3    O2 5424   3.847   0.509   0.332  0.5163 -0.2606 -0.3545
  359MPD2     C 5425   0.584   1.057  11.602 -0.7794 -0.8193  0.2308
  359MPD2    C1 5426   0.463   1.010  11.555 -0.1903 -0.2133  0.8058
  359MPD2    C2 5427   0.349   1.025  11.629 -0.0041  0.2074  0.3871
  359MPD2    C3 5428   0.357   1.081  11.762 -0.2419  0.2064 -1.0712
  359MPD2    C4 5429   0.478   1.128  11.799 -0.6422  0.7246 -0.4703
  359MPD2    C5 5430   0.590   1.118  11.723 -0.4761 -0.3121  0.0563
  359MPD2     H 5431   0.250   1.007  11.589 -0.1833  1.7099  0.1378
  359MPD2    H1 5432   0.488   1.188  11.889 -1.5864 -0.0012  0.1204
  359MPD2    H2 5433   0.671   1.055  11.537 -0.1886  2.4241  0.9526
  359MPD2    H3 5434   0.686   1.153  11.760 -1.5569  0.9956  1.6457
  359MPD2     N 5435   0.243   1.104  11.852 -0.3006  0.3129  0.4076
  359MPD2    H5 5436   0.269   1.149  11.939  1.3042  0.4218 -0.1169
  359MPD2    N1 5437   0.458   0.951  11.428 -0.1544  0.5331 -0.6957
  359MPD2    H7 5438   0.364   0.918  11.409  0.3739 -1.1893 -0.2788
  360TMC3    C1 5439   0.516   0.820  11.251 -0.2695  0.4342  0.2949
  360TMC3    C2 5440   0.591   0.808  11.137  0.4696 -0.0297  0.0248
  360TMC3    C3 5441   0.543   0.730  11.038 -0.1417 -0.5046  0.0166
  360TMC3    C4 5442   0.396   0.750  11.269  0.1470 -0.3530  0.1452
  360TMC3    C5 5443   0.353   0.676  11.163 -0.9355 -0.3067  0.2413
  360TMC3    C6 5444   0.423   0.667  11.042  0.6253  0.2609  0.5057
  360TMC3     C 5445   0.565   0.912  11.345  0.5818 -0.1492 -1.0147
  360TMC3     O 5446   0.681   0.956  11.339  0.4678  0.7669 -0.0205
  360TMC3     H 5447   0.679   0.869  11.117  0.7486 -0.4590 -0.0440
  360TMC3    H1 5448   0.326   0.757  11.351 -1.2860  0.9115 -1.1681
  360TMC3    H2 5449   0.387   0.610  10.957 -0.1930 -2.2834  2.5557
  360TMC3    C7 5450   0.231   0.602  11.175  0.0029 -0.5185 -0.0126
  360TMC3    C8 5451   0.634   0.686  10.931  0.1748  0.4744 -0.3574
  360TMC3    O1 5452   0.166   0.577  11.072  0.4490  0.2515  0.4061
  360TMC3    O2 5453   0.725   0.759  10.900 -0.0627  0.2620 -0.5642
  361MPD2     C 5454   1.450   3.896  16.792 -0.2169  0.2809  0.5568
  361MPD2    C1 5455   1.359   3.787  16.802  0.0154 -1.1768 -0.0857
  361MPD2    C2 5456   1.391   3.681  16.886  0.6408 -0.0422  0.1364
  361MPD2    C3 5457   1.508   3.669  16.963 -0.0559  0.5074 -0.2940
  361MPD2    C4 5458   1.589   3.782  16.947 -0.9384 -0.0205  1.2563
  361MPD2    C5 5459   1.567   3.891  16.869 -0.1958  0.0857 -0.2586
  361MPD2     H 5460   1.317   3.603  16.888  0.7791 -0.2569 -2.0688
  361MPD2    H1 5461   1.689   3.776  16.988 -0.5709 -0.2636  0.3012
  361MPD2    H2 5462   1.445   3.979  16.722 -1.5366  0.7961  1.2680
  361MPD2    H3 5463   1.642   3.968  16.858 -0.2672 -0.0857 -2.0560
  361MPD2     N 5464   1.551   3.551  17.036 -0.2384  0.6559  0.0840
  361MPD2    H5 5465   1.642   3.557  17.081 -0.9928 -2.7674  2.0417
  361MPD2    N1 5466   1.257   3.770  16.710  0.0271 -0.3264  0.0490
  361MPD2    H7 5467   1.212   3.680  16.704  0.6582 -0.4649 -2.3630
  362TMC3    C1 5468   1.069   3.829  16.566 -0.4822 -0.4540  0.1202
  362TMC3    C2 5469   0.983   3.739  16.631 -0.5323 -0.3293 -0.0355
  362TMC3    C3 5470   0.860   3.732  16.576  0.5098  0.1883 -0.2879
  362TMC3    C4 5471   1.040   3.908  16.461 -0.5018 -0.2537  0.6402
  362TMC3    C5 5472   0.917   3.888  16.405 -0.0895  0.5713 -0.0541
  362TMC3    C6 5473   0.824   3.806  16.462 -0.3013 -0.3241 -0.6397
  362TMC3     C 5474   1.196   3.871  16.632 -0.7136 -0.0729 -0.4491
  362TMC3     O 5475   1.228   3.987  16.610  0.1140  1.0122 -0.5307
  362TMC3     H 5476   1.009   3.680  16.718  0.5518 -0.3859 -0.4006
  362TMC3    H1 5477   1.120   3.956  16.406  0.7207 -0.1711  2.4708
  362TMC3    H2 5478   0.717   3.818  16.450 -0.1637  0.3649 -1.2030
  362TMC3    C7 5479   0.883   3.965  16.290  0.1721  0.6221 -0.6517
  362TMC3    C8 5480   0.761   3.682  16.678 -0.0714  0.2605  0.2652
  362TMC3    O1 5481   0.937   4.073  16.282 -0.0873 -0.1174  0.2985
  362TMC3    O2 5482   0.792   3.592  16.755  0.5928  0.5126 -0.4718
  363TMC3    C1 5483   4.496   1.452   9.429 -0.0601  0.1292  0.7559
  363TMC3    C2 5484   4.492   1.318   9.430  0.3104  0.6394 -0.0585
  363TMC3    C3 5485   4.379   1.253   9.483 -0.5033  0.0823  0.0841
  363TMC3    C4 5486   4.392   1.529   9.466  0.5250  0.3701  0.2727
  363TMC3    C5 5487   4.278   1.464   9.509  0.3026  0.5757  0.1758
  363TMC3    C6 5488   4.273   1.328   9.527 -0.2743 -0.1382  0.4447
  363TMC3     C 5489   4.625   1.509   9.414  1.4381 -0.2206  0.1019
  363TMC3     O 5490   4.706   1.429   9.373  0.7586 -0.3408 -0.3272
  363TMC3     H 5491   4.582   1.261   9.407  0.7875  1.1584  0.4977
  363TMC3    H1 5492   4.393   1.633   9.437 -2.8061  0.1255 -0.7966
  363TMC3    H2 5493   4.186   1.276   9.565 -0.5197  0.1543  0.2792
  363TMC3    C7 5494   4.173   1.534   9.585 -0.1511  0.0392  0.5393
  363TMC3    C8 5495   4.381   1.106   9.499  0.6460  0.4928  0.1820
  363TMC3    O1 5496   4.074   1.471   9.598  0.3362  0.2295  0.5836
  363TMC3    O2 5497   4.270   1.049   9.505  0.7745 -0.7431  0.2104
  364MPD2     C 5498   3.472   1.225  10.506 -0.1687 -0.2141 -0.1440
  364MPD2    C1 5499   3.557   1.200  10.399  0.2147 -0.0444  0.0337
  364MPD2    C2 5500   3.547   1.075  10.340  0.3373  0.1476  0.7706
  364MPD2    C3 5501   3.456   0.983  10.379  0.3084  0.1621 -0.7804
  364MPD2    C4 5502   3.367   1.011  10.485 -0.7204  0.5477  0.2409
  364MPD2    C5 5503   3.381   1.131  10.549  1.2005  0.8318  0.6636
  364MPD2     H 5504   3.617   1.057  10.259 -0.4337  2.3130 -0.3762
  364MPD2    H1 5505   3.293   0.940  10.521 -1.7203  1.4665  0.0241
  364MPD2    H2 5506   3.473   1.326  10.545  1.9793 -0.7002  1.0397
  364MPD2    H3 5507   3.324   1.155  10.638  0.8460 -3.5535  1.6236
  364MPD2     N 5508   3.456   0.852  10.335  0.5637 -0.1511  0.4354
  364MPD2    H5 5509   3.388   0.791  10.379 -2.2239  1.8369 -1.1413
  364MPD2    N1 5510   3.654   1.299  10.365 -0.1533 -0.0234 -0.2115
  364MPD2    H7 5511   3.667   1.380  10.425 -1.0130  0.3973 -0.5834
  365TMC3    C1 5512   3.841   1.394  10.246  0.0398 -0.0078 -0.1057
  365TMC3    C2 5513   3.958   1.350  10.193 -0.3300  0.1125  0.2931
  365TMC3    C3 5514   4.074   1.405  10.251  0.0466  0.2892  0.1332
  365TMC3    C4 5515   3.835   1.501  10.332  0.0013  0.6011  0.4797
  365TMC3    C5 5516   3.948   1.556  10.382  0.0869  0.1789  0.4354
  365TMC3    C6 5517   4.066   1.508  10.345  0.4072 -0.0496 -0.2094
  365TMC3     C 5518   3.728   1.301  10.246 -0.5442  0.3869  0.2208
  365TMC3     O 5519   3.725   1.224  10.150 -0.0880 -0.7101 -0.0986
  365TMC3     H 5520   3.964   1.265  10.125 -1.2957 -0.9883  1.5927
  365TMC3    H1 5521   3.738   1.540  10.361 -0.2773  0.0352  0.3071
  365TMC3    H2 5522   4.158   1.563  10.365 -0.0376 -0.0678  1.8917
  365TMC3    C7 5523   3.932   1.679  10.459 -0.2221 -0.1538  0.0222
  365TMC3    C8 5524   4.200   1.337  10.235 -0.2211  0.0006  0.0716
  365TMC3    O1 5525   4.019   1.762  10.441  0.1441  0.2575 -0.2855
  365TMC3    O2 5526   4.304   1.403  10.246  0.0284 -0.3795 -0.0307
  366MPD2     C 5527   1.374   2.883  15.171 -0.1666  0.1367  0.1623
  366MPD2    C1 5528   1.484   2.822  15.125 -0.1616  0.5074 -0.2037
  366MPD2    C2 5529   1.471   2.711  15.043  0.1850  0.1794 -0.4489
  366MPD2    C3 5530   1.343   2.664  15.005 -0.3882  0.1536 -0.8569
  366MPD2    C4 5531   1.232   2.727  15.055 -0.1802  0.7415 -1.2118
  366MPD2    C5 5532   1.254   2.827  15.148 -0.4322 -0.6363  0.1750
  366MPD2     H 5533   1.552   2.647  15.009  0.8112  0.8108 -0.1302
  366MPD2    H1 5534   1.127   2.715  15.030 -0.6747  1.4440  0.5705
  366MPD2    H2 5535   1.372   2.974  15.229  3.3192  0.2423  0.1234
  366MPD2    H3 5536   1.170   2.884  15.186  0.3845  0.8522 -0.2270
  366MPD2     N 5537   1.335   2.556  14.920  0.4102 -0.3671  0.4296
  366MPD2    H5 5538   1.415   2.494  14.915  0.4017 -0.4753  1.6298
  366MPD2    N1 5539   1.617   2.866  15.154  0.2251 -0.1822  0.4699
  366MPD2    H7 5540   1.678   2.793  15.120  0.6442  0.9168 -1.1280
  367TMC3    C1 5541   1.800   2.991  15.204  0.5104 -0.4951  0.0537
  367TMC3    C2 5542   1.892   2.936  15.288 -0.0929  0.0145 -0.3459
  367TMC3    C3 5543   1.987   2.859  15.226 -0.8455 -0.0843 -0.6305
  367TMC3    C4 5544   1.814   2.990  15.068  1.5089 -0.0427 -0.1954
  367TMC3    C5 5545   1.903   2.898  15.015 -0.2499  0.1256  0.1505
  367TMC3    C6 5546   1.993   2.828  15.098 -0.1637 -0.4226 -0.0541
  367TMC3     C 5547   1.655   2.972  15.234  0.0309 -0.4705 -0.0365
  367TMC3     O 5548   1.589   3.069  15.273  0.1692  0.0663 -0.3706
  367TMC3     H 5549   1.868   2.928  15.393  0.1704  2.6229 -0.0836
  367TMC3    H1 5550   1.737   3.041  15.011  1.4676 -1.5706 -1.5043
  367TMC3    H2 5551   2.054   2.745  15.063 -0.4522 -1.2624  1.4917
  367TMC3    C7 5552   1.830   2.837  14.902  0.4235 -1.2375  0.1291
  367TMC3    C8 5553   2.072   2.779  15.313  0.3352  0.5899 -1.0805
  367TMC3    O1 5554   1.771   2.916  14.826  0.2877  0.0441 -0.2943
  367TMC3    O2 5555   2.127   2.689  15.253 -0.4705  0.6192 -0.3727
  368MPD2     C 5556   3.821   4.541  12.859  0.4630 -0.1114 -0.4892
  368MPD2    C1 5557   3.747   4.648  12.810  0.4947  0.3789 -0.6592
  368MPD2    C2 5558   3.811   0.018  12.750  0.8775 -0.1510 -0.0952
  368MPD2    C3 5559   3.954   0.025  12.743 -0.6492 -0.4418  0.8208
  368MPD2    C4 5560   4.023   4.654  12.798  0.7548 -0.4023  0.4440
  368MPD2    C5 5561   3.958   4.545  12.856 -0.0132 -0.2661  0.2205
  368MPD2     H 5562   3.750   0.095  12.704  0.5384 -0.1668  0.3323
  368MPD2    H1 5563   4.131   4.651  12.804  0.8889 -0.8156 -2.5392
  368MPD2    H2 5564   3.770   4.463  12.913  0.8606  0.6730  1.0270
  368MPD2    H3 5565   4.012   4.456  12.887 -0.6094 -0.1615  1.5499
  368MPD2     N 5566   4.029   0.127  12.691  0.2894 -0.4631 -0.0033
  368MPD2    H5 5567   4.126   0.111  12.664 -0.3671 -0.6593 -2.2525
  368MPD2    N1 5568   3.604   4.641  12.816  0.0904  0.3185 -0.1039
  368MPD2    H7 5569   3.567   4.552  12.849  2.3499 -0.6698 -0.1542
  369TMC3    C1 5570   3.379   4.728  12.825 -0.3504  0.7018  0.3378
  369TMC3    C2 5571   3.316   0.099  12.875  0.3564  0.0851  0.3550
  369TMC3    C3 5572   3.192   0.076  12.929  0.2953 -0.5224  0.0731
  369TMC3    C4 5573   3.330   4.595  12.831 -0.3595  0.0231 -0.0330
  369TMC3    C5 5574   3.207   4.581  12.891  0.4644  0.3259 -0.6063
  369TMC3    C6 5575   3.140   4.688  12.944 -0.0438  0.6705 -0.3087
  369TMC3     C 5576   3.518   0.013  12.799 -0.5753  0.4729  0.5838
  369TMC3     O 5577   3.536   0.126  12.759 -0.7226 -0.1559 -0.4530
  369TMC3     H 5578   3.353   0.200  12.863  2.2243 -0.9211 -2.4964
  369TMC3    H1 5579   3.377   4.523  12.765  3.6342  0.1068  2.6665
  369TMC3    H2 5580   3.042   4.687  12.989  0.5575  0.8793  1.0065
  369TMC3    C7 5581   3.141   4.455  12.886  0.3204  0.6944  0.0816
  369TMC3    C8 5582   3.101   0.188  12.931  0.8010 -1.1006 -0.7552
  369TMC3    O1 5583   3.018   4.465  12.875  0.2923 -0.3645  0.2789
  369TMC3    O2 5584   2.980   0.163  12.932  0.2633 -0.2357  0.4477
  370TMC3    C1 5585   2.389   4.376  16.061 -0.1024  0.4895  0.5386
  370TMC3    C2 5586   2.328   4.285  16.147  0.3804 -0.6257 -0.4026
  370TMC3    C3 5587   2.316   4.159  16.105 -0.0645  0.4393 -0.0525
  370TMC3    C4 5588   2.450   4.336  15.946 -0.0276 -0.7585  0.2594
  370TMC3    C5 5589   2.446   4.200  15.912 -0.0141 -0.1970  0.2938
  370TMC3    C6 5590   2.379   4.112  15.992  0.1036  0.1227 -0.0402
  370TMC3     C 5591   2.469   4.485  16.124  0.3100 -0.2214  0.3230
  370TMC3     O 5592   2.487   4.469  16.243  0.1249 -0.5737 -0.7382
  370TMC3     H 5593   2.307   4.330  16.243  1.9034 -1.6022  0.3768
  370TMC3    H1 5594   2.510   4.400  15.882 -0.2459  0.7854  1.6056
  370TMC3    H2 5595   2.382   4.007  15.966 -2.0321  0.1969 -0.5725
  370TMC3    C7 5596   2.497   4.166  15.778  0.0756  0.2867  0.4015
  370TMC3    C8 5597   2.276   4.063  16.206  0.1284 -0.1306  0.3507
  370TMC3    O1 5598   2.516   4.263  15.706  0.2946  0.2130 -0.5165
  370TMC3    O2 5599   2.287   3.947  16.181 -0.5548  0.1844 -0.0415
  371TMC3    C1 5600   3.376   2.466  15.040 -0.0083  0.3670 -0.2057
  371TMC3    C2 5601   3.237   2.481  15.054  0.1976 -0.2318 -0.0437
  371TMC3    C3 5602   3.184   2.605  15.025 -0.4465  0.3891  0.0090
  371TMC3    C4 5603   3.460   2.560  14.984  0.6405  0.2073  0.2468
  371TMC3    C5 5604   3.399   2.687  14.972  0.5589  0.3774 -0.8640
  371TMC3    C6 5605   3.271   2.711  15.008  0.5285  0.2608 -0.0921
  371TMC3     C 5606   3.438   2.335  15.060  0.2336  0.6463 -0.3603
  371TMC3     O 5607   3.542   2.317  14.993 -0.6087 -1.2778 -0.2098
  371TMC3     H 5608   3.174   2.411  15.106  0.8955  0.4228  1.6754
  371TMC3    H1 5609   3.561   2.541  14.950  0.9050  3.4104 -0.7437
  371TMC3    H2 5610   3.239   2.814  15.009 -1.6948 -0.4255 -0.0933
  371TMC3    C7 5611   3.478   2.803  14.952  0.5004  0.3388  0.4986
  371TMC3    C8 5612   3.042   2.626  15.051  0.4774  0.1735 -0.1909
  371TMC3    O1 5613   3.429   2.896  14.891  0.0214  0.2419  0.4374
  371TMC3    O2 5614   2.975   2.527  15.043  0.2803 -0.3196 -0.5617
  372MPD2     C 5615   3.754   4.469  13.198  0.0330 -0.1295  0.0299
  372MPD2    C1 5616   3.777   4.343  13.256  0.3733  0.4201 -0.3333
  372MPD2    C2 5617   3.666   4.266  13.284 -0.3791 -0.3842  0.1634
  372MPD2    C3 5618   3.536   4.311  13.248  0.3863 -0.3687  0.5637
  372MPD2    C4 5619   3.519   4.438  13.197 -0.9735 -0.2444  0.1673
  372MPD2    C5 5620   3.631   4.514  13.169  0.6184 -0.5772  0.2751
  372MPD2     H 5621   3.677   4.167  13.328  0.4772  0.4091  1.7290
  372MPD2    H1 5622   3.425   4.481  13.164 -0.9107 -1.0327 -1.0225
  372MPD2    H2 5623   3.836   4.540  13.189 -1.3584  1.1375 -2.5585
  372MPD2    H3 5624   3.616   4.612  13.126  2.2247 -0.0458  0.9703
  372MPD2     N 5625   3.429   4.218  13.257  0.5850  0.9215  0.9936
  372MPD2    H5 5626   3.455   4.121  13.271  0.8492  0.6212 -1.5611
  372MPD2    N1 5627   3.911   4.293  13.290 -0.4341  0.0024 -0.1407
  372MPD2    H7 5628   3.913   4.210  13.348 -1.2744 -0.4907 -0.8104
  373TMC3    C1 5629   3.212   4.139  13.224 -0.9726  0.3385  0.5567
  373TMC3    C2 5630   3.117   4.117  13.316  0.5361 -0.0503  0.1493
  373TMC3    C3 5631   3.071   3.989  13.329 -0.2589 -0.3883  0.3522
  373TMC3    C4 5632   3.263   4.041  13.134 -0.2340  0.5308 -1.0011
  373TMC3    C5 5633   3.202   3.919  13.148 -0.1294 -0.0635  0.0774
  373TMC3    C6 5634   3.100   3.893  13.233 -0.8941 -0.1466  0.5756
  373TMC3     C 5635   3.294   4.255  13.245 -0.1967 -0.6307  0.2196
  373TMC3     O 5636   3.236   4.361  13.245  0.5019  0.4471  0.4003
  373TMC3     H 5637   3.090   4.201  13.380  1.9319 -0.2995  1.0719
  373TMC3    H1 5638   3.352   4.053  13.074  1.4805  0.2595  1.4658
  373TMC3    H2 5639   3.070   3.791  13.250  0.2897 -0.8919 -1.8033
  373TMC3    C7 5640   3.287   3.807  13.108 -0.3904 -0.4282 -0.6068
  373TMC3    C8 5641   3.094   3.949  13.468  0.1966 -0.0582  0.0852
  373TMC3    O1 5642   3.398   3.835  13.069  0.5061 -0.1523  0.0273
  373TMC3    O2 5643   3.160   4.033  13.533  0.1371 -0.8151 -0.4972
  374TMC3    C1 5644   3.302   4.106  10.179  0.4797 -0.4376  0.4214
  374TMC3    C2 5645   3.431   4.100  10.139  0.3551  0.2053 -0.1290
  374TMC3    C3 5646   3.474   4.007  10.049  0.1486  0.6411 -0.1077
  374TMC3    C4 5647   3.214   4.005  10.133 -0.1025 -0.4072  0.1934
  374TMC3    C5 5648   3.256   3.917  10.040  0.3173 -0.2799  0.3898
  374TMC3    C6 5649   3.390   3.909  10.001 -0.1757  0.1950  0.1902
  374TMC3     C 5650   3.268   4.195  10.283 -0.4514  0.1626  0.4401
  374TMC3     O 5651   3.349   4.221  10.370 -0.1641 -0.3203 -0.4880
  374TMC3     H 5652   3.500   4.180  10.162 -1.6796  2.1475 -0.8461
  374TMC3    H1 5653   3.111   4.014  10.164 -0.4870  0.4082 -1.3380
  374TMC3    H2 5654   3.419   3.843   9.920 -0.8621  0.5561 -0.3506
  374TMC3    C7 5655   3.167   3.821   9.980  0.1406  0.0201 -0.4833
  374TMC3    C8 5656   3.609   4.007  10.000  0.3273  0.1918 -0.8667
  374TMC3    O1 5657   3.195   3.744   9.888  0.2548 -0.0665  0.0706
  374TMC3    O2 5658   3.617   3.987   9.882  0.0283 -0.1016 -0.4347
  375MPD2     C 5659   3.872   4.338  17.057  0.2270 -0.5850 -0.6646
  375MPD2    C1 5660   3.787   4.367  16.949  0.1792 -0.3044  0.3738
  375MPD2    C2 5661   3.837   4.366  16.817 -0.2570 -0.3366  0.1149
  375MPD2    C3 5662   3.970   4.333  16.790  0.5569  0.0983  0.0028
  375MPD2    C4 5663   4.047   4.299  16.895  0.1428  0.0971 -1.1281
  375MPD2    C5 5664   4.000   4.302  17.026  0.1995  0.5630 -0.5293
  375MPD2     H 5665   3.776   4.374  16.728  0.2204  2.7008  0.0503
  375MPD2    H1 5666   4.149   4.267  16.878  0.4443 -0.4907  1.8239
  375MPD2    H2 5667   3.839   4.354  17.159  0.5175 -0.8717 -0.5277
  375MPD2    H3 5668   4.067   4.272  17.106 -0.7446  3.6432  1.4043
  375MPD2     N 5669   4.034   4.312  16.664 -1.0595  0.3393  0.6466
  375MPD2    H5 5670   4.133   4.293  16.679 -1.3795 -0.5109  1.7028
  375MPD2    N1 5671   3.646   4.399  16.958 -0.1176  0.0621  0.1761
  375MPD2    H7 5672   3.601   4.419  16.869  0.0005  2.4406  0.6596
  376TMC3    C1 5673   4.085   4.309  16.444  0.4703  0.6704 -0.4928
  376TMC3    C2 5674   4.208   4.253  16.475  0.1976  0.8171  0.1898
  376TMC3    C3 5675   4.298   4.234  16.381  0.1880 -0.0406 -0.0059
  376TMC3    C4 5676   4.053   4.348  16.316  0.3224  0.5084  0.1425
  376TMC3    C5 5677   4.147   4.320  16.222  0.0333  0.1101 -0.3531
  376TMC3    C6 5678   4.266   4.257  16.251 -0.4028 -0.4395 -0.7281
  376TMC3     C 5679   3.981   4.331  16.539 -0.1512  0.3808  0.3255
  376TMC3     O 5680   3.870   4.368  16.506 -0.1580 -0.4037  0.4387
  376TMC3     H 5681   4.229   4.206  16.570  0.6593 -0.8789 -0.7629
  376TMC3    H1 5682   3.962   4.406  16.304  1.2780  1.8232 -0.7877
  376TMC3    H2 5683   4.342   4.234  16.176 -0.7844  0.7186 -1.4676
  376TMC3    C7 5684   4.115   4.370  16.089 -0.8835  0.2408  0.2994
  376TMC3    C8 5685   4.426   4.171  16.412  0.3545 -0.2815  0.5017
  376TMC3    O1 5686   4.039   4.466  16.075  0.3755  0.4387  0.0697
  376TMC3    O2 5687   4.434   4.083  16.497  0.5066 -0.1807  0.2436
  377MPD2     C 5688   1.754   4.331  12.367  0.0618 -0.0114  0.1141
  377MPD2    C1 5689   1.742   4.473  12.395  0.1438  0.6169 -0.0864
  377MPD2    C2 5690   1.625   4.513  12.455  0.4419 -0.0200 -0.4634
  377MPD2    C3 5691   1.532   4.416  12.493 -0.6467 -0.5158 -0.0026
  377MPD2    C4 5692   1.544   4.281  12.474 -0.2681 -0.1536  0.0690
  377MPD2    C5 5693   1.657   4.241  12.405 -0.8496 -0.0507  0.5382
  377MPD2     H 5694   1.600   4.617  12.472  1.5732  0.4232 -1.5054
  377MPD2    H1 5695   1.476   4.206  12.512 -2.8250  1.6575 -0.9508
  377MPD2    H2 5696   1.838   4.294  12.309 -1.2965 -0.6278 -1.4529
  377MPD2    H3 5697   1.669   4.134  12.400 -0.0512  0.1847 -2.4134
  377MPD2     N 5698   1.407   4.454  12.560  0.2165  0.0349  0.4497
  377MPD2    H5 5699   1.339   4.380  12.571  1.0938 -0.9321 -0.6065
  377MPD2    N1 5700   1.847   4.556  12.348 -0.0166 -0.1412  0.2078
  377MPD2    H7 5701   1.923   4.500  12.312 -0.1427  0.5387 -1.1279
  378TMC3    C1 5702   1.993   0.160  12.075  0.2684 -0.3923  0.1685
  378TMC3    C2 5703   1.923   0.119  12.188  0.3963 -0.7236  0.4306
  378TMC3    C3 5704   1.945   0.001  12.254  0.0423 -0.0223  0.1693
  378TMC3    C4 5705   2.086   0.069  12.031 -0.1823 -1.0155 -0.4740
  378TMC3    C5 5706   2.111   4.694  12.101 -0.3228  0.6048  0.8169
  378TMC3    C6 5707   2.044   4.652  12.209  0.1587 -0.1799 -0.2382
  378TMC3     C 5708   1.925   0.233  11.974 -0.2272 -0.1459  0.4196
  378TMC3     O 5709   1.808   0.256  11.998  0.3214 -0.0899  0.0785
  378TMC3     H 5710   1.840   0.177  12.228  1.4348  1.2342 -0.2548
  378TMC3    H1 5711   2.151   0.090  11.948 -0.4294  1.8022  0.0435
  378TMC3    H2 5712   2.075   4.563  12.262  1.3379  0.1303 -0.4059
  378TMC3    C7 5713   2.219   4.606  12.052 -0.0349 -0.2376 -0.2684
  378TMC3    C8 5714   1.839   4.692  12.347 -0.1818 -0.6712  0.0295
  378TMC3    O1 5715   2.296   4.654  11.974 -0.0425  0.2583 -0.3548
  378TMC3    O2 5716   1.757   0.034  12.390  0.4599  0.0232 -0.1418
  379MPD2     C 5717   2.971   1.829  15.834  0.7004  0.2409 -0.2043
  379MPD2    C1 5718   2.856   1.878  15.897 -0.0441  0.0428 -0.0812
  379MPD2    C2 5719   2.844   1.856  16.034 -0.1389 -0.1176  0.3024
  379MPD2    C3 5720   2.957   1.803  16.101 -0.3005 -0.3463 -1.0346
  379MPD2    C4 5721   3.070   1.754  16.034 -0.0453 -0.3227  0.2804
  379MPD2    C5 5722   3.083   1.771  15.899  0.5236 -0.2766  0.3954
  379MPD2     H 5723   2.751   1.884  16.083 -0.7463 -1.2137 -0.2317
  379MPD2    H1 5724   3.157   1.715  16.084  0.4273  1.0237  0.4849
  379MPD2    H2 5725   2.992   1.840  15.729 -0.7446  0.8636 -0.4302
  379MPD2    H3 5726   3.164   1.725  15.843  0.2531 -0.5177  0.2025
  379MPD2     N 5727   2.951   1.771  16.243 -0.4783 -0.4023  0.1712
  379MPD2    H5 5728   3.022   1.711  16.283  2.1863  0.0173 -3.9565
  379MPD2    N1 5729   2.776   1.967  15.824 -0.6611 -0.0324 -0.0100
  379MPD2    H7 5730   2.814   1.994  15.734  1.1827  0.9764  1.0639
  380TMC3    C1 5731   2.572   2.064  15.759 -0.0246 -0.2903 -0.0427
  380TMC3    C2 5732   2.610   2.049  15.628 -0.7821  0.2557 -0.6404
  380TMC3    C3 5733   2.567   2.141  15.534  0.8762 -0.0543  0.1089
  380TMC3    C4 5734   2.477   2.156  15.790  1.0893 -0.1182 -0.4596
  380TMC3    C5 5735   2.425   2.239  15.690  0.3073 -0.1395 -0.2697
  380TMC3    C6 5736   2.469   2.237  15.557 -0.0003  0.2330  0.8695
  380TMC3     C 5737   2.644   1.992  15.858 -1.1765 -0.0720 -0.1039
  380TMC3     O 5738   2.582   1.974  15.964  0.0697 -0.2456 -0.5840
  380TMC3     H 5739   2.651   1.952  15.602 -3.4625 -0.3247 -2.6444
  380TMC3    H1 5740   2.457   2.185  15.892  1.0857  1.9371 -1.0353
  380TMC3    H2 5741   2.467   2.318  15.486  0.7925 -0.0923  0.4789
  380TMC3    C7 5742   2.360   2.369  15.731 -0.3907  0.1759 -0.0918
  380TMC3    C8 5743   2.621   2.146  15.397 -0.1527  0.1127 -0.0786
  380TMC3    O1 5744   2.349   2.397  15.854  0.0854  0.2366  0.1213
  380TMC3    O2 5745   2.542   2.191  15.319 -0.6711 -0.1416  0.0730
  381TMC3    C1 5746   2.192   3.219  16.199 -0.2798  0.3793  0.1000
  381TMC3    C2 5747   2.283   3.301  16.128  0.3576  0.2139  0.2082
  381TMC3    C3 5748   2.303   3.431  16.168 -0.8294 -0.7843  0.2519
  381TMC3    C4 5749   2.123   3.273  16.307  0.5338  0.7631  0.2219
  381TMC3    C5 5750   2.149   3.397  16.346  0.1046  0.1995 -0.2014
  381TMC3    C6 5751   2.242   3.475  16.280  0.4748  0.2474 -0.0318
  381TMC3     C 5752   2.168   3.084  16.158  0.2465  0.2003  0.2689
  381TMC3     O 5753   2.194   3.059  16.043 -0.0823  0.1496  0.2599
  381TMC3     H 5754   2.338   3.268  16.041 -0.1871 -1.4360  0.5017
  381TMC3    H1 5755   2.058   3.205  16.361 -0.2125  0.6954 -0.7698
  381TMC3    H2 5756   2.250   3.577  16.315  0.7690  1.1319 -2.7489
  381TMC3    C7 5757   2.178   3.387  16.489  0.2181 -0.0402  0.0806
  381TMC3    C8 5758   2.416   3.499  16.108 -1.3079  0.2832  0.8200
  381TMC3    O1 5759   2.223   3.279  16.530  0.5095  0.6752 -0.2348
  381TMC3    O2 5760   2.479   3.450  16.014 -0.1339 -0.4452 -0.1539
  382MPD2     C 5761   1.486   1.346  16.829 -0.1433 -1.1100  0.0082
  382MPD2    C1 5762   1.479   1.340  16.968  0.4330 -0.1222  0.4342
  382MPD2    C2 5763   1.445   1.221  17.023 -0.5375 -0.0813  0.3138
  382MPD2    C3 5764   1.416   1.107  16.945 -0.1332 -0.0265 -0.7858
  382MPD2    C4 5765   1.431   1.123  16.810  0.5446 -1.0335  0.0513
  382MPD2    C5 5766   1.474   1.238  16.752 -0.4578 -0.6135 -0.0536
  382MPD2     H 5767   1.435   1.226  17.131  1.6486  1.2070  0.4560
  382MPD2    H1 5768   1.400   1.038  16.749  2.3576 -1.5480 -0.1382
  382MPD2    H2 5769   1.491   1.443  16.779 -2.5629 -0.4748  0.9954
  382MPD2    H3 5770   1.469   1.256  16.646 -2.2639  1.8772  0.4328
  382MPD2     N 5771   1.370   0.981  16.989  0.2005  0.5106 -0.1247
  382MPD2    H5 5772   1.359   0.911  16.916 -2.2133  1.3514 -0.5676
  382MPD2    N1 5773   1.512   1.460  17.053  0.4546  0.7697  0.0549
  382MPD2    H7 5774   1.503   1.457  17.154  2.2771  0.7134  0.2304
  383TMC3    C1 5775   1.317   0.815  17.137  0.0194  0.3199 -0.1691
  383TMC3    C2 5776   1.234   0.753  17.046  0.4067  0.4135  0.3556
  383TMC3    C3 5777   1.186   0.630  17.084  0.9898  0.1059  0.5359
  383TMC3    C4 5778   1.375   0.750  17.247 -0.0570  0.7135  0.0786
  383TMC3    C5 5779   1.328   0.623  17.269 -0.3904  0.5302 -0.2624
  383TMC3    C6 5780   1.231   0.568  17.195  0.1351 -0.0637  0.4630
  383TMC3     C 5781   1.358   0.951  17.120  0.9310  0.4007 -0.0937
  383TMC3     O 5782   1.361   1.031  17.211  0.0257  0.7913  0.0338
  383TMC3     H 5783   1.206   0.799  16.951  0.7083 -2.0319 -0.9168
  383TMC3    H1 5784   1.441   0.812  17.308 -1.3538  1.7960  0.3834
  383TMC3    H2 5785   1.191   0.470  17.219 -1.1842  0.8939  2.1447
  383TMC3    C7 5786   1.396   0.544  17.362 -0.3040 -0.2555 -0.5782
  383TMC3    C8 5787   1.104   0.557  16.990  0.0893  0.3937  0.5173
  383TMC3    O1 5788   1.376   0.426  17.348  0.2348  0.1897 -0.5686
  383TMC3    O2 5789   1.028   0.621  16.914 -0.0472 -0.1027 -0.4602
  384MPD2     C 5790   2.958   2.659  11.838 -0.2169  0.2736  0.3237
  384MPD2    C1 5791   2.951   2.555  11.935 -0.2838 -0.1463  0.4082
  384MPD2    C2 5792   3.058   2.459  11.948 -0.6527 -0.2174 -0.0522
  384MPD2    C3 5793   3.175   2.480  11.873 -0.1452  0.6517  0.2373
  384MPD2    C4 5794   3.178   2.590  11.785 -0.1585  0.0405 -0.1647
  384MPD2    C5 5795   3.068   2.663  11.749 -0.0972  0.2408  0.2832
  384MPD2     H 5796   3.046   2.381  12.023 -0.0939 -1.3516 -1.1492
  384MPD2    H1 5797   3.271   2.610  11.732 -0.4145  2.3287  0.2439
  384MPD2    H2 5798   2.882   2.736  11.826  0.3664  0.9241  0.7339
  384MPD2    H3 5799   3.078   2.733  11.667 -0.3335 -0.7349 -0.5763
  384MPD2     N 5800   3.285   2.392  11.894 -0.5037 -0.0372 -0.1600
  384MPD2    H5 5801   3.272   2.320  11.964 -0.8561  2.2787  2.1271
  384MPD2    N1 5802   2.835   2.542  12.013  0.2039  0.7854  0.3702
  384MPD2    H7 5803   2.778   2.624  12.031 -1.1538  0.4480 -2.4059
  385TMC3    C1 5804   3.489   2.305  11.902  0.0594 -0.0672 -0.0531
  385TMC3    C2 5805   3.475   2.169  11.875 -0.8372  0.7241 -0.3381
  385TMC3    C3 5806   3.476   2.088  11.990 -0.2475 -1.1799 -0.5268
  385TMC3    C4 5807   3.512   2.352  12.032  0.5051 -0.3845 -0.5891
  385TMC3    C5 5808   3.521   2.260  12.136  0.6453  0.3249  0.7429
  385TMC3    C6 5809   3.501   2.128  12.117  0.1484 -0.0839 -0.4638
  385TMC3     C 5810   3.405   2.392  11.826 -0.0142 -0.8916 -0.2507
  385TMC3     O 5811   3.458   2.467  11.745 -0.1876 -0.2971  0.9058
  385TMC3     H 5812   3.449   2.146  11.773  0.5742  0.7445 -0.6905
  385TMC3    H1 5813   3.516   2.460  12.038  0.7769 -0.4250 -0.0259
  385TMC3    H2 5814   3.482   2.056  12.196  0.4732 -1.9714 -2.1003
  385TMC3    C7 5815   3.460   2.312  12.256 -0.0030  0.6367  0.2156
  385TMC3    C8 5816   3.437   1.950  11.975  0.6359  0.3197  0.5928
  385TMC3    O1 5817   3.380   2.234  12.316 -0.4025 -0.2373 -0.6425
  385TMC3    O2 5818   3.436   1.873  12.073 -0.3208 -0.3274 -0.0172
  386TMC3    C1 5819   3.253   4.294  12.072 -0.1016 -0.4400  0.3957
  386TMC3    C2 5820   3.234   4.283  11.942  0.0477 -0.7689  0.6763
  386TMC3    C3 5821   3.156   4.372  11.871 -0.0085  0.2830  0.0731
  386TMC3    C4 5822   3.193   4.402  12.133 -0.2802  0.1546 -0.1147
  386TMC3    C5 5823   3.105   4.481  12.070 -0.3920 -0.6983 -0.1115
  386TMC3    C6 5824   3.080   4.469  11.932  0.3775  0.6441 -0.2763
  386TMC3     C 5825   3.378   4.236  12.133  0.0767 -0.5182 -0.3674
  386TMC3     O 5826   3.423   4.302  12.224 -0.1072  0.2799 -0.3777
  386TMC3     H 5827   3.312   4.230  11.888 -0.0656 -1.2652  0.9992
  386TMC3    H1 5828   3.212   4.404  12.239  0.0399 -1.0164 -0.1551
  386TMC3    H2 5829   3.018   4.538  11.876 -0.1468 -1.0013 -1.7237
  386TMC3    C7 5830   3.058   4.597  12.141 -0.3221 -0.0257 -0.5120
  386TMC3    C8 5831   3.155   4.376  11.727  0.0207 -0.0582 -0.0097
  386TMC3    O1 5832   3.030   4.699  12.086  0.5571 -0.1297  0.4379
  386TMC3    O2 5833   3.108   4.474  11.676 -0.6856 -0.2571  0.3560
  387MPD2     C 5834   1.105   4.342   9.569 -0.9469 -0.3945 -0.1983
  387MPD2    C1 5835   1.213   4.318   9.642 -0.6550  0.1614 -0.3274
  387MPD2    C2 5836   1.239   4.196   9.688 -0.1038 -0.1710 -0.3726
  387MPD2    C3 5837   1.153   4.092   9.645 -0.5260  0.5729  0.4425
  387MPD2    C4 5838   1.042   4.110   9.566 -0.4195  0.8342 -0.3065
  387MPD2    C5 5839   1.021   4.237   9.526 -0.0196 -0.3497 -0.2381
  387MPD2     H 5840   1.322   4.179   9.756 -0.3284 -0.2869 -0.1271
  387MPD2    H1 5841   0.991   4.029   9.514  1.8096 -1.0194  0.3954
  387MPD2    H2 5842   1.076   4.435   9.521  0.6940  0.7983  1.1268
  387MPD2    H3 5843   0.945   4.259   9.452  0.7430 -1.4604 -1.3612
  387MPD2     N 5844   1.187   3.968   9.699 -0.1263 -0.6552 -0.5109
  387MPD2    H5 5845   1.274   3.967   9.751 -0.6674 -1.0457  0.3860
  387MPD2    N1 5846   1.303   4.413   9.680  0.3589 -0.2756  0.3099
  387MPD2    H7 5847   1.385   4.370   9.722  2.2089  1.0381 -1.9857
  388TMC3    C1 5848   1.376   4.623   9.771 -1.3703 -0.6337 -0.2095
  388TMC3    C2 5849   1.330   4.706   9.871 -0.8836  1.5800  0.4117
  388TMC3    C3 5850   1.390   4.706   9.994  0.1259 -0.4327  0.0261
  388TMC3    C4 5851   1.491   4.553   9.798  0.3991  0.5047 -0.5623
  388TMC3    C5 5852   1.547   4.545   9.922 -0.6715 -0.2157 -0.4061
  388TMC3    C6 5853   1.492   4.613  10.027 -0.4733  0.2297  0.5980
  388TMC3     C 5854   1.280   4.553   9.690  0.0879 -0.3932 -0.4159
  388TMC3     O 5855   1.177   4.611   9.663 -0.2309 -0.0641  0.4125
  388TMC3     H 5856   1.229   0.008   9.865 -1.0977  0.6144 -2.4933
  388TMC3    H1 5857   1.541   4.515   9.709 -1.0577  2.0997 -2.0745
  388TMC3    H2 5858   1.530   4.611  10.129 -0.0476 -0.2374  0.4314
  388TMC3    C7 5859   1.548   4.395   9.949  0.8473 -0.8622  0.0431
  388TMC3    C8 5860   1.343   0.052  10.101 -0.5327 -1.1236  0.5512
  388TMC3    O1 5861   1.509   4.331   9.853  0.5724  0.3608 -0.0020
  388TMC3    O2 5862   1.360   0.009  10.216  0.6829 -0.0151  0.2440
  389MPD2     C 5863   0.230   2.008  10.797 -0.1826 -0.6456 -0.0761
  389MPD2    C1 5864   0.138   2.100  10.837 -0.4743  0.3176 -0.0457
  389MPD2    C2 5865   0.085   2.098  10.967 -0.0572 -0.1670  0.1076
  389MPD2    C3 5866   0.130   2.008  11.062 -0.6024  0.3309  0.0108
  389MPD2    C4 5867   0.229   1.916  11.019  0.3563 -0.0123 -0.2806
  389MPD2    C5 5868   0.274   1.917  10.891  0.1927  0.1674  0.3725
  389MPD2     H 5869   0.008   2.171  10.988  0.3515  1.0389 -2.6008
  389MPD2    H1 5870   0.269   1.836  11.081  1.7269  0.6005 -0.3625
  389MPD2    H2 5871   0.275   1.999  10.699  0.0460 -1.3681  0.1004
  389MPD2    H3 5872   0.346   1.844  10.856 -0.9368 -0.1896 -1.2499
  389MPD2     N 5873   0.090   2.021  11.197  0.1326 -0.2568 -0.2666
  389MPD2    H5 5874   0.019   2.093  11.207 -0.2488 -0.6076 -0.4533
  389MPD2    N1 5875   0.111   2.193  10.738 -0.2986  0.6068 -0.5466
  389MPD2    H7 5876   0.177   2.199  10.661 -0.7164 -1.0669 -1.0374
  390TMC3    C1 5877   0.069   2.010  11.428 -0.2526 -0.7570 -0.0168
  390TMC3    C2 5878   0.027   1.916  11.518  1.3064 -0.3854  0.1118
  390TMC3    C3 5879   4.706   1.942  11.635 -0.8242 -0.1127  0.7787
  390TMC3    C4 5880   0.055   2.141  11.460 -0.1017  1.0501 -0.2876
  390TMC3    C5 5881   4.731   2.175  11.577  0.1057 -0.1656  1.1933
  390TMC3    C6 5882   4.685   2.074  11.670  0.3752 -0.4702 -0.9278
  390TMC3     C 5883   0.135   1.963  11.311  0.2521  0.6466  0.6629
  390TMC3     O 5884   0.217   1.874  11.335 -0.1678  0.0573  0.4246
  390TMC3     H 5885   0.018   1.814  11.483  1.9224 -0.6338  0.6774
  390TMC3    H1 5886   0.094   2.210  11.385  1.5879  1.4948  1.0077
  390TMC3    H2 5887   4.649   2.100  11.769 -1.2493  0.2084 -1.7068
  390TMC3    C7 5888   4.694   2.317  11.587 -0.9282 -0.5756 -0.0791
  390TMC3    C8 5889   4.587   1.860  11.683  0.7616  0.5185 -0.2199
  390TMC3    O1 5890   4.732   2.394  11.498 -0.0678 -0.0574  0.6561
  390TMC3    O2 5891   4.511   1.813  11.600 -0.0848  0.8849 -0.0065
  391MPD2     C 5892   4.555   4.387  11.212 -0.4362  0.1569 -0.3123
  391MPD2    C1 5893   4.610   4.479  11.117  0.2892 -0.1250 -0.1286
  391MPD2    C2 5894   4.591   4.449  10.987 -0.3692 -1.1124 -0.2834
  391MPD2    C3 5895   4.514   4.340  10.945 -0.0007  0.7725 -0.1936
  391MPD2    C4 5896   4.478   4.248  11.043  0.1374  0.1422 -0.5702
  391MPD2    C5 5897   4.489   4.276  11.175  0.5384 -0.2770 -0.0293
  391MPD2     H 5898   4.637   4.500  10.903  0.2051  1.0333  1.3511
  391MPD2    H1 5899   4.428   4.155  11.018  0.0010 -0.1528  0.8251
  391MPD2    H2 5900   4.562   4.405  11.319  0.7481 -3.2371  0.1712
  391MPD2    H3 5901   4.443   4.212  11.249  0.2941 -2.8081 -2.3672
  391MPD2     N 5902   4.490   4.323  10.811 -0.5234  0.1523  1.1590
  391MPD2    H5 5903   4.537   4.377  10.740  0.5810 -1.1550  0.8829
  391MPD2    N1 5904   4.679   4.596  11.161 -0.2016 -0.2441  0.3495
  391MPD2    H7 5905   4.704   4.608  11.259  1.2516  0.7301 -0.1430
  392TMC3    C1 5906   4.398   4.199  10.631 -0.1292 -1.4871 -0.2743
  392TMC3    C2 5907   4.281   4.150  10.585  0.9544 -0.0303  0.3766
  392TMC3    C3 5908   4.266   4.151  10.446  0.0177 -0.0908 -0.2024
  392TMC3    C4 5909   4.495   4.249  10.552 -0.0198 -0.0603  0.5016
  392TMC3    C5 5910   4.480   4.248  10.416  1.0197  0.3286 -0.4178
  392TMC3    C6 5911   4.365   4.203  10.363  0.3861  0.6329  0.6733
  392TMC3     C 5912   4.393   4.230  10.772  0.3684 -0.3670 -0.2686
  392TMC3     O 5913   4.291   4.199  10.832 -1.0064  0.4257 -0.5819
  392TMC3     H 5914   4.195   4.116  10.642  0.3003  1.6399  0.3861
  392TMC3    H1 5915   4.591   4.283  10.590  0.3704 -1.9158  1.1557
  392TMC3    H2 5916   4.356   4.219  10.257  0.4167 -0.7996  0.4482
  392TMC3    C7 5917   4.582   4.314  10.335  0.7313  0.1203 -0.2704
  392TMC3    C8 5918   4.142   4.102  10.391  0.4655 -0.0168  0.0562
  392TMC3    O1 5919   4.672   4.357  10.401 -0.2499  0.3304 -0.2317
  392TMC3    O2 5920   4.049   4.095  10.468  0.1352  0.1473  0.1526
  393TMC3    C1 5921   3.392   2.378  11.113 -0.2945 -1.3142  0.3512
  393TMC3    C2 5922   3.276   2.310  11.136 -0.4530 -0.9082  0.4987
  393TMC3    C3 5923   3.280   2.186  11.191  1.2909 -0.6318 -0.8252
  393TMC3    C4 5924   3.506   2.319  11.154 -0.2644 -0.2015  0.2228
  393TMC3    C5 5925   3.511   2.199  11.216 -0.5537  0.0030 -0.5715
  393TMC3    C6 5926   3.392   2.125  11.229  0.0789 -0.0473  0.4358
  393TMC3     C 5927   3.396   2.435  10.978  0.2212  0.1132  0.3571
  393TMC3     O 5928   3.297   2.441  10.908 -0.5784 -0.2318  0.1625
  393TMC3     H 5929   3.182   2.348  11.097 -0.4666 -1.3935  0.0665
  393TMC3    H1 5930   3.601   2.367  11.135 -2.1790  4.2786  1.7420
  393TMC3    H2 5931   3.390   2.031  11.283 -3.3395 -0.0658  0.2261
  393TMC3    C7 5932   3.636   2.121  11.197  0.0011  0.4024 -0.4963
  393TMC3    C8 5933   3.161   2.099  11.207 -0.0440  0.0917  0.3686
  393TMC3    O1 5934   3.622   1.998  11.171  0.6867  0.5968  0.2902
  393TMC3    O2 5935   3.185   1.978  11.197  0.0888  0.0062  0.3835
  394TMC3    C1 5936   0.030   2.392  10.627 -0.3070  0.5740 -0.1945
  394TMC3    C2 5937   4.643   2.443  10.590 -0.3115  0.5367  0.2563
  394TMC3    C3 5938   4.628   2.488  10.462  0.2665  0.2181 -1.0379
  394TMC3    C4 5939   0.137   2.399  10.542  0.1955 -0.3627 -0.5254
  394TMC3    C5 5940   0.117   2.462  10.419  0.2405  0.6659  0.4584
  394TMC3    C6 5941   4.734   2.513  10.382 -0.7401 -0.2648 -0.1596
  394TMC3     C 5942   0.026   2.302  10.749  0.6475  0.6084  1.1278
  394TMC3     O 5943   4.687   2.331  10.843 -0.3873 -0.0484  0.4625
  394TMC3     H 5944   4.558   2.415  10.650  0.2718  3.4353  2.4069
  394TMC3    H1 5945   0.237   2.381  10.579  0.2463  0.3617 -0.3091
  394TMC3    H2 5946   4.723   2.554  10.283  1.6933  0.2062 -0.2538
  394TMC3    C7 5947   0.220   2.524  10.345  0.5233 -0.5188 -0.4339
  394TMC3    C8 5948   4.524   2.413  10.401 -0.1033  0.1153 -0.1051
  394TMC3    O1 5949   0.194   2.630  10.286  0.0246 -0.2605 -0.1616
  394TMC3    O2 5950   4.457   2.341  10.473  0.3190 -0.0879  0.4875
  395TMC3    C1 5951   4.537   4.678  14.391  0.0387  0.0751  0.1545
  395TMC3    C2 5952   4.586   4.552  14.361  0.6016 -0.1955  0.0642
  395TMC3    C3 5953   4.722   4.542  14.347  0.7295 -0.6802 -0.1838
  395TMC3    C4 5954   4.624   0.045  14.418  1.3217  0.5323  0.3713
  395TMC3    C5 5955   0.021   0.028  14.411 -0.0843  0.3491  0.0322
  395TMC3    C6 5956   0.075   4.642  14.385  0.6149  0.1192 -0.3971
  395TMC3     C 5957   4.403   4.689  14.452  0.2198 -0.0509 -0.3762
  395TMC3     O 5958   4.377   0.062  14.502 -0.8784  0.3377 -0.5365
  395TMC3     H 5959   4.529   4.460  14.359 -0.2638  0.4236 -3.2666
  395TMC3    H1 5960   4.585   0.145  14.433 -0.2721 -0.1090  0.5393
  395TMC3    H2 5961   0.180   4.624  14.364 -0.1416 -1.3433 -2.9173
  395TMC3    C7 5962   0.088   0.111  14.512 -0.1762 -0.2516 -0.0091
  395TMC3    C8 5963   0.036   4.410  14.316  0.0189 -0.5457 -0.3759
  395TMC3    O1 5964   0.030   0.141  14.617 -0.0451 -0.1336  0.3184
  395TMC3    O2 5965   0.141   4.384  14.369 -0.2011 -0.4659 -0.2594
  396MPD2     C 5966   4.169   0.548  16.730  0.1457 -0.9159  0.1462
  396MPD2    C1 5967   4.296   0.561  16.778 -0.3946  0.4501 -0.5943
  396MPD2    C2 5968   4.373   0.668  16.743 -1.3461 -0.2410  0.2624
  396MPD2    C3 5969   4.333   0.766  16.650 -0.3442  0.6503  0.0020
  396MPD2    C4 5970   4.208   0.742  16.599 -1.4034  0.6471  0.1789
  396MPD2    C5 5971   4.125   0.638  16.637 -0.6522  0.2222 -0.0533
  396MPD2     H 5972   4.473   0.663  16.782 -0.5370 -2.5354 -2.1306
  396MPD2    H1 5973   4.159   0.812  16.531  2.1195  3.0421  0.0926
  396MPD2    H2 5974   4.093   0.475  16.758 -0.6067  0.3449  1.4088
  396MPD2    H3 5975   4.033   0.624  16.581 -0.1951  0.2177 -0.8084
  396MPD2     N 5976   4.414   0.873  16.618 -0.1524  0.1853 -0.5343
  396MPD2    H5 5977   4.493   0.870  16.681 -0.3935  0.3773 -0.2224
  396MPD2    N1 5978   4.333   0.465  16.868  0.0073  0.1707  0.1906
  396MPD2    H7 5979   4.259   0.399  16.888 -0.4370  0.4343 -0.5822
  397TMC3    C1 5980   4.469   0.336  17.006  0.3737 -0.1857  0.1434
  397TMC3    C2 5981   4.603   0.287  17.003 -0.2068 -0.3670 -0.2766
  397TMC3    C3 5982   4.621   0.159  16.946  0.5667 -0.5987 -0.4571
  397TMC3    C4 5983   4.364   0.255  16.998 -0.2479  0.1831 -0.3425
  397TMC3    C5 5984   4.394   0.125  16.983 -1.1836 -0.0684  0.2270
  397TMC3    C6 5985   4.516   0.075  16.953 -0.1355 -0.5532  0.0681
  397TMC3     C 5986   4.450   0.464  16.944 -0.2016  1.2507 -0.1530
  397TMC3     O 5987   4.539   0.548  16.956 -0.4768  0.2480  0.1352
  397TMC3     H 5988   4.678   0.364  16.990  0.8021 -1.2275  0.3901
  397TMC3    H1 5989   4.264   0.285  17.028 -0.6075  0.7225 -2.1049
  397TMC3    H2 5990   4.530   4.706  16.967 -3.9017 -1.2080 -1.2840
  397TMC3    C7 5991   4.292   0.029  17.031  0.1572  0.7832  0.4411
  397TMC3    C8 5992   0.013   0.097  16.930  0.3007  0.1468 -0.1057
  397TMC3    O1 5993   4.291   4.650  16.983  0.7146 -0.5934 -0.7232
  397TMC3    O2 5994   0.017   4.710  16.946  0.1916  0.4365 -0.3567
  398MPD2     C 5995   2.697   2.254  17.433 -0.6200 -0.6976 -0.0737
  398MPD2    C1 5996   2.722   2.178  17.546  0.9989  0.0640  0.8309
  398MPD2    C2 5997   2.805   2.236  17.641 -1.1172  0.1794 -0.2205
  398MPD2    C3 5998   2.867   2.360  17.628  0.1618  1.2742 -0.2884
  398MPD2    C4 5999   2.838   2.431  17.511 -0.4732 -0.2072  0.3962
  398MPD2    C5 6000   2.752   2.382  17.419 -0.0998 -0.2806 -0.1093
  398MPD2     H 6001   2.808   2.186  17.737  0.5295 -0.2423 -0.5019
  398MPD2    H1 6002   2.874   2.527  17.479 -3.4782  1.2328  1.3060
  398MPD2    H2 6003   2.641   2.213  17.350 -0.4706 -0.6964 -0.1750
  398MPD2    H3 6004   2.742   2.435  17.325 -0.6555  2.0453  1.2602
  398MPD2     N 6005   2.956   2.408  17.721 -0.0214  0.6160  0.3487
  398MPD2    H5 6006   2.982   2.349   0.051 -3.1011 -0.2328  0.7178
  398MPD2    N1 6007   2.656   2.056  17.576  0.1808 -0.7150  0.8182
  398MPD2    H7 6008   2.687   1.995  17.651  0.5889 -2.1224 -0.4830
  399TMC3    C1 6009   2.509   1.873  17.552 -0.5200 -0.1358  0.5013
  399TMC3    C2 6010   2.608   1.791  17.609 -0.5343 -0.5680 -0.4315
  399TMC3    C3 6011   2.565   1.675  17.667 -0.1874  0.3573  0.5813
  399TMC3    C4 6012   2.374   1.841  17.552  0.7543 -0.2839  0.3529
  399TMC3    C5 6013   2.342   1.721  17.611 -0.2387  0.4938  0.3077
  399TMC3    C6 6014   2.435   1.633  17.668  0.3088 -0.0334 -0.2572
  399TMC3     C 6015   2.546   2.001  17.506  0.9494 -0.0515 -0.0081
  399TMC3     O 6016   2.475   2.050  17.419  0.8856 -0.2571 -0.2806
  399TMC3     H 6017   2.712   1.819  17.595  0.3639 -3.4994  0.2776
  399TMC3    H1 6018   2.300   1.912  17.517  0.3274 -0.7365  0.3331
  399TMC3    H2 6019   2.404   1.532  17.694  2.0857 -0.0707  1.7120
  399TMC3    C7 6020   2.201   1.682  17.628 -0.7198  0.2292 -0.3183
  399TMC3    C8 6021   2.664   1.574  17.694 -0.2748  0.4893  0.0133
  399TMC3    O1 6022   2.179   1.585  17.698 -0.2251  0.1616  0.0037
  399TMC3    O2 6023   2.773   1.625  17.711  0.6685  0.6804 -0.0025
  400TMC3    C1 6024   1.256   0.311  16.602 -0.4812 -0.6797 -0.6525
  400TMC3    C2 6025   1.136   0.262  16.542  0.3964 -0.2019 -0.5554
  400TMC3    C3 6026   1.036   0.348  16.526 -0.0497  0.0638  0.1217
  400TMC3    C4 6027   1.272   0.442  16.638  0.5091 -0.1365 -0.0352
  400TMC3    C5 6028   1.168   0.526  16.607 -0.1197 -0.5391 -0.1907
  400TMC3    C6 6029   1.052   0.483  16.553  0.1322  0.0426  1.4579
  400TMC3     C 6030   1.349   0.212  16.660  0.4971  0.1577 -0.4347
  400TMC3     O 6031   1.306   0.096  16.665 -0.3808 -0.2318 -0.4250
  400TMC3     H 6032   1.123   0.155  16.530  0.6687 -0.1198 -1.5712
  400TMC3    H1 6033   1.365   0.483  16.677  0.5692  0.4524 -0.7903
  400TMC3    H2 6034   0.968   0.550  16.536 -0.1582 -0.9738 -1.1313
  400TMC3    C7 6035   1.174   0.667  16.638  0.4648 -0.6031 -0.2797
  400TMC3    C8 6036   0.923   0.307  16.439  0.7654 -0.2635  0.1059
  400TMC3    O1 6037   1.253   0.718  16.717  0.4308 -0.4450  0.2577
  400TMC3    O2 6038   0.837   0.397  16.441 -0.3561 -0.4157 -0.3457
  401MPD2     C 6039   4.344   4.162   0.715  0.0649  0.3592  0.2164
  401MPD2    C1 6040   4.455   4.084   0.741 -0.0669 -0.0537  0.4410
  401MPD2    C2 6041   4.447   3.953   0.716  0.1345 -0.1242  0.6588
  401MPD2    C3 6042   4.334   3.895   0.662 -0.1749  0.0047 -0.0628
  401MPD2    C4 6043   4.227   3.970   0.624 -0.5704 -0.0615 -0.7558
  401MPD2    C5 6044   4.229   4.108   0.657 -0.4127  0.2274  0.4246
  401MPD2     H 6045   4.537   3.895   0.730  0.2677 -0.4327 -1.4768
  401MPD2    H1 6046   4.140   3.938   0.568 -1.1028  0.9984 -0.5459
  401MPD2    H2 6047   4.338   4.269   0.736 -1.6988  0.2661  0.1639
  401MPD2    H3 6048   4.140   4.158   0.621 -2.2610 -1.2285  2.9278
  401MPD2     N 6049   4.337   3.748   0.637  0.0030  0.5352 -0.5091
  401MPD2    H5 6050   4.420   3.699   0.669 -0.1494 -0.1206 -1.1131
  401MPD2    N1 6051   4.570   4.136   0.790 -0.4326  0.0605  0.8306
  401MPD2    H7 6052   4.650   4.074   0.799 -1.2517 -0.8114  2.1682
  402TMC3    C1 6053   4.254   3.529   0.581 -0.1367 -0.4082 -0.3086
  402TMC3    C2 6054   4.284   3.489   0.709 -0.2234 -0.1249 -0.0787
  402TMC3    C3 6055   4.316   3.358   0.734  0.2751  0.4495  0.1597
  402TMC3    C4 6056   4.245   3.452   0.473  0.0637 -0.6789  0.5136
  402TMC3    C5 6057   4.295   3.329   0.495  0.1663  0.6389 -0.3087
  402TMC3    C6 6058   4.328   3.282   0.617  0.1915  0.0481  0.3995
  402TMC3     C 6059   4.240   3.679   0.572  0.1342 -0.7207  0.7887
  402TMC3     O 6060   4.141   3.714   0.512 -0.4801  0.2294 -0.7440
  402TMC3     H 6061   4.290   3.559   0.792 -0.8486  1.5683 -1.4838
  402TMC3    H1 6062   4.232   3.483   0.370 -0.8899  0.6640  1.0396
  402TMC3    H2 6063   4.362   3.180   0.628  0.7166  0.3000  1.0570
  402TMC3    C7 6064   4.351   3.252   0.390 -0.2639  0.4591  0.8220
  402TMC3    C8 6065   4.390   3.320   0.851 -0.0953  0.6257  0.4717
  402TMC3    O1 6066   4.279   3.210   0.299 -0.0177 -0.3640 -0.4293
  402TMC3    O2 6067   4.457   3.219   0.839 -0.2474  0.7334 -0.1164
  403MPD2     C 6068   2.538   1.774  13.067 -0.0094 -0.9530  0.0438
  403MPD2    C1 6069   2.496   1.780  13.199  0.2597 -0.2341  0.1181
  403MPD2    C2 6070   2.577   1.853  13.287  0.1823 -0.5397 -0.6259
  403MPD2    C3 6071   2.669   1.939  13.242 -0.3658 -0.1246 -0.3062
  403MPD2    C4 6072   2.701   1.931  13.103 -0.0034 -0.3074 -0.5150
  403MPD2    C5 6073   2.634   1.855  13.016 -0.4886  0.2652  0.1846
  403MPD2     H 6074   2.556   1.858  13.393 -1.2336 -0.4579 -0.9134
  403MPD2    H1 6075   2.785   1.984  13.059 -0.3409 -1.2053 -2.2698
  403MPD2    H2 6076   2.484   1.700  13.010 -2.0762  0.4500  0.1646
  403MPD2    H3 6077   2.655   1.857  12.909 -0.7078 -0.7375  0.1217
  403MPD2     N 6078   2.766   2.011  13.322  0.7652  0.3429 -0.5245
  403MPD2    H5 6079   2.808   2.096  13.285 -0.4151  1.3239  0.3798
  403MPD2    N1 6080   2.378   1.717  13.239 -0.1586  0.0608  0.2244
  403MPD2    H7 6081   2.330   1.674  13.160 -1.2316 -1.4692  1.6954
  404TMC3    C1 6082   2.177   1.677  13.345 -0.1695 -0.5014 -0.0668
  404TMC3    C2 6083   2.139   1.573  13.429 -0.2416 -0.2165 -0.1571
  404TMC3    C3 6084   2.048   1.481  13.394  0.3871 -0.5809 -0.9078
  404TMC3    C4 6085   2.135   1.674  13.212 -0.0026 -0.1536 -0.3817
  404TMC3    C5 6086   2.055   1.571  13.170 -0.0151  0.1680  0.6270
  404TMC3    C6 6087   2.015   1.473  13.258  0.1557  0.5701  0.3504
  404TMC3     C 6088   2.317   1.718  13.359  0.2390 -0.4573 -0.4769
  404TMC3     O 6089   2.364   1.740  13.471  0.0281  0.6796 -0.6005
  404TMC3     H 6090   2.185   1.564  13.527 -1.0350  0.8612  0.3194
  404TMC3    H1 6091   2.166   1.744  13.135 -0.1344 -1.7353 -1.8731
  404TMC3    H2 6092   1.949   1.395  13.224 -0.6338  1.3643  0.0565
  404TMC3    C7 6093   2.093   1.541  13.036 -0.2023 -0.4347  0.1719
  404TMC3    C8 6094   2.027   1.365  13.481  0.4686  0.2017 -0.0693
  404TMC3    O1 6095   2.208   1.571  13.005  0.2257 -0.0838 -0.2760
  404TMC3    O2 6096   2.007   1.255  13.432 -0.5938 -0.8712  0.4118
  405MPD2     C 6097   2.507   2.208  13.612 -0.1751 -0.2799 -0.4624
  405MPD2    C1 6098   2.544   2.296  13.513 -0.2322 -0.5002 -0.5641
  405MPD2    C2 6099   2.614   2.411  13.546  0.3849  0.6868 -0.0325
  405MPD2    C3 6100   2.620   2.450  13.678 -0.0879 -0.1633 -0.0053
  405MPD2    C4 6101   2.591   2.361  13.780 -0.3560  0.5745 -0.3333
  405MPD2    C5 6102   2.538   2.240  13.744  0.1365  0.1442  0.1547
  405MPD2     H 6103   2.660   2.469  13.467 -1.9721  1.3818 -0.8955
  405MPD2    H1 6104   2.601   2.375  13.887 -0.9744  0.5386 -0.2661
  405MPD2    H2 6105   2.458   2.113  13.595 -1.4501  0.2122  0.4963
  405MPD2    H3 6106   2.518   2.171  13.825 -2.2061  0.1885 -0.3782
  405MPD2     N 6107   2.666   2.581  13.696  0.2076  0.5345  0.5530
  405MPD2    H5 6108   2.686   2.631  13.610 -1.5214 -1.2675 -0.8986
  405MPD2    N1 6109   2.519   2.276  13.375 -0.2560 -0.2720 -0.5151
  405MPD2    H7 6110   2.554   2.347  13.311 -0.0095 -0.2501 -0.3577
  406TMC3    C1 6111   2.606   2.993  13.855 -0.3694  0.1982  0.3141
  406TMC3    C2 6112   2.636   3.048  13.732  0.2659 -0.0935  0.6131
  406TMC3    C3 6113   2.691   2.954  13.643  0.0399  0.1864  0.0067
  406TMC3    C4 6114   2.634   2.861  13.885  0.5990 -0.3286 -0.2973
  406TMC3    C5 6115   2.704   2.784  13.803  0.4269  0.6776  0.7094
  406TMC3    C6 6116   2.734   2.831  13.677  0.3587 -0.3449  0.3928
  406TMC3     C 6117   2.480   3.050  13.905  0.0490  0.0762 -0.3109
  406TMC3     O 6118   2.453   3.163  13.864 -0.4339 -0.0238 -0.0766
  406TMC3     H 6119   2.625   3.153  13.708 -1.4175 -0.5737 -0.6998
  406TMC3    H1 6120   2.605   2.821  13.982 -0.1433 -0.9654 -0.7755
  406TMC3    H2 6121   2.807   2.774  13.621 -0.8493 -1.7600  0.2813
  406TMC3    C7 6122   2.675   2.644  13.820 -0.8342 -1.3094 -0.0860
  406TMC3    C8 6123   2.693   2.984  13.500  0.0282  0.2137  0.5872
  406TMC3    O1 6124   2.644   2.610  13.934 -0.3119 -0.4599  0.1078
  406TMC3    O2 6125   2.680   3.104  13.467 -0.1148  0.7862  0.4742
  407MPD2     C 6126   0.536   3.784   9.492  0.1891  0.5334  0.3230
  407MPD2    C1 6127   0.670   3.801   9.531  0.3665 -0.7466  0.4092
  407MPD2    C2 6128   0.709   3.919   9.593 -0.3754 -0.0792  0.4029
  407MPD2    C3 6129   0.619   4.022   9.616 -0.2143 -0.2125 -0.3860
  407MPD2    C4 6130   0.490   4.010   9.574  0.0200 -0.5392  0.0948
  407MPD2    C5 6131   0.454   3.891   9.515 -0.5861  0.2274  0.5002
  407MPD2     H 6132   0.812   3.920   9.626  0.7688  0.6796 -3.2772
  407MPD2    H1 6133   0.416   4.089   9.581 -0.3591 -0.9377  0.6687
  407MPD2    H2 6134   0.484   3.699   9.449  0.4025 -0.0484  1.2195
  407MPD2    H3 6135   0.351   3.874   9.485 -0.5481 -1.3093  1.2551
  407MPD2     N 6136   0.649   4.154   9.680 -0.6333 -0.2923 -0.5138
  407MPD2    H5 6137   0.593   4.238   9.681  0.7524  0.6335  0.3401
  407MPD2    N1 6138   0.774   3.708   9.510  0.7240 -0.0957  0.1051
  407MPD2    H7 6139   0.871   3.736   9.526  0.3161  2.3079 -1.5004
  408TMC3    C1 6140   0.883   3.516   9.428  0.1419 -0.0747  0.4844
  408TMC3    C2 6141   0.996   3.584   9.398 -0.1302  0.2709 -0.6085
  408TMC3    C3 6142   1.106   3.505   9.364 -1.3197 -0.2032 -0.0709
  408TMC3    C4 6143   0.877   3.382   9.436 -0.3452 -0.6266 -0.1472
  408TMC3    C5 6144   0.994   3.315   9.406 -0.1558 -0.4503 -0.9182
  408TMC3    C6 6145   1.107   3.369   9.363 -1.3069 -0.2807  0.6084
  408TMC3     C 6146   0.755   3.581   9.457  0.6357 -0.0088 -0.1440
  408TMC3     O 6147   0.653   3.515   9.439 -0.0186 -0.1392  0.1573
  408TMC3     H 6148   0.996   3.692   9.388 -1.1490  0.3243 -0.0537
  408TMC3    H1 6149   0.789   3.335   9.479  0.0777  1.5895  3.1171
  408TMC3    H2 6150   1.199   3.312   9.359 -0.8075  0.6214 -0.7005
  408TMC3    C7 6151   0.993   3.168   9.432 -0.3968 -0.2745 -1.0052
  408TMC3    C8 6152   1.228   3.570   9.318 -0.0164 -0.1144 -0.2237
  408TMC3    O1 6153   0.911   3.128   9.514  0.5707  0.1989  0.4050
  408TMC3    O2 6154   1.323   3.501   9.291 -0.0736  0.7031 -0.4620
  409MPD2     C 6155   4.600   4.582  16.558  0.4061 -0.1120 -0.4831
  409MPD2    C1 6156   4.720   4.543  16.605 -0.0841 -0.2878 -0.0073
  409MPD2    C2 6157   0.086   4.628  16.617  0.0243 -0.3554  0.5859
  409MPD2    C3 6158   0.074   0.018  16.564 -0.0205  0.7455 -0.2224
  409MPD2    C4 6159   4.687   0.060  16.530 -0.0261  0.5612 -0.5998
  409MPD2    C5 6160   4.577   4.716  16.521 -0.6753  0.5168 -0.8896
  409MPD2     H 6161   0.181   4.594  16.655  0.4382 -0.3767 -0.4679
  409MPD2    H1 6162   4.664   0.163  16.501 -0.3253  0.6628  0.0084
  409MPD2    H2 6163   4.521   4.508  16.549  0.3967  0.0287 -1.5726
  409MPD2    H3 6164   4.478   0.014  16.495 -0.2904  1.3705 -1.1878
  409MPD2     N 6165   0.178   0.115  16.558 -0.0365  0.2062  0.1845
  409MPD2    H5 6166   0.146   0.208  16.531 -0.0480  0.7481  2.1219
  409MPD2    N1 6167   4.734   4.414  16.660 -0.2319  0.4614  0.1860
  409MPD2    H7 6168   0.093   4.385  16.675 -0.7705 -0.6027  1.6014
  410TMC3    C1 6169   0.386   0.221  16.567  0.6179  0.2769 -0.1786
  410TMC3    C2 6170   0.511   0.221  16.625  0.1249  0.1100  0.3523
  410TMC3    C3 6171   0.576   0.342  16.619  0.5618  0.1721  0.5793
  410TMC3    C4 6172   0.340   0.323  16.488 -0.7007  0.0233  0.0943
  410TMC3    C5 6173   0.417   0.437  16.481 -0.1937 -0.1954  0.3264
  410TMC3    C6 6174   0.541   0.450  16.541 -0.0027 -0.1029  0.3288
  410TMC3     C 6175   0.313   0.093  16.575 -0.2259  0.0156 -0.2409
  410TMC3     O 6176   0.375   4.736  16.620  0.3471 -0.7627  0.7780
  410TMC3     H 6177   0.544   0.138  16.686  0.2150  0.9116  1.3847
  410TMC3    H1 6178   0.257   0.318  16.419 -1.3129 -1.1796  0.9282
  410TMC3    H2 6179   0.591   0.546  16.548  1.1764 -0.6990  0.0051
  410TMC3    C7 6180   0.360   0.544  16.404 -0.1096 -0.2851  0.8339
  410TMC3    C8 6181   0.688   0.365  16.706  0.6276 -0.5662  0.0213
  410TMC3    O1 6182   0.239   0.542  16.385 -0.2718 -0.0671  0.2734
  410TMC3    O2 6183   0.725   0.475  16.736 -0.3146  0.6489  0.3391
  411MPD2     C 6184   0.568   1.478  14.396 -0.0197  0.4566  0.1127
  411MPD2    C1 6185   0.517   1.416  14.502 -0.1894 -0.4927  0.1451
  411MPD2    C2 6186   0.572   1.302  14.555 -0.2515 -0.0397  0.1049
  411MPD2    C3 6187   0.677   1.237  14.509 -0.4761 -0.9638  0.4215
  411MPD2    C4 6188   0.740   1.300  14.402 -0.0972 -0.5524  0.2848
  411MPD2    C5 6189   0.683   1.417  14.345  0.1010 -0.2344  0.8412
  411MPD2     H 6190   0.512   1.262  14.636 -0.4965  0.7149  0.3057
  411MPD2    H1 6191   0.812   1.238  14.350 -0.6952 -0.6934 -0.3801
  411MPD2    H2 6192   0.514   1.552  14.338 -0.1258 -0.4229 -0.9090
  411MPD2    H3 6193   0.715   1.447  14.246  0.5365  0.0089  1.0558
  411MPD2     N 6194   0.710   1.099  14.537 -0.2109  0.1999 -0.7178
  411MPD2    H5 6195   0.760   1.041  14.470  0.7552  1.2097 -0.8776
  411MPD2    N1 6196   0.395   1.471  14.552 -0.1437  0.8388  0.3564
  411MPD2    H7 6197   0.350   1.543  14.496 -1.4281 -0.5635 -0.4237
  412TMC3    C1 6198   0.687   0.897  14.657  0.0977 -0.2141 -0.3021
  412TMC3    C2 6199   0.595   0.837  14.735  0.2623 -0.2596  0.0087
  412TMC3    C3 6200   0.586   0.703  14.735 -0.6536 -0.2505 -0.6315
  412TMC3    C4 6201   0.783   0.833  14.579  0.5706 -0.2867 -0.4661
  412TMC3    C5 6202   0.779   0.701  14.595  0.1730 -0.8816 -0.2725
  412TMC3    C6 6203   0.673   0.636  14.655 -0.0809  0.3999  0.1268
  412TMC3     C 6204   0.675   1.038  14.651 -0.3028 -0.3961  0.4434
  412TMC3     O 6205   0.619   1.091  14.745  0.9244 -0.1076 -0.1108
  412TMC3     H 6206   0.508   0.895  14.764  0.7259  1.1042 -1.3513
  412TMC3    H1 6207   0.860   0.875  14.516  0.9079 -0.1620  0.0322
  412TMC3    H2 6208   0.656   0.531  14.637 -1.3422  0.5331  0.5198
  412TMC3    C7 6209   0.811   0.643  14.468  0.0744  0.2209  0.3429
  412TMC3    C8 6210   0.450   0.666  14.734  0.4417  0.5340 -0.1580
  412TMC3    O1 6211   0.889   0.549  14.466  0.5389  0.0545 -0.1378
  412TMC3    O2 6212   0.385   0.693  14.837 -0.2232 -0.6036 -0.1165
  413MPD2     C 6213   2.035   3.918  15.287 -0.5503 -0.4003  0.2367
  413MPD2    C1 6214   1.940   3.875  15.189  0.0497 -0.8212  0.0196
  413MPD2    C2 6215   1.982   3.788  15.094 -0.3706  0.8203 -0.0797
  413MPD2    C3 6216   2.113   3.735  15.095 -0.7108  0.2086  0.3347
  413MPD2    C4 6217   2.206   3.776  15.194 -0.0540 -0.6352  0.3119
  413MPD2    C5 6218   2.164   3.870  15.293 -0.2527 -0.3503  0.2441
  413MPD2     H 6219   1.919   3.741  15.020  0.9275  0.1636 -0.7804
  413MPD2    H1 6220   2.307   3.736  15.197  0.3423  0.1868 -1.8805
  413MPD2    H2 6221   2.004   3.989  15.362  1.3166  0.6844 -0.0173
  413MPD2    H3 6222   2.224   3.903  15.378  1.4190  0.7103 -1.3396
  413MPD2     N 6223   2.145   3.653  14.991 -0.0668 -0.1815 -0.9141
  413MPD2    H5 6224   2.081   3.637  14.914 -1.1006  0.7171 -0.2339
  413MPD2    N1 6225   1.806   3.913  15.195  0.4848 -0.1758  0.2041
  413MPD2    H7 6226   1.772   3.962  15.277  0.9962  0.4552  0.0406
  414TMC3    C1 6227   2.266   3.511  14.857 -0.0185 -0.8459 -0.1405
  414TMC3    C2 6228   2.335   3.396  14.876 -0.7553  0.1227  0.2550
  414TMC3    C3 6229   2.327   3.312  14.770 -0.4425  1.0848  0.0198
  414TMC3    C4 6230   2.214   3.557  14.737  0.2925 -0.9272 -0.5556
  414TMC3    C5 6231   2.214   3.467  14.640  0.0759  1.3687  0.1798
  414TMC3    C6 6232   2.251   3.339  14.661  0.2612  0.1362  0.2462
  414TMC3     C 6233   2.266   3.600  14.970  0.3011  0.2275  0.0703
  414TMC3     O 6234   2.368   3.598  15.039 -0.7726  0.4066 -0.2908
  414TMC3     H 6235   2.369   3.370  14.976 -3.4137 -0.7279  0.9334
  414TMC3    H1 6236   2.182   3.660  14.722 -1.1280 -1.1583  0.8322
  414TMC3    H2 6237   2.242   3.262  14.585 -2.1664  2.2958 -1.6337
  414TMC3    C7 6238   2.177   3.524  14.515 -0.0050 -0.0911  0.2199
  414TMC3    C8 6239   2.425   3.203  14.757 -0.0901 -0.4707  0.0366
  414TMC3    O1 6240   2.097   3.613  14.518 -0.8244  0.1413  0.4043
  414TMC3    O2 6241   2.403   3.119  14.671  0.5684  0.2092  0.2372
  415TMC3    C1 6242   2.802   2.018   9.984 -0.0717 -0.2591 -0.0224
  415TMC3    C2 6243   2.783   2.124   9.900  0.1555  0.5107 -1.0334
  415TMC3    C3 6244   2.677   2.115   9.819 -0.2414 -0.2902  0.0740
  415TMC3    C4 6245   2.718   1.911   9.994  0.1374 -0.5794  0.2695
  415TMC3    C5 6246   2.611   1.912   9.916 -0.2176  1.0019  0.3331
  415TMC3    C6 6247   2.578   2.018   9.839  0.1184  0.1024  0.3056
  415TMC3     C 6248   2.913   2.019  10.075 -0.3411 -0.8829 -0.3661
  415TMC3     O 6249   2.894   1.967  10.183 -0.1766 -0.2096 -0.1271
  415TMC3     H 6250   2.850   2.207   9.917  0.7668  0.5345 -3.6525
  415TMC3    H1 6251   2.747   1.822  10.047  0.3782  0.1307  1.3429
  415TMC3    H2 6252   2.491   2.018   9.773 -0.3843  0.1648  0.9729
  415TMC3    C7 6253   2.516   1.798   9.944 -0.5463 -0.4750  0.5795
  415TMC3    C8 6254   2.662   2.206   9.712  0.0877  0.3682  0.4567
  415TMC3    O1 6255   2.421   1.793   9.870 -0.4884  0.3926  0.3961
  415TMC3    O2 6256   2.551   2.227   9.665  0.6551  0.0104 -0.1725
  416MPD2     C 6257   3.934   0.311  11.812  0.1429 -0.2756  0.7365
  416MPD2    C1 6258   3.892   0.408  11.720  0.1739  0.2792 -0.1422
  416MPD2    C2 6259   3.941   0.396  11.588 -0.3119 -0.6398  1.1116
  416MPD2    C3 6260   4.028   0.289  11.553  0.3500  0.4065  0.9379
  416MPD2    C4 6261   4.069   0.205  11.649 -0.3536  0.3002  0.2196
  416MPD2    C5 6262   4.021   0.214  11.779  0.1528 -0.3587  0.8278
  416MPD2     H 6263   3.921   0.473  11.514 -0.0854 -0.0676  1.6486
  416MPD2    H1 6264   4.131   0.120  11.624 -3.6966 -2.4624  1.2774
  416MPD2    H2 6265   3.899   0.315  11.915 -1.5535  1.5832  0.0977
  416MPD2    H3 6266   4.048   0.143  11.856  3.3639  0.7910  0.7289
  416MPD2     N 6267   4.083   0.268  11.429 -0.3244  0.0884  0.0420
  416MPD2    H5 6268   4.142   0.186  11.421 -2.3288 -1.1582 -1.6435
  416MPD2    N1 6269   3.823   0.515  11.775  0.0606  0.2754 -0.7417
  416MPD2    H7 6270   3.812   0.524  11.876  1.7477 -0.1560 -0.5208
  417TMC3    C1 6271   3.763   0.738  11.782 -0.4843 -0.4360  0.7527
  417TMC3    C2 6272   3.815   0.750  11.906 -0.1695  0.4023  0.8932
  417TMC3    C3 6273   3.791   0.870  11.966 -0.1764 -0.5609  0.0996
  417TMC3    C4 6274   3.685   0.832  11.721 -0.1521 -0.2345  0.4421
  417TMC3    C5 6275   3.667   0.946  11.791  0.9141  0.2203  0.4021
  417TMC3    C6 6276   3.707   0.961  11.918 -0.4354  0.5736 -0.4666
  417TMC3     C 6277   3.792   0.629  11.704  0.3485 -0.3868  0.2966
  417TMC3     O 6278   3.801   0.652  11.589  0.4949 -0.2212  1.1262
  417TMC3     H 6279   3.896   0.690  11.943 -1.6421 -2.1404 -0.0040
  417TMC3    H1 6280   3.656   0.823  11.617  0.8957 -4.2026  0.4603
  417TMC3    H2 6281   3.698   1.059  11.963 -0.7617  0.7805 -0.9882
  417TMC3    C7 6282   3.608   1.058  11.723 -0.1176 -0.1385  0.1182
  417TMC3    C8 6283   3.837   0.887  12.102 -0.0206  0.0743 -0.4151
  417TMC3    O1 6284   3.638   1.169  11.763 -0.1387 -0.0420 -0.5812
  417TMC3    O2 6285   3.834   1.002  12.145 -0.3582 -0.2180  0.3075
  418TMC3    C1 6286   3.356   2.529   0.109  0.0104  0.1231  0.4233
  418TMC3    C2 6287   3.259   2.565   0.026  0.0044 -0.5696  0.1249
  418TMC3    C3 6288   3.127   2.539   0.062  0.3800  0.2247 -0.5916
  418TMC3    C4 6289   3.325   2.455   0.223  0.1305 -0.3267  0.0803
  418TMC3    C5 6290   3.200   2.427   0.246 -0.4814 -0.1565 -0.1913
  418TMC3    C6 6291   3.091   2.473   0.178 -0.5134 -0.6676 -0.6257
  418TMC3     C 6292   3.487   2.567   0.074  0.4204 -0.2996  0.0718
  418TMC3     O 6293   3.504   2.658   0.001 -0.2473  0.5206 -0.0072
  418TMC3     H 6294   3.273   2.635  17.691 -2.0253  0.5536  0.7185
  418TMC3    H1 6295   3.405   2.427   0.291 -0.4666 -0.2964  0.7832
  418TMC3    H2 6296   2.992   2.454   0.218 -0.8708  2.5454 -0.0088
  418TMC3    C7 6297   3.173   2.323   0.337 -1.0527 -1.2334  0.3070
  418TMC3    C8 6298   3.041   2.509  17.697 -0.4507  0.7706 -0.4993
  418TMC3    O1 6299   3.069   2.270   0.310  0.5014  0.2927 -0.0214
  418TMC3    O2 6300   3.069   2.568  17.592  0.1540  0.4286 -0.5126
  419MPD2     C 6301   1.802   0.485  12.504  0.2514 -0.3590  0.1393
  419MPD2    C1 6302   1.695   0.561  12.456  0.6115 -0.2438  0.4015
  419MPD2    C2 6303   1.616   0.630  12.544  0.1071 -0.2156 -0.7896
  419MPD2    C3 6304   1.642   0.630  12.677 -0.1149 -0.3210  0.5327
  419MPD2    C4 6305   1.744   0.547  12.731 -0.3902 -0.5565 -0.5096
  419MPD2    C5 6306   1.824   0.475  12.641 -0.0755  0.3427  0.8074
  419MPD2     H 6307   1.536   0.690  12.504  0.7409  0.6643 -0.7278
  419MPD2    H1 6308   1.784   0.539  12.831 -1.0121 -0.6772 -0.2719
  419MPD2    H2 6309   1.865   0.418  12.446  0.5566 -0.0871  0.1601
  419MPD2    H3 6310   1.897   0.407  12.682  1.6787  1.7238  0.0032
  419MPD2     N 6311   1.560   0.719  12.747  0.0673  0.0216  0.7719
  419MPD2    H5 6312   1.487   0.770  12.698  0.0415 -0.5577  0.2068
  419MPD2    N1 6313   1.669   0.573  12.313 -0.1918 -0.7626  0.5125
  419MPD2    H7 6314   1.585   0.627  12.291  0.0076 -0.1151  1.3280
  420TMC3    C1 6315   1.475   0.824  12.934  0.5709  0.0815 -0.7087
  420TMC3    C2 6316   1.346   0.804  12.906  0.0529 -0.1166 -0.5928
  420TMC3    C3 6317   1.248   0.876  12.971  0.8631  0.1563 -0.0869
  420TMC3    C4 6318   1.507   0.911  13.038  0.1692 -0.2779 -0.3910
  420TMC3    C5 6319   1.411   0.977  13.108 -0.0908 -0.6006 -0.4270
  420TMC3    C6 6320   1.283   0.954  13.074 -0.3402  0.3706 -0.4190
  420TMC3     C 6321   1.580   0.745  12.877 -0.3752 -0.0483  0.2795
  420TMC3     O 6322   1.672   0.720  12.954  0.3399 -0.0925 -0.0240
  420TMC3     H 6323   1.304   0.736  12.833  0.5307 -3.7607  2.5119
  420TMC3    H1 6324   1.612   0.920  13.061  0.0213 -0.5937  0.4180
  420TMC3    H2 6325   1.197   1.000  13.122 -2.0253 -1.8338 -1.2949
  420TMC3    C7 6326   1.441   0.966  13.249 -0.8488 -0.1392  0.4694
  420TMC3    C8 6327   1.131   0.901  12.887 -0.0951 -0.2921 -0.8093
  420TMC3    O1 6328   1.533   0.887  13.277 -0.2949  0.3782  0.4054
  420TMC3    O2 6329   1.087   0.807  12.825  0.3890 -0.2523 -0.4281
  421TMC3    C1 6330   2.852   2.083  13.536  0.2479  0.1461  0.1745
  421TMC3    C2 6331   2.873   2.207  13.484 -0.3479  0.0585  0.1188
  421TMC3    C3 6332   2.943   2.292  13.562  0.1968  0.0300  0.3178
  421TMC3    C4 6333   2.876   2.049  13.664 -0.4954 -0.4143  0.9173
  421TMC3    C5 6334   2.948   2.141  13.741 -0.2680 -0.5657 -0.3877
  421TMC3    C6 6335   2.980   2.266  13.692  0.3571 -0.6679 -0.2462
  421TMC3     C 6336   2.788   1.979  13.455 -0.2163 -0.3298 -0.3652
  421TMC3     O 6337   2.759   1.875  13.508  0.4335 -0.2484 -0.6232
  421TMC3     H 6338   2.825   2.243  13.394 -2.5764 -1.6854  0.5946
  421TMC3    H1 6339   2.857   1.948  13.699 -0.4685 -0.6967  0.1285
  421TMC3    H2 6340   3.054   2.330  13.739 -0.0722 -1.0717  0.9948
  421TMC3    C7 6341   3.052   2.084  13.824  0.3497 -0.2146 -0.6174
  421TMC3    C8 6342   2.978   2.419  13.503  0.8032 -0.4118  0.2427
  421TMC3    O1 6343   3.149   2.158  13.840 -0.5056  0.4512 -0.2241
  421TMC3    O2 6344   3.019   2.506  13.578 -0.7504 -0.4810  0.7437
  422TMC3    C1 6345   0.845   3.758  12.254 -0.0215  0.0959 -0.0472
  422TMC3    C2 6346   0.812   3.867  12.323 -0.2249 -0.0690  0.1829
  422TMC3    C3 6347   0.682   3.902  12.335  0.2474 -0.2969 -0.1042
  422TMC3    C4 6348   0.757   3.683  12.183  0.1293  0.6551 -0.0148
  422TMC3    C5 6349   0.628   3.712  12.206 -0.3120 -1.2955 -0.1414
  422TMC3    C6 6350   0.586   3.822  12.277  0.1292  0.2083  0.1248
  422TMC3     C 6351   0.982   3.711  12.287 -0.0853 -1.0080  0.5548
  422TMC3     O 6352   1.043   3.747  12.389 -0.3268  0.4130 -0.0897
  422TMC3     H 6353   0.887   3.934  12.366  0.0991 -1.1827  1.3548
  422TMC3    H1 6354   0.787   3.592  12.133  0.5292  1.5872 -1.4779
  422TMC3    H2 6355   0.480   3.848  12.280  0.2425  0.4726  1.7129
  422TMC3    C7 6356   0.536   3.601  12.177 -0.2607  0.1677 -0.4648
  422TMC3    C8 6357   0.647   4.017  12.423 -0.5028  0.4275 -0.2903
  422TMC3    O1 6358   0.549   3.530  12.076  0.1428 -0.3591  0.3018
  422TMC3    O2 6359   0.737   4.095  12.449  0.1153 -0.3624 -0.0199
  423MPD2     C 6360   2.298   4.462   0.329  0.6467 -0.0492 -0.0939
  423MPD2    C1 6361   2.334   4.331   0.353 -0.1165  0.3845  0.5830
  423MPD2    C2 6362   2.364   4.253   0.247  1.2872  0.0538  0.3539
  423MPD2    C3 6363   2.340   4.294   0.118 -0.3338 -0.8083  0.3811
  423MPD2    C4 6364   2.297   4.420   0.095 -0.2005  0.3500  0.1073
  423MPD2    C5 6365   2.283   4.502   0.200 -0.2765 -0.0622 -0.0715
  423MPD2     H 6366   2.405   4.157   0.274  0.7487 -0.0837  0.6791
  423MPD2    H1 6367   2.279   4.461  17.743  1.7082  2.6808  0.7194
  423MPD2    H2 6368   2.304   4.537   0.408  1.1043 -0.0443 -0.1362
  423MPD2    H3 6369   2.264   4.607   0.182 -2.0136 -0.9101 -3.1574
  423MPD2     N 6370   2.369   4.216  17.747 -0.6293  0.3515 -0.3467
  423MPD2    H5 6371   2.371   4.256  17.654 -0.8569  1.5401  0.1621
  423MPD2    N1 6372   2.369   4.298   0.485 -0.2644  0.2817 -0.0954
  423MPD2    H7 6373   2.407   4.204   0.497 -0.0189  0.2662 -0.9887
  424TMC3    C1 6374   2.362   4.298   0.716 -0.2670 -0.5238 -0.0976
  424TMC3    C2 6375   2.469   4.222   0.721 -0.7418 -0.4829 -0.5936
  424TMC3    C3 6376   2.480   4.137   0.826 -0.1482 -0.6008  0.6242
  424TMC3    C4 6377   2.281   4.308   0.824  0.0707  0.0294 -0.6353
  424TMC3    C5 6378   2.301   4.229   0.934  0.2967 -0.7019 -0.6819
  424TMC3    C6 6379   2.399   4.138   0.936 -0.1852  0.2904  0.0634
  424TMC3     C 6380   2.321   4.363   0.594 -0.6855 -0.3682  0.2389
  424TMC3     O 6381   2.239   4.452   0.607  0.0228  0.1365 -0.1746
  424TMC3     H 6382   2.531   4.218   0.632 -0.3776  1.5560 -0.4136
  424TMC3    H1 6383   2.211   4.391   0.826  1.6791  1.4004 -1.2992
  424TMC3    H2 6384   2.420   4.073   1.020  1.2655 -1.0776 -1.3538
  424TMC3    C7 6385   2.211   4.245   1.045  0.2956 -0.1039 -0.0561
  424TMC3    C8 6386   2.583   4.035   0.834  0.5512  0.1880  0.6944
  424TMC3    O1 6387   2.253   4.203   1.150  0.1779 -0.5702 -0.0318
  424TMC3    O2 6388   2.567   3.954   0.920  0.0803 -0.6423 -0.0675
  425MPD2     C 6389   1.063   3.706  17.056  0.3118 -0.2769 -0.9816
  425MPD2    C1 6390   0.992   3.585  17.070 -0.5869  0.7857  0.1330
  425MPD2    C2 6391   0.854   3.593  17.099  0.0842 -0.2873  0.5650
  425MPD2    C3 6392   0.795   3.714  17.114 -0.0804  0.1597  0.5392
  425MPD2    C4 6393   0.864   3.833  17.094  0.0847 -0.0598 -0.6979
  425MPD2    C5 6394   1.002   3.829  17.067 -0.2152 -0.1520 -0.3758
  425MPD2     H 6395   0.795   3.502  17.099  2.1969 -1.6548 -0.1657
  425MPD2    H1 6396   0.815   3.928  17.111  2.0474  0.3347  2.7615
  425MPD2    H2 6397   1.167   3.705  17.024  0.4371  0.8173 -0.6163
  425MPD2    H3 6398   1.051   3.925  17.054 -1.1650  0.3886 -0.0022
  425MPD2     N 6399   0.662   3.702  17.155  0.0361 -0.3530  0.0706
  425MPD2    H5 6400   0.628   3.607  17.168 -0.8413 -0.1530 -0.7473
  425MPD2    N1 6401   1.064   3.463  17.044  0.0553 -0.1815  0.5202
  425MPD2    H7 6402   1.163   3.467  17.020 -0.1781 -2.3075 -0.7172
  426TMC3    C1 6403   1.109   3.225  17.039  0.4305 -0.6211 -0.0883
  426TMC3    C2 6404   1.142   3.221  16.909 -0.0446  0.6227 -0.4558
  426TMC3    C3 6405   1.156   3.104  16.837  0.0274  0.3340  0.6580
  426TMC3    C4 6406   1.071   3.110  17.099  0.3275  0.5476  0.3003
  426TMC3    C5 6407   1.075   2.991  17.034  0.2601 -0.2952 -0.0277
  426TMC3    C6 6408   1.104   2.994  16.900 -0.0785  0.0647  0.2289
  426TMC3     C 6409   1.022   3.333  17.068 -0.8479  0.3111 -0.0680
  426TMC3     O 6410   0.923   3.299  17.129  0.1257 -0.3789 -0.0482
  426TMC3     H 6411   1.175   3.313  16.864 -0.0972  0.8137 -0.1033
  426TMC3    H1 6412   1.058   3.119  17.207  1.1666 -1.1873  0.5407
  426TMC3    H2 6413   1.108   2.901  16.845  1.7270  0.4038 -0.1956
  426TMC3    C7 6414   0.971   2.903  17.070 -0.8212  0.4646 -0.5408
  426TMC3    C8 6415   1.144   3.107  16.696 -0.1888 -0.3918 -0.2582
  426TMC3    O1 6416   0.993   2.783  17.044 -0.5901 -0.3167 -0.5662
  426TMC3    O2 6417   1.165   3.003  16.636  0.3209  0.1549  0.6978
  427MPD2     C 6418   4.445   1.181  14.603 -0.2088  0.2141 -0.2047
  427MPD2    C1 6419   4.419   1.060  14.668  0.0976  0.3417  0.1971
  427MPD2    C2 6420   4.292   1.011  14.667 -0.3992  0.1188 -0.7003
  427MPD2    C3 6421   4.192   1.095  14.602  0.1082  0.2219 -0.3357
  427MPD2    C4 6422   4.227   1.216  14.538 -0.7635  1.2055 -0.1557
  427MPD2    C5 6423   4.352   1.254  14.535 -0.2550  0.8327  0.6128
  427MPD2     H 6424   4.273   0.914  14.710  1.1209  0.5501  0.9370
  427MPD2    H1 6425   4.150   1.280  14.496 -2.3180  0.5410  1.6792
  427MPD2    H2 6426   4.550   1.204  14.587 -0.1522 -1.3840 -2.0370
  427MPD2    H3 6427   4.382   1.343  14.480  0.5729 -0.2712 -0.7017
  427MPD2     N 6428   4.053   1.057  14.593 -0.5727  0.5079  0.7808
  427MPD2    H5 6429   3.984   1.129  14.577 -2.2001 -1.0768  0.6638
  427MPD2    N1 6430   4.514   0.975  14.728  0.0243 -0.7620  0.6778
  427MPD2    H7 6431   4.476   0.897  14.780 -0.3382 -1.4039 -0.5553
  428TMC3    C1 6432   4.710   0.919  14.837 -0.8601  0.3776 -0.5842
  428TMC3    C2 6433   4.660   0.798  14.864 -0.7022 -0.1088  0.0941
  428TMC3    C3 6434   4.734   0.710  14.940 -0.3313  0.1409  0.7432
  428TMC3    C4 6435   0.083   0.968  14.895 -0.4925 -0.0000 -0.6343
  428TMC3    C5 6436   0.150   0.882  14.987 -0.1306 -0.1193  0.2574
  428TMC3    C6 6437   0.107   0.752  15.007 -0.6367  0.1413 -0.6610
  428TMC3     C 6438   4.649   1.010  14.745  0.1980  0.5191  0.0419
  428TMC3     O 6439   4.711   1.108  14.708  0.6798 -0.5064  0.1951
  428TMC3     H 6440   4.569   0.763  14.818 -0.2077 -0.6654 -0.4717
  428TMC3    H1 6441   0.122   1.069  14.883 -1.0894  0.6641  2.8067
  428TMC3    H2 6442   0.176   0.684  15.055 -1.4068 -0.2001 -0.0331
  428TMC3    C7 6443   0.241   0.922  15.092  0.0135 -0.3544 -0.1299
  428TMC3    C8 6444   4.641   0.634  15.030  0.1773 -0.0445 -0.4154
  428TMC3    O1 6445   0.234   0.863  15.197 -0.3199 -0.3334 -0.2137
  428TMC3    O2 6446   4.532   0.590  14.989  0.6428  0.1337  0.2345
  429MPD2     C 6447   0.412   0.802  17.408  0.3716  0.3171 -0.4304
  429MPD2    C1 6448   0.509   0.743  17.331  0.4642 -0.5386 -0.2182
  429MPD2    C2 6449   0.603   0.826  17.280  0.1992 -0.3372  1.0525
  429MPD2    C3 6450   0.596   0.965  17.297  0.5158 -0.9883 -0.0833
  429MPD2    C4 6451   0.498   1.019  17.370  0.0215 -0.2073 -0.2919
  429MPD2    C5 6452   0.405   0.932  17.427  0.7380  0.1127 -0.1718
  429MPD2     H 6453   0.688   0.790  17.223  0.7711  1.2744  0.9067
  429MPD2    H1 6454   0.494   1.124  17.396  1.9016 -0.5472  1.4375
  429MPD2    H2 6455   0.339   0.746  17.467 -0.2466  0.5163 -1.0061
  429MPD2    H3 6456   0.328   0.974  17.491 -0.4396  0.4502 -1.8187
  429MPD2     N 6457   0.692   1.041  17.232 -0.3090  0.3574  0.0031
  429MPD2    H5 6458   0.758   0.981  17.183 -1.9926 -1.1532 -0.4126
  429MPD2    N1 6459   0.514   0.599  17.315  0.0095 -0.7747 -0.6487
  429MPD2    H7 6460   0.604   0.556  17.297  0.9702  0.7717  0.4044
  430TMC3    C1 6461   0.813   1.235  17.150 -0.5296  0.2946  0.7287
  430TMC3    C2 6462   0.804   1.365  17.112  0.2080  0.7048 -0.4343
  430TMC3    C3 6463   0.887   1.410  17.020 -0.2417  0.2453 -0.5306
  430TMC3    C4 6464   0.907   1.151  17.100  0.5487 -0.1743 -0.5982
  430TMC3    C5 6465   0.995   1.205  17.006  0.2775  0.2564 -0.0465
  430TMC3    C6 6466   0.973   1.328  16.951  0.5779 -0.1674  0.0571
  430TMC3     C 6467   0.700   1.182  17.219  0.9062 -0.3818  1.5403
  430TMC3     O 6468   0.625   1.267  17.265  0.1620 -0.4617  0.6451
  430TMC3     H 6469   0.758   1.437  17.178  2.3812  1.3609  0.3910
  430TMC3    H1 6470   0.908   1.050  17.138 -2.0092  0.1703  0.3681
  430TMC3    H2 6471   1.037   1.369  16.873 -0.3028 -0.5794 -0.8703
  430TMC3    C7 6472   1.048   1.100  16.917 -0.7993  0.1969 -0.5166
  430TMC3    C8 6473   0.839   1.522  16.949  0.4147 -0.0856  0.1483
  430TMC3    O1 6474   1.039   0.986  16.963  0.3529  0.3150  0.7659
  430TMC3    O2 6475   0.802   1.620  17.019 -0.4467  0.3637 -0.1609
  431MPD2     C 6476   1.161   0.995  12.402 -0.1836  0.2163  0.1630
  431MPD2    C1 6477   1.235   1.043  12.299  0.0415  0.7579  0.2144
  431MPD2    C2 6478   1.292   0.959  12.211 -0.3626  0.8880  0.2328
  431MPD2    C3 6479   1.283   0.818  12.222  0.0124  0.7104  0.3512
  431MPD2    C4 6480   1.210   0.771  12.326  0.0573 -0.2317 -0.8485
  431MPD2    C5 6481   1.142   0.860  12.409  0.2116  0.2715 -0.5046
  431MPD2     H 6482   1.355   1.000  12.133 -0.1661 -1.2352 -0.7322
  431MPD2    H1 6483   1.182   0.667  12.340  2.0119 -1.0099 -2.8417
  431MPD2    H2 6484   1.112   1.056  12.477 -0.6412  0.2688 -0.1784
  431MPD2    H3 6485   1.078   0.820  12.488  0.7026  0.0159 -0.2380
  431MPD2     N 6486   1.345   0.723  12.139  0.0534 -0.3487 -0.0207
  431MPD2    H5 6487   1.317   0.626  12.150  0.9800 -0.5904  0.1695
  431MPD2    N1 6488   1.268   1.179  12.289 -0.0527 -0.1420 -0.2952
  431MPD2    H7 6489   1.337   1.214  12.224 -3.1081  0.8914 -2.9598
  432TMC3    C1 6490   1.502   0.641  11.987 -0.9482  0.4282 -0.5370
  432TMC3    C2 6491   1.579   0.667  11.879 -0.1720 -0.6624  0.6105
  432TMC3    C3 6492   1.706   0.627  11.878  0.1683 -0.9817 -0.2337
  432TMC3    C4 6493   1.550   0.576  12.091  0.1747  0.3778  0.4809
  432TMC3    C5 6494   1.685   0.543  12.091  0.0448  0.1941  0.5720
  432TMC3    C6 6495   1.766   0.562  11.985 -0.0306  0.0958 -0.3558
  432TMC3     C 6496   1.423   0.755  12.031 -0.3457 -0.1110  0.2114
  432TMC3     O 6497   1.430   0.861  11.966 -0.0020  1.2804  0.0034
  432TMC3     H 6498   1.536   0.729  11.802 -1.2901  1.6000  3.0398
  432TMC3    H1 6499   1.485   0.536  12.169 -1.0650  1.2740 -0.0948
  432TMC3    H2 6500   1.869   0.530  11.989 -0.8917 -2.3270  2.0711
  432TMC3    C7 6501   1.745   0.507  12.219  0.0493 -0.3496  0.3543
  432TMC3    C8 6502   1.795   0.691  11.786  0.3027 -0.1869 -0.0541
  432TMC3    O1 6503   1.851   0.441  12.214  0.0924 -0.5154  0.3829
  432TMC3    O2 6504   1.754   0.745  11.684 -0.8952  0.1749  0.3153
  433MPD2     C 6505   0.521   4.300  10.037 -0.5688  0.7968  0.3807
  433MPD2    C1 6506   0.585   4.234  10.142  0.2601  0.8245 -0.2928
  433MPD2    C2 6507   0.581   4.290  10.275  0.4361  0.0012 -0.1114
  433MPD2    C3 6508   0.511   4.410  10.300 -0.3107  0.8294 -0.1906
  433MPD2    C4 6509   0.444   4.472  10.191  0.0983 -0.1054 -0.1864
  433MPD2    C5 6510   0.443   4.411  10.068 -0.3540 -0.2649 -0.8586
  433MPD2     H 6511   0.636   4.250  10.360  1.0615 -0.3094 -0.6573
  433MPD2    H1 6512   0.379   4.558  10.198 -0.9452 -0.9424  0.5559
  433MPD2    H2 6513   0.522   4.269   9.933  0.2329  2.2358 -0.0458
  433MPD2    H3 6514   0.398   4.473   9.990 -0.8916  1.9430  1.2069
  433MPD2     N 6515   0.510   4.464  10.435  1.0257 -0.2798  0.0436
  433MPD2    H5 6516   0.488   4.561  10.453 -2.8302 -1.1994  0.3318
  433MPD2    N1 6517   0.641   4.105  10.125 -0.2327  0.1545 -0.2503
  433MPD2    H7 6518   0.593   4.045  10.058 -0.2926  0.3785 -0.4112
  434TMC3    C1 6519   0.731   3.915  10.233  0.0109 -0.4522 -0.3165
  434TMC3    C2 6520   0.802   3.871  10.345 -0.2855  0.2846  0.3079
  434TMC3    C3 6521   0.789   3.737  10.372 -0.0526  0.6318  0.2591
  434TMC3    C4 6522   0.653   3.838  10.149  0.6943 -0.7472 -0.2534
  434TMC3    C5 6523   0.642   3.713  10.192 -0.0355  0.2507 -0.0445
  434TMC3    C6 6524   0.704   3.663  10.304  0.2399 -0.1207 -0.1886
  434TMC3     C 6525   0.740   4.059  10.208  0.0004  0.6090 -0.3148
  434TMC3     O 6526   0.808   4.128  10.284 -0.3410 -0.1253  0.3455
  434TMC3     H 6527   0.848   3.939  10.416  2.7132  0.5273 -1.8835
  434TMC3    H1 6528   0.595   3.880  10.067 -1.5673 -0.5161  1.4658
  434TMC3    H2 6529   0.677   3.566  10.343 -0.4882  0.2719  0.2916
  434TMC3    C7 6530   0.538   3.637  10.117  0.7668  0.7370  0.8367
  434TMC3    C8 6531   0.837   3.695  10.502 -0.2505 -0.2979 -0.4714
  434TMC3    O1 6532   0.471   3.698  10.036  0.1184  0.2267 -0.6980
  434TMC3    O2 6533   0.887   3.775  10.581 -0.3521 -0.0375  0.0399
  435MPD2     C 6534   2.807   4.551  15.234 -0.2100  0.2661  0.2789
  435MPD2    C1 6535   2.712   4.497  15.322 -0.2644  0.6625  0.4885
  435MPD2    C2 6536   2.745   4.377  15.387 -0.7002 -0.0962 -0.4987
  435MPD2    C3 6537   2.860   4.300  15.353  0.1629 -0.6384  0.7066
  435MPD2    C4 6538   2.946   4.357  15.265  0.2773  0.0823  0.0661
  435MPD2    C5 6539   2.919   4.482  15.207 -0.3833 -0.0070 -0.5563
  435MPD2     H 6540   2.666   4.337  15.450  0.9541 -0.4240  1.3663
  435MPD2    H1 6541   3.035   4.307  15.229 -0.1660 -1.8192  1.6376
  435MPD2    H2 6542   2.790   4.646  15.184  1.2403  1.0392  1.2609
  435MPD2    H3 6543   2.997   4.515  15.139 -1.9268  0.4080 -2.1170
  435MPD2     N 6544   2.885   4.166  15.403  0.4955 -0.4895 -0.0737
  435MPD2    H5 6545   2.816   4.129  15.468 -1.4335  2.9265 -0.1469
  435MPD2    N1 6546   2.600   4.561  15.367  0.4028  0.7243  0.2337
  435MPD2    H7 6547   2.549   4.525  15.447 -1.3051 -1.3732 -1.8079
  436TMC3    C1 6548   2.302   4.711  15.572  0.1060  0.5233  0.2980
  436TMC3    C2 6549   2.428   4.709  15.521  0.4003 -0.1573  0.2698
  436TMC3    C3 6550   2.439   0.001  15.388 -0.0447 -0.4301  0.0431
  436TMC3    C4 6551   2.194   4.722  15.494  1.1103  0.2194 -0.6023
  436TMC3    C5 6552   2.203   0.011  15.361 -0.5422  0.2599 -0.0713
  436TMC3    C6 6553   2.329   0.012  15.303 -0.2753 -0.8692  0.2270
  436TMC3     C 6554   2.287   4.668  15.706  0.2295 -0.4242 -0.1356
  436TMC3     O 6555   2.384   4.618  15.763 -0.8364  0.1303  0.0834
  436TMC3     H 6556   2.508   4.695  15.592  0.4995 -3.7432 -0.5302
  436TMC3    H1 6557   2.099   4.687  15.531  0.5761 -0.3915 -2.5271
  436TMC3    H2 6558   2.342   4.735  15.196  0.2748 -0.7667  0.2810
  436TMC3    C7 6559   2.089   0.001  15.277  0.5267 -0.3203  0.0165
  436TMC3    C8 6560   2.564   4.687  15.319 -1.1240 -0.2185 -0.6121
  436TMC3    O1 6561   1.978   4.715  15.327  0.3645 -0.3791 -0.4580
  436TMC3    O2 6562   2.591   0.009  15.216  0.0022  0.1741 -0.1429
  437TMC3    C1 6563   1.760   1.722  11.507  0.0522  0.1195 -0.0421
  437TMC3    C2 6564   1.813   1.647  11.405 -0.2440 -0.4326 -0.2351
  437TMC3    C3 6565   1.923   1.573  11.436 -0.2156 -0.0210 -0.0712
  437TMC3    C4 6566   1.822   1.730  11.632  0.3381  0.1465  0.3469
  437TMC3    C5 6567   1.937   1.660  11.648 -0.5267  0.4056 -0.4016
  437TMC3    C6 6568   1.988   1.576  11.555  0.5722  0.1211  0.4024
  437TMC3     C 6569   1.707   1.852  11.476  0.5226  0.2476  0.6110
  437TMC3     O 6570   1.610   1.887  11.547  0.4327  0.6086  0.4278
  437TMC3     H 6571   1.763   1.643  11.309 -1.6455 -2.0713  0.5736
  437TMC3    H1 6572   1.790   1.806  11.703  2.1832 -0.3170  1.6855
  437TMC3    H2 6573   2.086   1.531  11.563  0.2165 -0.6287  0.5081
  437TMC3    C7 6574   2.039   1.719  11.727 -0.3210  0.1633 -0.0898
  437TMC3    C8 6575   1.971   1.468  11.352  0.2624 -0.2359 -0.1052
  437TMC3    O1 6576   2.155   1.712  11.687 -0.0949 -0.5194  0.3268
  437TMC3    O2 6577   2.047   1.389  11.407  0.3709 -0.4085 -0.0884
  438MPD2     C 6578   3.343   2.204  16.365  0.2074 -0.2761  0.0364
  438MPD2    C1 6579   3.408   2.118  16.448 -0.1693  0.0359  0.8917
  438MPD2    C2 6580   3.425   2.146  16.583 -0.6878  0.4537 -0.2629
  438MPD2    C3 6581   3.372   2.261  16.637  0.3847 -0.2840 -0.2384
  438MPD2    C4 6582   3.309   2.355  16.551  0.1797 -0.4715  0.3345
  438MPD2    C5 6583   3.298   2.322  16.423  0.1959 -1.0490  0.5845
  438MPD2     H 6584   3.470   2.081  16.657  1.6499 -0.0789 -2.1401
  438MPD2    H1 6585   3.281   2.458  16.573 -0.2569 -0.2900 -1.0455
  438MPD2    H2 6586   3.331   2.182  16.259 -1.1644 -0.5115  0.2438
  438MPD2    H3 6587   3.252   2.393  16.355 -0.8573 -0.6528  1.7138
  438MPD2     N 6588   3.396   2.287  16.775  0.6802 -0.3685 -0.7117
  438MPD2    H5 6589   3.446   2.213  16.824 -2.2639 -1.7199  0.1886
  438MPD2    N1 6590   3.463   2.003  16.403 -0.6781 -0.2459  0.5375
  438MPD2    H7 6591   3.516   1.945  16.468  1.8415  2.5505  0.9524
  439TMC3    C1 6592   3.549   1.846  16.259  0.3289  0.2113 -0.0451
  439TMC3    C2 6593   3.525   1.752  16.168 -0.0711  0.0138 -0.3724
  439TMC3    C3 6594   3.617   1.656  16.145 -0.3323  0.5819 -0.6760
  439TMC3    C4 6595   3.650   1.832  16.352 -0.1341  0.2695  0.5407
  439TMC3    C5 6596   3.732   1.725  16.335 -1.0215 -0.0674 -0.8511
  439TMC3    C6 6597   3.713   1.633  16.239  0.9588 -0.0773  0.5968
  439TMC3     C 6598   3.454   1.950  16.273  0.1493  0.4313  0.5963
  439TMC3     O 6599   3.393   1.988  16.177  0.1498  0.2005 -0.0992
  439TMC3     H 6600   3.445   1.760  16.095  1.0822  1.5346 -1.4740
  439TMC3    H1 6601   3.695   1.913  16.407  0.2377  1.6725 -1.7932
  439TMC3    H2 6602   3.792   1.560  16.229  0.3833 -0.4650 -1.1746
  439TMC3    C7 6603   3.844   1.698  16.427  0.0866 -0.4604 -0.0053
  439TMC3    C8 6604   3.668   1.633  16.013  0.6941  0.0281  0.4533
  439TMC3    O1 6605   3.935   1.621  16.401 -0.4243 -0.0746 -0.1735
  439TMC3    O2 6606   3.759   1.549  15.997  0.2152 -0.0034  0.0994
  440MPD2     C 6607   1.912   2.558  14.545 -0.2182  0.7264 -0.2954
  440MPD2    C1 6608   2.003   2.660  14.538  0.0595 -0.0402  0.3674
  440MPD2    C2 6609   2.141   2.640  14.564 -0.6222  0.2474 -0.1308
  440MPD2    C3 6610   2.190   2.511  14.572  0.2544  0.2393 -0.3327
  440MPD2    C4 6611   2.101   2.402  14.570  0.5922  0.0633 -0.1123
  440MPD2    C5 6612   1.964   2.428  14.562 -0.4535 -0.0756 -0.8452
  440MPD2     H 6613   2.198   2.730  14.582 -0.7989 -0.0940  2.1225
  440MPD2    H1 6614   2.129   2.298  14.582  0.9346  0.0270 -1.2754
  440MPD2    H2 6615   1.804   2.563  14.542 -0.1117  1.3093 -3.1044
  440MPD2    H3 6616   1.901   2.340  14.569  1.6586 -1.5796 -0.7072
  440MPD2     N 6617   2.327   2.482  14.596 -0.0864  0.3995  0.4027
  440MPD2    H5 6618   2.356   2.385  14.601 -1.0059 -0.0047 -1.9630
  440MPD2    N1 6619   1.951   2.789  14.527 -0.5277  0.1440 -0.4091
  440MPD2    H7 6620   2.016   2.865  14.544 -0.3087  0.2750 -1.8172
  441TMC3    C1 6621   2.561   2.521  14.630  0.4566 -1.0327  0.5882
  441TMC3    C2 6622   2.657   2.612  14.615  0.5075 -0.3847  0.2685
  441TMC3    C3 6623   2.781   2.586  14.662 -0.1634  0.0484 -0.3601
  441TMC3    C4 6624   2.577   2.426  14.724 -0.1758 -0.0760  0.0252
  441TMC3    C5 6625   2.698   2.410  14.781  0.2818 -0.4490  0.3414
  441TMC3    C6 6626   2.804   2.489  14.748 -0.7164 -0.1474  0.5667
  441TMC3     C 6627   2.428   2.579  14.617  0.6536  0.2384  0.2389
  441TMC3     O 6628   2.431   2.704  14.609  0.2404  0.6953 -0.0564
  441TMC3     H 6629   2.651   2.687  14.538 -1.4245 -1.5473 -0.7153
  441TMC3    H1 6630   2.496   2.357  14.743  0.3042  0.2029  3.0739
  441TMC3    H2 6631   2.896   2.483  14.805 -0.3943 -0.4721  0.0069
  441TMC3    C7 6632   2.702   2.311  14.889 -0.1675  0.7060  0.2582
  441TMC3    C8 6633   2.839   2.706  14.712  0.1984 -0.1992 -0.1477
  441TMC3    O1 6634   2.593   2.272  14.935  0.2082  0.0011  0.0270
  441TMC3    O2 6635   2.960   2.702  14.738 -0.2903 -0.0809  0.3835
  442MPD2     C 6636   0.610   3.163  16.385  0.5413 -0.1148  0.0057
  442MPD2    C1 6637   0.537   3.086  16.475 -0.5669 -0.1311 -0.2165
  442MPD2    C2 6638   0.531   2.945  16.454 -0.1655 -0.5169 -0.6345
  442MPD2    C3 6639   0.609   2.883  16.358 -0.3050 -0.8545 -0.4392
  442MPD2    C4 6640   0.687   2.955  16.275 -0.8482 -0.2868  0.2159
  442MPD2    C5 6641   0.686   3.096  16.290  0.0957  0.6753  0.0766
  442MPD2     H 6642   0.472   2.886  16.523 -1.5047  1.6923  0.1216
  442MPD2    H1 6643   0.749   2.917  16.194 -0.2049  1.4845 -0.1228
  442MPD2    H2 6644   0.626   3.270  16.391  2.5195 -0.3344 -1.5169
  442MPD2    H3 6645   0.748   3.152  16.221  0.7173 -0.7951 -0.5521
  442MPD2     N 6646   0.609   2.743  16.337 -0.0055 -1.0118  0.8664
  442MPD2    H5 6647   0.678   2.715  16.268 -0.4458  2.2256 -0.9287
  442MPD2    N1 6648   0.470   3.138  16.591  0.2765  0.3514 -0.0449
  442MPD2    H7 6649   0.426   3.063  16.643  1.6887 -1.0613 -0.9127
  443TMC3    C1 6650   0.340   3.288  16.710  0.2961  0.1019 -0.3573
  443TMC3    C2 6651   0.245   3.385  16.675 -0.1601  0.5359 -0.1958
  443TMC3    C3 6652   0.143   3.407  16.756 -0.0535  0.7415  0.1294
  443TMC3    C4 6653   0.313   3.196  16.806 -0.5690  0.3223 -0.0514
  443TMC3    C5 6654   0.202   3.214  16.889  0.0839 -0.3120  0.0998
  443TMC3    C6 6655   0.112   3.320  16.864  0.0650 -0.1388  0.0787
  443TMC3     C 6656   0.449   3.273  16.617  0.0328  0.8633 -0.1327
  443TMC3     O 6657   0.484   3.366  16.541 -0.0623  0.3500 -0.1097
  443TMC3     H 6658   0.263   3.452  16.592 -1.7362  0.0347 -0.9507
  443TMC3    H1 6659   0.389   3.125  16.839  2.4475  2.6098 -2.1562
  443TMC3    H2 6660   0.021   3.335  16.920  0.4175  1.5064  0.1950
  443TMC3    C7 6661   0.156   3.092  16.956 -0.2070 -1.0039  0.4689
  443TMC3    C8 6662   0.019   3.441  16.682  0.9746 -0.2399  0.1864
  443TMC3    O1 6663   0.198   2.983  16.923 -0.8600 -0.5003 -0.3153
  443TMC3    O2 6664   4.665   3.477  16.756 -0.1209 -0.6437 -0.1363
  444MPD2     C 6665   0.724   2.901  16.745  0.9191 -0.9479 -1.1302
  444MPD2    C1 6666   0.676   2.772  16.731  0.1547  0.0685 -0.4635
  444MPD2    C2 6667   0.743   2.686  16.647 -0.9468  0.1795  0.3256
  444MPD2    C3 6668   0.853   2.730  16.573 -0.5378 -0.3189 -0.2455
  444MPD2    C4 6669   0.889   2.862  16.570  0.3259 -0.8567  0.3911
  444MPD2    C5 6670   0.823   2.944  16.658 -0.3112  0.4975 -0.0216
  444MPD2     H 6671   0.706   2.586  16.631  2.0782 -1.1054  1.3489
  444MPD2    H1 6672   0.965   2.904  16.506  0.7759 -2.8434 -0.3435
  444MPD2    H2 6673   0.685   2.970  16.819  0.9772 -1.1751 -0.8875
  444MPD2    H3 6674   0.852   3.048  16.658 -0.9665  0.6937 -1.3141
  444MPD2     N 6675   0.915   2.634  16.489 -0.5313  0.6085 -0.2080
  444MPD2    H5 6676   0.871   2.543  16.482  0.4942  0.1320 -0.5216
  444MPD2    N1 6677   0.570   2.728  16.806  0.1987 -0.2677  0.3232
  444MPD2    H7 6678   0.553   2.628  16.813  2.2027 -0.8041 -2.6164
  445TMC3    C1 6679   1.060   2.519  16.340 -0.3137  0.0109  0.6972
  445TMC3    C2 6680   0.980   2.409  16.347  0.2179 -0.6415 -0.1327
  445TMC3    C3 6681   1.022   2.294  16.281 -0.1268  0.3864 -0.0454
  445TMC3    C4 6682   1.182   2.520  16.279  0.4330  0.7605  0.4912
  445TMC3    C5 6683   1.218   2.399  16.215 -0.0096  0.2884 -0.1934
  445TMC3    C6 6684   1.146   2.283  16.215  0.6916  0.4685 -0.4281
  445TMC3     C 6685   1.033   2.639  16.414  0.3201 -0.5022 -0.5081
  445TMC3     O 6686   1.110   2.732  16.408 -0.2830  0.2561  0.2868
  445TMC3     H 6687   0.887   2.400  16.402 -0.5354  1.1756 -1.1120
  445TMC3    H1 6688   1.250   2.605  16.274  0.4038  0.7868  0.5431
  445TMC3    H2 6689   1.178   2.203  16.149 -0.9996 -0.2627 -0.3576
  445TMC3    C7 6690   1.346   2.391  16.162  0.2731 -0.1814 -0.0233
  445TMC3    C8 6691   0.919   2.190  16.268  0.4924 -0.3865  0.0218
  445TMC3    O1 6692   1.383   2.492  16.102 -0.3194  0.2143  0.3776
  445TMC3    O2 6693   0.821   2.222  16.335  0.0175  0.3576 -0.3089
  446MPD2     C 6694   0.247   3.752  10.316 -0.3184 -0.6437  0.2800
  446MPD2    C1 6695   0.271   3.700  10.450  0.5165  0.6960 -0.2120
  446MPD2    C2 6696   0.376   3.747  10.531  0.6251 -0.1374 -0.0439
  446MPD2    C3 6697   0.440   3.865  10.490  0.4261  0.2007 -0.3221
  446MPD2    C4 6698   0.411   3.922  10.367 -0.0724  0.1742  0.1234
  446MPD2    C5 6699   0.326   3.859  10.275 -0.7182  0.4676  0.6312
  446MPD2     H 6700   0.395   3.691  10.622  0.8546 -1.1856 -0.7420
  446MPD2    H1 6701   0.459   4.013  10.332  1.9227 -0.4066  1.3456
  446MPD2    H2 6702   0.175   3.720  10.242 -0.2672 -0.9169  0.3460
  446MPD2    H3 6703   0.303   3.904  10.179 -0.4364  0.9923  0.8172
  446MPD2     N 6704   0.541   3.931  10.570 -0.3980  0.7397 -0.6624
  446MPD2    H5 6705   0.571   4.021  10.534  0.8281  0.6085  0.0295
  446MPD2    N1 6706   0.208   3.581  10.481  0.2275  1.2229 -0.2894
  446MPD2    H7 6707   0.225   3.531  10.568  2.4506  0.7003 -1.0470
  447TMC3    C1 6708   0.701   3.972  10.737  0.3059 -0.3389 -0.1493
  447TMC3    C2 6709   0.743   4.078  10.665  0.0772  0.1797 -0.0359
  447TMC3    C3 6710   0.864   4.126  10.698 -0.2151  0.1829  0.8419
  447TMC3    C4 6711   0.760   3.924  10.846  0.4107  0.1009 -0.0238
  447TMC3    C5 6712   0.874   3.987  10.885  0.4321  0.5227 -0.3691
  447TMC3    C6 6713   0.925   4.096  10.815 -0.4794 -0.0730  0.0499
  447TMC3     C 6714   0.579   3.902  10.695  0.1835 -0.3503  0.7799
  447TMC3     O 6715   0.546   3.801  10.758  0.0170  0.5700 -0.5142
  447TMC3     H 6716   0.690   4.120  10.580  0.5483  2.0584  0.5880
  447TMC3    H1 6717   0.730   3.830  10.889 -2.6716  1.7744  1.4776
  447TMC3    H2 6718   1.028   4.126  10.832 -0.4041 -0.7284  0.7692
  447TMC3    C7 6719   0.973   3.907  10.954  0.5840 -0.0643 -0.0542
  447TMC3    C8 6720   0.906   4.242  10.620  0.0251 -0.2120 -0.7390
  447TMC3    O1 6721   0.954   3.786  10.943 -0.2926  1.1364  0.3125
  447TMC3    O2 6722   0.812   4.308  10.577  0.3649 -0.0041 -0.3841
  448TMC3    C1 6723   3.613   3.677  16.474  0.6187  0.4114 -0.0818
  448TMC3    C2 6724   3.558   3.562  16.443  0.3481  0.5467 -0.3279
  448TMC3    C3 6725   3.523   3.481  16.542 -0.0577  0.2628 -0.4914
  448TMC3    C4 6726   3.642   3.718  16.603 -0.2072 -0.3439  0.3220
  448TMC3    C5 6727   3.624   3.622  16.696  0.5451  0.3180  0.7766
  448TMC3    C6 6728   3.568   3.501  16.667  1.0269 -0.0743  0.2949
  448TMC3     C 6729   3.649   3.751  16.362 -0.3196  0.5825 -0.4669
  448TMC3     O 6730   3.658   3.685  16.255 -0.2717  0.5160  0.7391
  448TMC3     H 6731   3.546   3.531  16.340 -3.6286  0.7629  0.0750
  448TMC3    H1 6732   3.712   3.800  16.619 -0.0221 -1.0267  2.9995
  448TMC3    H2 6733   3.564   3.421  16.740  1.2949  0.2343  0.6485
  448TMC3    C7 6734   3.713   3.621  16.812  0.4836  0.2828  0.2936
  448TMC3    C8 6735   3.472   3.348  16.512 -0.1014 -0.0684 -0.1216
  448TMC3    O1 6736   3.822   3.670  16.785  0.2862  0.4134 -1.4162
  448TMC3    O2 6737   3.496   3.265  16.598 -0.0511 -0.0810 -0.1332
  449MPD2     C 6738   4.599   1.970  13.101 -0.3197  0.0587  0.3486
  449MPD2    C1 6739   4.519   2.074  13.151  0.1635 -0.2044 -0.5816
  449MPD2    C2 6740   4.451   2.050  13.268  0.8777 -0.0100 -1.1385
  449MPD2    C3 6741   4.465   1.940  13.350  0.2554  0.0852 -0.3655
  449MPD2    C4 6742   4.559   1.845  13.305 -0.7940  0.2012  0.0958
  449MPD2    C5 6743   4.622   1.860  13.183 -0.4258 -0.0844  0.7604
  449MPD2     H 6744   4.382   2.127  13.300  0.4409 -1.0600  0.4311
  449MPD2    H1 6745   4.587   1.759  13.365  1.7246  0.4134 -0.7758
  449MPD2    H2 6746   4.651   1.982  13.007  0.1551 -0.8555  0.4915
  449MPD2    H3 6747   4.692   1.783  13.152  0.3955  1.1484 -0.4553
  449MPD2     N 6748   4.376   1.927  13.459 -0.0750  0.0393  0.3422
  449MPD2    H5 6749   4.307   2.001  13.466 -1.0248 -0.7437 -0.6112
  449MPD2    N1 6750   4.500   2.200  13.092 -0.4059  1.0954 -0.0145
  449MPD2    H7 6751   4.435   2.264  13.137  0.7452  1.2056  1.4636
  450TMC3    C1 6752   4.534   2.387  12.964  0.7214 -0.1577  0.2911
  450TMC3    C2 6753   4.643   2.468  12.963  0.2567  0.1927  0.5225
  450TMC3    C3 6754   4.654   2.573  13.052 -1.0606  0.5166 -0.1375
  450TMC3    C4 6755   4.428   2.432  13.034  0.1527 -0.1986 -0.0588
  450TMC3    C5 6756   4.430   2.537  13.123  0.5805 -0.0713 -0.7338
  450TMC3    C6 6757   4.550   2.607  13.134  0.6717  0.2342  0.2104
  450TMC3     C 6758   4.569   2.250  12.981 -0.1258 -0.0157 -0.5422
  450TMC3     O 6759   4.669   2.207  12.923  0.2449  0.3922 -0.3132
  450TMC3     H 6760   4.727   2.449  12.897 -0.3235 -0.7390  0.0531
  450TMC3    H1 6761   4.339   2.372  13.017 -0.1909 -0.2561  1.8756
  450TMC3    H2 6762   4.568   2.672  13.219  0.0868  0.2911  0.2912
  450TMC3    C7 6763   4.379   2.492  13.249  0.0321  0.8456  0.3024
  450TMC3    C8 6764   0.018   2.675  13.032  0.1940  0.0308 -0.4405
  450TMC3    O1 6765   4.396   2.375  13.273 -0.1114  0.2232  0.3477
  450TMC3    O2 6766   4.735   2.788  13.062 -0.2676 -0.0034 -0.7827
  451MPD2     C 6767   1.001   0.718   1.052 -0.7443 -0.5528 -0.0702
  451MPD2    C1 6768   0.995   0.630   0.947 -0.5118  0.4765 -0.5525
  451MPD2    C2 6769   1.113   0.564   0.909 -0.1074  0.0772 -0.1676
  451MPD2    C3 6770   1.230   0.593   0.982  0.0515  0.1513 -0.5002
  451MPD2    C4 6771   1.232   0.677   1.092  0.1635 -0.0269 -0.0328
  451MPD2    C5 6772   1.118   0.741   1.125 -0.3702 -0.9588  0.3495
  451MPD2     H 6773   1.108   0.506   0.817  3.4481  0.1503 -0.3811
  451MPD2    H1 6774   1.321   0.713   1.142  0.0003  2.2121 -1.3366
  451MPD2    H2 6775   0.915   0.775   1.087 -0.1718  0.5171 -0.4003
  451MPD2    H3 6776   1.122   0.822   1.197 -0.0201 -0.4389 -0.2551
  451MPD2     N 6777   1.364   0.557   0.944 -0.2389  0.0176 -0.0160
  451MPD2    H5 6778   1.434   0.578   1.015  1.2982 -1.8273 -1.0020
  451MPD2    N1 6779   0.871   0.628   0.885 -0.2525  0.0338 -0.1093
  451MPD2    H7 6780   0.802   0.696   0.917 -0.4307 -0.0941 -0.2243
  452TMC3    C1 6781   1.531   0.486   0.798 -0.5004 -0.1865 -0.0273
  452TMC3    C2 6782   1.578   0.394   0.714  0.5627 -0.2699  0.4052
  452TMC3    C3 6783   1.699   0.416   0.655 -0.4255  0.5390 -0.4543
  452TMC3    C4 6784   1.612   0.593   0.844  0.5113  0.1344 -0.6398
  452TMC3    C5 6785   1.738   0.611   0.784  0.5224  0.3810  0.6018
  452TMC3    C6 6786   1.775   0.527   0.682  0.3406 -0.0648 -0.2604
  452TMC3     C 6787   1.393   0.495   0.821  0.0268 -0.3508 -0.5709
  452TMC3     O 6788   1.310   0.446   0.750 -0.6284  0.3569 -0.3162
  452TMC3     H 6789   1.517   0.308   0.689 -0.7490  0.8109 -0.0805
  452TMC3    H1 6790   1.567   0.674   0.901 -0.0334  0.8048 -2.0357
  452TMC3    H2 6791   1.864   0.559   0.629  0.2253 -1.1385 -1.0945
  452TMC3    C7 6792   1.766   0.746   0.754 -0.7698 -0.4459 -0.4983
  452TMC3    C8 6793   1.729   0.346   0.535 -0.3331  0.2804 -0.1272
  452TMC3    O1 6794   1.670   0.820   0.748 -0.0671  0.5420 -0.0673
  452TMC3    O2 6795   1.637   0.279   0.484  0.0918  0.2732 -0.0186
  453TMC3    C1 6796   2.521   3.112  11.731  0.0245  0.5931  0.1954
  453TMC3    C2 6797   2.497   2.987  11.780 -0.4269 -0.8986 -0.8563
  453TMC3    C3 6798   2.371   2.945  11.795 -0.5492 -0.1011 -0.5301
  453TMC3    C4 6799   2.427   3.196  11.694 -0.2965 -0.3523 -0.1658
  453TMC3    C5 6800   2.298   3.144  11.708 -0.3173 -0.2924  0.6067
  453TMC3    C6 6801   2.262   3.022  11.759  0.0580 -0.4524  0.0155
  453TMC3     C 6802   2.655   3.165  11.743  0.0078  0.0834 -0.4293
  453TMC3     O 6803   2.660   3.290  11.756 -0.1808 -0.3996  0.0649
  453TMC3     H 6804   2.571   2.923  11.827  0.0716  0.0786 -0.3092
  453TMC3    H1 6805   2.447   3.298  11.662  0.4603  0.1815  2.0491
  453TMC3    H2 6806   2.167   2.970  11.753  0.2540 -0.5024 -2.9472
  453TMC3    C7 6807   2.188   3.236  11.663  0.2814  0.6963  0.5774
  453TMC3    C8 6808   2.352   2.809  11.848  0.3352 -0.4360 -0.5993
  453TMC3    O1 6809   2.221   3.315  11.574 -0.0071  0.3378  0.1943
  453TMC3    O2 6810   2.249   2.774  11.903  0.0679 -0.0406  0.8930
  454MPD2     C 6811   1.352   2.723  15.454  0.2528 -0.2471 -0.1337
  454MPD2    C1 6812   1.229   2.679  15.487  0.0656  0.2437  0.3584
  454MPD2    C2 6813   1.149   2.757  15.573 -0.4923  0.0348 -0.5182
  454MPD2    C3 6814   1.200   2.868  15.632  0.9503 -0.4061 -0.1008
  454MPD2    C4 6815   1.326   2.909  15.599 -0.3963  0.3656 -0.8605
  454MPD2    C5 6816   1.394   2.837  15.510  0.5239 -0.1718  0.1845
  454MPD2     H 6817   1.064   2.705  15.616  0.0433 -0.5615 -0.1828
  454MPD2    H1 6818   1.384   2.994  15.632 -0.9071 -0.1728  1.4544
  454MPD2    H2 6819   1.422   2.667  15.392 -0.1802  1.5340 -2.2069
  454MPD2    H3 6820   1.498   2.860  15.490  0.1110  0.2168 -1.5134
  454MPD2     N 6821   1.122   2.944  15.725 -0.2180 -0.1213 -0.5077
  454MPD2    H5 6822   1.173   3.013  15.779 -1.6363 -0.6181  1.4665
  454MPD2    N1 6823   1.182   2.558  15.450 -1.0483  0.0681 -0.3878
  454MPD2    H7 6824   1.080   2.563  15.449 -1.1853 -2.6189  1.5095
  455TMC3    C1 6825   0.941   2.982  15.865  0.3654  0.2221  0.6179
  455TMC3    C2 6826   1.049   3.045  15.925 -0.8288 -0.1976 -0.3701
  455TMC3    C3 6827   1.102   2.988  16.042  0.2117  0.1901  0.2622
  455TMC3    C4 6828   0.870   2.885  15.935  0.5994 -0.4438  0.3187
  455TMC3    C5 6829   0.930   2.829  16.046 -0.5563 -0.4392 -0.1051
  455TMC3    C6 6830   1.053   2.873  16.086 -0.6193 -0.1988 -0.6016
  455TMC3     C 6831   0.987   2.925  15.744  0.4017  0.1425  0.2034
  455TMC3     O 6832   0.910   2.856  15.685  0.1493 -0.3263  0.2476
  455TMC3     H 6833   1.080   3.139  15.881  1.1683 -0.1430  1.1420
  455TMC3    H1 6834   0.801   2.824  15.878 -0.4039  1.4404 -0.4734
  455TMC3    H2 6835   1.110   2.809  16.152  2.1002  0.8573 -1.9460
  455TMC3    C7 6836   0.937   2.686  16.033  0.9808 -0.8563 -0.5368
  455TMC3    C8 6837   1.146   3.074  16.149  0.2403 -0.2922 -0.2956
  455TMC3    O1 6838   0.859   2.624  16.100  0.2944  0.3148  0.4649
  455TMC3    O2 6839   1.231   3.024  16.224 -0.6316  0.0973  0.4751
  456MPD2     C 6840   3.846   1.974  16.075 -0.0619  0.8833  0.6838
  456MPD2    C1 6841   3.919   2.003  16.189  0.2368 -0.0990  0.4749
  456MPD2    C2 6842   3.872   2.102  16.271 -0.0391  0.0228  0.4663
  456MPD2    C3 6843   3.763   2.174  16.243  0.5970 -0.2012 -0.3646
  456MPD2    C4 6844   3.693   2.137  16.128  0.4623  0.1228 -0.0744
  456MPD2    C5 6845   3.730   2.033  16.051  0.5403 -0.7252  0.0890
  456MPD2     H 6846   3.936   2.137  16.352 -0.8030  2.4600  0.0118
  456MPD2    H1 6847   3.599   2.183  16.100  0.3886 -0.3916 -0.6485
  456MPD2    H2 6848   3.872   1.892  16.010 -2.6801  0.0046  0.7298
  456MPD2    H3 6849   3.677   2.014  15.958  2.2490 -1.0898 -0.8144
  456MPD2     N 6850   3.739   2.287  16.322 -0.5521 -0.1410 -0.5618
  456MPD2    H5 6851   3.801   2.310  16.399 -2.5939 -0.2934  1.1259
  456MPD2    N1 6852   4.041   1.928  16.197  0.6712  0.0933  0.1575
  456MPD2    H7 6853   4.054   1.856  16.126 -0.7432  1.2450 -1.2645
  457TMC3    C1 6854   3.623   2.479  16.407  1.0559  0.4407 -0.4617
  457TMC3    C2 6855   3.547   2.594  16.372  0.2424  0.6048 -0.5605
  457TMC3    C3 6856   3.502   2.674  16.472 -0.2290  0.8403  0.0864
  457TMC3    C4 6857   3.660   2.445  16.537  0.2264  0.2564  0.3457
  457TMC3    C5 6858   3.603   2.528  16.634  0.1025 -0.1551 -0.1079
  457TMC3    C6 6859   3.521   2.638  16.605 -0.1561 -0.1620 -0.0017
  457TMC3     C 6860   3.641   2.380  16.297  0.0286 -0.6031  0.2662
  457TMC3     O 6861   3.568   2.381  16.196  0.0400 -0.2784  0.1348
  457TMC3     H 6862   3.520   2.607  16.267 -0.1931  0.6674 -0.4400
  457TMC3    H1 6863   3.718   2.358  16.565  2.1148  2.1883  2.4008
  457TMC3    H2 6864   3.480   2.700  16.684  0.4409  0.5954 -0.2903
  457TMC3    C7 6865   3.669   2.527  16.760 -0.3164  0.0028  0.8446
  457TMC3    C8 6866   3.482   2.815  16.448 -0.1214 -0.4433  0.4533
  457TMC3    O1 6867   3.714   2.425  16.810 -0.5865  0.4080 -0.2392
  457TMC3    O2 6868   3.486   2.886  16.549 -0.4597 -0.3041  0.0423
  458MPD2     C 6869   2.145   1.981  12.153 -0.0434  0.4301 -0.0640
  458MPD2    C1 6870   2.013   1.967  12.148 -0.2677  0.5897 -0.1132
  458MPD2    C2 6871   1.967   1.885  12.050  0.2660 -0.0880  0.1178
  458MPD2    C3 6872   2.045   1.824  11.952  0.1674 -0.5468  0.8884
  458MPD2    C4 6873   2.180   1.841  11.961  0.5243 -0.3126  0.1462
  458MPD2    C5 6874   2.225   1.924  12.060 -0.1983  0.2812  0.0748
  458MPD2     H 6875   1.860   1.876  12.035  0.1236  3.0362 -0.6588
  458MPD2    H1 6876   2.250   1.793  11.893 -0.2600 -1.5826  0.2349
  458MPD2    H2 6877   2.191   2.042  12.230  0.6017  0.7327 -0.6861
  458MPD2    H3 6878   2.331   1.936  12.078 -0.2083 -0.3370  0.5376
  458MPD2     N 6879   1.982   1.763  11.847  0.0474 -0.4072  0.7261
  458MPD2    H5 6880   1.883   1.752  11.864 -0.0736 -0.3093  0.0769
  458MPD2    N1 6881   1.933   2.038  12.237  0.5793 -0.4387  0.2076
  458MPD2    H7 6882   1.987   2.084  12.310  0.0411 -0.1621  0.4270
  459TMC3    C1 6883   1.749   2.100  12.370  0.2079 -0.2866 -1.5591
  459TMC3    C2 6884   1.848   2.184  12.412  0.2443 -0.2924  0.0326
  459TMC3    C3 6885   1.888   2.182  12.543 -0.0492 -0.1546  0.8032
  459TMC3    C4 6886   1.686   2.022  12.463  0.8441 -0.3325  1.1638
  459TMC3    C5 6887   1.718   2.028  12.595  0.2012 -0.3287  0.2943
  459TMC3    C6 6888   1.824   2.101  12.641  0.2045 -0.0820  0.2909
  459TMC3     C 6889   1.792   2.034  12.248 -0.8862 -0.1619 -0.4978
  459TMC3     O 6890   1.717   1.964  12.184 -0.3371 -1.1495  0.0919
  459TMC3     H 6891   1.905   2.246  12.345  1.3850 -2.7108 -1.2378
  459TMC3    H1 6892   1.597   1.973  12.426  1.1251  2.5470 -3.2429
  459TMC3    H2 6893   1.850   2.105  12.746  0.5969 -0.1912  0.1967
  459TMC3    C7 6894   1.670   1.915  12.673  0.4753  0.2783 -0.3302
  459TMC3    C8 6895   2.028   2.206  12.555 -0.7614  0.1526  0.1924
  459TMC3    O1 6896   1.614   1.823  12.616 -0.1401  0.4949 -0.6203
  459TMC3    O2 6897   2.085   2.262  12.466  0.0189 -0.2911  0.1858
  460MPD2     C 6898   1.243   4.312  10.487 -0.1184 -0.1013 -0.2500
  460MPD2    C1 6899   1.107   4.300  10.488  0.0287 -0.4035  0.1229
  460MPD2    C2 6900   1.035   4.331  10.377  0.0126 -0.6180  0.3350
  460MPD2    C3 6901   1.102   4.369  10.260 -0.2301 -0.1438 -0.9378
  460MPD2    C4 6902   1.238   4.396  10.266  0.4909 -0.0842 -0.0463
  460MPD2    C5 6903   1.310   4.362  10.380  0.1214  0.0291 -1.2158
  460MPD2     H 6904   0.927   4.339  10.380  0.0016 -1.0415  1.0930
  460MPD2    H1 6905   1.296   4.409  10.176  0.7102 -1.1520 -0.0590
  460MPD2    H2 6906   1.304   4.286  10.574 -0.3553  0.3893  0.0613
  460MPD2    H3 6907   1.418   4.375  10.384  0.2017 -0.3771 -2.0869
  460MPD2     N 6908   1.021   4.376  10.146 -0.0997 -0.2496  1.0468
  460MPD2    H5 6909   0.923   4.354  10.150  0.0536 -0.7992  1.6777
  460MPD2    N1 6910   1.043   4.254  10.603 -0.1228  0.5543 -0.5222
  460MPD2    H7 6911   1.110   4.198  10.655 -1.1257 -1.5902 -1.5698
  461TMC3    C1 6912   0.955   4.404   9.928  0.4776 -0.4922 -0.0702
  461TMC3    C2 6913   0.874   4.294   9.929 -0.1578 -0.3490 -1.3219
  461TMC3    C3 6914   0.787   4.289   9.815  0.3407 -0.4588 -0.2103
  461TMC3    C4 6915   0.943   4.514   9.844  0.5405 -0.6371  0.2076
  461TMC3    C5 6916   0.843   4.505   9.750 -0.3355  0.4923 -1.1819
  461TMC3    C6 6917   0.763   4.393   9.732  0.0352  0.0108  0.3749
  461TMC3     C 6918   1.067   4.414  10.025 -0.3444 -0.1020 -0.3357
  461TMC3     O 6919   1.161   4.487   9.997 -0.2742 -0.5241 -0.7207
  461TMC3     H 6920   0.891   4.202   9.984  1.1098  0.3031 -0.6202
  461TMC3    H1 6921   1.003   4.605   9.848  0.0737 -0.3823  1.7074
  461TMC3    H2 6922   0.686   4.401   9.657  2.2356 -1.1800 -2.0435
  461TMC3    C7 6923   0.805   4.620   9.685 -0.2093  0.1895 -0.0141
  461TMC3    C8 6924   0.753   4.155   9.773 -0.1722  0.3187  0.2714
  461TMC3    O1 6925   0.686   4.644   9.683 -0.2228  0.3849 -0.3799
  461TMC3    O2 6926   0.795   4.054   9.831  0.5556  0.3366  0.0787
  462TMC3    C1 6927   0.876   0.969  17.537  0.3317 -0.8886  0.3737
  462TMC3    C2 6928   0.934   0.888  17.447 -0.1857  0.1223 -0.5566
  462TMC3    C3 6929   0.936   0.755  17.488 -0.7719  0.1093 -0.2811
  462TMC3    C4 6930   0.805   0.926  17.644 -1.2244 -0.2218  0.0754
  462TMC3    C5 6931   0.796   0.794  17.661  0.3713  0.1282 -0.8237
  462TMC3    C6 6932   0.881   0.707  17.597 -0.6428 -0.0580 -0.7231
  462TMC3     C 6933   0.894   1.107  17.524  0.2692 -0.2186  0.0366
  462TMC3     O 6934   0.812   1.179  17.583 -0.0864  0.3114  0.3589
  462TMC3     H 6935   0.981   0.914  17.353  2.8508  2.2308  1.5901
  462TMC3    H1 6936   0.761   0.992  17.718 -1.1497  0.1238 -0.1934
  462TMC3    H2 6937   0.857   0.601  17.606 -1.4015  0.1957  0.1723
  462TMC3    C7 6938   0.713   0.721   0.010 -0.4469  0.0059 -0.2304
  462TMC3    C8 6939   0.937   0.657  17.380  1.0456  0.1830 -0.6028
  462TMC3    O1 6940   0.755   0.614   0.050 -0.1280 -0.7266  0.2757
  462TMC3    O2 6941   0.890   0.689  17.272 -0.1304  0.3775  0.3104
  463MPD2     C 6942   2.904   3.029   1.160 -0.4056  0.3369 -0.7482
  463MPD2    C1 6943   2.815   3.128   1.203  0.4564  0.3053  0.4764
  463MPD2    C2 6944   2.866   3.249   1.232 -0.2238  0.1864 -0.2523
  463MPD2    C3 6945   3.002   3.279   1.229 -0.7524 -0.1957 -1.2105
  463MPD2    C4 6946   3.083   3.180   1.181  0.7326  0.0401 -0.1236
  463MPD2    C5 6947   3.033   3.061   1.151 -0.1309 -0.0529 -0.3843
  463MPD2     H 6948   2.802   3.331   1.264  1.6370  1.1876  0.9338
  463MPD2    H1 6949   3.189   3.196   1.170  0.7909  0.7672  1.5942
  463MPD2    H2 6950   2.876   2.929   1.126 -1.0290 -0.1529  1.1691
  463MPD2    H3 6951   3.090   2.978   1.113 -0.3675 -0.2370 -0.3334
  463MPD2     N 6952   3.052   3.415   1.255  0.4761 -0.5712  0.1851
  463MPD2    H5 6953   3.153   3.426   1.247  0.4091 -0.0518  0.0661
  463MPD2    N1 6954   2.677   3.108   1.204 -0.5100 -0.1672 -0.0494
  463MPD2    H7 6955   2.626   3.181   1.253 -0.0242  0.4880 -0.5103
  464TMC3    C1 6956   2.473   2.992   1.203 -0.4437  0.4491 -0.3221
  464TMC3    C2 6957   2.418   3.089   1.284 -0.6650 -0.5830  0.4390
  464TMC3    C3 6958   2.280   3.106   1.294  0.2867 -0.4821  0.3437
  464TMC3    C4 6959   2.391   2.912   1.127  0.3660  0.1139 -0.3330
  464TMC3    C5 6960   2.260   2.923   1.142  0.1290 -0.4079 -0.0080
  464TMC3    C6 6961   2.200   3.022   1.220  0.1017  0.3015 -0.0880
  464TMC3     C 6962   2.614   2.991   1.166 -0.3593 -0.2196 -0.2434
  464TMC3     O 6963   2.661   2.902   1.095  0.5466 -0.0363  0.4316
  464TMC3     H 6964   2.480   3.166   1.328  1.8595 -1.5393 -1.4788
  464TMC3    H1 6965   2.441   2.837   1.067 -1.1921  0.3803 -1.9573
  464TMC3    H2 6966   2.093   3.028   1.230 -0.1059 -0.0130 -2.1168
  464TMC3    C7 6967   2.181   2.868   1.024 -0.2243 -0.0517 -0.9130
  464TMC3    C8 6968   2.218   3.222   1.357  0.0459  0.3649  0.0393
  464TMC3    O1 6969   2.229   2.774   0.965  0.1508  0.7374  0.2151
  464TMC3    O2 6970   2.115   3.259   1.303 -0.8688  0.4918  0.2024
  465MPD2     C 6971   3.022   2.180  16.663  0.2715  0.5741 -0.2056
  465MPD2    C1 6972   2.919   2.242  16.736  0.3555  0.5472 -0.3741
  465MPD2    C2 6973   2.790   2.263  16.682 -0.4291 -0.4764 -0.7754
  465MPD2    C3 6974   2.777   2.251  16.544 -0.0349 -0.2000 -0.4172
  465MPD2    C4 6975   2.877   2.186  16.473 -0.0998  0.2393  0.5492
  465MPD2    C5 6976   2.995   2.145  16.534  0.3974 -0.2772 -0.0482
  465MPD2     H 6977   2.716   2.316  16.741 -0.5646 -2.2458  0.6356
  465MPD2    H1 6978   2.866   2.155  16.370 -1.1329 -0.1559  0.7830
  465MPD2    H2 6979   3.121   2.168  16.707  0.5338 -0.6258 -1.1274
  465MPD2    H3 6980   3.077   2.111  16.471 -1.3505  1.0383 -2.9958
  465MPD2     N 6981   2.654   2.287  16.486 -0.2688 -0.0671 -0.3281
  465MPD2    H5 6982   2.584   2.324  16.549 -0.4850  1.2887 -1.3815
  465MPD2    N1 6983   2.947   2.288  16.862  1.0779 -0.9027  0.0457
  465MPD2    H7 6984   2.878   2.352  16.899  1.4728  0.6331 -1.8741
  466TMC3    C1 6985   2.306   2.460  16.447 -0.4519 -0.0694 -0.9582
  466TMC3    C2 6986   2.304   2.566  16.363  0.1187 -0.0269  0.5929
  466TMC3    C3 6987   2.406   2.577  16.273 -0.1691 -0.0807 -0.7651
  466TMC3    C4 6988   2.405   2.360  16.433  0.6044  0.2869  0.5523
  466TMC3    C5 6989   2.498   2.365  16.339  0.0021  0.2103 -0.0711
  466TMC3    C6 6990   2.497   2.474  16.247  0.3566  0.7659  0.1334
  466TMC3     C 6991   2.254   2.473  16.584 -0.0835  0.1304  0.4091
  466TMC3     O 6992   2.330   2.435  16.672 -0.3231 -0.1649  0.6426
  466TMC3     H 6993   2.236   2.650  16.375  0.0762  0.1495 -0.9057
  466TMC3    H1 6994   2.407   2.282  16.509  0.2523  1.1484  1.4549
  466TMC3    H2 6995   2.571   2.485  16.169 -1.1659 -1.5078 -1.5952
  466TMC3    C7 6996   2.622   2.297  16.350 -0.2896  0.7444 -0.4514
  466TMC3    C8 6997   2.426   2.701  16.199  1.1415 -0.3812 -0.0244
  466TMC3    O1 6998   2.702   2.293  16.251 -0.0773  0.3755 -0.4525
  466TMC3    O2 6999   2.445   2.696  16.077 -0.2308 -0.4217  0.4089
  467TMC3    C1 7000   3.782   1.318  13.748 -0.3283  0.1415  0.2715
  467TMC3    C2 7001   3.747   1.453  13.765 -0.1744  0.2933 -0.6642
  467TMC3    C3 7002   3.620   1.481  13.819 -0.1225 -0.3289 -0.3530
  467TMC3    C4 7003   3.683   1.218  13.762  0.3737 -0.5666  0.0041
  467TMC3    C5 7004   3.570   1.258  13.826  0.1988  0.3364  0.2128
  467TMC3    C6 7005   3.536   1.384  13.858  0.2373  0.5449  0.4332
  467TMC3     C 7006   3.916   1.286  13.743 -0.0923 -0.5000  0.2853
  467TMC3     O 7007   3.995   1.379  13.727 -0.1172  0.0813 -0.1199
  467TMC3     H 7008   3.820   1.530  13.745  0.7034 -1.2841 -3.5385
  467TMC3    H1 7009   3.703   1.112  13.764  0.1314 -0.5940  1.4839
  467TMC3    H2 7010   3.443   1.408  13.908 -0.5176 -0.1724 -0.6198
  467TMC3    C7 7011   3.483   1.150  13.874 -0.0168 -0.3275 -0.3477
  467TMC3    C8 7012   3.571   1.615  13.781  0.4357 -0.3053  0.0162
  467TMC3    O1 7013   3.537   1.056  13.928 -0.1691 -0.1251  0.4500
  467TMC3    O2 7014   3.650   1.711  13.795 -0.2180 -0.6327  0.0452
  468MPD2     C 7015   2.579   4.397  10.843  0.4085 -0.4079 -0.8918
  468MPD2    C1 7016   2.713   4.351  10.836 -0.3621 -0.4285 -0.2901
  468MPD2    C2 7017   2.733   4.218  10.794 -0.6976  0.1892  0.6927
  468MPD2    C3 7018   2.621   4.138  10.764 -0.8880  0.1814  0.7019
  468MPD2    C4 7019   2.496   4.187  10.781 -0.4409  0.2085  0.5124
  468MPD2    C5 7020   2.476   4.319  10.815  0.3377  0.0393 -0.4799
  468MPD2     H 7021   2.830   4.172  10.783 -0.8112 -0.0878  0.8419
  468MPD2    H1 7022   2.409   4.125  10.763  1.0977 -1.1443 -2.2479
  468MPD2    H2 7023   2.566   4.503  10.855 -0.6658 -0.5882 -0.4691
  468MPD2    H3 7024   2.375   4.359  10.808  0.6065  0.7586 -0.2216
  468MPD2     N 7025   2.633   4.003  10.723  0.2587 -0.2254 -0.8076
  468MPD2    H5 7026   2.545   3.957  10.706  1.0566 -2.5153  1.2821
  468MPD2    N1 7027   2.827   4.437  10.865 -0.0435 -0.2390 -0.0660
  468MPD2    H7 7028   2.920   4.400  10.847  0.5596  0.8110  0.9210
  469TMC3    C1 7029   2.958   4.616  10.950 -0.8482 -0.0635  0.2334
  469TMC3    C2 7030   3.038   4.530  11.024 -0.0343  0.4055  0.3352
  469TMC3    C3 7031   3.141   4.589  11.095 -0.5719  0.2414  0.2853
  469TMC3    C4 7032   2.966   0.014  10.964 -0.8302 -0.8630 -0.6480
  469TMC3    C5 7033   3.062   0.064  11.045  0.0244  0.3081 -0.3611
  469TMC3    C6 7034   3.161   4.726  11.097 -0.3740  0.2863  0.3245
  469TMC3     C 7035   2.823   4.566  10.916  0.2105  0.2256  0.2165
  469TMC3     O 7036   2.728   4.637  10.947  0.1153 -0.5558  0.5702
  469TMC3     H 7037   3.002   4.429  11.042 -0.7199  0.5958  0.0445
  469TMC3    H1 7038   2.880   0.075  10.938  0.5812  1.4121  0.0155
  469TMC3    H2 7039   3.237   0.039  11.156 -0.9096 -1.0467  2.1696
  469TMC3    C7 7040   3.030   0.188  11.119  0.1928 -0.4376 -0.1211
  469TMC3    C8 7041   3.189   4.523  11.213 -0.3382 -0.3968 -0.5818
  469TMC3    O1 7042   2.952   0.256  11.057  0.4569 -0.4121 -0.1515
  469TMC3    O2 7043   3.220   4.593  11.309  0.1448 -0.3514 -0.2354
  470TMC3    C1 7044   4.725   0.634   0.239  0.4368 -0.1423  0.1171
  470TMC3    C2 7045   4.687   0.761   0.219 -0.6170 -0.2763 -0.6117
  470TMC3    C3 7046   0.037   0.854   0.259  0.4633  0.3372  0.5232
  470TMC3    C4 7047   0.108   0.585   0.282 -0.1376  0.4553  0.4878
  470TMC3    C5 7048   0.188   0.685   0.328 -0.4407  0.1106 -0.1348
  470TMC3    C6 7049   0.153   0.816   0.321  0.0196 -0.5424  0.3553
  470TMC3     C 7050   4.638   0.536   0.174 -0.5167  0.4664  0.0952
  470TMC3     O 7051   4.583   0.575   0.074  0.4223 -0.3925 -0.4947
  470TMC3     H 7052   4.584   0.787   0.202 -0.4649  0.8351  0.1540
  470TMC3    H1 7053   0.144   0.488   0.249 -1.4022  0.5776 -1.2016
  470TMC3    H2 7054   0.221   0.887   0.366  0.6247 -0.1116 -1.2296
  470TMC3    C7 7055   0.326   0.659   0.347 -0.0239 -1.1807 -0.1843
  470TMC3    C8 7056   0.006   0.998   0.275 -0.5558 -0.2951 -0.3391
  470TMC3    O1 7057   0.397   0.749   0.332 -0.1357 -0.1755  0.9025
  470TMC3    O2 7058   0.094   1.072   0.313  0.9189  0.1292  0.2166
  471MPD2     C 7059   0.620   1.677  16.514 -0.6769 -0.1392 -0.0719
  471MPD2    C1 7060   0.622   1.536  16.513 -0.2964  0.2845 -0.4067
  471MPD2    C2 7061   0.686   1.475  16.619  0.2368 -0.2275  0.4537
  471MPD2    C3 7062   0.720   1.542  16.736 -0.3413 -0.2274 -0.8443
  471MPD2    C4 7063   0.709   1.682  16.735  0.0588 -0.0017  0.2000
  471MPD2    C5 7064   0.650   1.745  16.628  0.1576  0.1672 -0.6914
  471MPD2     H 7065   0.681   1.367  16.625 -0.6364 -0.2703 -1.1874
  471MPD2    H1 7066   0.722   1.751  16.817 -1.0047  1.7844 -1.1483
  471MPD2    H2 7067   0.568   1.731  16.436 -1.7714  1.5221  1.7958
  471MPD2    H3 7068   0.636   1.851  16.644 -1.3481  0.2510 -2.5941
  471MPD2     N 7069   0.788   1.466  16.828 -0.5414  0.0914 -0.0008
  471MPD2    H5 7070   0.806   1.369  16.805 -1.1817  0.1675 -0.8167
  471MPD2    N1 7071   0.586   1.454  16.397 -0.0208 -0.3822 -1.0108
  471MPD2    H7 7072   0.610   1.356  16.409 -1.6055 -0.8633 -1.8446
  472TMC3    C1 7073   0.522   1.399  16.171 -0.0077  0.1685  0.0563
  472TMC3    C2 7074   0.426   1.424  16.075 -0.4860  0.6754  0.2855
  472TMC3    C3 7075   0.438   1.348  15.960 -0.1242 -0.1458 -0.1234
  472TMC3    C4 7076   0.635   1.312  16.160  0.5790 -0.2102  0.2766
  472TMC3    C5 7077   0.620   1.226  16.058 -0.7570 -0.2318  0.1247
  472TMC3    C6 7078   0.529   1.247  15.957 -0.7099 -0.2285  0.6785
  472TMC3     C 7079   0.514   1.494  16.287 -0.1453 -0.5269 -0.7762
  472TMC3     O 7080   0.455   1.602  16.273  0.5183  0.4027 -0.4870
  472TMC3     H 7081   0.345   1.494  16.093 -0.5679  0.0016  2.5069
  472TMC3    H1 7082   0.694   1.282  16.245  2.3810  2.4249 -0.0415
  472TMC3    H2 7083   0.532   1.181  15.872 -2.5644 -0.4603  0.7915
  472TMC3    C7 7084   0.633   1.086  16.105  0.1620 -0.3530  0.3988
  472TMC3    C8 7085   0.307   1.306  15.911 -0.0108 -0.0223  1.0343
  472TMC3    O1 7086   0.709   1.054  16.197  0.2706  0.7878  0.2664
  472TMC3    O2 7087   0.286   1.336  15.794 -0.0820 -0.4636  0.0550
  473MPD2     C 7088   0.677   3.390  14.290  0.4736  0.0031  0.6095
  473MPD2    C1 7089   0.660   3.469  14.180 -0.0837 -0.0396  0.4219
  473MPD2    C2 7090   0.696   3.599  14.197  0.0683  0.5080 -0.2285
  473MPD2    C3 7091   0.760   3.656  14.304  0.5229  0.8320  0.6167
  473MPD2    C4 7092   0.776   3.571  14.414  0.8631  0.7546  0.8061
  473MPD2    C5 7093   0.742   3.439  14.401 -0.2557 -0.8486 -0.3529
  473MPD2     H 7094   0.681   3.657  14.106 -1.3857  0.3796 -0.0700
  473MPD2    H1 7095   0.822   3.601  14.507  1.4446 -1.7676  1.3345
  473MPD2    H2 7096   0.639   3.289  14.293 -0.2915  0.2579 -0.4981
  473MPD2    H3 7097   0.762   3.367  14.479 -0.7053  0.9106  1.4049
  473MPD2     N 7098   0.816   3.783  14.313  0.1243 -0.3889 -0.0776
  473MPD2    H5 7099   0.856   3.812  14.401 -2.8019  1.0680  0.7853
  473MPD2    N1 7100   0.599   3.432  14.057 -0.1546  0.2063  0.1533
  473MPD2    H7 7101   0.597   3.500  13.982  0.7707  0.3471  0.2617
  474TMC3    C1 7102   0.803   4.016  14.289  0.1007 -0.0270  0.4983
  474TMC3    C2 7103   0.702   4.104  14.245  0.5984  0.4563  0.2268
  474TMC3    C3 7104   0.736   4.235  14.231 -0.9085  0.0104 -0.0043
  474TMC3    C4 7105   0.931   4.052  14.310  0.0001  0.6721  0.7551
  474TMC3    C5 7106   0.963   4.183  14.280  0.3129 -0.2697  0.4564
  474TMC3    C6 7107   0.869   4.267  14.227  0.3570 -0.3807 -0.4853
  474TMC3     C 7108   0.786   3.884  14.227  0.6671  0.1252 -0.2017
  474TMC3     O 7109   0.728   3.866  14.125  0.2922 -0.9229 -0.1260
  474TMC3     H 7110   0.595   4.086  14.238  0.5129 -0.2208  3.3717
  474TMC3    H1 7111   1.005   3.975  14.330 -0.6861 -0.2915 -0.4374
  474TMC3    H2 7112   0.902   4.371  14.227 -2.2063  0.4320 -1.7631
  474TMC3    C7 7113   1.098   4.219  14.298 -0.4890  0.7236 -0.0690
  474TMC3    C8 7114   0.636   4.335  14.202  0.3705 -0.3108  0.7515
  474TMC3    O1 7115   1.136   4.297  14.210  0.6150 -0.5131 -0.1526
  474TMC3    O2 7116   0.523   4.334  14.253  0.4432  0.5644  0.6638
  475MPD2     C 7117   4.125   2.116  11.014  0.2303 -0.5256  0.4304
  475MPD2    C1 7118   4.084   2.242  11.051  0.7082  0.0634 -0.2187
  475MPD2    C2 7119   3.963   2.270  11.111  0.2484  0.3413 -0.5191
  475MPD2    C3 7120   3.874   2.164  11.143 -0.0407 -0.9743 -0.8024
  475MPD2    C4 7121   3.916   2.036  11.109 -0.0889 -0.3935 -0.0853
  475MPD2    C5 7122   4.036   2.016  11.050  0.0002  0.2800 -0.5191
  475MPD2     H 7123   3.932   2.373  11.124 -0.9003  0.1045 -1.3676
  475MPD2    H1 7124   3.863   1.945  11.138 -3.8168  0.7142 -3.4222
  475MPD2    H2 7125   4.223   2.084  10.979 -1.2677 -2.3703 -2.0043
  475MPD2    H3 7126   4.069   1.914  11.035  0.9474  0.7386 -1.5174
  475MPD2     N 7127   3.744   2.200  11.187 -0.4112 -0.5276 -0.2179
  475MPD2    H5 7128   3.745   2.290  11.235 -0.0420  0.5457 -2.2510
  475MPD2    N1 7129   4.161   2.356  11.018  0.2328  0.1201  0.6030
  475MPD2    H7 7130   4.109   2.442  11.035 -0.2250  0.0941 -0.6562
  476TMC3    C1 7131   4.271   2.487  10.866 -0.3841 -0.2284  0.8413
  476TMC3    C2 7132   4.259   2.497  10.730  0.1935  0.5414 -0.4289
  476TMC3    C3 7133   4.230   2.622  10.669 -0.8411 -0.0125  0.1984
  476TMC3    C4 7134   4.235   2.594  10.941  0.1643 -0.3789  0.3440
  476TMC3    C5 7135   4.188   2.708  10.879 -0.3563 -0.0044  0.3346
  476TMC3    C6 7136   4.191   2.729  10.743  0.5512 -0.4961  0.0277
  476TMC3     C 7137   4.257   2.357  10.926  0.1761 -0.2790 -0.1787
  476TMC3     O 7138   4.305   2.260  10.872  0.4138 -0.1547 -0.6969
  476TMC3     H 7139   4.299   2.412  10.676 -0.2011 -0.2469  0.5249
  476TMC3    H1 7140   4.215   2.587  11.048 -1.8020 -0.1510 -0.0138
  476TMC3    H2 7141   4.143   2.810  10.690  1.7569  1.0857  1.3649
  476TMC3    C7 7142   4.053   2.743  10.933 -0.6780  0.8617  0.5166
  476TMC3    C8 7143   4.205   2.628  10.526 -0.3169  0.0396  0.1251
  476TMC3    O1 7144   3.998   2.655  11.000 -0.0377 -0.4957 -0.2930
  476TMC3    O2 7145   4.162   2.728  10.472  0.7473  0.2969  0.2369
  477MPD2     C 7146   0.905   3.393  11.874 -0.6616  0.6803  0.2425
  477MPD2    C1 7147   1.006   3.364  11.788  0.2525 -0.0369  0.0513
  477MPD2    C2 7148   1.110   3.275  11.829  0.0322  0.4486 -0.1928
  477MPD2    C3 7149   1.105   3.212  11.960  0.3947  0.0437 -0.2163
  477MPD2    C4 7150   0.991   3.239  12.036 -0.6694  0.4036 -0.1729
  477MPD2    C5 7151   0.895   3.328  11.996  0.3538  0.6888  0.7731
  477MPD2     H 7152   1.194   3.254  11.764 -0.5279 -1.4394 -0.2983
  477MPD2    H1 7153   0.978   3.189  12.131 -0.2036  1.2064  0.3141
  477MPD2    H2 7154   0.820   3.453  11.844 -1.7322 -0.4814  0.9542
  477MPD2    H3 7155   0.798   3.328  12.045 -0.7466  0.8300 -1.4222
  477MPD2     N 7156   1.209   3.124  11.996  0.3125  0.0919 -0.5266
  477MPD2    H5 7157   1.273   3.101  11.920  2.1855  0.0223  1.0553
  477MPD2    N1 7158   0.996   3.425  11.657  0.1382 -0.0479  0.4112
  477MPD2    H7 7159   0.921   3.492  11.642 -0.5248 -0.8932 -0.0153
  478TMC3    C1 7160   1.052   3.513  11.448  0.3213  0.1069 -0.2252
  478TMC3    C2 7161   0.989   3.633  11.473 -0.2286 -0.2253  0.0892
  478TMC3    C3 7162   0.929   3.705  11.376  0.0792  0.0828  0.1685
  478TMC3    C4 7163   1.040   3.449  11.327 -0.2222  0.3285  0.6030
  478TMC3    C5 7164   0.967   3.521  11.230 -0.2641 -0.9666  0.2955
  478TMC3    C6 7165   0.922   3.649  11.252 -0.7622  0.2395  0.6249
  478TMC3     C 7166   1.081   3.414  11.554 -0.4937  0.0877  0.5100
  478TMC3     O 7167   1.172   3.331  11.546 -0.3215  0.0533  0.3709
  478TMC3     H 7168   1.002   3.681  11.569 -0.8966  3.2788 -1.5707
  478TMC3    H1 7169   1.092   3.361  11.291 -0.6391 -0.4357  1.8583
  478TMC3    H2 7170   0.896   3.716  11.171 -1.0961 -0.7109 -0.0588
  478TMC3    C7 7171   0.957   3.451  11.108  0.1971  0.1175 -0.0301
  478TMC3    C8 7172   0.913   3.843  11.400  0.4369 -0.4483  0.0091
  478TMC3    O1 7173   0.943   3.332  11.127 -0.7653  0.0036  0.1209
  478TMC3    O2 7174   0.968   3.893  11.494 -0.1475 -0.2241 -0.4606
  479MPD2     C 7175   0.371   1.260  15.130 -0.4443  0.2786  0.3031
  479MPD2    C1 7176   0.348   1.132  15.164 -0.3066 -0.9414  0.7800
  479MPD2    C2 7177   0.359   1.099  15.299 -0.9645 -0.1218 -0.3296
  479MPD2    C3 7178   0.404   1.194  15.402  0.3328 -0.6985 -0.6525
  479MPD2    C4 7179   0.443   1.321  15.362  0.1571 -0.2421 -0.6461
  479MPD2    C5 7180   0.408   1.349  15.232 -0.4677  0.7610  0.4791
  479MPD2     H 7181   0.342   0.995  15.325  2.0486 -0.1954  1.2970
  479MPD2    H1 7182   0.483   1.399  15.425  0.7010  0.0992 -1.4070
  479MPD2    H2 7183   0.339   1.301  15.035  0.4691 -0.3663 -0.2770
  479MPD2    H3 7184   0.436   1.449  15.204  1.5200 -0.6276 -2.4337
  479MPD2     N 7185   0.416   1.159  15.537  0.1415 -0.2166  0.0737
  479MPD2    H5 7186   0.475   1.224  15.587  1.5546 -0.9491 -0.6396
  479MPD2    N1 7187   0.284   1.049  15.067  0.3386  0.1967  0.0677
  479MPD2    H7 7188   0.266   1.085  14.974  1.1640 -0.9267 -0.5314
  480TMC3    C1 7189   0.197   0.753  15.639 -0.2708 -0.0427  0.2548
  480TMC3    C2 7190   0.067   0.793  15.597  0.5462  0.3699 -0.1964
  480TMC3    C3 7191   0.062   0.910  15.526  0.0916  0.3445 -1.2381
  480TMC3    C4 7192   0.306   0.825  15.617 -0.1030 -0.2167 -0.4924
  480TMC3    C5 7193   0.290   0.946  15.565 -0.0432 -0.8392 -0.5634
  480TMC3    C6 7194   0.169   0.994  15.525 -0.2711 -0.4584 -0.3325
  480TMC3     C 7195   0.202   0.631  15.720 -0.0201  1.1067 -1.2826
  480TMC3     O 7196   0.310   0.577  15.738 -0.0384 -0.6917  0.4493
  480TMC3     H 7197   4.721   0.726  15.583  0.8166  0.1472 -0.7837
  480TMC3    H1 7198   0.402   0.798  15.660 -0.4409 -0.6941 -0.0396
  480TMC3    H2 7199   0.151   1.097  15.498  0.8485 -0.1905 -0.0773
  480TMC3    C7 7200   0.390   1.042  15.608  0.1340  0.1174 -0.2396
  480TMC3    C8 7201   4.687   0.930  15.429  0.7080 -0.5278  0.5137
  480TMC3    O1 7202   0.428   1.021  15.723 -0.3093  0.0614  0.4186
  480TMC3    O2 7203   4.587   0.864  15.429 -0.3401  0.4437 -0.0169
  481MPD2     C 7204   2.147   0.777  14.228 -0.1573  0.2427 -0.2985
  481MPD2    C1 7205   2.049   0.683  14.232 -0.0201 -0.7193 -0.1200
  481MPD2    C2 7206   2.032   0.611  14.344  0.3423 -0.3629  0.4804
  481MPD2    C3 7207   2.119   0.626  14.447  0.2050 -0.0283 -0.2108
  481MPD2    C4 7208   2.216   0.721  14.445  0.1540  0.0835 -0.1749
  481MPD2    C5 7209   2.238   0.790  14.329  0.6411  0.0415 -0.6360
  481MPD2     H 7210   1.943   0.550  14.353  0.8683 -1.4437 -1.8289
  481MPD2    H1 7211   2.276   0.730  14.535  0.6867 -0.5260 -0.4676
  481MPD2    H2 7212   2.159   0.838  14.139 -3.6025  0.1191 -0.8128
  481MPD2    H3 7213   2.318   0.862  14.319 -0.7870  1.8732  1.3115
  481MPD2     N 7214   2.111   0.546  14.561 -0.6380  0.0214  0.0283
  481MPD2    H5 7215   2.179   0.566  14.634 -0.6849 -1.2579  0.4213
  481MPD2    N1 7216   1.954   0.674  14.131  0.7922  0.7933 -0.3937
  481MPD2    H7 7217   1.950   0.748  14.061  0.8595  0.0376 -1.2001
  482TMC3    C1 7218   1.787   0.591  13.996  0.8794 -0.1352  0.1974
  482TMC3    C2 7219   1.728   0.478  13.947 -0.2144  0.2313  0.8675
  482TMC3    C3 7220   1.628   0.490  13.857  0.0714  0.6160 -0.2238
  482TMC3    C4 7221   1.736   0.716  13.969  0.6606 -0.7819  0.5392
  482TMC3    C5 7222   1.652   0.725  13.866 -0.0586 -0.0874  0.4314
  482TMC3    C6 7223   1.593   0.612  13.813 -1.3374  0.4890  0.1081
  482TMC3     C 7224   1.879   0.560  14.103 -0.0755 -0.4380 -1.1828
  482TMC3     O 7225   1.880   0.452  14.150 -0.0932  0.5098  0.4525
  482TMC3     H 7226   1.777   0.384  13.970  0.1621  0.4885  1.1225
  482TMC3    H1 7227   1.780   0.806  14.011  0.5302  0.9484 -2.9948
  482TMC3    H2 7228   1.511   0.624  13.743 -0.0552  1.4948 -1.2262
  482TMC3    C7 7229   1.588   0.853  13.851  0.4690 -0.8758  0.2526
  482TMC3    C8 7230   1.560   0.365  13.812  0.0819 -0.1237  0.0162
  482TMC3    O1 7231   1.609   0.937  13.936  0.3260 -0.1338  0.3098
  482TMC3    O2 7232   1.636   0.271  13.824  0.2753  0.4538  0.0515
  483TMC3    C1 7233   4.736   4.286   0.850 -0.3956 -0.5940 -0.9267
  483TMC3    C2 7234   0.081   4.367   0.782  0.0537  0.2536  0.1266
  483TMC3    C3 7235   0.216   4.346   0.801 -1.0734 -0.2526  0.3218
  483TMC3    C4 7236   0.047   4.198   0.939 -0.2485  0.2719 -1.0787
  483TMC3    C5 7237   0.183   4.196   0.966 -0.4911  0.2186 -0.9859
  483TMC3    C6 7238   0.275   4.264   0.896  0.2967 -0.4812  0.2929
  483TMC3     C 7239   4.602   4.265   0.800  0.5035 -0.6693 -0.1171
  483TMC3     O 7240   4.546   4.368   0.759  0.1414 -0.9255  1.0060
  483TMC3     H 7241   0.053   4.422   0.693 -1.6089 -0.5492  0.1576
  483TMC3    H1 7242   4.727   4.128   0.999  2.2864 -0.2864  0.7320
  483TMC3    H2 7243   0.378   4.255   0.929  0.5004 -1.1047 -0.5016
  483TMC3    C7 7244   0.228   4.121   1.084  0.1768  0.1545  0.1196
  483TMC3    C8 7245   0.295   4.411   0.705  0.3467  0.5126 -0.0649
  483TMC3    O1 7246   0.144   4.086   1.169  1.1781 -0.0461  0.0875
  483TMC3    O2 7247   0.254   4.515   0.653  0.1452 -0.5739  0.0552
  484MPD2     C 7248   2.261   2.106  12.820  0.2324 -0.3482 -0.2245
  484MPD2    C1 7249   2.224   2.151  12.694 -0.4017 -0.0221 -0.1850
  484MPD2    C2 7250   2.326   2.189  12.607  0.4494 -0.6670  0.0016
  484MPD2    C3 7251   2.458   2.162  12.640  1.1898 -1.0719  0.0852
  484MPD2    C4 7252   2.496   2.115  12.764 -0.2601  0.2422  0.5702
  484MPD2    C5 7253   2.397   2.082  12.849  0.4246  0.0228 -0.5369
  484MPD2     H 7254   2.301   2.234  12.512 -1.1370  1.4984  1.4584
  484MPD2    H1 7255   2.602   2.104  12.782  0.1380  1.1177 -1.1751
  484MPD2    H2 7256   2.187   2.083  12.895  0.2347  0.8361  0.1443
  484MPD2    H3 7257   2.420   2.045  12.948 -0.6006 -1.7072 -0.9339
  484MPD2     N 7258   2.567   2.191  12.546 -0.3999  0.1320  0.1873
  484MPD2    H5 7259   2.661   2.182  12.583 -0.8596 -0.0087  1.3410
  484MPD2    N1 7260   2.084   2.151  12.662  0.4617  0.2595 -0.0131
  484MPD2    H7 7261   2.026   2.099  12.728 -0.7320  0.7737 -0.6629
  485TMC3    C1 7262   2.667   2.299  12.357 -0.7928 -0.5469  0.2610
  485TMC3    C2 7263   2.755   2.367  12.445  0.3387  0.6105 -0.2210
  485TMC3    C3 7264   2.822   2.475  12.403  0.3163  0.0695 -0.2645
  485TMC3    C4 7265   2.655   2.331  12.229 -0.2960  0.4841  0.2085
  485TMC3    C5 7266   2.722   2.441  12.192  0.2809  0.2683  0.7779
  485TMC3    C6 7267   2.791   2.526  12.276  0.1496 -0.1473  0.0437
  485TMC3     C 7268   2.549   2.241  12.420 -0.0765 -0.3520 -0.0304
  485TMC3     O 7269   2.453   2.216  12.348 -0.4616 -0.2779 -0.2710
  485TMC3     H 7270   2.769   2.323  12.543 -1.1509  0.1691 -0.2078
  485TMC3    H1 7271   2.597   2.266  12.164  1.9675  0.2064 -1.5607
  485TMC3    H2 7272   2.854   2.606  12.238  2.1954  0.1181  3.9975
  485TMC3    C7 7273   2.789   2.421  12.064 -0.6873 -0.1914  0.0172
  485TMC3    C8 7274   2.964   2.459  12.423  0.0357  0.5012 -0.5219
  485TMC3    O1 7275   2.815   2.309  12.024  0.1764  0.0975  0.2766
  485TMC3    O2 7276   3.004   2.340  12.440  0.0342  0.6229 -0.0231
  486MPD2     C 7277   4.281   1.210  13.354  0.4222 -0.9400 -0.0845
  486MPD2    C1 7278   4.330   1.234  13.232  0.4284  0.4513  0.4022
  486MPD2    C2 7279   4.302   1.354  13.174 -0.3342  0.0830  0.4107
  486MPD2    C3 7280   4.228   1.453  13.236 -0.2709  0.0545 -0.2110
  486MPD2    C4 7281   4.188   1.430  13.362  0.2973 -0.7924 -0.2027
  486MPD2    C5 7282   4.211   1.313  13.418 -0.6497 -0.0291  0.4526
  486MPD2     H 7283   4.341   1.374  13.075 -0.8705  1.3947  0.4633
  486MPD2    H1 7284   4.123   1.499  13.415  2.4064 -0.5166  2.0378
  486MPD2    H2 7285   4.291   1.110  13.393 -0.2667 -0.8859  0.2452
  486MPD2    H3 7286   4.171   1.289  13.516 -0.2495 -0.6051  0.4713
  486MPD2     N 7287   4.214   1.583  13.169 -0.1329 -0.2442 -0.3485
  486MPD2    H5 7288   4.245   1.593  13.073 -1.4664  0.0249 -0.7539
  486MPD2    N1 7289   4.397   1.131  13.172 -0.2551 -0.5580 -0.1844
  486MPD2    H7 7290   4.404   1.045  13.225 -0.1125  0.3107  1.1906
  487TMC3    C1 7291   4.533   1.022  13.032 -0.7493 -0.8841  0.5604
  487TMC3    C2 7292   4.518   0.952  12.922  0.2293 -0.1104  0.1501
  487TMC3    C3 7293   4.595   0.839  12.897 -0.3514  0.0388  0.8175
  487TMC3    C4 7294   4.623   0.986  13.133 -0.3488  0.2891 -0.3411
  487TMC3    C5 7295   4.711   0.886  13.100  0.2849  0.2563 -0.7568
  487TMC3    C6 7296   4.704   0.816  12.982 -0.4633  0.1131  0.0200
  487TMC3     C 7297   4.445   1.134  13.044  0.4542 -0.7614  0.3400
  487TMC3     O 7298   4.423   1.202  12.942 -0.1245  0.2790 -0.5367
  487TMC3     H 7299   4.437   0.989  12.860 -0.9057 -0.5223  1.4031
  487TMC3    H1 7300   4.626   1.042  13.226 -2.5982 -0.7256  0.3457
  487TMC3    H2 7301   0.027   0.727  12.971  0.0468  0.7943 -2.6312
  487TMC3    C7 7302   0.018   0.820  13.223  0.2607 -0.4130  0.0845
  487TMC3    C8 7303   4.496   0.737  12.902  0.2352  0.4102  0.5936
  487TMC3    O1 7304   0.018   0.883  13.331  0.4881  0.1472  0.0450
  487TMC3    O2 7305   4.378   0.765  12.900  0.4867 -0.2008  0.0501
  488MPD2     C 7306   4.572   2.402  16.167  0.7996  0.0147 -0.3198
  488MPD2    C1 7307   4.629   2.507  16.244  0.2698  0.2153 -0.1103
  488MPD2    C2 7308   4.631   2.501  16.381 -0.3429  0.3470 -0.1338
  488MPD2    C3 7309   4.597   2.385  16.440 -0.4486 -0.1731 -0.6148
  488MPD2    C4 7310   4.536   2.283  16.376 -0.1921  0.0182 -0.0493
  488MPD2    C5 7311   4.539   2.288  16.238  0.1034  0.1844 -0.2101
  488MPD2     H 7312   4.685   2.576  16.438 -1.0390  0.7898 -0.0592
  488MPD2    H1 7313   4.500   2.192  16.421  0.6231 -0.1275  0.3111
  488MPD2    H2 7314   4.570   2.403  16.059  1.2515  0.2279 -0.3272
  488MPD2    H3 7315   4.508   2.201  16.181 -1.8385  0.4402  0.4507
  488MPD2     N 7316   4.610   2.372  16.585  0.3205 -0.4991 -0.0215
  488MPD2    H5 7317   4.650   2.454  16.629  1.4151 -1.4589  0.7366
  488MPD2    N1 7318   4.672   2.620  16.177  0.1554 -0.2767 -0.3190
  488MPD2    H7 7319   4.678   2.702  16.235  0.7985 -0.0670 -0.6767
  489TMC3    C1 7320   4.568   2.312  16.806  0.6810 -1.1929 -0.2694
  489TMC3    C2 7321   4.584   2.441  16.843  0.2752  0.0485 -0.5362
  489TMC3    C3 7322   4.613   2.459  16.972  0.8679 -0.3201 -0.6204
  489TMC3    C4 7323   4.571   2.205  16.887  0.1310 -0.5452 -0.3873
  489TMC3    C5 7324   4.607   2.218  17.017 -0.5504  1.0825 -0.1290
  489TMC3    C6 7325   4.643   2.347  17.054 -0.1593  0.6166 -0.2650
  489TMC3     C 7326   4.562   2.276  16.666 -0.0333 -0.0420 -0.1896
  489TMC3     O 7327   4.481   2.190  16.638 -0.1700 -0.7111 -0.2372
  489TMC3     H 7328   4.583   2.530  16.781  2.1053 -0.5079 -1.3704
  489TMC3    H1 7329   4.572   2.108  16.838 -1.3963 -0.7183 -0.0772
  489TMC3    H2 7330   4.671   2.366  17.157 -0.9320 -0.5844  0.1576
  489TMC3    C7 7331   4.573   2.126  17.119  0.2174 -0.0127  0.2261
  489TMC3    C8 7332   4.663   2.590  17.004  0.1728 -0.1174 -0.5558
  489TMC3    O1 7333   4.610   2.144  17.235 -0.1433 -0.2466  0.2460
  489TMC3    O2 7334   0.014   2.632  16.928  0.7498  0.0560 -0.3481
  490MPD2     C 7335   0.559   2.191  16.846 -0.0751 -0.3953 -0.4080
  490MPD2    C1 7336   0.592   2.142  16.972  0.3658  0.2945 -0.2060
  490MPD2    C2 7337   0.662   2.229  17.053  0.8147 -0.0513 -0.3012
  490MPD2    C3 7338   0.735   2.342  17.002  0.0397  0.3711  0.3585
  490MPD2    C4 7339   0.708   2.366  16.872  0.3749  0.4610 -0.1584
  490MPD2    C5 7340   0.609   2.309  16.802 -0.2189  0.3124 -0.8623
  490MPD2     H 7341   0.670   2.202  17.158  2.2064  0.3876 -0.2982
  490MPD2    H1 7342   0.780   2.435  16.829  1.3764 -0.7425 -0.4100
  490MPD2    H2 7343   0.484   2.138  16.788 -2.0185  0.6473  1.1326
  490MPD2    H3 7344   0.593   2.331  16.697  0.0120  2.0068 -0.5424
  490MPD2     N 7345   0.840   2.406  17.070  0.6903  0.4214  0.2228
  490MPD2    H5 7346   0.896   2.465  17.009 -2.3163  1.5909 -1.4160
  490MPD2    N1 7347   0.562   2.015  17.027  0.2581 -0.2096 -0.9073
  490MPD2    H7 7348   0.597   2.002  17.121 -1.8211  1.6092  0.1260
  491TMC3    C1 7349   0.492   1.797  17.051 -0.4874 -0.1721 -0.0966
  491TMC3    C2 7350   0.515   1.805  17.185 -0.0850 -0.8062  0.5211
  491TMC3    C3 7351   0.514   1.694  17.256 -0.5653  0.0254  0.5908
  491TMC3    C4 7352   0.464   1.681  16.988  0.2921  0.1443 -0.4881
  491TMC3    C5 7353   0.473   1.566  17.065 -0.3427  0.2996 -0.0179
  491TMC3    C6 7354   0.498   1.567  17.198  0.0640 -0.2677 -0.1940
  491TMC3     C 7355   0.508   1.911  16.961 -0.2229 -0.2627 -0.4574
  491TMC3     O 7356   0.473   1.905  16.846  0.3456  0.1391 -0.3105
  491TMC3     H 7357   0.526   1.898  17.238 -0.2651 -0.7641  0.4851
  491TMC3    H1 7358   0.458   1.685  16.880 -1.2546 -0.8553 -0.4286
  491TMC3    H2 7359   0.477   1.482  17.262 -1.2566  0.2582  0.0747
  491TMC3    C7 7360   0.403   1.456  17.005 -0.0921 -0.2497  0.7343
  491TMC3    C8 7361   0.558   1.711  17.399  0.4718  0.1870  0.2157
  491TMC3    O1 7362   0.338   1.484  16.904  0.0791  0.2580  0.1210
  491TMC3    O2 7363   0.536   1.822  17.448 -0.1431  1.2083 -0.3284
  492MPD2     C 7364   1.442   1.959  10.920  0.4643 -0.6923 -0.4982
  492MPD2    C1 7365   1.328   1.892  10.887  0.6654  0.4987 -0.0191
  492MPD2    C2 7366   1.244   1.842  10.993 -0.3117  0.0425 -0.0764
  492MPD2    C3 7367   1.284   1.861  11.121  0.0932  0.4560 -0.4629
  492MPD2    C4 7368   1.399   1.934  11.149  0.0736  0.0075  0.6619
  492MPD2    C5 7369   1.479   1.978  11.053 -0.2060  0.8847  0.0831
  492MPD2     H 7370   1.160   1.779  10.967  0.4974 -0.5698 -1.1954
  492MPD2    H1 7371   1.413   1.972  11.250  0.8481 -0.0076  0.5577
  492MPD2    H2 7372   1.520   1.980  10.848 -0.9655  1.0084 -1.5528
  492MPD2    H3 7373   1.574   2.025  11.072  0.1913  0.0967  0.0261
  492MPD2     N 7374   1.212   1.829  11.242  0.2101  0.2378  0.5892
  492MPD2    H5 7375   1.256   1.851  11.331 -0.7738  0.5620  0.9920
  492MPD2    N1 7376   1.311   1.864  10.750  0.6889  0.7289 -0.1983
  492MPD2    H7 7377   1.383   1.885  10.681  0.5158 -0.5881 -0.7740
  493TMC3    C1 7378   1.198   1.795  10.557  0.4405 -0.2702 -0.1235
  493TMC3    C2 7379   1.208   1.912  10.493  0.0778  0.0829  0.2414
  493TMC3    C3 7380   1.124   1.931  10.385  0.1386 -0.1772 -0.1702
  493TMC3    C4 7381   1.119   1.693  10.509 -0.7120 -0.1513  0.0503
  493TMC3    C5 7382   1.025   1.720  10.413 -0.1281 -0.1980 -0.5903
  493TMC3    C6 7383   1.039   1.839  10.340  0.4190 -0.0303  0.1118
  493TMC3     C 7384   1.207   1.792  10.700  0.9991  0.6800  0.6936
  493TMC3     O 7385   1.108   1.748  10.756 -0.2377 -0.0112 -0.5268
  493TMC3     H 7386   1.258   1.993  10.545  0.1526 -0.5922  1.2332
  493TMC3    H1 7387   1.127   1.597  10.559  0.3092  1.0566  2.2226
  493TMC3    H2 7388   0.962   1.864  10.268 -1.4141 -1.0041  1.7229
  493TMC3    C7 7389   0.893   1.704  10.459  0.5167 -0.2206 -0.3583
  493TMC3    C8 7390   1.077   2.065  10.355  0.1279 -0.1146 -1.0438
  493TMC3    O1 7391   0.798   1.760  10.401  0.2173  0.3171  0.0519
  493TMC3    O2 7392   0.958   2.083  10.341 -0.5039 -0.2636  0.2863
  494TMC3    C1 7393   1.624   3.987   0.502  0.9948 -0.1344  0.4383
  494TMC3    C2 7394   1.524   3.892   0.499 -0.3843  0.3058 -0.6553
  494TMC3    C3 7395   1.465   3.847   0.379  0.1654 -0.0116 -0.5162
  494TMC3    C4 7396   1.663   4.052   0.386  0.2832 -0.6878  0.4053
  494TMC3    C5 7397   1.607   4.010   0.271  0.0972 -0.0968  0.3741
  494TMC3    C6 7398   1.513   3.913   0.264  0.4920  0.8866  0.1524
  494TMC3     C 7399   1.714   3.976   0.610  0.0409  0.2390  0.2146
  494TMC3     O 7400   1.656   3.944   0.714 -0.0000 -0.0282  0.0377
  494TMC3     H 7401   1.495   3.831   0.584 -0.4033 -0.9492 -1.5734
  494TMC3    H1 7402   1.724   4.141   0.380 -1.8169  0.7212 -0.3999
  494TMC3    H2 7403   1.495   3.873   0.164  1.0400 -1.3481  0.9453
  494TMC3    C7 7404   1.641   4.085   0.151  0.0037 -0.4260  0.3632
  494TMC3    C8 7405   1.487   3.705   0.362 -0.3157  0.6846  0.0995
  494TMC3    O1 7406   1.752   4.137   0.144  0.1198  0.2187  1.1230
  494TMC3    O2 7407   1.536   3.649   0.459 -0.1637  0.2743 -0.2028
  495TMC3    C1 7408   0.186   1.458  14.661  0.1365  0.4511 -0.0157
  495TMC3    C2 7409   0.131   1.445  14.539 -0.0823  0.9157  0.0463
  495TMC3    C3 7410   4.732   1.474  14.536  0.0634  0.1838 -0.2768
  495TMC3    C4 7411   0.111   1.448  14.772  0.8787 -0.4745 -0.6390
  495TMC3    C5 7412   4.712   1.459  14.766 -0.0472 -0.4985 -0.3654
  495TMC3    C6 7413   4.658   1.489  14.646 -0.2762  0.4068  0.1889
  495TMC3     C 7414   0.329   1.440  14.669  0.5460  0.0786 -0.2435
  495TMC3     O 7415   0.368   1.381  14.768  0.2847  0.1320  0.7426
  495TMC3     H 7416   0.186   1.450  14.446 -1.5208 -1.5429 -0.9463
  495TMC3    H1 7417   0.149   1.446  14.874  0.7962 -0.3919 -0.6063
  495TMC3    H2 7418   4.549   1.488  14.638 -0.1776  2.2984 -1.2323
  495TMC3    C7 7419   4.628   1.395  14.864 -0.9441 -0.3948 -0.2613
  495TMC3    C8 7420   4.669   1.427  14.414 -0.0240  0.2824 -0.4384
  495TMC3    O1 7421   4.505   1.406  14.856  0.3603 -0.4613  0.4478
  495TMC3    O2 7422   4.578   1.491  14.361 -0.5755  0.1829  0.0913
  496MPD2     C 7423   2.069   1.589  14.971 -0.4450 -0.2293  0.2130
  496MPD2    C1 7424   2.141   1.484  15.012  0.5027 -0.0998  0.6876
  496MPD2    C2 7425   2.078   1.397  15.102 -0.3843  0.1993  0.3219
  496MPD2    C3 7426   1.953   1.425  15.156 -0.1221  0.1886 -0.1048
  496MPD2    C4 7427   1.889   1.540  15.119 -0.0434 -0.6793  0.8046
  496MPD2    C5 7428   1.947   1.620  15.028  0.1774  0.0008 -0.1488
  496MPD2     H 7429   2.115   1.297  15.126  0.5770  0.4024 -0.3355
  496MPD2    H1 7430   1.791   1.565  15.156 -0.2970  0.2736 -0.4989
  496MPD2    H2 7431   2.106   1.661  14.898 -0.8658  0.6414  0.8513
  496MPD2    H3 7432   1.889   1.705  14.994  0.8771  0.5517  0.0097
  496MPD2     N 7433   1.887   1.330  15.231  0.2225  0.2078 -0.2912
  496MPD2    H5 7434   1.786   1.335  15.242  0.0995 -2.9336 -0.0722
  496MPD2    N1 7435   2.261   1.465  14.942  0.1338 -0.0255 -0.3516
  496MPD2    H7 7436   2.284   1.533  14.871  0.0093 -0.2144 -0.5709
  497TMC3    C1 7437   1.851   1.131  15.339  0.1894 -0.4501  0.4003
  497TMC3    C2 7438   1.761   1.092  15.248  0.2914  0.3712 -0.8353
  497TMC3    C3 7439   1.671   0.991  15.278  1.5567  1.5285 -0.6396
  497TMC3    C4 7440   1.850   1.082  15.463  0.0634 -0.4005  0.5987
  497TMC3    C5 7441   1.760   0.979  15.494  0.7204 -0.0123  0.5137
  497TMC3    C6 7442   1.675   0.928  15.404 -0.3642  0.3337  0.0966
  497TMC3     C 7443   1.945   1.233  15.306  1.1020 -0.6199 -0.7942
  497TMC3     O 7444   2.061   1.218  15.341 -0.0025  0.0496  0.2899
  497TMC3     H 7445   1.766   1.134  15.148  0.8784 -2.4129 -1.9699
  497TMC3    H1 7446   1.914   1.138  15.531  0.8863 -0.6749  0.0452
  497TMC3    H2 7447   1.628   0.836  15.437 -0.3163  0.3187  0.1227
  497TMC3    C7 7448   1.752   0.943  15.635 -0.5032  0.0023 -0.1564
  497TMC3    C8 7449   1.611   0.927  15.168  0.6521  0.2941 -0.4023
  497TMC3    O1 7450   1.663   0.866  15.673  0.0647 -0.6279  0.1119
  497TMC3    O2 7451   1.589   0.999  15.068 -0.2968  0.6474  0.2969
  498MPD2     C 7452   2.823   2.607   9.427 -0.3014  0.4258  0.7893
  498MPD2    C1 7453   2.923   2.521   9.450  0.2841  0.2918  0.3284
  498MPD2    C2 7454   2.905   2.405   9.527 -0.3640  0.8907  0.4595
  498MPD2    C3 7455   2.786   2.380   9.581  0.1119  0.6519 -0.8761
  498MPD2    C4 7456   2.682   2.468   9.555 -0.9076 -0.1230 -0.0492
  498MPD2    C5 7457   2.697   2.572   9.477  0.0771  0.5351  0.4618
  498MPD2     H 7458   2.986   2.334   9.533  0.3862  1.7096 -0.1500
  498MPD2    H1 7459   2.588   2.448   9.605 -1.8688 -0.3655 -1.9478
  498MPD2    H2 7460   2.834   2.687   9.356  0.8653 -0.3113  0.1311
  498MPD2    H3 7461   2.610   2.636   9.464 -0.9918 -1.6091 -2.9306
  498MPD2     N 7462   2.778   2.274   9.675 -0.1031  0.6458 -0.0510
  498MPD2    H5 7463   2.865   2.244   9.717  0.5240 -0.7223 -2.3219
  498MPD2    N1 7464   3.054   2.546   9.405 -0.6311  0.0101  0.0786
  498MPD2    H7 7465   3.113   2.470   9.438  1.6771  1.5015 -0.6093
  499TMC3    C1 7466   3.249   2.678   9.350  0.5207 -0.1405  0.3162
  499TMC3    C2 7467   3.316   2.614   9.452 -0.3671 -0.0472 -0.1764
  499TMC3    C3 7468   3.439   2.654   9.479  0.1310 -0.2195  0.2230
  499TMC3    C4 7469   3.312   2.775   9.274 -0.2916 -0.4081 -0.1934
  499TMC3    C5 7470   3.440   2.816   9.314  0.6583  0.9527  0.2773
  499TMC3    C6 7471   3.505   2.754   9.411  0.2690  0.0091 -0.0620
  499TMC3     C 7472   3.106   2.657   9.333  0.1812 -0.3496  0.3162
  499TMC3     O 7473   3.049   2.728   9.250 -0.4343  0.1556  0.1313
  499TMC3     H 7474   3.265   2.554   9.527 -1.5509  0.3835 -0.6419
  499TMC3    H1 7475   3.263   2.816   9.186 -1.0511 -0.5146  0.1805
  499TMC3    H2 7476   3.601   2.785   9.451  1.2856 -0.1124 -2.3882
  499TMC3    C7 7477   3.479   2.951   9.267 -0.5325  0.3310 -0.8460
  499TMC3    C8 7478   3.501   2.595   9.594 -0.9051  0.3082 -0.0960
  499TMC3    O1 7479   3.597   2.978   9.286  0.8484  0.0518  0.6592
  499TMC3    O2 7480   3.426   2.542   9.676  0.1323  0.6426  0.6275
  500MPD2     C 7481   4.557   2.870  10.633 -0.0163  0.8495  0.3164
  500MPD2    C1 7482   4.618   2.858  10.509 -0.2702 -0.1152  0.8890
  500MPD2    C2 7483   4.546   2.898  10.399  0.0537  0.5890  0.1963
  500MPD2    C3 7484   4.409   2.929  10.407 -0.3961 -0.7365 -0.3492
  500MPD2    C4 7485   4.357   2.956  10.529  0.2835 -0.0482 -0.2274
  500MPD2    C5 7486   4.434   2.933  10.638  0.4728 -0.4138  0.3306
  500MPD2     H 7487   4.594   2.883  10.303  0.7490  0.3635  0.5787
  500MPD2    H1 7488   4.252   2.975  10.550  0.2589 -0.8272  0.3429
  500MPD2    H2 7489   4.606   2.845  10.726 -1.7985  2.2746  1.6205
  500MPD2    H3 7490   4.387   2.955  10.733 -2.5673  1.4495 -1.5694
  500MPD2     N 7491   4.333   2.946  10.287  0.1463 -0.1724  0.2596
  500MPD2    H5 7492   4.247   2.998  10.304 -0.0900 -0.3626 -0.3859
  500MPD2    N1 7493   0.011   2.823  10.489 -0.0449 -0.2688  0.1981
  500MPD2    H7 7494   0.039   2.829  10.392  2.3297 -0.4157  0.8535
  501TMC3    C1 7495   0.242   2.805  10.529  1.1061  0.5534 -0.4870
  501TMC3    C2 7496   0.273   2.890  10.431 -0.4770 -0.0196 -0.7395
  501TMC3    C3 7497   0.399   2.917  10.401  0.4782  0.4527 -0.1061
  501TMC3    C4 7498   0.349   2.738  10.594  0.3204 -0.3901  0.1881
  501TMC3    C5 7499   0.475   2.754  10.550 -0.0931 -0.4892  0.1869
  501TMC3    C6 7500   0.501   2.844  10.447 -0.1200 -0.3880  0.0774
  501TMC3     C 7501   0.106   2.791  10.585 -0.5350  0.2229  0.7411
  501TMC3     O 7502   0.102   2.778  10.706  0.0601  0.0237  0.4069
  501TMC3     H 7503   0.198   2.957  10.391  0.4385  1.0086 -0.7484
  501TMC3    H1 7504   0.323   2.679  10.681 -2.9277  1.7937  0.6838
  501TMC3    H2 7505   0.601   2.849  10.406 -0.1621 -0.9922 -0.1025
  501TMC3    C7 7506   0.586   2.687  10.619  0.4550  0.1199  0.2464
  501TMC3    C8 7507   0.433   3.012  10.305  0.9163  0.2931  0.4231
  501TMC3    O1 7508   0.560   2.602  10.705 -0.1949  0.0890  0.3905
  501TMC3    O2 7509   0.549   3.038  10.293  0.5178  0.3186 -0.3424
  502TMC3    C1 7510   4.473   2.364  14.951  0.5108  0.1926  0.3743
  502TMC3    C2 7511   4.473   2.498  14.942  0.2159 -0.9230  0.0335
  502TMC3    C3 7512   4.413   2.543  14.824 -0.5639  0.3060 -0.0746
  502TMC3    C4 7513   4.413   2.273  14.871  0.1254 -0.4082 -0.1614
  502TMC3    C5 7514   4.349   2.334  14.767 -0.0004  0.2561 -0.1943
  502TMC3    C6 7515   4.348   2.463  14.735  0.2648  0.5807 -0.1872
  502TMC3     C 7516   4.571   2.309  15.047  0.5151 -0.2149 -0.2311
  502TMC3     O 7517   4.675   2.363  15.070 -0.3053 -0.4120 -0.2092
  502TMC3     H 7518   4.528   2.557  15.015 -2.4042 -0.1535  1.3947
  502TMC3    H1 7519   4.404   2.165  14.879 -0.2313 -0.5657 -2.5235
  502TMC3    H2 7520   4.292   2.502  14.651  1.1044  1.0924 -0.5135
  502TMC3    C7 7521   4.261   2.242  14.698  0.5564  0.2718 -0.5612
  502TMC3    C8 7522   4.395   2.679  14.786  0.1892 -0.2084  0.1337
  502TMC3    O1 7523   4.295   2.126  14.680  0.2613 -0.0414  0.0876
  502TMC3    O2 7524   4.411   2.707  14.668 -0.3169  0.3786  0.3062
  503MPD2     C 7525   1.579   2.771  16.680  0.6453 -0.7899  0.3564
  503MPD2    C1 7526   1.613   2.771  16.814 -0.2627 -0.7677  0.0460
  503MPD2    C2 7527   1.660   2.656  16.870 -0.0529  0.5321  0.1403
  503MPD2    C3 7528   1.699   2.550  16.781  0.0254 -0.0761 -0.4091
  503MPD2    C4 7529   1.675   2.557  16.645 -0.0314  0.1921  0.3077
  503MPD2    C5 7530   1.610   2.668  16.595 -0.2692  0.3385  0.6515
  503MPD2     H 7531   1.693   2.659  16.973 -0.3848  1.4028  0.2156
  503MPD2    H1 7532   1.707   2.486  16.569  1.0676  1.6672 -0.5976
  503MPD2    H2 7533   1.523   2.855  16.640  1.2016 -0.5059  0.1714
  503MPD2    H3 7534   1.587   2.677  16.490 -1.2479  0.6122  0.8880
  503MPD2     N 7535   1.774   2.446  16.838  0.1086 -0.2781  0.1724
  503MPD2    H5 7536   1.780   2.447  16.939  1.6979 -0.8806  0.0747
  503MPD2    N1 7537   1.597   2.891  16.890  0.2874 -0.7254 -0.1313
  503MPD2    H7 7538   1.610   2.885  16.990  1.0010  1.9921 -0.0578
  504TMC3    C1 7539   1.941   2.297  16.874  0.0606  0.3239 -0.1130
  504TMC3    C2 7540   1.908   2.308  17.008 -0.3980  0.3381  0.0465
  504TMC3    C3 7541   1.991   2.255  17.101  0.1081 -0.5329  0.7580
  504TMC3    C4 7542   2.061   2.238  16.835 -0.2402  0.3899 -0.5316
  504TMC3    C5 7543   2.132   2.184  16.937  0.4806  0.7780 -0.5321
  504TMC3    C6 7544   2.113   2.200  17.071 -0.6737 -0.3108 -0.4298
  504TMC3     C 7545   1.865   2.366  16.777  0.1057  1.2081  0.7719
  504TMC3     O 7546   1.894   2.358  16.657 -0.5165  0.1268  0.2538
  504TMC3     H 7547   1.807   2.338  17.037 -0.1778  1.8276 -0.7078
  504TMC3    H1 7548   2.087   2.223  16.731 -0.9566  2.2265 -0.9806
  504TMC3    H2 7549   2.173   2.150  17.145  2.0040  0.8458 -1.8324
  504TMC3    C7 7550   2.258   2.127  16.905 -0.2951 -0.6008  0.9345
  504TMC3    C8 7551   1.919   2.214  17.222  0.0665  0.3160  0.2258
  504TMC3    O1 7552   2.265   2.040  16.822  0.4142  0.5947  0.4230
  504TMC3    O2 7553   1.794   2.206  17.210  0.2948  0.4735 -0.2943
  505MPD2     C 7554   2.467   2.046  10.895  0.5449 -0.1394  0.1253
  505MPD2    C1 7555   2.552   1.936  10.885  0.7301 -0.0440 -0.2171
  505MPD2    C2 7556   2.686   1.958  10.885  0.7618  0.4602  0.4257
  505MPD2    C3 7557   2.742   2.083  10.890 -0.0122  0.3140 -0.3636
  505MPD2    C4 7558   2.665   2.188  10.914 -0.0334 -0.0529 -0.3683
  505MPD2    C5 7559   2.526   2.171  10.905  0.0899 -0.1246  0.9236
  505MPD2     H 7560   2.757   1.880  10.859 -0.0541 -1.0395  2.7372
  505MPD2    H1 7561   2.707   2.288  10.904 -3.1126  1.2893  0.0416
  505MPD2    H2 7562   2.360   2.040  10.911  0.6086 -1.8147 -0.0873
  505MPD2    H3 7563   2.465   2.259  10.922 -0.2302 -0.4294  1.3542
  505MPD2     N 7564   2.883   2.085  10.882  0.0860  0.5680 -0.4391
  505MPD2    H5 7565   2.935   1.998  10.885  0.4685  0.8402  1.1269
  505MPD2    N1 7566   2.491   1.805  10.860 -0.2028 -0.1183 -0.1817
  505MPD2    H7 7567   2.391   1.791  10.869 -0.4000 -0.1012 -2.2671
  506TMC3    C1 7568   2.509   1.559  10.841  0.1642 -0.0734 -0.1330
  506TMC3    C2 7569   2.404   1.545  10.754 -0.3155  0.1000  1.0121
  506TMC3    C3 7570   2.399   1.434  10.668  0.6385  0.0213  0.9759
  506TMC3    C4 7571   2.601   1.458  10.845 -0.0568 -0.8877 -0.0744
  506TMC3    C5 7572   2.604   1.358  10.752 -0.0128 -0.5293  0.3191
  506TMC3    C6 7573   2.500   1.347  10.659 -0.8131 -0.5526  0.6572
  506TMC3     C 7574   2.571   1.693  10.852 -0.1226 -0.5395 -0.3922
  506TMC3     O 7575   2.694   1.677  10.861 -0.0228  0.0508  0.1259
  506TMC3     H 7576   2.333   1.625  10.737  0.6886  0.6624 -0.5319
  506TMC3    H1 7577   2.679   1.466  10.920  1.3670 -2.2594 -1.4203
  506TMC3    H2 7578   2.494   1.277  10.576  2.2175  0.0619 -0.0727
  506TMC3    C7 7579   2.730   1.322  10.699 -0.1330 -0.2643 -0.0839
  506TMC3    C8 7580   2.326   1.456  10.544 -0.2292  0.0857 -0.0796
  506TMC3    O1 7581   2.747   1.237  10.613 -0.5715  0.3672  0.3208
  506TMC3    O2 7582   2.200   1.458  10.546  0.4863  0.0807  0.1296
  507TMC3    C1 7583   2.331   2.384  13.050 -0.6673 -0.4996 -0.9535
  507TMC3    C2 7584   2.447   2.427  12.985  0.1152  0.1937  0.7795
  507TMC3    C3 7585   2.560   2.371  13.037 -0.2715  0.0262 -0.4260
  507TMC3    C4 7586   2.322   2.283  13.152 -0.9338 -0.2734 -0.2675
  507TMC3    C5 7587   2.442   2.213  13.170 -0.4653  0.7691 -0.2255
  507TMC3    C6 7588   2.559   2.265  13.126 -0.4456  0.6365  0.8442
  507TMC3     C 7589   2.206   2.459  13.011 -0.1907  1.0670  0.1826
  507TMC3     O 7590   2.216   2.568  12.954  0.0590  0.0922  0.2396
  507TMC3     H 7591   2.441   2.508  12.914 -0.0471 -0.6919 -0.2127
  507TMC3    H1 7592   2.234   2.239  13.198 -0.5715 -0.5523  0.1541
  507TMC3    H2 7593   2.654   2.223  13.154 -0.4757  1.2325  1.8758
  507TMC3    C7 7594   2.447   2.178  13.311  0.2143 -0.2122 -0.6944
  507TMC3    C8 7595   2.650   2.467  13.097 -0.3599  0.5632  0.0710
  507TMC3    O1 7596   2.365   2.096  13.355  0.1438  0.1757  0.6300
  507TMC3    O2 7597   2.694   2.437  13.204  0.0470  0.1313  0.3831
  508MPD2     C 7598   4.176   4.213  15.762 -0.0795  0.2175  0.1042
  508MPD2    C1 7599   4.148   4.315  15.847  0.3104 -0.4983  0.5393
  508MPD2    C2 7600   4.074   4.419  15.799  0.5741 -0.3195  0.0949
  508MPD2    C3 7601   4.038   4.432  15.666  0.0790 -0.2051 -0.1083
  508MPD2    C4 7602   4.075   4.326  15.584  0.2988 -0.1991 -0.1046
  508MPD2    C5 7603   4.139   4.215  15.632 -0.0730  0.4318  0.0081
  508MPD2     H 7604   4.048   4.503  15.862 -0.8350  0.0178 -0.9326
  508MPD2    H1 7605   4.053   4.318  15.478 -1.7159 -0.5277  0.3521
  508MPD2    H2 7606   4.238   4.129  15.791  3.2310  1.4470 -3.3228
  508MPD2    H3 7607   4.171   4.142  15.558  0.2957  0.9459 -0.3362
  508MPD2     N 7608   3.985   4.552  15.620 -0.0690  0.0348 -0.2340
  508MPD2    H5 7609   3.965   4.632  15.680  3.2098  1.6889 -1.3328
  508MPD2    N1 7610   4.175   4.297  15.987  0.4273  0.6535  0.0142
  508MPD2    H7 7611   4.232   4.215  16.008 -0.9259 -0.0125  1.0279
  509TMC3    C1 7612   3.798   0.098  15.299 -0.6428 -0.1846  0.6082
  509TMC3    C2 7613   3.856   0.208  15.356  0.8168 -0.5231 -0.1545
  509TMC3    C3 7614   3.939   0.185  15.460  0.3715  0.1895  0.4661
  509TMC3    C4 7615   3.818   4.708  15.343 -0.2791  0.0055  0.4175
  509TMC3    C5 7616   3.904   4.695  15.448  0.0465 -0.1638  0.0188
  509TMC3    C6 7617   3.968   0.061  15.510  0.2242  0.1398  0.3747
  509TMC3     C 7618   3.769   0.105  15.158  0.7871  0.5930  0.8725
  509TMC3     O 7619   3.784   4.735  15.098  0.3316  0.1064  0.0797
  509TMC3     H 7620   3.830   0.311  15.332  0.4382  0.0216  2.5784
  509TMC3    H1 7621   3.779   4.622  15.290  0.0549 -1.1286  1.9994
  509TMC3    H2 7622   4.030   0.042  15.597  1.6851  2.4653 -0.1575
  509TMC3    C7 7623   3.937   4.561  15.491  0.3845  0.1015  0.4120
  509TMC3    C8 7624   3.996   0.299  15.544 -0.9193  0.2134  0.4249
  509TMC3    O1 7625   3.915   4.473  15.407  0.7321  0.2211  0.1688
  509TMC3    O2 7626   4.055   0.275  15.646 -0.1371  0.2546 -0.5594
  510MPD2     C 7627   1.544   1.656  14.854 -0.3466 -0.1660 -0.5783
  510MPD2    C1 7628   1.552   1.521  14.854 -0.1221  0.3802 -0.2177
  510MPD2    C2 7629   1.653   1.458  14.787  0.2822  0.9242 -0.5068
  510MPD2    C3 7630   1.735   1.520  14.700 -0.0311  0.3519 -0.8566
  510MPD2    C4 7631   1.719   1.660  14.684 -0.4186  0.1806 -0.2244
  510MPD2    C5 7632   1.622   1.723  14.763 -0.0662 -0.2443 -0.8669
  510MPD2     H 7633   1.669   1.351  14.801  0.1254  0.8735 -0.7159
  510MPD2    H1 7634   1.793   1.721  14.634 -0.9051 -0.2780 -1.5230
  510MPD2    H2 7635   1.470   1.716  14.907  0.7734 -0.4964  1.3868
  510MPD2    H3 7636   1.600   1.828  14.748 -2.9020 -0.4997  1.3827
  510MPD2     N 7637   1.838   1.443  14.636 -0.4146  0.4147  0.0517
  510MPD2    H5 7638   1.844   1.348  14.670 -0.7784  0.9717  1.6723
  510MPD2    N1 7639   1.452   1.453  14.929  0.5626  0.4810  0.7205
  510MPD2    H7 7640   1.385   1.513  14.976 -0.6877  1.1130 -1.8980
  511TMC3    C1 7641   1.320   1.273  15.012 -0.4131 -0.3796  0.0774
  511TMC3    C2 7642   1.296   1.337  15.133  0.0241 -0.2098 -0.1425
  511TMC3    C3 7643   1.251   1.253  15.242  0.3272 -0.0914 -0.3059
  511TMC3    C4 7644   1.301   1.138  14.990  0.1713 -0.3664 -0.0466
  511TMC3    C5 7645   1.248   1.064  15.089  0.5649 -0.3866 -0.1114
  511TMC3    C6 7646   1.216   1.123  15.213 -0.1540  0.3874  0.3850
  511TMC3     C 7647   1.426   1.319  14.917 -0.5630  0.1276 -0.2433
  511TMC3     O 7648   1.473   1.246  14.832 -0.2530  0.0876 -0.3587
  511TMC3     H 7649   1.326   1.440  15.145 -1.0487  0.2056 -1.0266
  511TMC3    H1 7650   1.329   1.089  14.897 -0.8625  0.1750 -0.6443
  511TMC3    H2 7651   1.158   1.059  15.278  1.0669 -0.3915  0.7072
  511TMC3    C7 7652   1.157   0.964  15.033  0.2135  0.2084 -0.3388
  511TMC3    C8 7653   1.170   1.325  15.339 -0.1820 -0.5034  0.7148
  511TMC3    O1 7654   1.106   0.991  14.926  0.8014 -0.2796 -0.3495
  511TMC3    O2 7655   1.132   1.440  15.317  0.5978 -0.8650  0.8102
  512TMC3    C1 7656   0.332   1.006  13.411 -0.4360  0.3425 -0.9405
  512TMC3    C2 7657   0.427   0.960  13.493  0.4791 -0.9565  0.0342
  512TMC3    C3 7658   0.520   0.872  13.433  0.3759  0.3695 -0.2752
  512TMC3    C4 7659   0.330   0.968  13.275 -0.4181 -0.9320 -0.0859
  512TMC3    C5 7660   0.420   0.876  13.222 -0.4509 -0.7209 -0.0484
  512TMC3    C6 7661   0.524   0.833  13.301  0.0226 -0.2787 -0.5224
  512TMC3     C 7662   0.240   1.114  13.449  0.0773  0.3495 -0.1947
  512TMC3     O 7663   0.182   1.096  13.557 -0.7774  0.4591 -0.0565
  512TMC3     H 7664   0.432   0.982  13.599  0.5019 -0.6956 -0.0215
  512TMC3    H1 7665   0.251   1.002  13.209  1.4421  2.4733 -0.5084
  512TMC3    H2 7666   0.598   0.766  13.258  1.0313  0.1826  0.4921
  512TMC3    C7 7667   0.378   0.811  13.100 -0.1324 -0.2946  0.0208
  512TMC3    C8 7668   0.655   0.864  13.495  0.1390  0.1226  0.4027
  512TMC3    O1 7669   0.313   0.879  13.021 -0.7645  0.3346  0.0948
  512TMC3    O2 7670   0.726   0.769  13.463  0.4261  0.1072 -0.2932
  513MPD2     C 7671   3.195   1.168  13.386  0.3322  0.1794 -0.3459
  513MPD2    C1 7672   3.089   1.082  13.400 -0.0905  0.0696  0.8600
  513MPD2    C2 7673   3.127   0.962  13.458 -0.3969  0.2750  0.1450
  513MPD2    C3 7674   3.246   0.954  13.532 -0.0341  0.3752  0.4029
  513MPD2    C4 7675   3.344   1.046  13.532  0.7629 -0.0402 -0.3041
  513MPD2    C5 7676   3.317   1.156  13.452 -0.2228 -0.3181  0.1926
  513MPD2     H 7677   3.064   0.874  13.451 -0.5930  0.3177  1.4747
  513MPD2    H1 7678   3.441   1.026  13.576  0.7292  2.2833  0.8060
  513MPD2    H2 7679   3.187   1.263  13.334 -0.5419  1.0302  1.3277
  513MPD2    H3 7680   3.388   1.237  13.447 -1.1467  0.3957 -1.2755
  513MPD2     N 7681   3.262   0.831  13.609 -0.0333  0.0077 -0.4479
  513MPD2    H5 7682   3.186   0.763  13.609  0.0530 -0.0881  0.0878
  513MPD2    N1 7683   2.971   1.092  13.318  0.2956  0.0823  0.5547
  513MPD2    H7 7684   2.963   1.179  13.266  2.1994 -0.1475 -0.1119
  514TMC3    C1 7685   2.749   1.042  13.246  0.3917 -0.4909  0.2196
  514TMC3    C2 7686   2.778   1.091  13.121 -0.1626  0.2437  0.1479
  514TMC3    C3 7687   2.723   1.026  13.009 -0.5204  0.3130  0.8303
  514TMC3    C4 7688   2.656   0.942  13.268  0.1350  0.0312  0.1185
  514TMC3    C5 7689   2.613   0.867  13.157 -0.7721  0.5189 -0.1616
  514TMC3    C6 7690   2.642   0.916  13.030 -0.4697  0.4117 -0.3758
  514TMC3     C 7691   2.864   1.010  13.330  1.3002 -0.2156  0.3616
  514TMC3     O 7692   2.847   0.912  13.398 -0.3557 -0.1546  0.4548
  514TMC3     H 7693   2.845   1.171  13.096  0.0474  0.3628  1.0880
  514TMC3    H1 7694   2.617   0.918  13.366 -3.1222 -1.8981 -1.6676
  514TMC3    H2 7695   2.612   0.857  12.944  0.4830 -0.4590 -0.1084
  514TMC3    C7 7696   2.625   0.725  13.171 -0.6233  0.2029  0.5058
  514TMC3    C8 7697   2.664   1.125  12.914 -0.0977 -0.1757 -0.0079
  514TMC3    O1 7698   2.566   0.658  13.090  0.3737  0.2582 -0.4940
  514TMC3    O2 7699   2.667   1.240  12.953  0.0114  0.0304 -0.4219
  515MPD2     C 7700   0.960   2.220  13.957 -0.5843  0.3666  0.5108
  515MPD2    C1 7701   0.868   2.274  14.047  0.3893 -0.0918 -0.3870
  515MPD2    C2 7702   0.912   2.335  14.159  0.1693 -0.4584  0.3939
  515MPD2    C3 7703   1.048   2.346  14.191  0.5078  0.3180 -0.2701
  515MPD2    C4 7704   1.145   2.290  14.111  0.3001  0.4218  0.6394
  515MPD2    C5 7705   1.096   2.231  13.987  0.5104 -0.8438 -0.0774
  515MPD2     H 7706   0.831   2.360  14.227  0.1905  0.3502  0.1224
  515MPD2    H1 7707   1.251   2.297  14.133  0.9617  0.1909 -2.4515
  515MPD2    H2 7708   0.939   2.184  13.858  1.7909 -1.1741  0.5612
  515MPD2    H3 7709   1.159   2.186  13.911  2.1715 -1.8969  1.9189
  515MPD2     N 7710   1.101   2.416  14.307 -0.0441 -0.4694 -0.0453
  515MPD2    H5 7711   1.193   2.393  14.343 -0.8576 -0.7811  1.8363
  515MPD2    N1 7712   0.732   2.279  14.015 -0.2732 -0.1674  0.4260
  515MPD2    H7 7713   0.666   2.315  14.083 -2.1232 -0.7158 -1.0787
  516TMC3    C1 7714   0.536   2.206  13.937 -0.1710  0.0043  0.8335
  516TMC3    C2 7715   0.440   2.234  13.841  0.1151 -0.6210 -0.3118
  516TMC3    C3 7716   0.310   2.189  13.855  0.3442  0.4460 -0.4844
  516TMC3    C4 7717   0.501   2.135  14.050  0.1996 -0.3656  0.1078
  516TMC3    C5 7718   0.369   2.102  14.066  0.0725 -0.0581  0.1392
  516TMC3    C6 7719   0.269   2.126  13.974 -0.1357 -0.4952  0.9197
  516TMC3     C 7720   0.668   2.237  13.902 -0.6460 -0.2375 -0.6769
  516TMC3     O 7721   0.699   2.214  13.787  0.0510 -0.3761  0.2119
  516TMC3     H 7722   0.473   2.278  13.748 -1.3981  0.5606 -0.2783
  516TMC3    H1 7723   0.569   2.107  14.128  1.7805 -1.7667 -1.7809
  516TMC3    H2 7724   0.164   2.103  13.982 -0.0287 -0.7803  1.5380
  516TMC3    C7 7725   0.335   2.032  14.186 -0.6009  0.1616  0.2176
  516TMC3    C8 7726   0.196   2.230  13.772  0.5867  0.9477  1.1529
  516TMC3    O1 7727   0.419   2.035  14.274  0.3803 -0.0267 -1.0929
  516TMC3    O2 7728   0.086   2.220  13.825  0.1699  0.2563 -0.3695
  517MPD2     C 7729   4.737   4.154  17.478 -0.2597 -0.0363 -0.1721
  517MPD2    C1 7730   0.138   4.146  17.458  0.2175 -1.2568 -0.5806
  517MPD2    C2 7731   0.214   4.261  17.483  0.0779  0.1535 -0.7009
  517MPD2    C3 7732   0.159   4.376  17.542  0.6767 -0.8543 -0.6954
  517MPD2    C4 7733   0.022   4.380  17.546 -0.9077 -0.0425  0.1270
  517MPD2    C5 7734   4.679   4.276  17.512 -0.4215  0.1712  0.0304
  517MPD2     H 7735   0.321   4.248  17.482 -0.0051 -0.5153 -0.9863
  517MPD2    H1 7736   4.725   4.460  17.610  1.2949 -0.0511  1.2963
  517MPD2    H2 7737   4.670   4.072  17.454 -0.5659  0.2725 -0.3778
  517MPD2    H3 7738   4.572   4.290  17.518 -0.6401 -1.0533 -0.9670
  517MPD2     N 7739   0.230   4.487  17.587  0.5311 -0.1191 -0.2935
  517MPD2    H5 7740   0.180   4.572  17.610 -0.3906 -0.6048 -0.5039
  517MPD2    N1 7741   0.205   4.037  17.399  0.4565 -0.7020 -0.0612
  517MPD2    H7 7742   0.303   4.056  17.379  1.0321 -2.9336  0.5194
  518TMC3    C1 7743   0.250   3.813  17.346 -0.0547 -0.2513  0.2501
  518TMC3    C2 7744   0.228   3.683  17.375  0.1760 -0.1146 -0.4841
  518TMC3    C3 7745   0.317   3.590  17.331 -0.1008  0.2165 -0.3477
  518TMC3    C4 7746   0.355   3.853  17.273  0.9476 -0.7439 -0.2884
  518TMC3    C5 7747   0.449   3.756  17.236 -0.4487  0.2740 -0.5628
  518TMC3    C6 7748   0.428   3.621  17.263 -0.0351 -0.0500  0.4194
  518TMC3     C 7749   0.151   3.910  17.384 -0.5157  0.2218 -0.1819
  518TMC3     O 7750   0.037   3.869  17.393  0.1973 -0.1602  0.0607
  518TMC3     H 7751   0.133   3.656  17.421  1.2886 -0.2861  1.7216
  518TMC3    H1 7752   0.378   3.952  17.237  0.4087 -1.2346 -1.9833
  518TMC3    H2 7753   0.479   3.548  17.202 -1.6954  1.1003 -2.3300
  518TMC3    C7 7754   0.572   3.807  17.175  0.4649  0.0663  0.2907
  518TMC3    C8 7755   0.266   3.459  17.314 -0.0719 -0.8133  0.1995
  518TMC3    O1 7756   0.601   3.927  17.183  1.3551 -0.7800  0.0533
  518TMC3    O2 7757   0.310   3.401  17.221  0.2215 -0.0574  0.3439
  519MPD2     C 7758   2.174   2.685  13.719 -0.4297 -0.2466  0.6604
  519MPD2    C1 7759   2.082   2.603  13.659  0.3040  0.5187  0.0076
  519MPD2    C2 7760   2.087   2.470  13.688  0.1651 -0.1032  0.7466
  519MPD2    C3 7761   2.175   2.421  13.782 -0.1504  0.3923 -0.3068
  519MPD2    C4 7762   2.266   2.501  13.828 -0.1394 -0.0707 -0.0662
  519MPD2    C5 7763   2.264   2.635  13.802  0.0293 -0.4977 -0.0326
  519MPD2     H 7764   2.011   2.405  13.649  1.3530 -0.8139 -0.3875
  519MPD2    H1 7765   2.340   2.477  13.904  1.2360  0.5522 -1.1982
  519MPD2    H2 7766   2.186   2.790  13.695 -1.7323 -0.1598  0.3890
  519MPD2    H3 7767   2.345   2.702  13.830  0.0744 -0.7369  0.4118
  519MPD2     N 7768   2.169   2.289  13.831  0.1157  0.0868  0.3177
  519MPD2    H5 7769   2.252   2.266  13.884 -1.1038 -1.0633  1.7007
  519MPD2    N1 7770   1.999   2.652  13.556  0.0570 -0.6222 -0.5252
  519MPD2    H7 7771   2.007   2.749  13.530  0.8329 -0.5900 -0.1688
  520TMC3    C1 7772   2.111   2.061  13.838 -0.2566 -0.3335  0.3907
  520TMC3    C2 7773   2.017   1.963  13.803 -0.0629 -0.3245 -0.1720
  520TMC3    C3 7774   2.064   1.840  13.765 -0.8231 -0.3277  0.2577
  520TMC3    C4 7775   2.248   2.031  13.841 -0.7077 -0.0182  0.0961
  520TMC3    C5 7776   2.282   1.906  13.801  0.1630 -0.0907  0.2621
  520TMC3    C6 7777   2.200   1.807  13.762 -0.3307  0.6703 -0.0829
  520TMC3     C 7778   2.071   2.195  13.805  0.1047  0.2157 -0.4310
  520TMC3     O 7779   1.965   2.202  13.741 -0.3452  0.2063 -0.3619
  520TMC3     H 7780   1.910   1.985  13.806 -0.4892 -2.5997  1.0836
  520TMC3    H1 7781   2.324   2.107  13.855 -0.6966  0.0421 -0.3030
  520TMC3    H2 7782   2.228   1.704  13.740  0.4288  0.5736  1.3093
  520TMC3    C7 7783   2.408   1.866  13.843  0.2990 -0.1295 -0.3519
  520TMC3    C8 7784   1.971   1.755  13.695  0.3078  0.3311  0.5185
  520TMC3    O1 7785   2.446   1.901  13.953  0.3012 -0.1619  0.5935
  520TMC3    O2 7786   1.985   1.634  13.708  0.0830  0.6480 -0.6971
  521MPD2     C 7787   3.005   0.371  17.342 -0.0733  0.2295 -1.2050
  521MPD2    C1 7788   2.914   0.266  17.330 -0.0500  0.2201  0.2269
  521MPD2    C2 7789   2.958   0.143  17.289 -0.3488 -0.1648  0.5072
  521MPD2    C3 7790   3.097   0.129  17.284 -0.0631  0.7939 -0.3572
  521MPD2    C4 7791   3.180   0.236  17.317 -0.1319  0.6221 -0.1730
  521MPD2    C5 7792   3.136   0.362  17.328  0.5838 -0.3980  0.7189
  521MPD2     H 7793   2.890   0.058  17.291  0.3259 -0.6906  1.3670
  521MPD2    H1 7794   3.285   0.217  17.335 -0.3605 -1.0021 -0.5724
  521MPD2    H2 7795   2.971   0.466  17.381  1.0193  0.4413 -0.7510
  521MPD2    H3 7796   3.201   0.447  17.348  2.3604 -1.0656 -2.1603
  521MPD2     N 7797   3.142   0.002  17.244  0.2560 -0.3858 -0.3744
  521MPD2    H5 7798   3.076   4.677  17.197  2.1789 -1.5840 -1.4778
  521MPD2    N1 7799   2.777   0.301  17.351  0.4614 -0.2761  0.0105
  521MPD2    H7 7800   2.753   0.399  17.360 -0.7736 -0.4802 -0.9072
  522TMC3    C1 7801   3.289   4.593  17.153 -0.2098 -0.3447  0.6071
  522TMC3    C2 7802   3.411   4.533  17.161 -0.0705  0.4233  0.3449
  522TMC3    C3 7803   3.446   4.454  17.055 -0.5433 -0.3623  0.0421
  522TMC3    C4 7804   3.205   4.580  17.043  0.0470 -0.2288  0.6116
  522TMC3    C5 7805   3.256   4.514  16.934  0.9137  0.1394 -0.2501
  522TMC3    C6 7806   3.368   4.439  16.943  0.3314 -0.3374 -0.2175
  522TMC3     C 7807   3.274   4.713  17.226 -0.1263 -0.3407  0.3621
  522TMC3     O 7808   3.380   0.032  17.256  0.0405  0.2964 -0.6770
  522TMC3     H 7809   3.466   4.542  17.254 -1.7939  0.0870  1.3972
  522TMC3    H1 7810   3.113   4.637  17.039  0.0748 -0.2376 -0.1369
  522TMC3    H2 7811   3.391   4.357  16.875 -0.9366 -0.4632 -0.4889
  522TMC3    C7 7812   3.152   4.449  16.859 -0.3079  0.1660 -0.8718
  522TMC3    C8 7813   3.580   4.409  17.073 -0.1437 -0.3431  0.7310
  522TMC3    O1 7814   3.133   4.327  16.884 -0.0576  0.0445 -0.7538
  522TMC3    O2 7815   3.617   4.388  17.184  0.1439  0.6961 -0.7538
  523MPD2     C 7816   1.019   0.144   9.556 -0.1874 -0.0541  0.8320
  523MPD2    C1 7817   0.903   0.082   9.582 -0.0823  0.3758  0.4640
  523MPD2    C2 7818   0.789   0.157   9.585 -0.0500 -0.0764  1.0634
  523MPD2    C3 7819   0.797   0.291   9.556 -0.7280 -0.3974 -0.1189
  523MPD2    C4 7820   0.919   0.350   9.529 -0.2985 -0.0147  0.5735
  523MPD2    C5 7821   1.030   0.279   9.531 -0.4635 -0.0800 -0.4188
  523MPD2     H 7822   0.699   0.108   9.622 -0.2627 -0.8377 -0.4956
  523MPD2    H1 7823   0.933   0.454   9.501  2.0563 -0.5696 -0.2770
  523MPD2    H2 7824   1.112   0.089   9.550 -0.0975  0.2750 -0.8438
  523MPD2    H3 7825   1.124   0.327   9.508  0.6576 -0.1433  4.1503
  523MPD2     N 7826   0.690   0.375   9.563 -0.7331 -0.0353  0.3937
  523MPD2    H5 7827   0.706   0.475   9.568  1.1851 -0.1975 -2.8134
  523MPD2    N1 7828   0.912   4.693   9.640 -0.1847 -0.2522 -0.1496
  523MPD2    H7 7829   1.007   4.665   9.664 -0.0329 -0.3606 -0.8910
  524TMC3    C1 7830   0.468   0.436   9.600 -0.8547  0.3973 -0.1237
  524TMC3    C2 7831   0.512   0.502   9.714 -0.1860 -0.5585 -0.9424
  524TMC3    C3 7832   0.407   0.576   9.773  0.6812  0.2795 -0.3812
  524TMC3    C4 7833   0.341   0.454   9.547 -0.3619  0.0084 -0.1618
  524TMC3    C5 7834   0.250   0.541   9.603  0.0052 -0.6004 -0.6981
  524TMC3    C6 7835   0.283   0.607   9.725 -1.1044 -1.0455  0.0859
  524TMC3     C 7836   0.559   0.326   9.563  0.3036  0.3386  0.4088
  524TMC3     O 7837   0.509   0.222   9.517 -0.5066  0.0303 -0.2047
  524TMC3     H 7838   0.599   0.475   9.773  0.0833  3.1599  0.3674
  524TMC3    H1 7839   0.310   0.410   9.452  1.4914 -2.9710  0.6117
  524TMC3    H2 7840   0.213   0.678   9.767 -0.3876  0.3149 -1.0129
  524TMC3    C7 7841   0.118   0.550   9.547 -0.3253  0.2187  0.6693
  524TMC3    C8 7842   0.436   0.631   9.909  0.0570 -0.2995  0.0514
  524TMC3    O1 7843   0.069   0.451   9.487 -0.1788 -0.0043  0.2014
  524TMC3    O2 7844   0.335   0.653   9.979 -0.0777 -0.2649 -0.3086
  525MPD2     C 7845   3.167   2.210  14.192  0.2209 -0.2101  0.1779
  525MPD2    C1 7846   3.285   2.221  14.269  0.0036 -0.8188 -0.0755
  525MPD2    C2 7847   3.357   2.343  14.255  0.0304  0.1594 -0.3089
  525MPD2    C3 7848   3.311   2.446  14.177  0.6262  0.2178 -0.1876
  525MPD2    C4 7849   3.196   2.428  14.106 -0.3372  0.9807 -0.1429
  525MPD2    C5 7850   3.128   2.314  14.111  0.3442  0.3023 -0.1803
  525MPD2     H 7851   3.451   2.355  14.308  0.5621 -3.0323 -0.5008
  525MPD2    H1 7852   3.158   2.510  14.046 -0.5544  0.9972  0.0181
  525MPD2    H2 7853   3.111   2.117  14.185  0.1140 -0.1229 -0.1316
  525MPD2    H3 7854   3.032   2.305  14.062  0.2643 -0.5569  0.1404
  525MPD2     N 7855   3.373   2.575  14.169  0.4325  0.2382 -0.0087
  525MPD2    H5 7856   3.322   2.642  14.112 -1.7370  0.9372  2.7151
  525MPD2    N1 7857   3.333   2.123  14.361  0.4353  0.6988 -0.2137
  525MPD2    H7 7858   3.418   2.149  14.410 -0.0429  1.2980  0.2876
  526TMC3    C1 7859   3.327   1.934  14.500  0.1329 -0.0885 -0.0545
  526TMC3    C2 7860   3.256   1.905  14.613  0.0496 -0.5228  0.5996
  526TMC3    C3 7861   3.319   1.883  14.730 -0.2529 -0.9713  0.7176
  526TMC3    C4 7862   3.458   1.923  14.491 -0.0921 -0.0271  0.1135
  526TMC3    C5 7863   3.520   1.912  14.614 -0.1294  0.1894 -0.7202
  526TMC3    C6 7864   3.457   1.884  14.731  0.2697  0.0372 -0.3215
  526TMC3     C 7865   3.260   2.015  14.397 -0.0506 -0.3667  0.2740
  526TMC3     O 7866   3.144   1.978  14.374 -0.7252  0.1730  0.0927
  526TMC3     H 7867   3.148   1.917  14.609  0.3639  2.4801  1.1241
  526TMC3    H1 7868   3.503   1.938  14.394  1.3102  1.7245  1.0502
  526TMC3    H2 7869   3.505   1.871  14.828 -1.0679  1.8716  0.5906
  526TMC3    C7 7870   3.655   1.858  14.617 -0.2708 -0.1947  0.7265
  526TMC3    C8 7871   3.254   1.851  14.846 -0.8213 -0.7532  0.0305
  526TMC3    O1 7872   3.712   1.881  14.721 -0.3046  0.8551 -0.1750
  526TMC3    O2 7873   3.313   1.770  14.921 -0.1184  0.0172  0.2204
  527MPD2     C 7874   1.770   4.393   1.256 -0.1648 -0.3974  0.3812
  527MPD2    C1 7875   1.746   4.385   1.122 -0.6134  0.0618 -0.1379
  527MPD2    C2 7876   1.850   4.339   1.041 -0.1829 -0.0994 -0.4013
  527MPD2    C3 7877   1.975   4.318   1.098 -0.4703 -0.0037 -0.1134
  527MPD2    C4 7878   1.993   4.319   1.232 -0.0543  0.6556  0.1514
  527MPD2    C5 7879   1.897   4.374   1.310  0.1607 -0.1182 -0.4760
  527MPD2     H 7880   1.821   4.331   0.937 -0.4012  1.2397 -0.4415
  527MPD2    H1 7881   2.095   4.305   1.268 -0.2090  0.2944  0.4477
  527MPD2    H2 7882   1.696   4.449   1.313 -1.0584  2.5830 -3.6288
  527MPD2    H3 7883   1.917   4.413   1.409 -0.1025  0.8440 -0.8059
  527MPD2     N 7884   2.087   4.286   1.011 -0.0740 -0.3475  0.5930
  527MPD2    H5 7885   2.063   4.311   0.916 -0.0032 -0.3027  0.5872
  527MPD2    N1 7886   1.629   4.419   1.051 -0.3233  0.3751  0.1561
  527MPD2    H7 7887   1.633   4.416   0.949 -1.6472  0.4925  0.0990
  528TMC3    C1 7888   1.405   4.504   1.025 -0.7391  0.3031 -1.1807
  528TMC3    C2 7889   1.406   4.469   0.892  0.8119  0.1470 -0.2323
  528TMC3    C3 7890   1.311   4.515   0.811 -0.2139 -0.1301  0.6112
  528TMC3    C4 7891   1.302   4.574   1.081  0.2083 -0.3640  0.2273
  528TMC3    C5 7892   1.210   4.622   0.995 -0.4398 -0.1321 -0.2702
  528TMC3    C6 7893   1.214   4.600   0.859 -0.1488 -0.0106  0.6335
  528TMC3     C 7894   1.508   4.468   1.113  0.7820 -0.0785 -0.2597
  528TMC3     O 7895   1.481   4.475   1.235  0.2795 -0.4359 -0.0024
  528TMC3     H 7896   1.495   4.422   0.853  0.0062 -0.6474 -1.1374
  528TMC3    H1 7897   1.288   4.590   1.187  1.3037  0.8164  0.2082
  528TMC3    H2 7898   1.153   4.655   0.789  2.5337  0.5128 -1.2785
  528TMC3    C7 7899   1.085   4.673   1.057  0.1246  0.3866 -0.5338
  528TMC3    C8 7900   1.338   4.499   0.670 -0.3213 -0.3209 -0.0588
  528TMC3    O1 7901   1.053   4.629   1.166  0.1838 -0.1773  0.0431
  528TMC3    O2 7902   1.446   4.459   0.631  0.1257  0.0567 -0.0474
  529MPD2     C 7903   3.374   2.734   0.443 -0.7406 -0.8503  0.0409
  529MPD2    C1 7904   3.496   2.734   0.381  0.1053  0.1443 -0.0958
  529MPD2    C2 7905   3.516   2.820   0.278  0.1945 -0.1534 -0.4639
  529MPD2    C3 7906   3.409   2.894   0.222  0.6789  0.1488 -0.6712
  529MPD2    C4 7907   3.286   2.883   0.274  0.0921 -0.7174 -0.6295
  529MPD2    C5 7908   3.278   2.810   0.394  0.1787 -0.1268  0.1403
  529MPD2     H 7909   3.610   2.811   0.225 -1.2042 -0.9314 -2.8208
  529MPD2    H1 7910   3.202   2.937   0.234 -0.9161 -1.1220  0.9393
  529MPD2    H2 7911   3.356   2.676   0.533  0.2052  2.0840  2.1480
  529MPD2    H3 7912   3.179   2.797   0.436 -0.1773  0.4203 -0.5464
  529MPD2     N 7913   3.427   2.986   0.116  1.1968  0.1355  0.0250
  529MPD2    H5 7914   3.344   3.040   0.093  0.6199 -0.6114  0.3870
  529MPD2    N1 7915   3.612   2.664   0.427 -0.5713  0.6368  0.0879
  529MPD2    H7 7916   3.702   2.693   0.390  0.7086 -1.5448  1.5171
  530TMC3    C1 7917   3.734   2.473   0.504  0.2729  0.3185  0.0012
  530TMC3    C2 7918   3.852   2.540   0.493 -0.1769 -0.3879  0.1416
  530TMC3    C3 7919   3.973   2.477   0.495  0.1331  0.0341 -0.1616
  530TMC3    C4 7920   3.735   2.340   0.527  0.2270 -0.9710  0.1805
  530TMC3    C5 7921   3.856   2.275   0.521  0.2935  0.2145  1.1164
  530TMC3    C6 7922   3.976   2.339   0.500  0.4594 -0.4530  0.3112
  530TMC3     C 7923   3.607   2.545   0.484  0.5847 -0.1500 -0.1577
  530TMC3     O 7924   3.506   2.484   0.511  0.3557  0.3109  0.0322
  530TMC3     H 7925   3.848   2.649   0.491 -4.0799 -0.5186  1.5396
  530TMC3    H1 7926   3.643   2.286   0.508 -0.5348 -0.2942  1.9563
  530TMC3    H2 7927   4.069   2.290   0.476  1.6907  1.6146  0.8572
  530TMC3    C7 7928   3.862   2.133   0.526 -0.0904 -0.0096 -0.3295
  530TMC3    C8 7929   4.089   2.560   0.510  0.6430 -0.3899 -0.2174
  530TMC3    O1 7930   3.956   2.079   0.471 -0.7068  0.2357  0.0067
  530TMC3    O2 7931   4.074   2.677   0.488 -0.1749 -0.1629  0.1552
  531MPD2     C 7932   2.866   0.330  13.390  0.4542 -0.4285 -0.7034
  531MPD2    C1 7933   2.901   0.445  13.453  0.7184 -0.5670  0.6045
  531MPD2    C2 7934   2.859   0.567  13.398 -0.8422  0.2675 -0.2951
  531MPD2    C3 7935   2.764   0.566  13.300  0.3625  0.3889  0.6800
  531MPD2    C4 7936   2.741   0.449  13.228 -0.0766 -0.6998  0.1418
  531MPD2    C5 7937   2.802   0.333  13.270  0.3123 -0.0215 -0.6012
  531MPD2     H 7938   2.886   0.665  13.438 -2.1364  1.2352 -1.8034
  531MPD2    H1 7939   2.687   0.439  13.134  0.1396 -0.4991 -0.0044
  531MPD2    H2 7940   2.913   0.237  13.418  0.8912  0.1246  0.4162
  531MPD2    H3 7941   2.799   0.252  13.198 -0.2483 -0.8595  0.3710
  531MPD2     N 7942   2.712   0.689  13.270  0.2101  0.0168 -0.9463
  531MPD2    H5 7943   2.754   0.764  13.324 -0.6320  1.0040 -1.6697
  531MPD2    N1 7944   2.990   0.435  13.568  0.4907 -0.2986  0.1240
  531MPD2    H7 7945   3.014   0.341  13.599  1.1744  0.4675  1.8544
  532TMC3    C1 7946   3.163   0.522  13.726  0.4259 -0.6614  0.2788
  532TMC3    C2 7947   3.211   0.647  13.759 -0.1246 -0.4379 -0.1798
  532TMC3    C3 7948   3.343   0.675  13.750 -0.2944 -0.4057  0.0661
  532TMC3    C4 7949   3.246   0.412  13.706  0.4259  0.3499  0.3759
  532TMC3    C5 7950   3.376   0.448  13.702 -0.0299 -0.3036  0.4070
  532TMC3    C6 7951   3.422   0.570  13.731 -0.9317 -0.1429  0.2020
  532TMC3     C 7952   3.057   0.545  13.627  0.1534  0.1897 -0.6930
  532TMC3     O 7953   3.039   0.664  13.596  0.0971 -0.1889 -0.4960
  532TMC3     H 7954   3.143   0.725  13.792 -0.3659 -1.2269  1.1699
  532TMC3    H1 7955   3.211   0.319  13.661 -0.5865  1.0072 -0.2075
  532TMC3    H2 7956   3.526   0.593  13.710  0.3681 -2.9013  3.7578
  532TMC3    C7 7957   3.477   0.344  13.708  0.4310 -0.3887  0.1879
  532TMC3    C8 7958   3.370   0.788  13.672 -0.9110 -0.6189 -0.4177
  532TMC3    O1 7959   3.586   0.389  13.740  0.0891 -0.6923  0.3990
  532TMC3    O2 7960   3.487   0.828  13.667 -0.8598 -0.4974 -0.3258
  533TMC3    C1 7961   3.529   2.750  14.220 -0.7228  0.3260  0.3821
  533TMC3    C2 7962   3.664   2.774  14.246  0.2361 -0.2772 -0.8877
  533TMC3    C3 7963   3.710   2.905  14.250  0.2853 -0.1616 -0.2161
  533TMC3    C4 7964   3.440   2.855  14.207  0.5237 -0.2273  0.2746
  533TMC3    C5 7965   3.488   2.985  14.233  0.8091 -0.2226  0.4311
  533TMC3    C6 7966   3.621   3.010  14.252  0.2685 -0.6223 -0.0109
  533TMC3     C 7967   3.491   2.614  14.236  0.0532 -0.1598  0.4428
  533TMC3     O 7968   3.569   2.551  14.305  0.3953 -0.0080 -0.0326
  533TMC3     H 7969   3.735   2.693  14.248 -1.0178 -1.3501  0.1860
  533TMC3    H1 7970   3.335   2.845  14.182  0.7729 -2.4628  0.1713
  533TMC3    H2 7971   3.659   3.110  14.268  1.5975 -1.0833 -0.2740
  533TMC3    C7 7972   3.412   3.109  14.202  0.0392 -0.5830  0.7207
  533TMC3    C8 7973   3.847   2.940  14.281  0.5043 -0.0717  0.1159
  533TMC3    O1 7974   3.468   3.190  14.123  0.0582 -0.2334  0.2024
  533TMC3    O2 7975   3.879   3.060  14.285  0.3328 -0.1491  0.0616
  534MPD2     C 7976   1.984   2.821   0.798  0.6835  0.3173  0.2366
  534MPD2    C1 7977   1.965   2.905   0.903 -0.1046 -0.0555 -0.4450
  534MPD2    C2 7978   1.844   2.967   0.906  0.6025 -0.2260 -0.4153
  534MPD2    C3 7979   1.752   2.948   0.802 -0.6360  0.1676 -0.1603
  534MPD2    C4 7980   1.781   2.875   0.687  0.3326 -0.5405  0.4111
  534MPD2    C5 7981   1.897   2.807   0.685 -0.3458 -0.1240  1.2040
  534MPD2     H 7982   1.832   3.045   0.981  0.7587  0.9004 -1.5585
  534MPD2    H1 7983   1.714   2.859   0.604 -0.6225 -0.4933  1.1836
  534MPD2    H2 7984   2.077   2.764   0.790  0.5650 -0.0289  1.3151
  534MPD2    H3 7985   1.926   2.740   0.605 -1.6906 -0.5241  1.0538
  534MPD2     N 7986   1.635   3.021   0.789 -0.0520 -0.1240  0.6847
  534MPD2    H5 7987   1.591   3.015   0.698  1.4144  1.3336 -0.1054
  534MPD2    N1 7988   2.059   2.934   1.008  0.0974 -0.2764  0.6304
  534MPD2    H7 7989   2.027   2.997   1.081  0.0832  0.3558  0.0790
  535TMC3    C1 7990   1.453   3.138   0.855  0.0169  0.0843 -0.1672
  535TMC3    C2 7991   1.345   3.139   0.944 -0.0843 -0.2150  0.6836
  535TMC3    C3 7992   1.212   3.122   0.897 -0.3854 -0.2031  0.3264
  535TMC3    C4 7993   1.424   3.133   0.723 -0.1137  0.3069 -0.6994
  535TMC3    C5 7994   1.301   3.114   0.677 -0.0139 -0.3141  0.3735
  535TMC3    C6 7995   1.193   3.118   0.763 -0.2125 -0.1086 -0.6803
  535TMC3     C 7996   1.578   3.081   0.898  0.8307  0.1122 -0.1548
  535TMC3     O 7997   1.610   3.080   1.011 -0.0544  1.0890 -0.7097
  535TMC3     H 7998   1.366   3.157   1.049  0.3463 -0.6633  0.6755
  535TMC3    H1 7999   1.497   3.163   0.649  0.9573 -0.8006 -0.0964
  535TMC3    H2 8000   1.098   3.106   0.713 -1.4869 -0.5910  1.8168
  535TMC3    C7 8001   1.269   3.184   0.556 -0.3123 -0.2480 -1.1864
  535TMC3    C8 8002   1.096   3.116   0.979 -0.2117 -0.1345 -0.4374
  535TMC3    O1 8003   1.215   3.129   0.459 -0.4878  0.3341 -0.1464
  535TMC3    O2 8004   0.984   3.127   0.926 -0.1014  0.5130  0.1306
  536MPD2     C 8005   0.092   1.555  16.130 -0.0826  0.4490  0.8080
  536MPD2    C1 8006   4.728   1.464  16.114 -0.6450 -0.3205 -0.6133
  536MPD2    C2 8007   4.655   1.452  15.997  0.4639  0.1339 -0.1556
  536MPD2    C3 8008   4.682   1.537  15.892  0.5098  0.0403 -0.6326
  536MPD2    C4 8009   0.047   1.625  15.903  0.5029  0.3703  1.0694
  536MPD2    C5 8010   0.120   1.642  16.022  0.2089  0.7064  0.6874
  536MPD2     H 8011   4.571   1.384  15.993 -1.3094  2.2353  1.6120
  536MPD2    H1 8012   0.074   1.690  15.821  3.3204 -2.5871 -0.3760
  536MPD2    H2 8013   0.158   1.565  16.215 -0.0304 -0.6513  0.9018
  536MPD2    H3 8014   0.200   1.714  16.034 -0.3003  1.3385  0.3156
  536MPD2     N 8015   4.610   1.538  15.772  0.1527 -0.0422 -0.0204
  536MPD2    H5 8016   4.633   1.612  15.707 -0.7601 -1.4843 -1.9669
  536MPD2    N1 8017   4.702   1.390  16.234 -0.4273 -0.5285  0.3506
  536MPD2    H7 8018   0.033   1.408  16.306 -0.7008 -1.1209  0.7547
  537TMC3    C1 8019   4.589   1.227  16.386  0.0390  0.7886  0.0018
  537TMC3    C2 8020   4.673   1.263  16.485 -0.0321 -0.5562  0.2533
  537TMC3    C3 8021   4.652   1.190  16.607  0.3316  0.3171  0.2242
  537TMC3    C4 8022   4.492   1.131  16.401 -0.0799  0.6655  0.9194
  537TMC3    C5 8023   4.475   1.074  16.519  1.1102  0.0166 -0.1196
  537TMC3    C6 8024   4.550   1.099  16.631 -0.9913 -0.2253  0.2260
  537TMC3     C 8025   4.598   1.296  16.256  0.8833  0.3789 -0.3608
  537TMC3     O 8026   4.498   1.278  16.185 -0.7159 -0.0279  0.5923
  537TMC3     H 8027   0.012   1.339  16.471 -2.0333  1.2391 -0.8178
  537TMC3    H1 8028   4.423   1.111  16.320  0.0822 -2.6127  1.6066
  537TMC3    H2 8029   4.519   1.068  16.730 -1.4254 -1.4843 -0.3078
  537TMC3    C7 8030   4.391   0.958  16.516  0.6343 -0.1936  0.0015
  537TMC3    C8 8031   4.736   1.235  16.715 -0.3605  0.6981 -0.2682
  537TMC3    O1 8032   4.302   0.958  16.430 -0.4505 -0.0218 -0.0420
  537TMC3    O2 8033   0.051   1.342  16.707 -0.1781  0.0162 -0.0615
  538TMC3    C1 8034   1.054   4.618  10.766 -0.3812  0.0315 -1.1312
  538TMC3    C2 8035   1.192   4.622  10.755 -0.3198  0.1968 -0.1651
  538TMC3    C3 8036   1.240   4.608  10.623 -0.2125  0.0907  0.6981
  538TMC3    C4 8037   0.968   4.631  10.659  0.1121  0.6209 -0.8092
  538TMC3    C5 8038   1.025   4.633  10.538  0.5263 -0.1179  0.3086
  538TMC3    C6 8039   1.160   4.620  10.511 -0.6254 -0.1498  0.1200
  538TMC3     C 8040   0.994   4.610  10.897 -0.1082  0.1759  0.5858
  538TMC3     O 8041   0.923   4.510  10.918 -0.3678 -0.1780  0.3007
  538TMC3     H 8042   1.261   4.633  10.838 -2.0732 -2.5366  1.6565
  538TMC3    H1 8043   0.863   4.644  10.683 -0.0328 -0.3044 -0.9077
  538TMC3    H2 8044   1.194   4.643  10.411  0.1524  0.8234  0.6077
  538TMC3    C7 8045   0.925   4.666  10.438 -0.2899 -0.9589 -0.5841
  538TMC3    C8 8046   1.381   4.576  10.603  0.4138  0.2247 -0.4897
  538TMC3    O1 8047   0.811   4.698  10.473  0.0380  0.0359 -0.6520
  538TMC3    O2 8048   1.425   4.503  10.689 -0.3748 -0.0408  0.0809
  539MPD2     C 8049   0.970   4.124  11.336 -0.0078 -0.2597 -0.2486
  539MPD2    C1 8050   0.870   4.052  11.276  0.0700  0.3057  0.7728
  539MPD2    C2 8051   0.792   4.130  11.182 -0.6187 -0.1770 -0.2816
  539MPD2    C3 8052   0.816   4.258  11.143  0.1592  0.4020  0.5451
  539MPD2    C4 8053   0.925   4.317  11.204  0.9446  1.1025 -0.8151
  539MPD2    C5 8054   0.995   4.251  11.297  0.1502 -0.1145  0.1043
  539MPD2     H 8055   0.701   4.091  11.140  1.2295 -2.4601 -2.1490
  539MPD2    H1 8056   0.962   4.416  11.178  2.2019  1.1809  1.2664
  539MPD2    H2 8057   1.042   4.082  11.406  0.1894 -0.2006 -0.4147
  539MPD2    H3 8058   1.072   4.309  11.347  0.2965 -1.2029  1.1476
  539MPD2     N 8059   0.747   4.319  11.036  0.4426  0.4017  0.4156
  539MPD2    H5 8060   0.793   4.402  10.999  2.0596 -0.8824 -0.4476
  539MPD2    N1 8061   0.845   3.917  11.305 -1.1738 -0.1974 -0.1912
  539MPD2    H7 8062   0.767   3.875  11.257  0.2422  0.4642 -3.0807
  540TMC3    C1 8063   0.579   4.410  10.903  0.4226 -0.2829 -0.0621
  540TMC3    C2 8064   0.539   4.356  10.776  0.0579 -0.1207  0.4582
  540TMC3    C3 8065   0.541   4.447  10.670 -0.0404 -0.1236  0.2942
  540TMC3    C4 8066   0.610   4.545  10.923  0.0110  0.3039  1.0361
  540TMC3    C5 8067   0.615   4.626  10.810 -0.0917  0.6212  0.0209
  540TMC3    C6 8068   0.587   4.580  10.678  0.1249  0.3570  0.7879
  540TMC3     C 8069   0.618   4.299  10.987 -0.2982  0.8278 -0.7707
  540TMC3     O 8070   0.550   4.196  10.997 -0.1421  0.4881 -0.2073
  540TMC3     H 8071   0.531   4.249  10.768  0.1796 -0.2362  1.9582
  540TMC3    H1 8072   0.631   4.578  11.024 -2.4841 -1.7756  2.2322
  540TMC3    H2 8073   0.599   4.647  10.593  0.2580 -1.9306 -0.9747
  540TMC3    C7 8074   0.641   0.033  10.835  0.3438 -0.5675 -0.0319
  540TMC3    C8 8075   0.520   4.384  10.544 -0.2476  0.3807 -0.6003
  540TMC3    O1 8076   0.622   0.063  10.950 -0.3843 -0.1509  0.2145
  540TMC3    O2 8077   0.494   4.263  10.539  0.2649  0.2348  0.0686
  541MPD2     C 8078   3.873   0.960  13.480 -0.2662 -0.4414  0.1299
  541MPD2    C1 8079   3.959   0.883  13.407 -0.7482 -0.0208 -0.8460
  541MPD2    C2 8080   4.001   0.933  13.279  0.4531  0.1649 -0.2063
  541MPD2    C3 8081   3.971   1.062  13.244  0.5098 -0.2583  0.1660
  541MPD2    C4 8082   3.895   1.142  13.334  0.6634  0.4139 -0.1943
  541MPD2    C5 8083   3.841   1.089  13.442 -0.0265  0.6378 -0.5856
  541MPD2     H 8084   4.061   0.863  13.222 -0.0525 -1.1295  0.8276
  541MPD2    H1 8085   3.891   1.250  13.320 -0.2428  0.7440  2.6406
  541MPD2    H2 8086   3.841   0.927  13.578  0.2847  1.9442  1.1094
  541MPD2    H3 8087   3.776   1.145  13.508  0.2224 -0.1753  0.3605
  541MPD2     N 8088   4.002   1.130  13.124  0.3533  0.1014 -0.4271
  541MPD2    H5 8089   3.962   1.222  13.110 -0.5532 -0.3817 -1.0023
  541MPD2    N1 8090   4.011   0.755  13.444  0.2441 -0.1822 -0.0822
  541MPD2    H7 8091   4.060   0.694  13.380 -0.5646 -0.9989  0.0720
  542TMC3    C1 8092   4.098   1.151  12.910 -0.6156 -0.7399 -0.9576
  542TMC3    C2 8093   4.090   1.096  12.790 -0.3085 -0.0295 -0.3962
  542TMC3    C3 8094   4.046   1.174  12.679 -0.4027 -0.0303  0.2335
  542TMC3    C4 8095   4.071   1.283  12.930 -0.1933  0.4962  0.0656
  542TMC3    C5 8096   4.024   1.353  12.820  0.1125 -0.3924  0.0358
  542TMC3    C6 8097   4.008   1.299  12.698  0.6264 -0.0029 -0.3524
  542TMC3     C 8098   4.080   1.072  13.031  0.4461 -0.1617  0.3737
  542TMC3     O 8099   4.126   0.956  13.021  0.0469  0.0696  0.2521
  542TMC3     H 8100   4.121   0.993  12.782  2.0554  0.7148 -1.0082
  542TMC3    H1 8101   4.070   1.332  13.026  0.3670 -0.1708  0.4054
  542TMC3    H2 8102   3.973   1.357  12.613  1.9917  1.2882 -0.0399
  542TMC3    C7 8103   3.978   1.489  12.841  0.0870 -1.1317  0.2416
  542TMC3    C8 8104   3.989   1.105  12.565 -0.3982 -0.0491 -0.3526
  542TMC3    O1 8105   4.044   1.551  12.924 -0.8098 -0.1235  0.4414
  542TMC3    O2 8106   3.993   1.160  12.456  0.7068 -0.2497 -0.0286
  543TMC3    C1 8107   3.395   2.361  16.992 -0.6617 -0.2841  0.1892
  543TMC3    C2 8108   3.423   2.232  17.026 -0.4646  0.1279 -0.1118
  543TMC3    C3 8109   3.460   2.206  17.158 -0.2141 -0.3111 -0.1940
  543TMC3    C4 8110   3.419   2.470  17.075 -0.1399 -0.0456  0.8239
  543TMC3    C5 8111   3.461   2.439  17.201  0.1794 -0.3351 -0.2296
  543TMC3    C6 8112   3.493   2.310  17.239 -0.1285 -0.4470 -0.0916
  543TMC3     C 8113   3.351   2.391  16.857  0.6550 -0.3331  0.9053
  543TMC3     O 8114   3.300   2.496  16.822  0.1195 -0.4772 -0.3876
  543TMC3     H 8115   3.409   2.145  16.963 -0.5168  0.5422 -0.6670
  543TMC3    H1 8116   3.371   2.563  17.046  1.5321  0.6629  0.3583
  543TMC3    H2 8117   3.536   2.303  17.338  1.9228  0.1309 -0.9418
  543TMC3    C7 8118   3.432   2.535  17.302  0.1487  0.3478 -0.1055
  543TMC3    C8 8119   3.455   2.066  17.203  0.3853 -0.0537 -0.3223
  543TMC3    O1 8120   3.399   2.498  17.416  0.3855  0.3821  0.4274
  543TMC3    O2 8121   3.443   1.974  17.122 -0.3482  0.2671  0.6022
  544MPD2     C 8122   3.463   1.706  17.566 -0.5048 -0.0828  0.3942
  544MPD2    C1 8123   3.434   1.692  17.426 -0.2900 -0.1649  0.4104
  544MPD2    C2 8124   3.447   1.806  17.344  0.9205 -0.0132 -0.7637
  544MPD2    C3 8125   3.475   1.933  17.406  0.4037  0.6430  0.0471
  544MPD2    C4 8126   3.501   1.935  17.547 -0.2780  0.0165 -0.3713
  544MPD2    C5 8127   3.493   1.826  17.618 -0.5761 -0.1884 -0.4600
  544MPD2     H 8128   3.442   1.800  17.236 -0.0257  2.4681 -0.8656
  544MPD2    H1 8129   3.524   2.027  17.599 -1.4156  0.1495 -0.1103
  544MPD2    H2 8130   3.459   1.625  17.638  0.0065 -0.2013  0.2957
  544MPD2    H3 8131   3.519   1.829  17.723  0.8438 -2.8699 -0.7235
  544MPD2     N 8132   3.490   2.057  17.336 -0.3212  0.3296  0.5127
  544MPD2    H5 8133   3.522   2.137  17.390 -1.5188  0.3649  1.1629
  544MPD2    N1 8134   3.414   1.557  17.375  0.3683  0.0215  0.3548
  544MPD2    H7 8135   3.376   1.482  17.432  0.1813  2.4013  3.4080
  545TMC3    C1 8136   3.453   1.382  17.245  0.3970  0.0339  0.2134
  545TMC3    C2 8137   3.567   1.320  17.195  0.3451 -0.3844 -1.1882
  545TMC3    C3 8138   3.566   1.181  17.203 -0.3516  0.2483 -0.5131
  545TMC3    C4 8139   3.359   1.316  17.313 -0.7040  0.1472 -0.8030
  545TMC3    C5 8140   3.378   1.189  17.335  0.7898 -0.6587  0.4298
  545TMC3    C6 8141   3.472   1.115  17.280  0.2328  0.1226 -0.2757
  545TMC3     C 8142   3.446   1.524  17.247  0.0142 -0.1215  0.0061
  545TMC3     O 8143   3.518   1.587  17.166  0.0510 -0.3891 -0.5452
  545TMC3     H 8144   3.652   1.359  17.142  1.8014 -0.2871  1.2442
  545TMC3    H1 8145   3.274   1.362  17.362  0.0873  1.2358 -0.4532
  545TMC3    H2 8146   3.492   1.010  17.301 -0.3216  0.7353  3.2824
  545TMC3    C7 8147   3.259   1.116  17.371 -0.0340 -0.1682 -0.1134
  545TMC3    C8 8148   3.672   1.102  17.143 -0.5550  0.2061  0.3522
  545TMC3    O1 8149   3.148   1.158  17.334  0.0882 -0.3330  0.3426
  545TMC3    O2 8150   3.774   1.165  17.121  0.6532  0.1576 -0.7633
  546MPD2     C 8151   0.206   1.907  17.218 -0.2575 -0.2350  0.2464
  546MPD2    C1 8152   0.168   1.967  17.100  0.2369  0.3469  0.4122
  546MPD2    C2 8153   0.203   2.099  17.073 -1.0153  0.1235  0.3978
  546MPD2    C3 8154   0.259   2.176  17.171  0.1079  0.2048  0.2217
  546MPD2    C4 8155   0.291   2.114  17.288  0.1405 -0.4512 -0.8733
  546MPD2    C5 8156   0.265   1.982  17.312 -0.1516 -0.1149  0.3848
  546MPD2     H 8157   0.177   2.142  16.976 -1.0089 -1.0686 -0.1333
  546MPD2    H1 8158   0.343   2.165  17.368  0.0868 -0.8620 -0.5734
  546MPD2    H2 8159   0.180   1.804  17.237  1.2468 -0.6768 -0.0869
  546MPD2    H3 8160   0.276   1.938  17.410 -1.9024 -1.4445 -0.0282
  546MPD2     N 8161   0.274   2.319  17.164 -0.3346  0.0537  0.5555
  546MPD2    H5 8162   0.261   2.365  17.254 -1.3332  0.9159 -0.0404
  546MPD2    N1 8163   0.112   1.879  17.006 -0.1164  0.3023  0.0912
  546MPD2    H7 8164   0.089   1.786  17.039  0.1803  0.3589  0.4628
  547TMC3    C1 8165   4.732   1.797  16.832  0.1239  0.4079 -0.2801
  547TMC3    C2 8166   4.620   1.844  16.767 -0.3365 -0.5367  0.3131
  547TMC3    C3 8167   4.503   1.771  16.771  0.1112  0.4624  0.3398
  547TMC3    C4 8168   4.730   1.679  16.903 -0.0809 -0.0931  0.4424
  547TMC3    C5 8169   4.609   1.609  16.917  0.4463  0.2432  0.3340
  547TMC3    C6 8170   4.493   1.655  16.851 -0.0620 -0.4553  0.1205
  547TMC3     C 8171   0.084   1.897  16.875  0.2049 -0.2891  0.2639
  547TMC3     O 8172   0.073   2.003  16.818 -0.7063 -0.1081 -0.1133
  547TMC3     H 8173   4.624   1.938  16.714  0.2561 -0.4955  0.4329
  547TMC3    H1 8174   0.081   1.629  16.942  2.2284  2.1884 -1.8768
  547TMC3    H2 8175   4.399   1.607  16.874  1.5560 -3.6640  0.0530
  547TMC3    C7 8176   4.608   1.512  17.027 -0.6601  0.1932  0.6178
  547TMC3    C8 8177   4.379   1.836  16.749  0.0564  0.4141  0.0064
  547TMC3    O1 8178   4.711   1.512  17.093  0.1734  0.1240 -0.0394
  547TMC3    O2 8179   4.378   1.948  16.797 -0.0522  0.4715  0.3369
  548MPD2     C 8180   4.526   2.901  12.610 -0.0800  0.2405  0.5119
  548MPD2    C1 8181   4.468   2.777  12.603  0.4587  0.3114  0.0479
  548MPD2    C2 8182   4.556   2.665  12.582 -1.1671  0.3371  0.1432
  548MPD2    C3 8183   4.691   2.679  12.581  0.0808 -0.1432  0.1396
  548MPD2    C4 8184   0.012   2.803  12.593  1.0056  0.3034  0.1872
  548MPD2    C5 8185   4.665   2.913  12.613 -0.4917  0.2315  1.0195
  548MPD2     H 8186   4.515   2.570  12.552  2.6151 -1.7114  1.5111
  548MPD2    H1 8187   0.119   2.820  12.587  0.9838  0.7720  1.0858
  548MPD2    H2 8188   4.474   2.994  12.630 -0.1097  0.6854 -1.6251
  548MPD2    H3 8189   4.703   3.014  12.629  0.6140  0.1945 -1.3411
  548MPD2     N 8190   0.032   2.567  12.559 -0.2253 -0.2677 -0.1389
  548MPD2    H5 8191   4.712   2.483  12.552 -2.4939  1.3542 -0.7629
  548MPD2    N1 8192   4.328   2.780  12.600  0.2089 -0.2097 -0.5028
  548MPD2    H7 8193   4.278   2.869  12.603  0.8337  0.0544  2.0581
  549TMC3    C1 8194   4.117   2.686  12.588  0.2478  0.6696  0.0784
  549TMC3    C2 8195   4.062   2.803  12.540  0.3661 -0.5978 -0.7592
  549TMC3    C3 8196   3.927   2.814  12.545  0.2190 -0.2294 -0.2487
  549TMC3    C4 8197   4.044   2.580  12.623  0.0725  0.4164 -0.2205
  549TMC3    C5 8198   3.907   2.599  12.626 -0.0054  0.1032  1.0411
  549TMC3    C6 8199   3.848   2.716  12.591  0.7007  0.7214  0.2706
  549TMC3     C 8200   4.255   2.667  12.597 -0.4692  0.5300 -0.5774
  549TMC3     O 8201   4.282   2.546  12.607 -0.3536  0.4842 -0.1346
  549TMC3     H 8202   4.122   2.878  12.490 -1.3939  2.0086  0.9842
  549TMC3    H1 8203   4.085   2.492  12.671  0.6766  1.3576  0.9716
  549TMC3    H2 8204   3.740   2.731  12.590  0.6964  0.7304  0.8930
  549TMC3    C7 8205   3.820   2.509  12.703  0.6966 -0.2397  0.8239
  549TMC3    C8 8206   3.860   2.933  12.491 -0.0961  0.1419 -0.1954
  549TMC3    O1 8207   3.704   2.517  12.672 -0.0262 -0.5652 -0.2593
  549TMC3    O2 8208   3.742   2.924  12.481  0.2266  0.1358 -0.5142
  550TMC3    C1 8209   3.527   0.785  12.309  0.1471 -0.0490  0.1640
  550TMC3    C2 8210   3.535   0.778  12.445  0.9573  0.5230  0.3126
  550TMC3    C3 8211   3.543   0.892  12.519  0.2792  0.4593 -0.2138
  550TMC3    C4 8212   3.523   0.913  12.249  0.4491  0.1220 -0.0239
  550TMC3    C5 8213   3.537   1.025  12.326 -0.4518 -0.3316 -0.0662
  550TMC3    C6 8214   3.540   1.015  12.461 -0.4810  0.1358  0.3246
  550TMC3     C 8215   3.531   0.663  12.227 -0.1508 -0.5326 -0.1243
  550TMC3     O 8216   3.568   0.563  12.292  0.1385 -0.6465 -0.1813
  550TMC3     H 8217   3.524   0.683  12.496  1.4658  0.8669  1.0515
  550TMC3    H1 8218   3.536   0.922  12.141  2.0553  1.0442  0.2493
  550TMC3    H2 8219   3.560   1.103  12.522  0.9561 -0.1724  0.2915
  550TMC3    C7 8220   3.440   1.123  12.284  0.0728 -0.3667 -0.0802
  550TMC3    C8 8221   3.464   0.890  12.637 -0.2221 -0.3929 -0.4050
  550TMC3    O1 8222   3.339   1.136  12.349  0.0380  0.1199  0.1983
  550TMC3    O2 8223   3.474   0.804  12.723 -0.2358  0.4753  0.0124
  551TMC3    C1 8224   0.862   3.573  13.163 -0.3579 -0.5673 -0.7539
  551TMC3    C2 8225   0.918   3.694  13.176 -0.3347  0.4013  0.0168
  551TMC3    C3 8226   0.936   3.744  13.303 -0.1893  0.1647  0.4119
  551TMC3    C4 8227   0.813   3.501  13.270  0.3025  0.0806  0.1190
  551TMC3    C5 8228   0.833   3.556  13.396  0.1848 -0.3213 -0.3740
  551TMC3    C6 8229   0.891   3.676  13.419 -0.5560 -0.0349 -0.0454
  551TMC3     C 8230   0.833   3.521  13.027  0.0423 -0.3478  0.1644
  551TMC3     O 8231   0.728   3.465  13.010  0.1412  0.6700 -0.1046
  551TMC3     H 8232   0.960   3.745  13.090 -2.8858  1.8516 -0.3747
  551TMC3    H1 8233   0.761   3.408  13.253 -0.2800  0.8891 -2.5983
  551TMC3    H2 8234   0.924   3.701  13.519  0.1009 -0.7227 -0.0843
  551TMC3    C7 8235   0.829   3.469  13.518 -0.1624  0.0387 -0.2385
  551TMC3    C8 8236   1.020   3.854  13.332 -0.2920  0.4578 -0.6101
  551TMC3    O1 8237   0.837   3.523  13.624  0.1997  0.3090 -0.5627
  551TMC3    O2 8238   1.065   3.869  13.444 -0.0622  0.3774 -0.0535
  552MPD2     C 8239   2.719   0.434  13.930 -0.3664 -0.0353 -0.2420
  552MPD2    C1 8240   2.699   0.376  14.052 -0.8258  0.3380  0.2522
  552MPD2    C2 8241   2.773   0.421  14.158  0.2906  0.2101  0.0065
  552MPD2    C3 8242   2.861   0.531  14.151  1.0084 -0.7670  0.0402
  552MPD2    C4 8243   2.884   0.585  14.025 -0.0668  0.4604 -0.2759
  552MPD2    C5 8244   2.807   0.547  13.917  0.2570  0.2666  0.0249
  552MPD2     H 8245   2.758   0.376  14.256  1.2591 -0.4499 -0.1507
  552MPD2    H1 8246   2.957   0.665  14.016  0.8679 -0.3751 -0.1640
  552MPD2    H2 8247   2.682   0.398  13.835  0.3018 -2.5065  0.4147
  552MPD2    H3 8248   2.825   0.602  13.825  0.0225 -0.4268 -0.4332
  552MPD2     N 8249   2.936   0.572  14.263  0.3282  0.3586  0.1919
  552MPD2    H5 8250   3.003   0.647  14.246  1.8040 -0.8508  0.7165
  552MPD2    N1 8251   2.621   0.263  14.061 -0.1245  0.1115  0.7009
  552MPD2    H7 8252   2.618   0.224  14.154  2.9447 -0.1982  0.6602
  553TMC3    C1 8253   2.488   0.076  14.026  0.2383  0.3217 -0.3294
  553TMC3    C2 8254   2.531   4.710  13.935 -0.5287 -0.3891 -0.1111
  553TMC3    C3 8255   2.586   4.604  13.996  0.3261 -0.4983  0.5433
  553TMC3    C4 8256   2.504   0.063  14.161  0.3616  0.6032 -0.0149
  553TMC3    C5 8257   2.584   4.705  14.210 -0.2670  0.8611  0.7849
  553TMC3    C6 8258   2.624   4.599  14.128 -0.5856  0.2554  0.6397
  553TMC3     C 8259   2.536   0.198  13.972  0.2241 -0.5977 -0.0917
  553TMC3     O 8260   2.517   0.228  13.857 -0.2999 -0.2655  0.0758
  553TMC3     H 8261   2.496   4.707  13.832 -2.1282  0.4313  0.4035
  553TMC3    H1 8262   2.460   0.142  14.220 -1.0813  0.6439 -1.1595
  553TMC3    H2 8263   2.663   4.509  14.174 -1.9045  1.5288  4.2581
  553TMC3    C7 8264   2.687   0.030  14.292  0.0076  0.5411 -0.9174
  553TMC3    C8 8265   2.611   4.480  13.925 -0.0909 -0.1818 -0.6347
  553TMC3    O1 8266   2.666   0.137  14.349 -0.4729  0.1639 -0.3688
  553TMC3    O2 8267   2.687   4.408  13.987  0.1726  0.4722  0.3232
  554TMC3    C1 8268   0.306   0.012  11.143 -0.1736  0.1725 -0.3473
  554TMC3    C2 8269   0.179   4.723  11.180 -0.0093 -0.4907  0.3264
  554TMC3    C3 8270   0.071   0.056  11.135 -0.0315  0.6430  0.4421
  554TMC3    C4 8271   0.336   0.131  11.072 -0.2056  0.4644  0.8146
  554TMC3    C5 8272   0.228   0.212  11.036 -0.6197 -0.0565  0.1055
  554TMC3    C6 8273   0.099   0.167  11.059 -0.2514 -0.3121 -0.2723
  554TMC3     C 8274   0.410   4.696  11.226 -0.1807 -0.3030 -0.0724
  554TMC3     O 8275   0.492   0.029  11.281 -0.0606  0.2537  0.0233
  554TMC3     H 8276   0.165   4.626  11.226  1.2637 -1.6576 -1.7082
  554TMC3    H1 8277   0.440   0.157  11.056 -0.4164  0.1656 -1.0673
  554TMC3    H2 8278   0.015   0.220  11.015 -0.6745 -0.8090 -0.0705
  554TMC3    C7 8279   0.247   0.265  10.906 -0.4286  1.2275 -0.7030
  554TMC3    C8 8280   4.711   4.703  11.084  0.2902 -0.1061 -0.9760
  554TMC3    O1 8281   0.339   0.216  10.839 -0.2579 -0.7964  0.6890
  554TMC3    O2 8282   4.682   4.722  10.968  0.5576 -0.3859  0.6311
  555TMC3    C1 8283   3.517   3.618  14.792  0.1322  0.1715  0.1085
  555TMC3    C2 8284   3.607   3.710  14.837  0.2175  0.2132  0.4214
  555TMC3    C3 8285   3.728   3.659  14.876  0.0823 -0.5921 -0.6541
  555TMC3    C4 8286   3.527   3.484  14.810 -0.6004 -0.1360  0.1832
  555TMC3    C5 8287   3.645   3.440  14.864  0.3173 -0.5219  0.0996
  555TMC3    C6 8288   3.749   3.523  14.893  0.2195  0.1476 -0.8886
  555TMC3     C 8289   3.398   3.664  14.726  0.1770 -0.1025 -0.0479
  555TMC3     O 8290   3.298   3.597  14.744  0.0887 -0.0084  0.1194
  555TMC3     H 8291   3.590   3.817  14.829  0.6288  0.2076 -0.5306
  555TMC3    H1 8292   3.445   3.421  14.778 -0.9250 -0.0910  0.9362
  555TMC3    H2 8293   3.851   3.490  14.907 -0.5266 -1.2943  1.2107
  555TMC3    C7 8294   3.661   3.300  14.868 -0.1510 -0.0398  0.5334
  555TMC3    C8 8295   3.837   3.753  14.895  0.2431 -0.7352  0.4121
  555TMC3    O1 8296   3.557   3.245  14.834 -0.2168  0.3162 -0.3460
  555TMC3    O2 8297   3.832   3.862  14.836 -0.3099  0.1306 -0.9023
  556MPD2     C 8298   2.379   0.658  10.433  0.0771  0.0931 -0.0406
  556MPD2    C1 8299   2.275   0.577  10.482  0.2834  0.0784 -0.0113
  556MPD2    C2 8300   2.217   0.487  10.395 -0.1762 -0.3348  0.2907
  556MPD2    C3 8301   2.253   0.476  10.263 -0.2552 -0.5507 -0.4684
  556MPD2    C4 8302   2.357   0.547  10.218  0.7009 -0.1450  0.0840
  556MPD2    C5 8303   2.416   0.640  10.301  0.0645  0.4599 -0.0444
  556MPD2     H 8304   2.140   0.419  10.429  1.1111 -1.5783  0.7279
  556MPD2    H1 8305   2.389   0.533  10.116  2.5192 -3.7097  1.1354
  556MPD2    H2 8306   2.444   0.720  10.494  0.1507  1.3870 -1.4436
  556MPD2    H3 8307   2.490   0.706  10.256 -0.8030  0.8088 -0.9552
  556MPD2     N 8308   2.173   0.392  10.180  0.4452 -0.0831 -0.0278
  556MPD2    H5 8309   2.094   0.347  10.226  0.5987 -2.1347 -1.7766
  556MPD2    N1 8310   2.223   0.585  10.616 -0.3911 -0.1962 -0.2009
  556MPD2    H7 8311   2.150   0.517  10.638  0.9176 -2.2480 -2.1403
  557TMC3    C1 8312   2.059   0.314  10.003 -0.4786  0.7822 -0.2156
  557TMC3    C2 8313   1.961   0.379   9.938  0.5660 -0.6673 -0.5472
  557TMC3    C3 8314   1.851   0.306   9.903  0.3979  0.4399  0.3954
  557TMC3    C4 8315   2.040   0.193  10.058 -0.5117  0.3667  0.6284
  557TMC3    C5 8316   1.920   0.131  10.044  0.2560 -0.5596  0.1839
  557TMC3    C6 8317   1.826   0.186   9.966  0.1902  0.4380  0.2332
  557TMC3     C 8318   2.178   0.381  10.048 -0.5046 -0.1545  0.3766
  557TMC3     O 8319   2.251   0.444   9.968  0.5075  0.1559  0.2957
  557TMC3     H 8320   1.982   0.468   9.881  0.2203 -0.4166 -0.2841
  557TMC3    H1 8321   2.116   0.145  10.120 -0.7413 -0.7129  0.0666
  557TMC3    H2 8322   1.741   0.129   9.929  1.0110  0.0762 -1.0700
  557TMC3    C7 8323   1.896   0.017  10.126  0.2692 -0.4412 -0.7072
  557TMC3    C8 8324   1.759   0.371   9.808 -0.2959 -0.3378 -0.1307
  557TMC3    O1 8325   1.987   4.675  10.132  0.4986  0.1280 -0.1818
  557TMC3    O2 8326   1.749   0.494   9.803  0.3836  0.3713 -0.3093
  558TMC3    C1 8327   4.256   2.941  10.060 -0.7310 -0.0406  0.4295
  558TMC3    C2 8328   4.132   2.991  10.103  0.0084 -0.7255 -0.0641
  558TMC3    C3 8329   4.060   3.054  10.002 -0.5419 -0.0063  0.4177
  558TMC3    C4 8330   4.305   2.948   9.931  0.1037  0.7702  0.9149
  558TMC3    C5 8331   4.226   3.002   9.828  0.1776 -0.4602 -0.9250
  558TMC3    C6 8332   4.099   3.048   9.866  0.6480 -0.2640  0.5930
  558TMC3     C 8333   4.362   2.904  10.159  0.7406 -0.1188 -0.4382
  558TMC3     O 8334   4.456   2.840  10.119  0.0420 -0.0364  0.1997
  558TMC3     H 8335   4.109   2.998  10.208 -0.1970  0.7452 -0.2041
  558TMC3    H1 8336   4.409   2.926   9.912 -0.2348  1.1329 -1.4018
  558TMC3    H2 8337   4.031   3.097   9.797  1.8904  0.7389  0.0722
  558TMC3    C7 8338   4.289   3.024   9.701  0.1293 -0.0992  0.4432
  558TMC3    C8 8339   3.938   3.127  10.028 -1.1692  0.0205 -0.2473
  558TMC3    O1 8340   4.407   3.019   9.706 -0.2038 -0.1122 -0.1406
  558TMC3    O2 8341   3.855   3.114   9.941  0.5857  0.1886  0.1991
  559MPD2     C 8342   4.200   3.443  10.032 -0.2579  0.0034  0.3276
  559MPD2    C1 8343   4.186   3.484  10.164 -0.0782  0.0606  0.3355
  559MPD2    C2 8344   4.278   3.443  10.261  0.2722 -0.4012 -0.4450
  559MPD2    C3 8345   4.374   3.345  10.225 -0.0701 -0.5662  0.0443
  559MPD2    C4 8346   4.380   3.299  10.100  0.2916 -0.1617  0.3362
  559MPD2    C5 8347   4.289   3.344  10.007 -0.6250  1.0319  0.2213
  559MPD2     H 8348   4.278   3.495  10.356  2.1441 -0.6147 -0.3263
  559MPD2    H1 8349   4.459   3.235  10.060  0.7755 -0.1806  1.3071
  559MPD2    H2 8350   4.136   3.479   9.952 -0.5299 -1.9289 -0.3308
  559MPD2    H3 8351   4.294   3.303   9.907 -3.5053  1.9842 -0.3024
  559MPD2     N 8352   4.463   3.310  10.337 -0.2986 -0.1365  0.3457
  559MPD2    H5 8353   4.453   3.351  10.429 -0.3990 -0.5926  0.5395
  559MPD2    N1 8354   4.077   3.570  10.186  0.3559  0.5865  0.1201
  559MPD2    H7 8355   4.033   3.605  10.102  1.8129 -1.1381 -1.3383
  560TMC3    C1 8356   4.648   3.223  10.443 -0.2654  0.5517 -0.3493
  560TMC3    C2 8357   4.588   3.255  10.559 -0.3768 -0.8156 -0.3273
  560TMC3    C3 8358   4.624   3.369  10.632 -0.0656 -0.0461 -0.0352
  560TMC3    C4 8359   0.026   3.289  10.418  0.3804 -0.1683  0.6291
  560TMC3    C5 8360   0.069   3.396  10.486  0.2620 -1.0108 -0.7612
  560TMC3    C6 8361   0.000   3.442  10.594 -0.1114 -0.3030 -0.1079
  560TMC3     C 8362   4.564   3.213  10.322  0.6915 -0.3538  0.2644
  560TMC3     O 8363   4.612   3.161  10.222 -0.3015 -0.7581 -0.2655
  560TMC3     H 8364   4.502   3.199  10.594  0.7297 -1.3879  1.4762
  560TMC3    H1 8365   0.070   3.273  10.320  0.8429 -1.0026  0.9735
  560TMC3    H2 8366   0.022   3.537  10.640  2.1404 -0.1192 -1.5247
  560TMC3    C7 8367   0.109   3.509  10.411 -0.6036 -1.0426 -0.4649
  560TMC3    C8 8368   4.510   3.440  10.683 -0.0311 -0.6888 -0.1950
  560TMC3    O1 8369   0.057   3.522  10.300  0.0725  0.3173  0.1673
  560TMC3    O2 8370   4.404   3.410  10.624 -0.5869 -0.5895 -0.0451
  561TMC3    C1 8371   1.986   2.977  11.052 -0.2484  0.4485 -0.5123
  561TMC3    C2 8372   1.927   2.953  11.173  0.3258 -0.0644 -0.2234
  561TMC3    C3 8373   1.896   3.054  11.258  0.2143 -0.2835 -0.6200
  561TMC3    C4 8374   2.010   3.103  11.001 -0.0467 -0.0384 -0.1011
  561TMC3    C5 8375   1.973   3.206  11.085 -0.2885 -0.0364  0.2360
  561TMC3    C6 8376   1.921   3.183  11.215 -0.2363  0.0193 -0.3972
  561TMC3     C 8377   2.085   2.881  11.011 -0.2226 -0.3659 -0.0055
  561TMC3     O 8378   2.047   2.765  11.013 -0.0824  0.0812 -0.2916
  561TMC3     H 8379   1.921   2.848  11.202 -2.3076 -0.0699 -0.7944
  561TMC3    H1 8380   2.043   3.118  10.899 -1.4655 -0.3057 -0.5960
  561TMC3    H2 8381   1.905   3.272  11.276  0.2805 -0.1129 -0.0713
  561TMC3    C7 8382   1.963   3.346  11.031  0.1891  0.0670 -0.8882
  561TMC3    C8 8383   1.939   3.003  11.383  0.1770 -0.7868 -0.0531
  561TMC3    O1 8384   1.869   3.420  11.073  0.6334 -0.4941  0.0442
  561TMC3    O2 8385   2.051   2.954  11.374 -0.4189 -0.2084  0.7460
  562TMC3    C1 8386   3.861   4.074  15.999  0.8939 -1.1018 -0.2707
  562TMC3    C2 8387   3.808   4.186  16.055  0.3501 -0.3629  0.1654
  562TMC3    C3 8388   3.781   4.288  15.966  0.8262  0.1288  0.2351
  562TMC3    C4 8389   3.853   4.043  15.865  0.0466 -0.4899  0.8145
  562TMC3    C5 8390   3.803   4.141  15.786 -0.2740  0.1295  0.4538
  562TMC3    C6 8391   3.765   4.264  15.832 -0.3974  0.4047  0.1909
  562TMC3     C 8392   3.902   3.972  16.082 -0.4565 -0.7592 -0.4166
  562TMC3     O 8393   3.988   3.898  16.034 -0.3439  0.2024 -0.2041
  562TMC3     H 8394   3.829   4.210  16.158  0.3746  0.3827 -0.0185
  562TMC3    H1 8395   3.893   3.945  15.839  4.8701  1.9382 -1.0125
  562TMC3    H2 8396   3.754   4.342  15.758  1.1748  0.9324  0.5107
  562TMC3    C7 8397   3.792   4.122  15.639  0.6024 -0.4049  0.0883
  562TMC3    C8 8398   3.702   4.400  16.024 -0.5422  0.0674  0.1970
  562TMC3    O1 8399   3.768   4.218  15.567 -0.2187  0.0405 -0.5633
  562TMC3    O2 8400   3.709   4.410  16.143 -0.2591 -0.5800  0.1873
  563MPD2     C 8401   1.131   0.471  15.412  0.2465 -1.2730 -0.4527
  563MPD2    C1 8402   1.117   0.551  15.524  0.2609 -0.3427  0.2628
  563MPD2    C2 8403   1.225   0.575  15.614 -0.3479  0.3914  0.1038
  563MPD2    C3 8404   1.345   0.517  15.589 -0.3557  0.1962 -0.9988
  563MPD2    C4 8405   1.364   0.443  15.480 -0.4212  0.2442 -0.7700
  563MPD2    C5 8406   1.259   0.421  15.397  0.5382  0.2882  0.2599
  563MPD2     H 8407   1.219   0.633  15.705  1.8669  0.4632  0.2057
  563MPD2    H1 8408   1.461   0.421  15.437 -0.0442 -0.8293  0.6264
  563MPD2    H2 8409   1.056   0.437  15.342  0.9824 -1.4564 -1.1480
  563MPD2    H3 8410   1.273   0.355  15.313  1.0505 -0.4450  0.9204
  563MPD2     N 8411   1.447   0.535  15.683  0.1985 -0.2182 -0.4548
  563MPD2    H5 8412   1.414   0.597  15.756  2.9264  1.3780 -0.5814
  563MPD2    N1 8413   0.995   0.621  15.544 -0.0500 -0.2651  0.1679
  563MPD2    H7 8414   0.920   0.604  15.478  1.3128 -3.3069 -0.5777
  564TMC3    C1 8415   0.843   0.747  15.678 -0.2528 -0.5640  0.1131
  564TMC3    C2 8416   0.753   0.670  15.607 -0.2074  0.1304  0.0947
  564TMC3    C3 8417   0.674   0.589  15.677 -0.0247  0.2738  0.8558
  564TMC3    C4 8418   0.854   0.749  15.813 -0.2653 -0.2335  0.8046
  564TMC3    C5 8419   0.784   0.649  15.870 -0.5633 -0.7441 -0.4239
  564TMC3    C6 8420   0.688   0.579  15.808  1.1478  0.0091  1.0080
  564TMC3     C 8421   0.981   0.734  15.629  0.9545  0.1801 -0.1181
  564TMC3     O 8422   1.068   0.811  15.667  1.0660  0.4527  0.4446
  564TMC3     H 8423   0.747   0.684  15.500  0.0488  1.0782  0.2050
  564TMC3    H1 8424   0.931   0.804  15.865  1.4505  0.3248 -2.3372
  564TMC3    H2 8425   0.638   0.505  15.869 -0.0556  0.1784  0.2280
  564TMC3    C7 8426   0.880   0.559  15.930 -0.0136  0.7183 -0.2236
  564TMC3    C8 8427   0.667   0.455  15.613 -0.0453  0.4657 -0.1249
  564TMC3    O1 8428   0.973   0.609  15.993  0.4214  0.2090 -0.5497
  564TMC3    O2 8429   0.660   0.370  15.699  0.3405  0.6828  0.2688
  565TMC3    C1 8430   1.920   2.421   9.964 -0.1362  0.9001 -0.0073
  565TMC3    C2 8431   1.927   2.290  10.013 -0.4386 -0.7035 -0.4645
  565TMC3    C3 8432   1.814   2.210   9.982 -0.1950 -0.3310 -0.0019
  565TMC3    C4 8433   1.807   2.483   9.924 -0.1096  0.0908  1.0558
  565TMC3    C5 8434   1.694   2.400   9.912  0.0824 -0.1362 -1.2361
  565TMC3    C6 8435   1.690   2.264   9.939 -0.0022 -0.3597 -0.5423
  565TMC3     C 8436   2.028   2.513   9.999 -0.1710 -0.1346 -0.0973
  565TMC3     O 8437   2.030   2.615   9.926 -0.3688  0.4011 -0.0701
  565TMC3     H 8438   2.021   2.240  10.031  0.2430  1.1386  1.1572
  565TMC3    H1 8439   1.810   2.589   9.899 -1.4877 -0.1657 -0.1615
  565TMC3    H2 8440   1.613   2.194   9.910 -1.0497 -0.9690  3.7354
  565TMC3    C7 8441   1.575   2.468   9.890 -0.1720  1.8734 -0.1359
  565TMC3    C8 8442   1.830   2.061   9.989 -0.2872 -0.0888 -0.1352
  565TMC3    O1 8443   1.579   2.587   9.862  0.8570 -0.0955  0.0628
  565TMC3    O2 8444   1.742   1.998   9.939  0.4449 -0.5946 -0.3315
  566MPD2     C 8445   3.123   3.629  13.862  0.8431  0.5370  1.3591
  566MPD2    C1 8446   3.202   3.735  13.830  0.3983 -0.1287  0.7578
  566MPD2    C2 8447   3.181   3.798  13.711 -1.1023 -0.2658 -0.4461
  566MPD2    C3 8448   3.075   3.760  13.628  0.1966  0.8249  0.0996
  566MPD2    C4 8449   2.999   3.644  13.656 -0.1006  0.1622  0.3392
  566MPD2    C5 8450   3.020   3.591  13.776  0.2196  0.5607  0.4299
  566MPD2     H 8451   3.234   3.889  13.685 -0.8048 -0.6550 -1.1891
  566MPD2    H1 8452   2.924   3.608  13.587  0.6402 -2.0385  0.6554
  566MPD2    H2 8453   3.118   3.584  13.960 -0.4166  0.7749  1.4069
  566MPD2    H3 8454   2.960   3.510  13.815 -0.1554  0.0018 -1.2811
  566MPD2     N 8455   3.045   3.829  13.505 -0.4417  0.4234 -0.2920
  566MPD2    H5 8456   2.980   3.788  13.438  0.0919  1.2483 -1.3223
  566MPD2    N1 8457   3.292   3.771  13.936 -0.3526  0.5006  0.6298
  566MPD2    H7 8458   3.298   3.701  14.008 -1.5126 -1.4498 -1.1611
  567TMC3    C1 8459   3.490   3.857  14.031  0.1343 -0.1332 -0.1741
  567TMC3    C2 8460   3.594   3.939  14.005  0.7148 -0.3990 -0.2297
  567TMC3    C3 8461   3.710   3.897  14.051  0.3288 -0.0246  0.0652
  567TMC3    C4 8462   3.499   3.749  14.109  0.5921  0.2458  0.8413
  567TMC3    C5 8463   3.625   3.717  14.166 -0.4302 -0.0008  0.1764
  567TMC3    C6 8464   3.731   3.789  14.131 -0.3298 -0.5046 -0.2279
  567TMC3     C 8465   3.380   3.880  13.937  0.2088  0.0288  1.0831
  567TMC3     O 8466   3.388   3.971  13.857 -0.3859 -0.3289 -0.3602
  567TMC3     H 8467   3.590   4.026  13.941 -1.3873  0.3791  0.9516
  567TMC3    H1 8468   3.416   3.680  14.121  2.5536 -2.2025  0.3002
  567TMC3    H2 8469   3.831   3.764  14.162  0.3422 -0.1211 -2.1045
  567TMC3    C7 8470   3.651   3.594  14.233 -0.3182 -0.0594 -0.7001
  567TMC3    C8 8471   3.818   3.941  13.965 -0.4155  0.2699  0.1327
  567TMC3    O1 8472   3.763   3.550  14.237 -0.6647 -1.1879 -0.3579
  567TMC3    O2 8473   3.800   3.928  13.846  0.1963  0.5286 -0.6187
  568MPD2     C 8474   0.658   3.855  16.015  0.0902 -0.1313 -0.5417
  568MPD2    C1 8475   0.748   3.937  16.077 -0.1418  0.5093 -0.2271
  568MPD2    C2 8476   0.793   4.056  16.019  0.4238 -0.2752  0.2946
  568MPD2    C3 8477   0.748   4.092  15.896 -0.3323 -0.2358 -0.5630
  568MPD2    C4 8478   0.643   4.017  15.832  0.9245  0.0366  0.1803
  568MPD2    C5 8479   0.607   3.899  15.893  0.1604  0.0109  0.2564
  568MPD2     H 8480   0.867   4.121  16.064  0.7872  0.2638 -1.0771
  568MPD2    H1 8481   0.589   4.053  15.745 -0.7565 -2.0891  0.3522
  568MPD2    H2 8482   0.626   3.763  16.063 -0.0260  0.9278  1.3956
  568MPD2    H3 8483   0.530   3.838  15.847 -0.3211  0.7389  0.1035
  568MPD2     N 8484   0.802   4.209  15.837 -0.4581  0.2372  0.0888
  568MPD2    H5 8485   0.882   4.252  15.883  0.1991  1.6052 -2.2735
  568MPD2    N1 8486   0.794   3.896  16.207  0.5020 -0.3159 -0.4043
  568MPD2    H7 8487   0.769   3.801  16.229  0.7187 -0.8846 -2.6237
  569TMC3    C1 8488   0.856   4.372  15.679  0.2349  0.1126 -0.2561
  569TMC3    C2 8489   0.897   4.450  15.780 -0.0729  0.1086 -0.2301
  569TMC3    C3 8490   0.960   4.564  15.750 -0.2570 -0.4252  0.2841
  569TMC3    C4 8491   0.860   4.408  15.551 -0.0812  0.1830  0.1656
  569TMC3    C5 8492   0.919   4.524  15.520 -0.4725 -0.6367 -0.1178
  569TMC3    C6 8493   0.974   4.600  15.622 -0.3178 -0.0421 -0.1025
  569TMC3     C 8494   0.778   4.251  15.706  0.4186 -0.1913 -0.2205
  569TMC3     O 8495   0.690   4.224  15.626  0.1729  0.4716  0.1893
  569TMC3     H 8496   0.875   4.433  15.884  1.1560 -4.2685 -0.7041
  569TMC3    H1 8497   0.814   4.342  15.479  0.8890 -0.5591  0.2186
  569TMC3    H2 8498   1.006   4.700  15.597 -2.7239  0.2396 -2.1483
  569TMC3    C7 8499   0.853   4.594  15.410 -0.4417 -0.0132 -0.8020
  569TMC3    C8 8500   0.887   4.670  15.815 -0.2840 -0.3234  0.3255
  569TMC3    O1 8501   0.824   4.538  15.303 -0.2783  0.1372  0.1369
  569TMC3    O2 8502   0.815   0.001  15.742 -0.2336 -0.5382  0.2167
  570TMC3    C1 8503   4.726   2.760  15.998  0.4453 -0.5607  0.1119
  570TMC3    C2 8504   0.061   2.781  15.881 -0.0814 -0.2941 -0.9645
  570TMC3    C3 8505   0.089   2.910  15.847 -0.0350  0.2204  1.0559
  570TMC3    C4 8506   4.666   2.861  16.064 -0.1846 -0.2566  0.0177
  570TMC3    C5 8507   4.688   2.986  16.023  0.1150  0.2384  0.4660
  570TMC3    C6 8508   0.037   3.015  15.920  0.6143  0.6950  0.5116
  570TMC3     C 8509   4.706   2.630  16.045 -0.3900 -0.1772  0.1263
  570TMC3     O 8510   4.731   2.539  15.966 -0.5877 -0.8477 -0.3048
  570TMC3     H 8511   0.109   2.691  15.843 -1.1503 -1.8093  1.2770
  570TMC3    H1 8512   4.613   2.841  16.157 -0.5898  0.0298 -0.1500
  570TMC3    H2 8513   0.073   3.115  15.897 -1.0029  0.9011 -1.0852
  570TMC3    C7 8514   4.691   3.099  16.121 -0.1964 -0.1049 -0.0051
  570TMC3    C8 8515   0.172   2.949  15.740 -0.9886  0.1931 -0.2436
  570TMC3    O1 8516   0.049   3.175  16.109  0.4485  0.0264 -0.3268
  570TMC3    O2 8517   0.208   3.064  15.723 -0.2988  0.0556 -0.5290
  571MPD2     C 8518   3.061   4.692   0.353  0.0445  0.1926 -0.1870
  571MPD2    C1 8519   3.010   0.063   0.272  0.1513  0.0243 -0.2191
  571MPD2    C2 8520   3.063   0.188   0.285  0.3379 -0.8878 -0.3729
  571MPD2    C3 8521   3.168   0.216   0.371  0.1412 -0.3717 -0.3035
  571MPD2    C4 8522   3.207   0.112   0.458  0.0469  0.2546 -0.3229
  571MPD2    C5 8523   3.161   4.721   0.441  0.2109 -0.1529  0.1305
  571MPD2     H 8524   3.032   0.263   0.213  0.7932  0.2902  0.6547
  571MPD2    H1 8525   3.277   0.128   0.539 -0.0659  1.0484 -0.3812
  571MPD2    H2 8526   3.016   4.595   0.337  0.2365 -0.2564  2.0866
  571MPD2    H3 8527   3.195   4.648   0.513  2.8561 -0.1736 -1.1346
  571MPD2     N 8528   3.251   0.332   0.369 -0.0476  0.1421 -0.4706
  571MPD2    H5 8529   3.327   0.327   0.437  0.0480  0.2193 -0.5721
  571MPD2    N1 8530   2.903   0.030   0.178 -0.0526  0.2508 -0.1283
  571MPD2    H7 8531   2.879   4.669   0.179 -2.5132  0.8471 -0.5537
  572TMC3    C1 8532   3.293   0.563   0.306  0.3013  0.6583 -0.0157
  572TMC3    C2 8533   3.401   0.568   0.390 -0.5415 -0.4396  0.0373
  572TMC3    C3 8534   3.475   0.683   0.385 -0.2848  0.2063  0.9442
  572TMC3    C4 8535   3.249   0.670   0.229 -0.6345  0.4606 -0.4517
  572TMC3    C5 8536   3.310   0.788   0.249  0.6629  0.8811 -0.4635
  572TMC3    C6 8537   3.436   0.793   0.316  0.1318  0.0698 -0.5700
  572TMC3     C 8538   3.212   0.441   0.295 -0.1684 -0.8248 -0.0021
  572TMC3     O 8539   3.105   0.472   0.245 -0.0395 -0.5944 -0.2721
  572TMC3     H 8540   3.435   0.472   0.425  3.7387  0.9364 -0.3534
  572TMC3    H1 8541   3.163   0.661   0.164 -0.5808  0.3045 -0.5011
  572TMC3    H2 8542   3.495   0.883   0.328  0.9091 -0.5781  0.4124
  572TMC3    C7 8543   3.258   0.900   0.172 -0.4777 -0.3513 -0.2716
  572TMC3    C8 8544   3.591   0.697   0.484  0.7605  0.5028  0.3038
  572TMC3    O1 8545   3.137   0.905   0.151  0.2549 -0.0450 -0.0938
  572TMC3    O2 8546   3.648   0.808   0.493  0.1258  0.0833  0.8372
  573MPD2     C 8547   3.825   0.105   0.486  0.3600 -0.9241 -0.6336
  573MPD2    C1 8548   3.815   0.222   0.420 -0.2739  0.2486  0.2406
  573MPD2    C2 8549   3.723   0.237   0.317  0.1493 -0.6678 -1.2446
  573MPD2    C3 8550   3.641   0.135   0.279  0.1798  0.1859  0.0126
  573MPD2    C4 8551   3.644   0.021   0.353 -0.3407  0.0892 -0.1871
  573MPD2    C5 8552   3.735   0.003   0.456  0.4856  0.0076 -0.8858
  573MPD2     H 8553   3.719   0.334   0.268  1.0756 -0.4492 -0.8725
  573MPD2    H1 8554   3.575   4.675   0.342  1.8534 -1.9755  1.8216
  573MPD2    H2 8555   3.889   0.085   0.571  2.4217  1.2554 -1.6961
  573MPD2    H3 8556   3.741   4.655   0.523  2.0045 -0.6701 -1.9012
  573MPD2     N 8557   3.539   0.140   0.184 -0.1400 -0.8430  0.9139
  573MPD2    H5 8558   3.498   0.050   0.159  0.4815 -1.2600  1.3999
  573MPD2    N1 8559   3.911   0.319   0.463 -0.2498  0.1271 -0.3400
  573MPD2    H7 8560   3.980   0.288   0.531 -1.7317  0.9023  1.5101
  574TMC3    C1 8561   3.400   0.228   0.015 -0.5314 -0.5483 -0.4868
  574TMC3    C2 8562   3.332   0.344  17.727 -0.4426 -0.0936 -0.6045
  574TMC3    C3 8563   3.204   0.332  17.673 -0.3414 -0.3637 -0.3491
  574TMC3    C4 8564   3.336   0.106  17.739 -1.1635  0.6385 -0.2904
  574TMC3    C5 8565   3.210   0.098  17.695  0.5623  0.2873  0.0034
  574TMC3    C6 8566   3.144   0.213  17.654 -0.1038  0.0415  0.4485
  574TMC3     C 8567   3.507   0.252   0.114  0.6971 -0.0595  0.4292
  574TMC3     O 8568   3.532   0.367   0.145  0.1145  0.1819 -0.3676
  574TMC3     H 8569   3.374   0.443  17.737 -0.3563 -0.4153  2.3045
  574TMC3    H1 8570   3.391   0.017   0.023 -0.3010  0.0415 -3.4809
  574TMC3    H2 8571   3.044   0.213  17.613  0.0775 -3.3470  0.0284
  574TMC3    C7 8572   3.149   4.709  17.654  0.2718  0.2604 -0.2520
  574TMC3    C8 8573   3.131   0.461  17.660 -0.2002  0.0672 -0.2865
  574TMC3    O1 8574   3.034   4.710  17.615  0.6119 -0.0422  0.4505
  574TMC3    O2 8575   3.012   0.449  17.638  0.2569  0.7736 -0.2989
  575TMC3    C1 8576   1.499   1.258  10.095 -0.3595 -0.2679 -0.0148
  575TMC3    C2 8577   1.387   1.280  10.017  0.2887  0.7247 -0.1424
  575TMC3    C3 8578   1.413   1.361   9.913 -0.1350 -0.0740 -0.5775
  575TMC3    C4 8579   1.613   1.331  10.085  0.1651  0.6244 -0.0942
  575TMC3    C5 8580   1.633   1.409   9.976  0.2601  0.2002  0.1723
  575TMC3    C6 8581   1.531   1.427   9.886  0.0114  0.1811  0.1337
  575TMC3     C 8582   1.511   1.129  10.155  0.0464  0.3397 -0.1441
  575TMC3     O 8583   1.602   1.114  10.243  0.2556  0.4638  0.3902
  575TMC3     H 8584   1.293   1.235  10.047  1.3908  0.1038  2.3503
  575TMC3    H1 8585   1.699   1.297  10.141 -0.4862  0.2070  0.6698
  575TMC3    H2 8586   1.538   1.477   9.790 -2.4405  0.9910  0.3822
  575TMC3    C7 8587   1.721   1.524   9.978 -0.6077  0.5004  0.6359
  575TMC3    C8 8588   1.291   1.401   9.838  0.2754 -0.1367  0.7619
  575TMC3    O1 8589   1.735   1.598   9.882  0.5442 -0.1310  0.1980
  575TMC3    O2 8590   1.204   1.316   9.839 -0.6423  0.0768  0.3904
  576MPD2     C 8591   1.238   2.526  12.622 -0.5023 -0.5443 -0.3188
  576MPD2    C1 8592   1.219   2.661  12.593 -0.9880 -0.5729  0.6578
  576MPD2    C2 8593   1.134   2.726  12.683  0.3835 -0.0403  0.0462
  576MPD2    C3 8594   1.065   2.657  12.785 -0.1553 -0.0973 -0.0213
  576MPD2    C4 8595   1.084   2.522  12.809 -0.5338 -0.1352 -0.4377
  576MPD2    C5 8596   1.181   2.461  12.732  0.3916  0.6352  0.3419
  576MPD2     H 8597   1.117   2.833  12.676  2.7918  0.3213 -0.2339
  576MPD2    H1 8598   1.039   2.470  12.892 -1.7967 -0.3480 -1.2496
  576MPD2    H2 8599   1.299   2.465  12.558 -0.5595  0.6444 -1.4951
  576MPD2    H3 8600   1.210   2.358  12.750  1.3590  1.0421  1.0609
  576MPD2     N 8601   0.974   2.727  12.858  0.1501 -0.0069  0.7588
  576MPD2    H5 8602   0.968   2.827  12.844 -0.7357 -0.4428 -2.0394
  576MPD2    N1 8603   1.276   2.731  12.481 -0.4714  0.5843 -0.2099
  576MPD2    H7 8604   1.260   2.831  12.477  1.3011  0.8771  0.0303
  577TMC3    C1 8605   1.382   2.785  12.284  0.5702  0.1244  0.5234
  577TMC3    C2 8606   1.490   2.754  12.194  0.2645  0.2296 -0.3933
  577TMC3    C3 8607   1.505   2.838  12.084 -0.1226  0.2663  0.6763
  577TMC3    C4 8608   1.298   2.891  12.255  0.1896 -0.5131  0.6178
  577TMC3    C5 8609   1.315   2.976  12.147 -0.5245 -0.1168 -0.7649
  577TMC3    C6 8610   1.422   2.948  12.056 -0.1915  0.4810  0.3029
  577TMC3     C 8611   1.351   2.679  12.382 -0.3898 -0.0763  0.6503
  577TMC3     O 8612   1.398   2.565  12.369  0.4832 -0.6671 -0.7081
  577TMC3     H 8613   1.558   2.675  12.225  0.0708 -0.2155 -1.0931
  577TMC3    H1 8614   1.211   2.906  12.318 -0.3122  0.2035 -0.2340
  577TMC3    H2 8615   1.465   3.027  11.997  0.9122  0.8673  1.6218
  577TMC3    C7 8616   1.222   3.082  12.125  0.6378 -0.0239 -0.0107
  577TMC3    C8 8617   1.626   2.808  12.011  0.1777 -0.5571  0.1117
  577TMC3    O1 8618   1.161   3.111  12.227 -0.1885  0.1696  0.7391
  577TMC3    O2 8619   1.697   2.733  12.074  0.0226  0.1048 -0.7109
  578MPD2     C 8620   4.462   3.490   1.161 -1.2999  0.6886  0.7169
  578MPD2    C1 8621   4.494   3.408   1.061  0.6661 -0.3336  0.7624
  578MPD2    C2 8622   4.598   3.314   1.073 -0.2803 -0.5523 -0.0826
  578MPD2    C3 8623   4.679   3.319   1.186  0.8061 -0.2187  0.4107
  578MPD2    C4 8624   4.645   3.410   1.282  0.3321 -0.1627 -0.0066
  578MPD2    C5 8625   4.541   3.501   1.265  0.1897 -0.2605 -0.9165
  578MPD2     H 8626   4.619   3.236   1.001  2.2555 -0.2381  0.3167
  578MPD2    H1 8627   4.704   3.420   1.373  0.7170  1.4675 -0.4328
  578MPD2    H2 8628   4.382   3.563   1.157 -2.4310 -0.7078 -2.1381
  578MPD2    H3 8629   4.525   3.576   1.343  2.1533  0.2574 -1.0195
  578MPD2     N 8630   0.040   3.216   1.195 -0.1141  0.7520 -0.0649
  578MPD2    H5 8631   0.049   3.158   1.112 -0.9931  0.7291 -0.1399
  578MPD2    N1 8632   4.402   3.411   0.957  0.6447  0.2456 -0.2716
  578MPD2    H7 8633   4.329   3.481   0.964  1.2738  0.5739  2.8602
  579TMC3    C1 8634   0.227   3.100   1.281 -0.8905  0.8503  0.3807
  579TMC3    C2 8635   0.351   3.114   1.340  0.3229  0.1474  0.7003
  579TMC3    C3 8636   0.456   3.032   1.315 -0.8912 -0.5497 -0.1767
  579TMC3    C4 8637   0.214   3.001   1.188  0.5852  0.7103  0.0034
  579TMC3    C5 8638   0.324   2.919   1.164  0.4223  1.0058  0.4310
  579TMC3    C6 8639   0.442   2.931   1.225 -0.2418 -0.3134 -0.7335
  579TMC3     C 8640   0.127   3.206   1.303 -0.1333  0.9205 -0.3315
  579TMC3     O 8641   0.141   3.272   1.401  0.2339  0.6001  0.6033
  579TMC3     H 8642   0.366   3.201   1.404 -0.6462  0.0475  1.0569
  579TMC3    H1 8643   0.121   2.973   1.141  0.1938  1.2822  0.4312
  579TMC3    H2 8644   0.526   2.869   1.199  1.7201  1.6018  0.9843
  579TMC3    C7 8645   0.326   2.813   1.069  0.1375  0.1276 -0.2609
  579TMC3    C8 8646   0.586   3.057   1.378 -0.6053  0.2113  0.6566
  579TMC3    O1 8647   0.415   2.726   1.077  0.2106  0.0263  0.6890
  579TMC3    O2 8648   0.589   3.100   1.492  0.1853  0.3151 -0.0644
  580TMC3    C1 8649   3.922   2.605  12.174 -0.9178  0.4055  0.1685
  580TMC3    C2 8650   4.026   2.679  12.116  0.0856  0.1757  0.4780
  580TMC3    C3 8651   4.154   2.641  12.145 -0.3817 -0.4153  0.1385
  580TMC3    C4 8652   3.958   2.502  12.255  1.0467 -0.3400  0.1191
  580TMC3    C5 8653   4.086   2.462  12.275  0.2030 -0.4263 -0.2583
  580TMC3    C6 8654   4.190   2.544  12.230  0.3699  0.1432 -0.0377
  580TMC3     C 8655   3.784   2.619  12.132  0.8640 -0.1490  0.3211
  580TMC3     O 8656   3.694   2.562  12.194  0.0897  0.1337 -0.5210
  580TMC3     H 8657   4.006   2.754  12.040  1.8511  1.9685  1.7695
  580TMC3    H1 8658   3.880   2.438  12.294  1.8052  0.1797  2.4552
  580TMC3    H2 8659   4.289   2.500  12.240 -0.0835 -0.6439  0.9978
  580TMC3    C7 8660   4.110   2.358  12.375 -0.5297  0.5489 -0.0934
  580TMC3    C8 8661   4.256   2.684  12.045  0.5134  0.2491 -0.3543
  580TMC3    O1 8662   4.014   2.327  12.443 -0.3083 -0.3874 -0.4116
  580TMC3    O2 8663   4.238   2.794  11.990  0.2932 -0.3378 -0.4513
  581MPD2     C 8664   1.494   1.850  14.446 -0.2755 -0.1348 -0.0204
  581MPD2    C1 8665   1.464   1.987  14.444 -0.0660 -0.4812 -0.0744
  581MPD2    C2 8666   1.494   2.057  14.321 -0.3211  0.3148  0.3595
  581MPD2    C3 8667   1.555   1.993  14.214 -0.1554 -0.7038  0.0143
  581MPD2    C4 8668   1.598   1.864  14.227  0.1120  0.4844  0.1372
  581MPD2    C5 8669   1.565   1.792  14.347  0.8575 -0.2531  0.6757
  581MPD2     H 8670   1.461   2.158  14.302  1.0385  0.6412 -0.2568
  581MPD2    H1 8671   1.646   1.803  14.151 -0.5818  1.3128 -0.9702
  581MPD2    H2 8672   1.490   1.790  14.536 -2.7671  1.6966  1.0799
  581MPD2    H3 8673   1.596   1.688  14.343  1.0538 -0.0879 -1.7106
  581MPD2     N 8674   1.578   2.073  14.099 -0.1472  0.7070  0.2303
  581MPD2    H5 8675   1.555   2.171  14.107 -0.5594  0.5468  1.0204
  581MPD2    N1 8676   1.401   2.046  14.558 -0.2266  0.5465  0.7275
  581MPD2    H7 8677   1.382   1.996  14.644 -2.5932 -0.9377 -0.6640
  582TMC3    C1 8678   1.321   2.199  14.710 -0.1221 -0.3234 -0.0565
  582TMC3    C2 8679   1.386   2.131  14.812  0.5942  0.3445 -0.5088
  582TMC3    C3 8680   1.377   2.181  14.941  0.4580 -0.3913  0.2600
  582TMC3    C4 8681   1.247   2.315  14.728 -0.0449 -0.0671  0.2705
  582TMC3    C5 8682   1.248   2.362  14.859 -0.0467 -0.6869 -0.0902
  582TMC3    C6 8683   1.311   2.305  14.962  0.2788  0.4192 -0.0607
  582TMC3     C 8684   1.362   2.175  14.571  0.3997 -0.1245  0.1028
  582TMC3     O 8685   1.374   2.272  14.496  0.3823  0.1523 -0.0435
  582TMC3     H 8686   1.454   2.047  14.796 -3.7809 -3.3840  0.4979
  582TMC3    H1 8687   1.198   2.370  14.648  0.0547 -1.0299 -0.4456
  582TMC3    H2 8688   1.307   2.347  15.062  0.8316  0.3888 -0.0290
  582TMC3    C7 8689   1.219   2.500  14.875 -0.0692 -0.0219 -0.3267
  582TMC3    C8 8690   1.475   2.149  15.039  0.0762 -0.8322 -0.0302
  582TMC3    O1 8691   1.106   2.538  14.884 -0.6290 -0.2830 -0.4747
  582TMC3    O2 8692   1.470   2.213  15.144  0.5352  0.1949 -0.1229
  583MPD2     C 8693   2.189   3.416  16.787 -0.3197  0.6626 -0.2495
  583MPD2    C1 8694   2.128   3.507  16.705  0.4015 -0.4715  0.2887
  583MPD2    C2 8695   2.069   3.615  16.767 -0.0800 -0.4668 -0.7226
  583MPD2    C3 8696   2.099   3.649  16.895 -1.4115 -0.1247  0.7782
  583MPD2    C4 8697   2.169   3.559  16.972  0.0281 -0.5273 -0.7171
  583MPD2    C5 8698   2.207   3.437  16.916 -0.3038  0.1832  0.5287
  583MPD2     H 8699   2.029   3.691  16.700  1.2292 -0.7976 -1.8984
  583MPD2    H1 8700   2.201   3.584  17.072 -1.8379  0.6610 -0.4278
  583MPD2    H2 8701   2.228   3.321  16.751 -3.5289 -0.8972  0.4512
  583MPD2    H3 8702   2.275   3.376  16.973 -1.1010  2.6149  4.0674
  583MPD2     N 8703   2.043   3.773  16.939  0.1645  0.2621 -0.0367
  583MPD2    H5 8704   1.999   3.827  16.866  0.7590  1.5949  0.5963
  583MPD2    N1 8705   2.120   3.495  16.563  0.9969 -0.6157 -0.6611
  583MPD2    H7 8706   2.059   3.558  16.512  2.6169 -0.3071 -2.2501
  584TMC3    C1 8707   1.985   3.941  17.097  0.5973 -0.1337  0.5347
  584TMC3    C2 8708   1.989   4.058  17.020 -0.3072 -0.4717  0.1762
  584TMC3    C3 8709   1.970   4.181  17.077  0.0819 -1.3873 -0.2404
  584TMC3    C4 8710   1.939   3.951  17.225  0.2264  0.4080  0.7576
  584TMC3    C5 8711   1.921   4.076  17.276  0.4318  0.0972 -0.2673
  584TMC3    C6 8712   1.938   4.195  17.205  0.4423 -0.4626  0.6967
  584TMC3     C 8713   2.054   3.822  17.068  0.1784  0.3606  0.1858
  584TMC3     O 8714   2.097   3.762  17.165  0.4149 -0.2873 -0.0478
  584TMC3     H 8715   2.034   4.065  16.922 -2.5586  1.8613 -0.6958
  584TMC3    H1 8716   1.930   3.870  17.296  0.6427 -0.3344 -0.0302
  584TMC3    H2 8717   1.927   4.291  17.253 -2.5027  0.6026 -2.1512
  584TMC3    C7 8718   1.850   4.075  17.403 -0.3241 -0.1759  0.1549
  584TMC3    C8 8719   1.976   4.305  16.993 -0.6121  0.5012 -0.2810
  584TMC3    O1 8720   1.867   3.984  17.485  0.0491 -0.3227 -0.3138
  584TMC3    O2 8721   1.980   4.284  16.872 -0.3520 -0.1543  0.0336
  585MPD2     C 8722   0.767   3.042   0.020  0.3849 -0.3590  0.9851
  585MPD2    C1 8723   0.857   3.080  17.668 -0.4661 -0.6326  0.2288
  585MPD2    C2 8724   0.925   2.987  17.593 -0.0439 -0.1950  0.2644
  585MPD2    C3 8725   0.917   2.855  17.617  0.0441  0.3890  0.6847
  585MPD2    C4 8726   0.844   2.814  17.725  0.6966 -0.3931  0.1426
  585MPD2    C5 8727   0.772   2.907   0.048  0.3877 -0.0447 -0.4269
  585MPD2     H 8728   0.980   3.008  17.502  0.6671 -2.0182  0.2917
  585MPD2    H1 8729   0.826   2.711   0.003 -2.2068  0.3499  1.0643
  585MPD2    H2 8730   0.702   3.106   0.080 -1.2052 -2.7180  1.8031
  585MPD2    H3 8731   0.709   2.864   0.125 -0.6861  0.4270 -1.0478
  585MPD2     N 8732   0.974   2.752  17.538 -0.7264 -0.4797  0.5853
  585MPD2    H5 8733   0.946   2.658  17.566  0.3221 -0.5174  1.5082
  585MPD2    N1 8734   0.862   3.216  17.643 -0.0875  0.9987 -0.0246
  585MPD2    H7 8735   0.820   3.277  17.712  0.7820  1.6054 -0.0429
  586TMC3    C1 8736   1.085   2.653  17.364  0.5324 -0.4329 -0.1237
  586TMC3    C2 8737   1.193   2.642  17.283  0.6831  0.4144 -0.3635
  586TMC3    C3 8738   1.190   2.550  17.183 -0.5569 -0.0797 -0.4552
  586TMC3    C4 8739   0.973   2.570  17.346  0.0039  0.5982 -0.3654
  586TMC3    C5 8740   0.975   2.491  17.239  0.9386  0.5050  0.0040
  586TMC3    C6 8741   1.079   2.474  17.153 -0.5929  0.0952 -0.5197
  586TMC3     C 8742   1.070   2.769  17.445  0.9777  0.6012  0.1257
  586TMC3     O 8743   1.138   2.870  17.428 -0.2376 -0.1997 -0.1670
  586TMC3     H 8744   1.289   2.684  17.309  0.0879 -0.4018  3.2059
  586TMC3    H1 8745   0.881   2.574  17.403 -0.7867 -2.5427 -1.4561
  586TMC3    H2 8746   1.081   2.410  17.066 -1.7568  1.1098 -1.2962
  586TMC3    C7 8747   0.860   2.406  17.210  0.2115  0.6417 -0.2821
  586TMC3    C8 8748   1.318   2.517  17.128 -0.2667 -0.4504 -0.3881
  586TMC3    O1 8749   0.770   2.394  17.294 -0.2481 -0.5421 -0.2115
  586TMC3    O2 8750   1.413   2.521  17.204 -1.0081  0.9671 -0.0308
  587TMC3    C1 8751   3.390   0.741  16.757  0.1192 -0.3348 -0.0293
  587TMC3    C2 8752   3.408   0.878  16.753 -0.1002  0.2262  0.1862
  587TMC3    C3 8753   3.535   0.927  16.727  0.6733  0.1887 -0.1132
  587TMC3    C4 8754   3.487   0.654  16.719 -0.6564  0.1661 -0.4414
  587TMC3    C5 8755   3.611   0.714  16.683 -0.4788 -0.0218 -0.5979
  587TMC3    C6 8756   3.638   0.851  16.692  0.1137 -0.9165 -0.2588
  587TMC3     C 8757   3.259   0.685  16.770  0.0792  0.5816 -0.6426
  587TMC3     O 8758   3.248   0.570  16.811 -0.1155 -0.6628 -0.5630
  587TMC3     H 8759   3.334   0.949  16.788 -0.8180 -2.0005  3.1420
  587TMC3    H1 8760   3.463   0.552  16.693  1.3113 -0.1642 -0.9984
  587TMC3    H2 8761   3.736   0.895  16.679 -0.2712  0.8442  2.6548
  587TMC3    C7 8762   3.698   0.646  16.589  0.5449  0.9659 -0.2410
  587TMC3    C8 8763   3.552   1.073  16.741 -0.3670  0.0496  0.2437
  587TMC3    O1 8764   3.777   0.715  16.527  0.2024 -0.1225  0.8240
  587TMC3    O2 8765   3.665   1.112  16.757 -0.1713  0.3910  0.1670
  588TMC3    C1 8766   1.200   3.746   9.764  0.2909 -0.2598  0.6466
  588TMC3    C2 8767   1.210   3.612   9.724  0.0965 -0.1687  0.6764
  588TMC3    C3 8768   1.283   3.523   9.793  0.2513  0.7250 -0.6821
  588TMC3    C4 8769   1.263   3.785   9.874  0.1010 -0.3016  0.0915
  588TMC3    C5 8770   1.350   3.696   9.933  0.7982  0.4630 -1.3500
  588TMC3    C6 8771   1.357   3.562   9.904  0.5748  0.8158  0.4216
  588TMC3     C 8772   1.135   3.843   9.676 -0.4564  0.2676 -0.6015
  588TMC3     O 8773   1.064   3.809   9.580  0.4106 -0.0175 -0.1711
  588TMC3     H 8774   1.159   3.576   9.636 -0.6317  0.8726  0.6746
  588TMC3    H1 8775   1.249   3.885   9.913  0.5284 -0.9162  1.8027
  588TMC3    H2 8776   1.427   3.494   9.951  1.0852  0.0270 -1.4818
  588TMC3    C7 8777   1.425   3.748  10.041 -0.2651  0.4385 -0.0559
  588TMC3    C8 8778   1.278   3.384   9.751 -0.4428  0.2931 -0.2590
  588TMC3    O1 8779   1.470   3.671  10.122  0.0359  0.3227 -0.8203
  588TMC3    O2 8780   1.187   3.351   9.676  0.0642 -0.8695 -0.3085
  589TMC3    C1 8781   4.618   1.669   0.829 -0.4456  0.1696  0.2218
  589TMC3    C2 8782   4.699   1.623   0.930 -0.2503 -0.2827 -0.1866
  589TMC3    C3 8783   0.069   1.553   0.890 -0.7897 -0.2498 -0.7045
  589TMC3    C4 8784   4.616   1.633   0.700 -0.3852  0.3341 -0.3171
  589TMC3    C5 8785   4.726   1.561   0.666  0.2236 -0.6227 -0.6856
  589TMC3    C6 8786   0.085   1.524   0.760 -0.6711  0.5197 -0.2857
  589TMC3     C 8787   4.525   1.778   0.874  0.1929 -0.6944 -0.0087
  589TMC3     O 8788   4.428   1.801   0.804 -0.1549 -0.7024  0.4670
  589TMC3     H 8789   4.670   1.631   1.035 -0.8781  1.7588 -0.5076
  589TMC3    H1 8790   4.540   1.656   0.626 -1.8644 -2.7081  0.2217
  589TMC3    H2 8791   0.181   1.485   0.730 -0.8197 -0.4950  0.5602
  589TMC3    C7 8792   4.708   1.446   0.575  0.1098 -0.1419 -0.0412
  589TMC3    C8 8793   0.118   1.455   0.985 -0.2451  0.5332  0.9226
  589TMC3    O1 8794   0.046   1.349   0.589 -0.3916 -0.2956  0.1449
  589TMC3    O2 8795   0.095   1.465   1.104  0.0812 -0.3179 -0.5503
  590MPD2     C 8796   4.718   4.119  16.410  0.6339  0.0781 -0.5087
  590MPD2    C1 8797   4.660   4.228  16.358  0.7828  0.5563 -0.0438
  590MPD2    C2 8798   0.005   4.331  16.315  0.2645  0.0350 -0.0338
  590MPD2    C3 8799   0.148   4.325  16.329 -0.4716  0.5622  0.0981
  590MPD2    C4 8800   0.207   4.215  16.390 -0.1149  0.6759  0.3326
  590MPD2    C5 8801   0.123   4.116  16.428 -0.7095  0.0890  0.7838
  590MPD2     H 8802   4.694   4.421  16.278 -0.3392 -0.5310 -0.6302
  590MPD2    H1 8803   0.313   4.205  16.407 -0.4071 -3.5037 -0.4957
  590MPD2    H2 8804   4.657   4.034  16.440 -0.8639  1.7043  1.0233
  590MPD2    H3 8805   0.168   4.025  16.468  0.8822  0.7359  0.4542
  590MPD2     N 8806   0.224   4.440  16.288  0.1952  0.3954 -0.0244
  590MPD2    H5 8807   0.165   4.513  16.250 -1.6364 -0.1753  1.7029
  590MPD2    N1 8808   4.524   4.249  16.351  0.4141  0.0812  0.2484
  590MPD2    H7 8809   4.493   4.338  16.315 -0.9341 -0.7382 -0.5936
  591TMC3    C1 8810   0.385   4.572  16.204 -0.0094  0.1998 -0.3250
  591TMC3    C2 8811   0.461   4.562  16.091  0.1246 -0.7640  0.6544
  591TMC3    C3 8812   0.430   4.647  15.990  0.2464 -0.3419 -0.8673
  591TMC3    C4 8813   0.305   4.678  16.225  0.4134  0.5317 -0.3948
  591TMC3    C5 8814   0.280   0.027  16.124 -0.0770  0.6135  0.0476
  591TMC3    C6 8815   0.340   0.013  16.003 -0.0614  0.2575 -0.3741
  591TMC3     C 8816   0.357   4.454  16.275 -0.6727 -0.8873  0.9961
  591TMC3     O 8817   0.452   4.381  16.305 -0.1125  0.0551 -0.8718
  591TMC3     H 8818   0.530   4.479  16.081  2.5059  0.8573  3.4251
  591TMC3    H1 8819   0.255   4.692  16.320 -0.8543  0.6437 -1.0817
  591TMC3    H2 8820   0.306   0.066  15.915 -0.2534  1.7927  0.6288
  591TMC3    C7 8821   0.189   0.140  16.150 -0.0441 -0.3159  0.2784
  591TMC3    C8 8822   0.460   4.591  15.858  0.1532  0.2439 -0.0317
  591TMC3    O1 8823   0.125   0.139  16.255 -0.0965 -0.4957 -0.5757
  591TMC3    O2 8824   0.462   4.469  15.866  0.0286 -0.0613  0.4917
  592MPD2     C 8825   0.078   1.530  11.703 -1.1468 -0.2918 -0.5082
  592MPD2    C1 8826   0.089   1.626  11.805  0.1104  0.4489 -0.2829
  592MPD2    C2 8827   0.012   1.615  11.917 -0.3847 -0.5877  0.2670
  592MPD2    C3 8828   4.665   1.506  11.928  0.0751 -0.2213  0.1432
  592MPD2    C4 8829   4.649   1.417  11.820 -0.4143 -0.4437 -0.4493
  592MPD2    C5 8830   4.727   1.428  11.709  0.0687 -1.0456 -0.9441
  592MPD2     H 8831   0.012   1.677  12.006  1.8945 -0.3337  0.0901
  592MPD2    H1 8832   4.582   1.331  11.823 -0.9524 -0.0984 -2.6167
  592MPD2    H2 8833   0.146   1.538  11.619  0.4065  1.1677  0.9012
  592MPD2    H3 8834   4.719   1.355  11.628  0.9748  0.0631 -2.0231
  592MPD2     N 8835   4.590   1.496  12.046 -0.1321  0.4226 -0.4297
  592MPD2    H5 8836   4.601   1.566  12.118 -1.8208  1.0046 -0.7286
  592MPD2    N1 8837   0.190   1.726  11.784 -0.5435  0.3918  0.0048
  592MPD2    H7 8838   0.248   1.722  11.701  1.5840 -0.0297  1.4938
  593TMC3    C1 8839   0.291   1.949  11.825  1.0456 -0.5288 -0.6100
  593TMC3    C2 8840   0.254   2.080  11.851 -0.7258  0.0548  1.0585
  593TMC3    C3 8841   0.342   2.175  11.814 -0.0251  0.5629 -0.2676
  593TMC3    C4 8842   0.395   1.914  11.740 -0.1001 -0.2217  0.5690
  593TMC3    C5 8843   0.476   2.016  11.698  0.2942  0.2020  0.0123
  593TMC3    C6 8844   0.448   2.148  11.737 -0.1270 -0.4866  0.0522
  593TMC3     C 8845   0.199   1.842  11.866  0.6391  0.4577  0.5641
  593TMC3     O 8846   0.122   1.872  11.958 -0.5612 -0.6516  0.1005
  593TMC3     H 8847   0.177   2.112  11.920 -0.5701 -1.8754  2.1416
  593TMC3    H1 8848   0.422   1.811  11.719 -0.3392 -0.1816  0.0474
  593TMC3    H2 8849   0.511   2.227  11.698 -1.0186 -0.2258 -0.8569
  593TMC3    C7 8850   0.578   2.005  11.592 -0.3436 -0.3963  0.5937
  593TMC3    C8 8851   0.285   2.304  11.801  0.3891 -0.6802  0.1034
  593TMC3    O1 8852   0.657   2.095  11.565 -0.0819 -0.0850  0.0068
  593TMC3    O2 8853   0.162   2.314  11.817 -0.8634  0.0470  0.0050
  594MPD2     C 8854   3.732   0.503  14.406 -0.1440 -1.0478  0.1269
  594MPD2    C1 8855   3.644   0.610  14.398  0.0874  0.3749 -0.4899
  594MPD2    C2 8856   3.679   0.723  14.341  0.6678 -0.0624  0.1292
  594MPD2    C3 8857   3.810   0.742  14.292  0.1144  0.1523 -0.6910
  594MPD2    C4 8858   3.901   0.639  14.301 -0.0036  0.8050  1.2608
  594MPD2    C5 8859   3.855   0.519  14.350  0.8238  0.1796  0.5924
  594MPD2     H 8860   3.605   0.802  14.345  0.5837 -0.0989 -0.7006
  594MPD2    H1 8861   4.005   0.647  14.269 -0.5058  0.9983 -0.3283
  594MPD2    H2 8862   3.695   0.413  14.454 -2.2141 -0.4790 -0.4050
  594MPD2    H3 8863   3.930   0.440  14.359  1.0619  0.4726  1.1849
  594MPD2     N 8864   3.838   0.867  14.233 -0.1709  0.3770  0.2665
  594MPD2    H5 8865   3.765   0.934  14.209  1.2141  1.1793 -1.6975
  594MPD2    N1 8866   3.511   0.583  14.445 -0.3768  0.3216  0.3399
  594MPD2    H7 8867   3.490   0.495  14.492  1.1061 -0.6727 -0.8371
  595TMC3    C1 8868   4.149   1.188  14.067  0.4081 -0.3836 -0.2462
  595TMC3    C2 8869   4.104   1.060  14.084  1.2139  0.2231 -0.5774
  595TMC3    C3 8870   3.977   1.037  14.121 -0.4238 -0.2570  0.4303
  595TMC3    C4 8871   4.068   1.295  14.097  1.0540 -0.3933  0.5023
  595TMC3    C5 8872   3.940   1.274  14.127  0.0095  0.1694  0.0233
  595TMC3    C6 8873   3.897   1.144  14.155 -0.2755 -0.0253  0.6979
  595TMC3     C 8874   4.285   1.220  14.108 -0.3639  0.2752  0.5159
  595TMC3     O 8875   4.305   1.337  14.144 -0.2340 -0.7418 -0.1293
  595TMC3     H 8876   4.158   0.979  14.036  0.7273 -1.3770  1.6012
  595TMC3    H1 8877   4.103   1.396  14.079  3.0760 -1.3163 -0.7911
  595TMC3    H2 8878   3.804   1.132  14.210  0.6956 -0.0088  2.3362
  595TMC3    C7 8879   3.881   1.373  14.226  0.0995 -0.0358  0.1327
  595TMC3    C8 8880   3.970   0.911  14.204  0.3600 -0.5700 -0.3271
  595TMC3    O1 8881   3.759   1.369  14.246  0.2699 -0.3069  0.0156
  595TMC3    O2 8882   4.078   0.857  14.231  0.1423 -0.1359  0.6529
  596MPD2     C 8883   2.906   3.307  16.331 -0.3536 -0.3032  0.6046
  596MPD2    C1 8884   2.889   3.429  16.263  0.8819 -0.8507 -0.0709
  596MPD2    C2 8885   2.900   3.427  16.127 -0.4689  0.1787  0.3771
  596MPD2    C3 8886   2.914   3.315  16.052 -0.2980 -0.6023 -0.2721
  596MPD2    C4 8887   2.933   3.197  16.121 -0.3314 -0.4819 -0.1500
  596MPD2    C5 8888   2.918   3.194  16.261 -0.5356 -0.0668 -0.6179
  596MPD2     H 8889   2.886   3.524  16.081 -2.2515 -0.4725 -0.4779
  596MPD2    H1 8890   2.960   3.107  16.067  0.2006 -0.8851  0.7836
  596MPD2    H2 8891   2.904   3.302  16.440 -1.8502 -2.2440  0.4871
  596MPD2    H3 8892   2.933   3.100  16.313 -0.0001  1.9568  2.9207
  596MPD2     N 8893   2.903   3.308  15.909 -0.6152 -0.4946  0.1421
  596MPD2    H5 8894   2.911   3.219  15.860 -0.1272 -1.3890  1.8643
  596MPD2    N1 8895   2.876   3.554  16.329 -0.6264 -0.2534  0.0594
  596MPD2    H7 8896   2.867   3.634  16.267  3.3998 -1.1936 -1.6703
  597TMC3    C1 8897   2.863   3.711  16.500  0.2551  0.6329 -0.3712
  597TMC3    C2 8898   2.911   3.810  16.419  0.2584  0.2394  0.8062
  597TMC3    C3 8899   2.892   3.949  16.454 -0.3511  0.8730  0.4249
  597TMC3    C4 8900   2.792   3.746  16.611  0.0961  0.0490 -0.8643
  597TMC3    C5 8901   2.752   3.876  16.632 -0.1444  0.0453  1.0219
  597TMC3    C6 8902   2.811   3.977  16.563 -0.0414 -0.3434  0.6532
  597TMC3     C 8903   2.863   3.569  16.465 -0.1924 -0.0729 -1.1421
  597TMC3     O 8904   2.846   3.482  16.548 -0.2183 -0.5475  0.1121
  597TMC3     H 8905   2.973   3.778  16.335 -1.9508 -0.1265 -0.6739
  597TMC3    H1 8906   2.754   3.665  16.672  0.8722 -0.5041 -1.1225
  597TMC3    H2 8907   2.788   4.082  16.580  1.7727 -0.0596  1.3636
  597TMC3    C7 8908   2.671   3.906  16.749  0.2135  0.6808 -0.3982
  597TMC3    C8 8909   2.976   4.056  16.396  0.3609  0.6711 -0.3164
  597TMC3    O1 8910   2.685   3.827  16.842  0.1021  0.3594 -0.6113
  597TMC3    O2 8911   2.994   4.155  16.467 -0.6733  0.2570  0.2608
  598TMC3    C1 8912   1.166   4.734  15.224  0.3952 -0.0792 -0.0576
  598TMC3    C2 8913   1.173   4.624  15.141 -0.1240 -0.4896  0.1531
  598TMC3    C3 8914   1.122   4.637  15.016  0.1315  0.0466 -0.1676
  598TMC3    C4 8915   1.129   0.115  15.177  0.3992 -0.5368 -0.3287
  598TMC3    C5 8916   1.094   0.129  15.045  0.1131  0.3677  0.0129
  598TMC3    C6 8917   1.079   0.021  14.965 -0.4654  0.3642 -0.0372
  598TMC3     C 8918   1.220   4.729  15.361  0.4342 -0.7053  0.0510
  598TMC3     O 8919   1.258   0.094  15.418  0.0244 -0.0883 -0.3358
  598TMC3     H 8920   1.180   4.529  15.192 -0.2986 -0.5256  0.1096
  598TMC3    H1 8921   1.150   0.206  15.231 -0.7673  0.1760 -1.0755
  598TMC3    H2 8922   1.058   0.031  14.859  0.8652 -0.6064 -0.3987
  598TMC3    C7 8923   1.053   0.259  14.983  0.2585 -0.4769  0.0557
  598TMC3    C8 8924   1.094   4.513  14.947 -0.0194  0.0597 -0.2428
  598TMC3    O1 8925   0.971   0.240  14.895 -0.1543  0.2891  0.0973
  598TMC3    O2 8926   1.124   4.405  14.996 -0.6001  0.2905  0.8304
  599MPD2     C 8927   0.660   2.612  15.534 -0.0927 -0.5382 -0.1980
  599MPD2    C1 8928   0.719   2.490  15.580 -0.4449  0.1245  0.2755
  599MPD2    C2 8929   0.695   2.459  15.715  0.0368  0.4291  0.0691
  599MPD2    C3 8930   0.618   2.536  15.790  0.1927  0.4695  0.2315
  599MPD2    C4 8931   0.569   2.653  15.743  0.0291  0.1054 -0.7625
  599MPD2    C5 8932   0.590   2.692  15.615 -0.2011  0.6020  0.5755
  599MPD2     H 8933   0.742   2.372  15.759  0.3456  1.5515  1.9857
  599MPD2    H1 8934   0.511   2.725  15.799 -1.9841  0.5853 -3.4940
  599MPD2    H2 8935   0.670   2.641  15.430  2.3838  0.0188  0.1762
  599MPD2    H3 8936   0.555   2.786  15.574  1.4278  0.7739 -0.4415
  599MPD2     N 8937   0.578   2.516  15.927  0.8765 -0.5377  0.3814
  599MPD2    H5 8938   0.522   2.586  15.974  2.7698  0.2359  1.4775
  599MPD2    N1 8939   0.800   2.411  15.495  0.1437  0.0862 -0.2490
  599MPD2    H7 8940   0.832   2.450  15.407 -0.7885  0.1677 -0.5562
  600TMC3    C1 8941   0.567   2.404  16.131 -0.1259  0.1399  0.3293
  600TMC3    C2 8942   0.531   2.287  16.189  0.0611 -0.3717  0.1061
  600TMC3    C3 8943   0.514   2.291  16.324  0.6391 -0.6380 -0.0200
  600TMC3    C4 8944   0.584   2.524  16.198 -0.0706  0.6487  0.1196
  600TMC3    C5 8945   0.554   2.525  16.333  0.2242  0.8370  0.0227
  600TMC3    C6 8946   0.524   2.402  16.396 -0.0331  0.3802 -0.2112
  600TMC3     C 8947   0.609   2.397  15.994 -0.1671  0.3107  0.4452
  600TMC3     O 8948   0.643   2.290  15.949  0.1742 -0.6899 -0.2514
  600TMC3     H 8949   0.533   2.191  16.139  1.7335 -1.7027  2.7473
  600TMC3    H1 8950   0.619   2.610  16.142 -1.7341  0.3427 -1.3907
  600TMC3    H2 8951   0.515   2.402  16.504  1.5491  0.3311 -0.0778
  600TMC3    C7 8952   0.530   2.651  16.399 -0.0765  0.1071 -0.5491
  600TMC3    C8 8953   0.480   2.169  16.401  0.1498 -0.0956  0.0698
  600TMC3    O1 8954   0.456   2.648  16.496  0.5250 -0.0127 -0.1959
  600TMC3    O2 8955   0.528   2.146  16.509  0.0409  0.0838  0.2344
  601MPD2     C 8956   3.347   1.336  17.675  0.5001 -0.0062  0.3307
  601MPD2    C1 8957   3.234   1.261  17.679  0.5339 -0.1231 -0.5483
  601MPD2    C2 8958   3.236   1.144  17.746 -0.6647 -0.0364  0.2166
  601MPD2    C3 8959   3.349   1.095   0.054 -0.0114 -0.2625  0.0092
  601MPD2    C4 8960   3.465   1.169   0.047 -0.2207 -0.1606  0.3396
  601MPD2    C5 8961   3.466   1.296  17.736 -0.5938  0.0966  0.4036
  601MPD2     H 8962   3.153   1.075  17.738  1.3021 -2.3223 -0.4481
  601MPD2    H1 8963   3.552   1.146   0.107  0.0467 -0.1106 -0.0285
  601MPD2    H2 8964   3.344   1.437  17.634 -0.4489  0.0309  0.4902
  601MPD2    H3 8965   3.558   1.351  17.725 -0.6385 -0.1701 -1.3176
  601MPD2     N 8966   3.357   0.971   0.123 -0.0004 -0.5820  0.6312
  601MPD2    H5 8967   3.451   0.949   0.155 -0.5636 -0.3776  2.4008
  601MPD2    N1 8968   3.114   1.303  17.610 -0.1799  0.8365 -0.1611
  601MPD2    H7 8969   3.036   1.238  17.605  0.5476  0.0530 -1.3296
  602TMC3    C1 8970   2.955   1.426  17.485 -0.2696 -0.6868  0.2502
  602TMC3    C2 8971   2.929   1.540  17.423 -0.5649 -0.0943 -0.3489
  602TMC3    C3 8972   2.838   1.535  17.313  0.8611 -0.1399  0.4040
  602TMC3    C4 8973   2.902   1.306  17.454  0.7970  0.5570  0.1639
  602TMC3    C5 8974   2.822   1.298  17.344  0.3092 -0.3171 -0.3644
  602TMC3    C6 8975   2.789   1.413  17.275 -0.5201  0.0826 -0.6060
  602TMC3     C 8976   3.081   1.426  17.556  0.0801 -0.6222  0.2604
  602TMC3     O 8977   3.149   1.529  17.545 -0.5154 -0.0572  0.0333
  602TMC3     H 8978   2.981   1.633  17.439  1.0832 -1.3984  1.7835
  602TMC3    H1 8979   2.940   1.212  17.491  1.7815  0.8710 -0.0252
  602TMC3    H2 8980   2.732   1.403  17.183 -1.1589  0.5990 -0.2690
  602TMC3    C7 8981   2.754   1.180  17.329 -1.1311  0.0870  0.2201
  602TMC3    C8 8982   2.755   1.652  17.291  0.5167 -0.0751 -0.5269
  602TMC3    O1 8983   2.791   1.084  17.397 -0.0346 -0.0777 -0.1263
  602TMC3    O2 8984   2.789   1.762  17.335 -0.3699  0.1631 -0.0675
  603TMC3    C1 8985   1.728   1.140  10.653 -1.2055  0.0025 -0.2269
  603TMC3    C2 8986   1.755   1.165  10.788 -0.2475  0.9855  0.0866
  603TMC3    C3 8987   1.713   1.287  10.839  0.3433 -0.8124  0.2129
  603TMC3    C4 8988   1.687   1.236  10.567  0.2488  0.2406  0.0841
  603TMC3    C5 8989   1.660   1.356  10.625 -0.6944 -0.3849  0.2456
  603TMC3    C6 8990   1.674   1.383  10.760 -0.2149  0.1347 -0.5284
  603TMC3     C 8991   1.719   1.003  10.611 -0.1984 -1.0416 -0.1918
  603TMC3     O 8992   1.681   0.920  10.691  0.9200 -0.7886  0.2650
  603TMC3     H 8993   1.781   1.081  10.852 -1.4579  0.2554 -0.3835
  603TMC3    H1 8994   1.662   1.223  10.462  1.5911  0.6555 -0.2804
  603TMC3    H2 8995   1.621   1.469  10.800  1.2315  0.5116  0.5913
  603TMC3    C7 8996   1.587   1.459  10.556 -0.3347  0.0701  0.4994
  603TMC3    C8 8997   1.705   1.293  10.982 -0.7259  0.1925 -0.3508
  603TMC3    O1 8998   1.619   1.576  10.570 -0.4282  0.0516 -0.1394
  603TMC3    O2 8999   1.720   1.182  11.038  0.2936 -0.2940  0.1026
  604MPD2     C 9000   1.987   4.583  16.109  0.5649 -0.0270  0.5948
  604MPD2    C1 9001   1.955   4.709  16.062  0.6276 -0.3409  0.1166
  604MPD2    C2 9002   2.016   0.009  15.943 -0.1080 -0.2403 -0.8977
  604MPD2    C3 9003   2.112   4.667  15.882 -0.5037  0.7269 -0.3894
  604MPD2    C4 9004   2.157   4.556  15.942 -0.2242 -1.0466  0.2668
  604MPD2    C5 9005   2.084   4.513  16.050 -0.4037  0.1252  0.5992
  604MPD2     H 9006   1.990   0.102  15.893  0.0101 -0.7035 -1.8173
  604MPD2    H1 9007   2.246   4.509  15.903  0.2750 -1.1376  1.5280
  604MPD2    H2 9008   1.942   4.550  16.202  0.1081 -2.4631 -0.4679
  604MPD2    H3 9009   2.118   4.422  16.099 -0.1184 -1.5758 -2.7282
  604MPD2     N 9010   2.176   4.713  15.765  0.0421  0.3288 -0.1706
  604MPD2    H5 9011   2.134   0.056  15.718 -0.2740  0.2363 -0.0485
  604MPD2    N1 9012   1.859   0.044  16.129  0.1953 -0.0319  0.0866
  604MPD2    H7 9013   1.811   4.731  16.203 -0.8486 -0.1682 -0.6837
  605TMC3    C1 9014   1.684   0.197  16.160  0.1385 -0.4255  0.3280
  605TMC3    C2 9015   1.704   0.206  16.298  0.5317 -0.1571  0.1862
  605TMC3    C3 9016   1.613   0.277  16.371  0.3253 -0.0970 -0.3311
  605TMC3    C4 9017   1.576   0.243  16.095  0.3688 -0.2267  0.1271
  605TMC3    C5 9018   1.479   0.309  16.171 -0.4330  0.0655 -0.3222
  605TMC3    C6 9019   1.500   0.329  16.302  0.3786 -0.7289  0.5190
  605TMC3     C 9020   1.800   0.158  16.081  0.1468  0.9545  0.5154
  605TMC3     O 9021   1.821   0.227  15.984  0.0272 -0.2675 -0.6721
  605TMC3     H 9022   1.783   0.151  16.347  1.4825  0.6785 -0.4214
  605TMC3    H1 9023   1.574   0.234  15.987  0.8308  0.1374  0.0870
  605TMC3    H2 9024   1.428   0.382  16.364 -1.7574 -0.5418 -2.1403
  605TMC3    C7 9025   1.351   0.336  16.113 -0.0180  0.2874  0.3174
  605TMC3    C8 9026   1.666   0.366  16.478  0.6139 -0.2277 -0.8784
  605TMC3    O1 9027   1.284   0.422  16.174 -0.3840  0.4662 -0.0463
  605TMC3    O2 9028   1.587   0.447  16.527  0.6917  0.6683  0.5320
  606TMC3    C1 9029   3.020   3.615  16.887 -0.0792 -0.2140  0.1806
  606TMC3    C2 9030   2.996   3.666  17.013  0.3273 -0.2835 -0.3209
  606TMC3    C3 9031   2.944   3.571  17.097 -0.2451 -0.3620 -0.2572
  606TMC3    C4 9032   2.978   3.495  16.836  0.4726  0.5218  0.1557
  606TMC3    C5 9033   2.909   3.409  16.921  0.4401  0.6943 -0.9544
  606TMC3    C6 9034   2.894   3.452  17.052 -0.2107 -0.0506  0.5597
  606TMC3     C 9035   3.086   3.700  16.798  0.3203 -0.5688 -0.1218
  606TMC3     O 9036   3.061   3.820  16.803 -0.3082  0.3459 -0.1887
  606TMC3     H 9037   3.034   3.762  17.045  2.0866 -0.4713 -1.8114
  606TMC3    H1 9038   2.989   3.461  16.734  1.2993  0.7722  0.1638
  606TMC3    H2 9039   2.842   3.386  17.121 -3.8070  2.0723 -0.0914
  606TMC3    C7 9040   2.868   3.275  16.874 -0.7064 -1.0860  0.2413
  606TMC3    C8 9041   2.992   3.563  17.237 -1.1220 -0.1157 -0.3979
  606TMC3    O1 9042   2.901   3.233  16.764 -0.3600  0.0395  0.2137
  606TMC3    O2 9043   3.007   3.450  17.278 -0.3604  0.2982 -0.0893
  607MPD2     C 9044   0.477   1.457  11.610  0.8998  0.1423 -0.5172
  607MPD2    C1 9045   0.570   1.534  11.676 -0.4078 -0.7408  0.5848
  607MPD2    C2 9046   0.555   1.551  11.811  0.2606  0.2148  0.0655
  607MPD2    C3 9047   0.448   1.493  11.880  0.1661 -0.0157  0.1448
  607MPD2    C4 9048   0.354   1.418  11.811  1.0695 -0.2961  0.1297
  607MPD2    C5 9049   0.366   1.403  11.679 -0.2409 -0.2321  0.0942
  607MPD2     H 9050   0.627   1.609  11.867  0.6495  0.4915 -0.7210
  607MPD2    H1 9051   0.266   1.374  11.856  2.1820 -1.7406  0.8869
  607MPD2    H2 9052   0.476   1.430  11.505 -0.5270 -1.0437 -0.1988
  607MPD2    H3 9053   0.305   1.333  11.623 -0.5718 -0.2767  0.5136
  607MPD2     N 9054   0.459   1.488  12.023  0.5463 -0.5114  0.2229
  607MPD2    H5 9055   0.537   1.537  12.067  1.0356 -2.1569  1.1780
  607MPD2    N1 9056   0.689   1.580  11.615  0.3423 -0.6790  0.2493
  607MPD2    H7 9057   0.742   1.642  11.677 -2.3515  1.2764  0.5784
  608TMC3    C1 9058   0.870   1.579  11.468 -0.3936  0.6247 -0.3632
  608TMC3    C2 9059   0.947   1.558  11.575 -0.3274 -0.4290 -0.2022
  608TMC3    C3 9060   1.071   1.608  11.583 -0.2138 -0.9294 -1.0073
  608TMC3    C4 9061   0.920   1.651  11.362 -0.2168  0.5167 -0.2805
  608TMC3    C5 9062   1.041   1.709  11.367  0.1429  0.4155 -0.2653
  608TMC3    C6 9063   1.121   1.684  11.481 -0.6278 -0.6867 -0.6570
  608TMC3     C 9064   0.730   1.551  11.485  0.7013 -0.1172  0.2921
  608TMC3     O 9065   0.677   1.492  11.390  0.5302 -0.1904 -0.6614
  608TMC3     H 9066   0.915   1.481  11.644  2.0945 -0.8493  0.4672
  608TMC3    H1 9067   0.858   1.658  11.273 -0.2459 -1.0868 -0.3848
  608TMC3    H2 9068   1.225   1.715  11.486 -0.2086 -2.0755 -0.9236
  608TMC3    C7 9069   1.091   1.757  11.241  0.5944 -0.7615 -0.8669
  608TMC3    C8 9070   1.133   1.622  11.711 -0.2011  0.0009  0.2847
  608TMC3    O1 9071   1.038   1.718  11.137 -0.3970 -1.1627 -0.6224
  608TMC3    O2 9072   1.254   1.643  11.720 -0.8895 -0.4227  0.8945
  609TMC3    C1 9073   3.786   4.332   8.823  0.3583 -0.7063  0.5266
  609TMC3    C2 9074   3.818   4.203   8.798  0.1042  0.1416 -0.0244
  609TMC3    C3 9075   3.940   4.158   8.844 -0.4355  0.2029 -0.6918
  609TMC3    C4 9076   3.870   4.418   8.887  0.7294  0.4130  0.2222
  609TMC3    C5 9077   3.989   4.370   8.932 -0.8693  0.0799  0.5444
  609TMC3    C6 9078   4.029   4.237   8.909  0.0945 -0.6338 -0.7525
  609TMC3     C 9079   3.666   4.388   8.760 -0.1624 -0.6117  0.2420
  609TMC3     O 9080   3.633   4.501   8.795  0.3401  0.5022 -0.0541
  609TMC3     H 9081   3.756   4.127   8.752  1.0340 -0.2469 -0.6265
  609TMC3    H1 9082   3.830   4.516   8.908 -1.5616 -0.5071  0.1151
  609TMC3    H2 9083   4.117   4.188   8.949 -0.9404 -0.1440  2.1344
  609TMC3    C7 9084   4.077   4.452   9.012 -0.1387  0.6200 -0.3815
  609TMC3    C8 9085   3.986   4.019   8.831 -0.0527  1.1472  0.1794
  609TMC3    O1 9086   4.173   4.397   9.074 -0.0752 -0.4409  0.1467
  609TMC3    O2 9087   4.106   3.995   8.831 -0.1006  0.6069 -0.4633
  610TMC3    C1 9088   0.594   1.742  13.041 -0.2604 -0.1374  0.3227
  610TMC3    C2 9089   0.495   1.756  12.948  0.6335  0.0808 -0.2535
  610TMC3    C3 9090   0.454   1.645  12.885  0.3991 -0.5833 -1.0011
  610TMC3    C4 9091   0.661   1.624  13.053  0.1315  0.8174 -0.0305
  610TMC3    C5 9092   0.639   1.526  12.969  0.1243 -0.4262 -0.5965
  610TMC3    C6 9093   0.531   1.529  12.884  0.7210  0.1574 -1.1708
  610TMC3     C 9094   0.671   1.865  13.054  0.3956  0.5062 -0.4337
  610TMC3     O 9095   0.791   1.851  13.051  0.0601  0.2228  0.1453
  610TMC3     H 9096   0.430   1.842  12.935 -1.9871 -1.6714  1.3315
  610TMC3    H1 9097   0.751   1.632  13.112  0.2758  2.1371 -0.4196
  610TMC3    H2 9098   0.507   1.444  12.822 -1.4596 -1.7376  2.2621
  610TMC3    C7 9099   0.756   1.449  12.928 -0.7820 -0.1549 -0.3614
  610TMC3    C8 9100   0.393   1.674  12.754 -1.1029  0.1522  0.4599
  610TMC3    O1 9101   0.855   1.455  13.004  0.1899  0.0458  0.0671
  610TMC3    O2 9102   0.435   1.772  12.694 -0.0772  0.0462  0.3535
  611MPD2     C 9103   0.394   1.276  10.745  0.0735 -0.5118  0.0149
  611MPD2    C1 9104   0.338   1.265  10.622  0.1580  0.1553  0.4397
  611MPD2    C2 9105   0.421   1.274  10.514  0.3445  0.5595 -0.6439
  611MPD2    C3 9106   0.556   1.301  10.525 -0.5159 -0.6357  0.4610
  611MPD2    C4 9107   0.610   1.300  10.656 -0.8925 -0.7990  0.7844
  611MPD2    C5 9108   0.534   1.292  10.764 -0.2535  0.7491 -0.1048
  611MPD2     H 9109   0.372   1.271  10.417 -1.7668  1.1935  0.3991
  611MPD2    H1 9110   0.716   1.309  10.673 -0.5932 -2.4881 -0.2611
  611MPD2    H2 9111   0.333   1.274  10.834  0.1850  1.3408  0.1447
  611MPD2    H3 9112   0.577   1.298  10.863 -1.2562 -0.8938  0.4284
  611MPD2     N 9113   0.646   1.314  10.415  0.7771  0.3826 -0.1639
  611MPD2    H5 9114   0.743   1.334  10.437 -0.2795  1.9948  2.9942
  611MPD2    N1 9115   0.196   1.263  10.618 -0.0377  0.3886  0.1617
  611MPD2    H7 9116   0.153   1.241  10.707  0.3013  1.3304  0.5442
  612TMC3    C1 9117   0.713   1.338  10.179  0.2787 -0.0440 -0.3627
  612TMC3    C2 9118   0.816   1.417  10.215 -0.3318  0.2227  0.0978
  612TMC3    C3 9119   0.885   1.461  10.102  0.0625  0.1865 -0.1374
  612TMC3    C4 9120   0.690   1.298  10.055 -0.5908  0.0812 -0.0394
  612TMC3    C5 9121   0.766   1.340   9.956  0.1725 -0.0302  0.2640
  612TMC3    C6 9122   0.859   1.432   9.976 -0.3934 -0.4131 -0.1921
  612TMC3     C 9123   0.608   1.305  10.278  0.8855 -0.3159 -0.6234
  612TMC3     O 9124   0.493   1.272  10.241  0.0240 -0.2039  0.0355
  612TMC3     H 9125   0.827   1.457  10.316 -1.2950 -0.7526  0.5802
  612TMC3    H1 9126   0.604   1.237  10.031 -1.5519  2.0236 -1.4987
  612TMC3    H2 9127   0.935   1.454   9.901 -1.7933 -1.4974 -1.9274
  612TMC3    C7 9128   0.723   1.326   9.819  0.1313  0.4811 -0.2636
  612TMC3    C8 9129   1.000   1.544  10.124  0.0850  0.0657  0.4823
  612TMC3    O1 9130   0.799   1.289   9.731 -0.5514  0.1276 -0.4747
  612TMC3    O2 9131   1.009   1.647  10.061 -0.3298  0.1169 -0.6434
  613MPD2     C 9132   3.838   3.382  16.069  0.2523 -0.3308 -0.3181
  613MPD2    C1 9133   3.845   3.459  15.957 -0.4695  0.3671  0.6090
  613MPD2    C2 9134   3.752   3.443  15.859 -0.2009  0.2177  0.1310
  613MPD2    C3 9135   3.656   3.346  15.870  0.3263 -0.2601  0.4516
  613MPD2    C4 9136   3.653   3.267  15.981  0.1839  0.2262 -0.5643
  613MPD2    C5 9137   3.739   3.290  16.091 -0.2616 -0.1520  0.0027
  613MPD2     H 9138   3.758   3.489  15.760  0.8367  1.2944  0.6982
  613MPD2    H1 9139   3.580   3.187  15.991 -0.9992  1.4317  0.5101
  613MPD2    H2 9140   3.915   3.408  16.141 -0.3580 -3.2534  1.3797
  613MPD2    H3 9141   3.740   3.235  16.183 -1.6739 -0.0616  0.0853
  613MPD2     N 9142   3.578   3.317  15.756  0.5406  0.3421  0.1063
  613MPD2    H5 9143   3.523   3.232  15.764  0.3422  0.4968  0.4069
  613MPD2    N1 9144   3.957   3.541  15.939  0.5088 -0.4524  0.3606
  613MPD2    H7 9145   4.035   3.523  16.002  1.6472  1.4758 -0.5043
  614TMC3    C1 9146   4.109   3.649  15.799 -0.3097 -0.0206 -0.8748
  614TMC3    C2 9147   4.187   3.532  15.790  0.4278  0.2558 -0.1753
  614TMC3    C3 9148   4.274   3.521  15.685 -0.3005 -0.7027 -0.1138
  614TMC3    C4 9149   4.129   3.757  15.714 -0.7726 -0.2604  0.4514
  614TMC3    C5 9150   4.230   3.745  15.630  0.2161 -0.6166 -0.5409
  614TMC3    C6 9151   4.299   3.630  15.615 -0.2586 -0.2460 -0.0266
  614TMC3     C 9152   3.972   3.640  15.841 -0.1187  0.1770 -0.1429
  614TMC3     O 9153   3.886   3.697  15.767  0.5590  0.1982  0.3591
  614TMC3     H 9154   4.175   3.445  15.854 -1.7336  1.4519  1.0210
  614TMC3    H1 9155   4.054   3.831  15.690 -0.3619 -0.1934 -0.6143
  614TMC3    H2 9156   4.372   3.629  15.535 -1.8774  0.8940 -1.5180
  614TMC3    C7 9157   4.233   3.833  15.514  0.7576  0.2574 -0.0130
  614TMC3    C8 9158   4.235   3.415  15.600  0.5220  0.0029  0.6608
  614TMC3    O1 9159   4.304   3.932  15.519 -0.4155  0.8545 -0.7565
  614TMC3    O2 9160   4.202   3.453  15.490 -0.3759 -0.4036  0.0783
  615MPD2     C 9161   3.539   0.308  15.401  0.6905 -0.1415  0.0768
  615MPD2    C1 9162   3.604   0.386  15.494 -0.1081 -0.0622 -0.8136
  615MPD2    C2 9163   3.621   0.515  15.462 -0.0463  0.6080 -0.1418
  615MPD2    C3 9164   3.580   0.569  15.341 -0.6433  0.0455  0.1264
  615MPD2    C4 9165   3.519   0.486  15.248  0.3679  0.7491 -0.3081
  615MPD2    C5 9166   3.500   0.357  15.280  0.3877  0.6598 -0.0707
  615MPD2     H 9167   3.664   0.573  15.543  0.4514  0.2458 -0.1464
  615MPD2    H1 9168   3.468   0.521  15.159 -0.0683 -1.6421 -0.9938
  615MPD2    H2 9169   3.504   0.208  15.423 -2.4542  0.7885 -0.6340
  615MPD2    H3 9170   3.426   0.299  15.227  0.5087  1.2887 -0.9258
  615MPD2     N 9171   3.587   0.705  15.306  0.3277  0.1405  0.0280
  615MPD2    H5 9172   3.557   0.731  15.213 -1.1646  1.3031  0.8213
  615MPD2    N1 9173   3.637   0.339  15.623  0.1239  0.5933 -0.3702
  615MPD2    H7 9174   3.686   0.407  15.681  0.3671 -1.0708  1.4067
  616TMC3    C1 9175   3.621   0.211  15.816 -0.1521  0.1325  0.0648
  616TMC3    C2 9176   3.733   0.267  15.864  0.3695 -0.3196  0.2485
  616TMC3    C3 9177   3.726   0.319  15.990  0.2564 -0.4659 -0.5710
  616TMC3    C4 9178   3.503   0.198  15.888  0.4782 -0.1651  0.3052
  616TMC3    C5 9179   3.489   0.265  16.006  0.1723  0.1325  0.4864
  616TMC3    C6 9180   3.601   0.329  16.053 -0.8838  0.5038  0.2141
  616TMC3     C 9181   3.592   0.219  15.678  0.1961  0.6086 -0.0693
  616TMC3     O 9182   3.535   0.125  15.627 -0.5093  0.4299 -0.1320
  616TMC3     H 9183   3.819   0.265  15.798  1.4430 -0.4367  1.6380
  616TMC3    H1 9184   3.412   0.168  15.838  1.0364  1.8430 -1.9135
  616TMC3    H2 9185   3.602   0.378  16.150 -1.7439  1.4223 -0.2318
  616TMC3    C7 9186   3.358   0.324  16.037  0.3575 -0.4999  0.4088
  616TMC3    C8 9187   3.834   0.403  16.038 -0.4367 -0.9454 -0.4134
  616TMC3    O1 9188   3.276   0.347  15.949 -0.0416  0.4094  0.6257
  616TMC3    O2 9189   3.950   0.367  16.024 -0.5449  0.2111 -0.4324
  617MPD2     C 9190   1.997   3.434  13.162 -0.2854 -0.2671  0.5051
  617MPD2    C1 9191   1.966   3.429  13.293  0.2375  0.0833  0.3248
  617MPD2    C2 9192   1.839   3.387  13.321  0.6927  0.2135  0.2567
  617MPD2    C3 9193   1.751   3.336  13.229 -0.5926 -0.7076  0.0561
  617MPD2    C4 9194   1.793   3.330  13.098 -0.0675  0.9702 -0.1493
  617MPD2    C5 9195   1.918   3.381  13.067 -0.2808  0.2370 -0.0876
  617MPD2     H 9196   1.807   3.376  13.424 -2.5201  0.2219 -0.7412
  617MPD2    H1 9197   1.733   3.277  13.024  1.2703 -0.3872 -0.2626
  617MPD2    H2 9198   2.089   3.477  13.123 -0.3477 -1.0887 -0.5381
  617MPD2    H3 9199   1.949   3.377  12.963  0.6131  4.4116  0.0237
  617MPD2     N 9200   1.619   3.290  13.255 -0.0586  0.2724  0.2502
  617MPD2    H5 9201   1.557   3.265  13.178 -0.3296 -0.7669  0.7976
  617MPD2    N1 9202   2.059   3.461  13.393 -0.0157  0.1052  0.0437
  617MPD2    H7 9203   2.152   3.500  13.377  0.6977 -2.4487 -1.8474
  618TMC3    C1 9204   2.183   3.434  13.586 -0.9629 -0.7725  0.3429
  618TMC3    C2 9205   2.224   3.322  13.639 -0.0540  0.2274  0.0602
  618TMC3    C3 9206   2.344   3.260  13.595  0.4857 -0.8015  0.1691
  618TMC3    C4 9207   2.268   3.506  13.509  0.5196  0.3036 -0.2786
  618TMC3    C5 9208   2.394   3.458  13.483  0.1014  0.3973  0.3419
  618TMC3    C6 9209   2.432   3.329  13.518  0.0428  0.0915  0.2864
  618TMC3     C 9210   2.050   3.433  13.527 -0.9272 -0.2217 -0.1701
  618TMC3     O 9211   1.968   3.375  13.593 -0.0711 -0.8027  0.3516
  618TMC3     H 9212   2.149   3.258  13.685 -0.5730  0.4718 -0.4556
  618TMC3    H1 9213   2.230   3.600  13.470  1.6077  0.4633 -0.9765
  618TMC3    H2 9214   2.530   3.289  13.491 -0.0652  0.5950 -0.8812
  618TMC3    C7 9215   2.465   3.531  13.376 -1.3117 -0.0510 -0.6468
  618TMC3    C8 9216   2.336   3.118  13.570 -0.7382 -0.5250 -0.1430
  618TMC3    O1 9217   2.395   3.604  13.304  0.6212 -0.0458 -0.3519
  618TMC3    O2 9218   2.256   3.054  13.637  0.2142 -0.0285  0.2732
  619MPD2     C 9219   2.945   4.318  14.393 -0.8570 -0.8739  0.5389
  619MPD2    C1 9220   2.913   4.266  14.274  0.3584  0.6310  0.7915
  619MPD2    C2 9221   2.779   4.259  14.241 -0.6526 -0.3549 -0.2490
  619MPD2    C3 9222   2.680   4.303  14.326 -0.4489 -0.5128  0.4942
  619MPD2    C4 9223   2.718   4.371  14.440 -0.3863 -0.0360  0.0724
  619MPD2    C5 9224   2.849   4.378  14.475 -0.3169 -0.3729  0.2280
  619MPD2     H 9225   2.757   4.208  14.148 -0.0567 -1.1646  0.0590
  619MPD2    H1 9226   2.649   4.404  14.517 -1.1013 -0.1975 -0.5048
  619MPD2    H2 9227   3.047   4.324  14.429 -1.2465  0.1297  1.4664
  619MPD2    H3 9228   2.875   4.408  14.575  3.3164 -2.1471 -0.1819
  619MPD2     N 9229   2.542   4.303  14.293  0.1833  0.0862 -0.6041
  619MPD2    H5 9230   2.478   4.346  14.360  0.1771 -1.2438  0.2419
  619MPD2    N1 9231   3.012   4.206  14.184  0.2308  0.5702  0.6204
  619MPD2    H7 9232   2.974   4.164  14.099 -0.7729  1.2438  0.7361
  620TMC3    C1 9233   3.218   4.203  14.059 -0.7313 -0.0734 -0.0783
  620TMC3    C2 9234   3.140   4.117  13.987  0.6321  0.3269  0.1868
  620TMC3    C3 9235   3.122   4.149  13.855  0.0234 -0.4437  0.1687
  620TMC3    C4 9236   3.295   4.305  14.009 -0.1871  0.0036 -0.0099
  620TMC3    C5 9237   3.264   4.332  13.877 -0.3837  0.6194 -0.0268
  620TMC3    C6 9238   3.181   4.257  13.804  0.1915  0.6438  0.0363
  620TMC3     C 9239   3.146   4.240  14.185 -0.4166  0.0851 -0.4322
  620TMC3     O 9240   3.196   4.338  14.244  0.2860  0.1583  1.3618
  620TMC3     H 9241   3.094   4.023  14.016  0.6016  1.0218  2.3808
  620TMC3    H1 9242   3.357   4.362  14.076  0.2797 -0.8710  0.3026
  620TMC3    H2 9243   3.156   4.289  13.703 -2.6935  0.8489  0.8059
  620TMC3    C7 9244   3.285   4.467  13.839  0.0782  0.1790  0.0245
  620TMC3    C8 9245   2.985   4.135  13.828  0.0251  0.2576  0.2735
  620TMC3    O1 9246   3.193   4.538  13.799 -0.4804  0.3432  0.2613
  620TMC3    O2 9247   2.917   4.148  13.929  0.3000 -0.2043  0.1859
  621MPD2     C 9248   3.349   0.281  10.093 -0.3483 -0.1059  0.9700
  621MPD2    C1 9249   3.428   0.168  10.084  0.7732  0.4212  0.3854
  621MPD2    C2 9250   3.566   0.177  10.071 -0.2170 -0.1747  0.3127
  621MPD2    C3 9251   3.631   0.304  10.045  0.4225  0.3399 -0.4439
  621MPD2    C4 9252   3.546   0.405  10.028 -0.1945  0.4384 -0.5664
  621MPD2    C5 9253   3.417   0.395  10.050  0.9105  0.5154 -0.3194
  621MPD2     H 9254   3.626   0.086  10.071 -1.2325 -0.8421  0.8376
  621MPD2    H1 9255   3.588   0.499   9.994 -0.1900  1.6592  2.8098
  621MPD2    H2 9256   3.242   0.293  10.099 -0.4993 -0.3244 -1.2898
  621MPD2    H3 9257   3.355   0.483  10.040  1.8549  1.1164 -0.8672
  621MPD2     N 9258   3.772   0.315  10.057 -0.4578 -0.1300 -0.2538
  621MPD2    H5 9259   3.820   0.234  10.094  0.6371 -0.0701 -1.5264
  621MPD2    N1 9260   3.361   0.043  10.075 -0.1324  0.7351  0.0943
  621MPD2    H7 9261   3.426   4.704  10.061 -0.8598  0.0578  0.4365
  622TMC3    C1 9262   3.174   4.646  10.037  0.0683 -1.3018  0.6586
  622TMC3    C2 9263   3.044   4.610  10.071  0.1377  0.0720  0.0938
  622TMC3    C3 9264   2.978   4.525   9.982 -0.5911  0.1209  0.4678
  622TMC3    C4 9265   3.229   4.615   9.910  0.2337  0.2857  0.3479
  622TMC3    C5 9266   3.152   4.545   9.827 -0.1672 -0.1125 -0.0081
  622TMC3    C6 9267   3.036   4.479   9.870 -0.1524  0.0768  0.2522
  622TMC3     C 9268   3.228   0.019  10.103  0.0156 -0.0901 -0.0053
  622TMC3     O 9269   3.146   0.094  10.153 -0.0456  0.4949  0.4361
  622TMC3     H 9270   3.001   4.649  10.163  2.3106 -1.0789  1.5881
  622TMC3    H1 9271   3.332   4.640   9.887  0.2530 -0.3367 -0.2439
  622TMC3    H2 9272   2.976   4.413   9.808  0.2678 -1.4271  1.4425
  622TMC3    C7 9273   3.174   4.553   9.691 -0.1065  0.4099 -0.4635
  622TMC3    C8 9274   2.833   4.542   9.975 -0.8546  0.1027  0.3303
  622TMC3    O1 9275   3.126   4.465   9.622 -0.3836 -0.3596 -0.1705
  622TMC3    O2 9276   2.777   4.440   9.941 -0.2342 -0.2220  0.0511
  623MPD2     C 9277   2.322   0.539  15.896  0.1567  0.2865 -0.2188
  623MPD2    C1 9278   2.226   0.500  15.982  0.6950  0.1455  0.0548
  623MPD2    C2 9279   2.277   0.479  16.110  0.3206 -0.5751  0.5269
  623MPD2    C3 9280   2.415   0.482  16.141 -0.0136 -0.3580 -0.2122
  623MPD2    C4 9281   2.502   0.514  16.046  0.4386 -0.8686 -0.2130
  623MPD2    C5 9282   2.452   0.547  15.921 -1.0276  0.0611  0.3224
  623MPD2     H 9283   2.212   0.452  16.192  3.1060 -0.6561  2.7198
  623MPD2    H1 9284   2.610   0.507  16.047  0.5437  1.0405  0.8257
  623MPD2    H2 9285   2.289   0.570  15.797  0.0644 -0.4533 -0.4204
  623MPD2    H3 9286   2.519   0.591  15.847 -1.0477 -1.0766 -0.3796
  623MPD2     N 9287   2.457   0.454  16.274 -0.0790  0.1013  0.5047
  623MPD2    H5 9288   2.388   0.431  16.345  0.7222 -2.5617  0.4056
  623MPD2    N1 9289   2.086   0.502  15.963 -0.7327 -1.0129 -0.6859
  623MPD2    H7 9290   2.023   0.485  16.041 -0.5639 -0.4963 -0.4392
  624TMC3    C1 9291   2.636   0.226  16.569  0.1643  0.1339 -0.0422
  624TMC3    C2 9292   2.500   0.193  16.593  0.8113 -0.2030 -0.3259
  624TMC3    C3 9293   2.406   0.284  16.571 -0.8206  0.3389 -0.3999
  624TMC3    C4 9294   2.674   0.343  16.511 -0.4534 -0.3645 -0.8598
  624TMC3    C5 9295   2.570   0.427  16.468  0.1624 -0.0106  0.6364
  624TMC3    C6 9296   2.440   0.402  16.515 -0.3315  0.3737  1.0921
  624TMC3     C 9297   2.742   0.137  16.597 -0.3705 -0.4538 -0.1780
  624TMC3     O 9298   2.858   0.180  16.605 -0.0172  0.3581 -0.6358
  624TMC3     H 9299   2.475   0.093  16.628 -0.7713  0.9803  1.8957
  624TMC3    H1 9300   2.781   0.363  16.508 -0.4586 -0.0130  1.2921
  624TMC3    H2 9301   2.360   0.473  16.498 -1.3254 -1.3313 -1.3842
  624TMC3    C7 9302   2.583   0.465  16.330  0.5990  0.1168 -0.4107
  624TMC3    C8 9303   2.281   0.284  16.644 -0.8550  0.0636  0.1456
  624TMC3    O1 9304   2.691   0.503  16.278 -0.0343 -0.0837  1.1645
  624TMC3    O2 9305   2.238   0.174  16.667 -0.4697  0.1599 -0.0349
  625MPD2     C 9306   2.481   1.557   0.295 -0.1171  0.2028  0.1058
  625MPD2    C1 9307   2.555   1.674   0.306 -0.0497  0.6272 -0.3604
  625MPD2    C2 9308   2.691   1.656   0.322  0.2660  0.0501 -0.4055
  625MPD2    C3 9309   2.760   1.535   0.319  0.4718  0.0567 -0.2124
  625MPD2    C4 9310   2.681   1.422   0.319  0.4248  0.6551 -0.1213
  625MPD2    C5 9311   2.547   1.440   0.306 -0.3698  0.0247 -0.4448
  625MPD2     H 9312   2.749   1.745   0.345  0.5828 -0.3440  0.3265
  625MPD2    H1 9313   2.726   1.324   0.318 -0.4803  0.2277  0.9871
  625MPD2    H2 9314   2.375   1.557   0.276  0.0435 -0.3787 -0.8307
  625MPD2    H3 9315   2.479   1.356   0.308  0.1640 -0.4220 -1.0192
  625MPD2     N 9316   2.900   1.548   0.343  0.4481 -0.0634 -0.1081
  625MPD2    H5 9317   2.941   1.641   0.343 -0.0447  0.1576 -1.7022
  625MPD2    N1 9318   2.495   1.804   0.297 -0.7635 -0.0995  0.8947
  625MPD2    H7 9319   2.398   1.803   0.267 -1.2721 -1.0998  2.6163
  626TMC3    C1 9320   2.451   2.026   0.313  0.5100 -0.7522 -0.4209
  626TMC3    C2 9321   2.402   2.043   0.188  0.0186  0.1008  0.2691
  626TMC3    C3 9322   2.285   2.108   0.181  0.3739  0.7696  0.3737
  626TMC3    C4 9323   2.414   2.084   0.423  1.0973 -0.1004  0.4656
  626TMC3    C5 9324   2.299   2.161   0.410 -0.0033 -0.4039 -0.0464
  626TMC3    C6 9325   2.231   2.173   0.293  0.5897 -0.1351 -0.1633
  626TMC3     C 9326   2.553   1.924   0.323  0.6868 -0.0834  0.8039
  626TMC3     O 9327   2.638   1.948   0.408 -0.0342 -1.0577 -0.4106
  626TMC3     H 9328   2.436   1.978   0.108 -0.5673  0.8523 -0.5945
  626TMC3    H1 9329   2.468   2.068   0.516  1.6547  0.3287  0.2212
  626TMC3    H2 9330   2.140   2.231   0.289  1.0853  0.4035 -3.6298
  626TMC3    C7 9331   2.254   2.227   0.529  0.0694 -0.2882 -0.1029
  626TMC3    C8 9332   2.224   2.122   0.055  0.0894  0.3129 -0.2992
  626TMC3    O1 9333   2.327   2.234   0.629 -0.0526 -0.0766  0.1610
  626TMC3    O2 9334   2.297   2.122  17.702  0.0481 -0.0275 -0.0182
  627MPD2     C 9335   1.098   2.066  13.647 -0.0294 -0.2257  0.6331
  627MPD2    C1 9336   1.203   1.998  13.707  0.9842 -0.1962 -0.6645
  627MPD2    C2 9337   1.182   1.878  13.780 -0.4262  0.5838  0.0030
  627MPD2    C3 9338   1.054   1.836  13.804 -0.1471  0.3696  0.5085
  627MPD2    C4 9339   0.953   1.901  13.740  0.7242 -0.7206 -0.0469
  627MPD2    C5 9340   0.975   2.009  13.658  0.6029 -0.2564  0.0068
  627MPD2     H 9341   1.261   1.820  13.827 -1.5139 -2.9801 -2.6066
  627MPD2    H1 9342   0.852   1.869  13.764  1.2980 -2.1922  0.4503
  627MPD2    H2 9343   1.105   2.159  13.593 -0.1368 -1.2775 -1.1914
  627MPD2    H3 9344   0.890   2.047  13.604  0.0428 -0.4319  0.7606
  627MPD2     N 9345   1.038   1.727  13.884  0.4293 -0.1209 -0.9397
  627MPD2    H5 9346   1.123   1.702  13.933 -0.5368 -3.4243 -0.9598
  627MPD2    N1 9347   1.333   2.049  13.700  0.2904  0.4002 -0.1182
  627MPD2    H7 9348   1.405   1.998  13.752  2.0005  1.2552 -1.6248
  628TMC3    C1 9349   1.508   2.198  13.681 -0.0346  0.2514  0.4126
  628TMC3    C2 9350   1.557   2.099  13.758 -0.6729  0.5778  0.3042
  628TMC3    C3 9351   1.618   2.132  13.880 -0.3778 -0.0036  0.0087
  628TMC3    C4 9352   1.523   2.331  13.708 -0.4643 -0.4661  0.5715
  628TMC3    C5 9353   1.576   2.365  13.838 -0.2509 -0.1442  0.1297
  628TMC3    C6 9354   1.619   2.261  13.918  0.2649  0.1790 -0.5402
  628TMC3     C 9355   1.367   2.169  13.658  0.2662 -0.0709 -0.3256
  628TMC3     O 9356   1.292   2.267  13.650  0.1401 -0.0788 -0.6421
  628TMC3     H 9357   1.569   2.000  13.716 -3.8080  0.3018  0.0609
  628TMC3    H1 9358   1.494   2.398  13.628 -2.7597 -0.3999  1.4333
  628TMC3    H2 9359   1.675   2.289  14.006  0.3175 -0.1054 -0.4849
  628TMC3    C7 9360   1.631   2.495  13.868  0.1030 -0.3234 -0.9667
  628TMC3    C8 9361   1.607   2.025  13.974  0.1411  0.4893  0.0900
  628TMC3    O1 9362   1.736   2.499  13.934  0.1127  0.1182 -0.1050
  628TMC3    O2 9363   1.605   1.906  13.938 -0.3638  0.4447 -0.4622
  629MPD2     C 9364   4.010   0.863  16.195  0.0438  0.0496 -0.3356
  629MPD2    C1 9365   4.068   0.743  16.190 -0.7104 -0.0440  1.0089
  629MPD2    C2 9366   3.995   0.631  16.135  0.1061 -0.4236  0.3688
  629MPD2    C3 9367   3.865   0.646  16.097 -0.3162 -0.3686 -0.5175
  629MPD2    C4 9368   3.810   0.772  16.098  0.1250 -0.0227 -0.0785
  629MPD2    C5 9369   3.883   0.878  16.145  0.0030 -0.8401 -0.1052
  629MPD2     H 9370   4.040   0.533  16.130 -0.7053 -0.8417  1.1224
  629MPD2    H1 9371   3.708   0.801  16.077  0.6310  2.2658  0.5811
  629MPD2    H2 9372   4.044   0.951  16.248  0.7118 -1.0045  0.9763
  629MPD2    H3 9373   3.846   0.979  16.132 -0.0343 -0.9868 -1.1325
  629MPD2     N 9374   3.780   0.534  16.062 -0.2448  0.4197 -0.6707
  629MPD2    H5 9375   3.685   0.559  16.038 -0.0319  1.1688 -0.7351
  629MPD2    N1 9376   4.194   0.733  16.243 -0.0004  1.1080  0.2434
  629MPD2    H7 9377   4.224   0.820  16.285  2.1792  0.6482 -0.3788
  630TMC3    C1 9378   4.396   0.648  16.332  0.8064 -0.2250 -0.4603
  630TMC3    C2 9379   4.462   0.757  16.285 -0.0842 -0.1384 -0.6930
  630TMC3    C3 9380   4.593   0.763  16.324 -0.3258 -0.4047  0.6400
  630TMC3    C4 9381   4.454   0.541  16.397 -0.7124  0.5967 -0.4536
  630TMC3    C5 9382   4.585   0.555  16.436  0.2882  0.3877  0.2097
  630TMC3    C6 9383   4.656   0.663  16.395 -0.5349 -0.2684  0.7489
  630TMC3     C 9384   4.272   0.620  16.260  0.0079  0.1860  0.6371
  630TMC3     O 9385   4.251   0.502  16.241 -0.5057 -0.1062 -0.1051
  630TMC3     H 9386   4.418   0.831  16.219 -0.4684  1.2170  1.0965
  630TMC3    H1 9387   4.386   0.468  16.440 -0.7475  0.2138 -1.1539
  630TMC3    H2 9388   0.026   0.672  16.401 -0.4983 -0.6187  0.6012
  630TMC3    C7 9389   4.635   0.473  16.546  0.2033  0.0946  0.1647
  630TMC3    C8 9390   4.679   0.867  16.271  0.4067  0.1808  0.0098
  630TMC3    O1 9391   4.569   0.380  16.594 -0.1236  0.3944  0.0688
  630TMC3    O2 9392   0.032   0.914  16.335  0.1102  0.0258  0.0434
  631MPD2     C 9393   3.021   0.957  14.678  0.6164 -0.2847  0.5027
  631MPD2    C1 9394   2.967   1.030  14.784  0.1755 -0.5627 -0.5337
  631MPD2    C2 9395   3.049   1.047  14.900  0.6509 -0.4756  0.9020
  631MPD2    C3 9396   3.177   0.994  14.911 -0.0821 -0.2494 -0.0167
  631MPD2    C4 9397   3.216   0.911  14.811  0.0472  0.6054  0.7268
  631MPD2    C5 9398   3.139   0.894  14.692 -0.2626  1.0922 -0.2739
  631MPD2     H 9399   3.012   1.103  14.985 -4.5239 -0.0490 -1.6499
  631MPD2    H1 9400   3.313   0.864  14.808  0.1861  0.8868  0.8612
  631MPD2    H2 9401   2.961   0.944  14.589 -0.5521  0.5509  1.1704
  631MPD2    H3 9402   3.184   0.846  14.606 -0.8200 -1.6685  0.9547
  631MPD2     N 9403   3.258   1.025  15.021 -0.8788  0.1433  0.9459
  631MPD2    H5 9404   3.212   1.083  15.091 -0.7004 -0.4491  1.5500
  631MPD2    N1 9405   2.843   1.097  14.764 -0.1879  0.3009  0.0525
  631MPD2    H7 9406   2.794   1.077  14.678  2.3714 -0.1703 -1.3006
  632TMC3    C1 9407   2.652   1.232  14.800  0.2219 -0.0003  0.6324
  632TMC3    C2 9408   2.560   1.275  14.895  0.2091 -0.1587 -0.0636
  632TMC3    C3 9409   2.444   1.337  14.856 -0.1081 -0.0631 -0.3509
  632TMC3    C4 9410   2.625   1.246  14.665  0.1013  0.1281  0.7844
  632TMC3    C5 9411   2.509   1.309  14.632 -0.1818 -0.9067 -0.0392
  632TMC3    C6 9412   2.412   1.349  14.727  0.7267 -1.2999  0.6110
  632TMC3     C 9413   2.778   1.180  14.854  0.2188  0.3058 -1.2196
  632TMC3     O 9414   2.799   1.196  14.974 -0.2891 -0.2428  0.1579
  632TMC3     H 9415   2.580   1.271  15.001  0.1034  1.4106  0.0197
  632TMC3    H1 9416   2.690   1.215  14.584 -0.8741 -1.6584  0.6711
  632TMC3    H2 9417   2.315   1.389  14.701  1.9007  0.8307 -0.4986
  632TMC3    C7 9418   2.491   1.332  14.488  0.3079  0.2010 -0.3459
  632TMC3    C8 9419   2.338   1.341  14.957  0.0483 -0.4405  0.3667
  632TMC3    O1 9420   2.575   1.285  14.416 -0.7819  0.1694  0.6409
  632TMC3    O2 9421   2.344   1.260  15.050 -0.1292 -0.8695  0.3395
  633MPD2     C 9422   2.617   3.387  17.287 -0.2055  0.0822 -0.3941
  633MPD2    C1 9423   2.551   3.305  17.195 -0.1513 -0.5448 -0.2609
  633MPD2    C2 9424   2.515   3.175  17.232  0.8362 -0.6684  0.1773
  633MPD2    C3 9425   2.530   3.131  17.362 -0.2666 -0.1073  1.2982
  633MPD2    C4 9426   2.593   3.216  17.455  0.2633 -0.0516 -0.6138
  633MPD2    C5 9427   2.640   3.340  17.415  0.1512  0.2382  0.8959
  633MPD2     H 9428   2.481   3.100  17.162  3.3832  0.5746 -2.4155
  633MPD2    H1 9429   2.609   3.183  17.557 -0.0739 -0.8503 -0.8115
  633MPD2    H2 9430   2.638   3.492  17.270  0.5940 -0.0356 -0.1617
  633MPD2    H3 9431   2.696   3.394  17.491  2.1127 -1.7856  0.8733
  633MPD2     N 9432   2.476   3.004  17.398  0.0643  0.3073  0.1200
  633MPD2    H5 9433   2.500   2.971  17.491 -0.6165  2.2898  0.9908
  633MPD2    N1 9434   2.526   3.340  17.060 -0.7381 -0.3618  0.1630
  633MPD2    H7 9435   2.468   3.275  17.009  0.0622 -1.7875  1.0694
  634TMC3    C1 9436   2.523   3.462  16.849 -0.8753 -0.2799  0.1135
  634TMC3    C2 9437   2.526   3.343  16.781  0.8572 -0.2353  0.2081
  634TMC3    C3 9438   2.531   3.350  16.645  0.3818  0.3010 -0.0439
  634TMC3    C4 9439   2.493   3.581  16.792 -0.4032 -0.1723 -0.2807
  634TMC3    C5 9440   2.492   3.584  16.656  0.6054  0.2044 -0.1427
  634TMC3    C6 9441   2.528   3.472  16.582  0.0130 -0.3709 -0.3666
  634TMC3     C 9442   2.552   3.462  16.998 -0.5229 -0.1462 -0.4476
  634TMC3     O 9443   2.592   3.568  17.052  0.8066 -0.1822 -0.1338
  634TMC3     H 9444   2.526   3.243  16.824 -0.6433 -0.8305 -1.1664
  634TMC3    H1 9445   2.461   3.664  16.855  2.0925 -0.0847  0.8629
  634TMC3    H2 9446   2.519   3.476  16.474 -0.7358 -0.8951 -0.3291
  634TMC3    C7 9447   2.406   3.680  16.595  0.0282 -0.4481  0.0849
  634TMC3    C8 9448   2.511   3.227  16.574 -0.5277  0.1996  0.7194
  634TMC3    O1 9449   2.399   3.662  16.477 -0.1272 -0.1130  0.2717
  634TMC3    O2 9450   2.481   3.133  16.641 -0.6761 -0.0479 -0.4465
  635TMC3    C1 9451   2.708   0.066   0.035 -0.6573 -0.5366  1.0390
  635TMC3    C2 9452   2.708   4.671  17.746  0.2454  0.6223  0.8162
  635TMC3    C3 9453   2.591   4.624  17.692 -0.0008  0.0107 -0.1146
  635TMC3    C4 9454   2.595   0.145   0.023 -0.3113  0.2420 -0.2654
  635TMC3    C5 9455   2.478   0.091  17.723  0.1075 -0.2647  0.1455
  635TMC3    C6 9456   2.478   4.696  17.681  0.7238  0.1089 -0.1098
  635TMC3     C 9457   2.830   0.121   0.109 -1.0005  0.0730  0.0367
  635TMC3     O 9458   2.816   0.243   0.121 -0.5211 -0.1458 -0.8215
  635TMC3     H 9459   2.797   4.610  17.739 -0.2214 -0.1205  1.3174
  635TMC3    H1 9460   2.609   0.252   0.033 -1.3322  0.3270  0.2102
  635TMC3    H2 9461   2.382   4.657  17.649  0.2827  1.6423 -0.6360
  635TMC3    C7 9462   2.373   0.187  17.690  0.0304 -0.7671 -0.4286
  635TMC3    C8 9463   2.588   4.494  17.635 -0.1487  0.3810 -0.0469
  635TMC3    O1 9464   2.385   0.297  17.736 -0.1547 -0.3281  0.1936
  635TMC3    O2 9465   2.498   4.457  17.562  0.0155  0.1228  0.1189
  636MPD2     C 9466   3.777   4.010  15.363 -0.0314 -0.0711 -0.2302
  636MPD2    C1 9467   3.750   3.941  15.476 -0.4781 -0.4993 -0.1907
  636MPD2    C2 9468   3.692   3.818  15.480 -0.8068  0.2943 -1.0342
  636MPD2    C3 9469   3.662   3.751  15.365 -0.4104 -0.6839 -0.3634
  636MPD2    C4 9470   3.681   3.818  15.249 -0.6103 -0.8255  0.0438
  636MPD2    C5 9471   3.733   3.944  15.245  0.1591 -0.8556 -1.1653
  636MPD2     H 9472   3.679   3.765  15.574  1.3076 -0.0459 -0.9432
  636MPD2    H1 9473   3.643   3.774  15.157  0.3270  0.5280 -0.9727
  636MPD2    H2 9474   3.814   4.111  15.352 -2.1781  0.7866  0.3588
  636MPD2    H3 9475   3.752   3.990  15.149 -0.4157  0.7169 -0.5256
  636MPD2     N 9476   3.588   3.629  15.374 -0.0221  0.0008 -0.1952
  636MPD2    H5 9477   3.587   3.586  15.466  1.9983  0.3327 -0.0121
  636MPD2    N1 9478   3.784   3.989  15.606  0.3902  0.7535 -0.2130
  636MPD2    H7 9479   3.767   3.938  15.692 -0.7089  0.4652 -0.5985
  637TMC3    C1 9480   3.517   3.425  15.331  0.2654  0.1219  0.0311
  637TMC3    C2 9481   3.459   3.429  15.452 -0.6264  0.0800  0.0621
  637TMC3    C3 9482   3.492   3.331  15.537 -0.3842  0.2796  0.1930
  637TMC3    C4 9483   3.603   3.326  15.283  0.1721  0.2880  0.0908
  637TMC3    C5 9484   3.631   3.227  15.371 -0.5383 -0.6795 -0.2561
  637TMC3    C6 9485   3.564   3.226  15.493 -0.0065 -0.2324  0.0299
  637TMC3     C 9486   3.548   3.551  15.271 -0.0074 -0.7392 -0.1400
  637TMC3     O 9487   3.564   3.557  15.153  0.0915 -0.5319  0.5366
  637TMC3     H 9488   3.392   3.512  15.473 -0.3289  0.5022 -0.6283
  637TMC3    H1 9489   3.667   3.341  15.197  1.2292 -0.6103  0.7188
  637TMC3    H2 9490   3.603   3.164  15.573 -1.0091  0.1105  0.7897
  637TMC3    C7 9491   3.773   3.236  15.398 -0.2925 -0.6670 -0.0601
  637TMC3    C8 9492   3.560   3.394  15.644 -0.2279 -0.0118 -0.3231
  637TMC3    O1 9493   3.823   3.349  15.385 -0.4495  0.1514  0.0797
  637TMC3    O2 9494   3.574   3.514  15.635 -0.1227  0.5288  0.5353
  638MPD2     C 9495   3.068   3.078  14.327  0.0037  0.2572  1.4514
  638MPD2    C1 9496   3.197   3.036  14.326 -0.0748  0.5088 -0.4191
  638MPD2    C2 9497   3.243   2.952  14.426 -0.2203  0.4913 -0.2304
  638MPD2    C3 9498   3.146   2.877  14.497  0.1684  0.3672 -0.3402
  638MPD2    C4 9499   3.015   2.919  14.487 -0.0534 -0.1013 -0.2018
  638MPD2    C5 9500   2.974   3.021  14.412 -0.2198 -1.4667 -0.1631
  638MPD2     H 9501   3.350   2.941  14.438 -0.5825 -1.1440  1.5119
  638MPD2    H1 9502   2.942   2.868  14.549 -0.6341 -0.7183 -1.4066
  638MPD2    H2 9503   3.037   3.166  14.271 -2.2246  0.0176  2.3350
  638MPD2    H3 9504   2.873   3.060  14.418  0.1032 -0.5794 -0.6239
  638MPD2     N 9505   3.177   2.750  14.556  0.5453  0.7077  0.1341
  638MPD2    H5 9506   3.101   2.696  14.595 -0.3708  0.4826 -1.9879
  638MPD2    N1 9507   3.280   3.124  14.241  0.4780  0.4334 -0.1838
  638MPD2    H7 9508   3.228   3.195  14.190  0.5111 -0.0129 -0.8224
  639TMC3    C1 9509   3.308   2.556  14.619  0.2166  0.4508 -0.0339
  639TMC3    C2 9510   3.191   2.478  14.618 -0.1576 -0.3191  0.7855
  639TMC3    C3 9511   3.205   2.345  14.654  0.1948  0.1618  0.2076
  639TMC3    C4 9512   3.429   2.497  14.623 -0.3238 -0.2484 -0.2546
  639TMC3    C5 9513   3.440   2.366  14.661  0.0629 -0.4008  0.0484
  639TMC3    C6 9514   3.327   2.291  14.685  0.0544 -0.5759  0.3337
  639TMC3     C 9515   3.302   2.697  14.572 -0.0025  0.1583 -0.2972
  639TMC3     O 9516   3.410   2.742  14.541  0.2105  0.3627  0.4888
  639TMC3     H 9517   3.093   2.524  14.609 -0.4395 -1.2645 -0.8827
  639TMC3    H1 9518   3.522   2.549  14.606 -0.6310  0.9702  1.7393
  639TMC3    H2 9519   3.338   2.184  14.700 -1.2784 -0.8120 -0.3887
  639TMC3    C7 9520   3.550   2.288  14.607 -0.5452 -0.1715 -0.4739
  639TMC3    C8 9521   3.092   2.256  14.660 -0.1427 -0.0401  0.2041
  639TMC3    O1 9522   3.518   2.194  14.539  0.5171 -0.1913  0.2132
  639TMC3    O2 9523   3.086   2.159  14.737 -0.1176 -0.2419  0.6455
  640MPD2     C 9524   4.491   1.267   9.804 -0.6874 -0.0857 -1.3206
  640MPD2    C1 9525   4.364   1.259   9.834  0.4150 -0.1734 -0.1355
  640MPD2    C2 9526   4.294   1.371   9.869  0.4426  0.1321 -0.1029
  640MPD2    C3 9527   4.357   1.490   9.893 -0.1898  0.0356 -0.4675
  640MPD2    C4 9528   4.489   1.496   9.857 -0.4493  0.1413 -0.5217
  640MPD2    C5 9529   4.559   1.383   9.813 -0.3171  0.6576  0.7427
  640MPD2     H 9530   4.194   1.353   9.906  0.4424 -2.2401 -1.2272
  640MPD2    H1 9531   4.542   1.591   9.859  0.5227 -0.3813 -1.3481
  640MPD2    H2 9532   4.541   1.176   9.771 -0.4225 -0.4508  0.0857
  640MPD2    H3 9533   4.664   1.391   9.784 -0.8353  0.4349 -1.2002
  640MPD2     N 9534   4.284   1.605   9.932  0.4580 -0.6421  0.2751
  640MPD2    H5 9535   4.332   1.693   9.942  1.9652 -1.2674 -1.5251
  640MPD2    N1 9536   4.308   1.134   9.823  0.4731  0.0497  0.1056
  640MPD2    H7 9537   4.372   1.055   9.816  0.9596  0.3300  1.3781
  641TMC3    C1 9538   4.149   0.958   9.811  0.2984 -0.2634 -0.2061
  641TMC3    C2 9539   4.260   0.873   9.794 -0.5279 -0.0583  0.3339
  641TMC3    C3 9540   4.230   0.739   9.762 -0.1496 -0.1262 -0.0883
  641TMC3    C4 9541   4.015   0.920   9.804 -0.0779 -0.3896 -0.3949
  641TMC3    C5 9542   3.999   0.788   9.757  0.6683 -0.2178  0.7666
  641TMC3    C6 9543   4.104   0.710   9.729 -0.1824  0.2454 -0.4727
  641TMC3     C 9544   4.172   1.103   9.834 -0.4949  0.0223 -0.0630
  641TMC3     O 9545   4.072   1.171   9.835 -0.3829  0.0520 -0.5557
  641TMC3     H 9546   4.365   0.899   9.801 -0.1950 -0.5825 -2.5828
  641TMC3    H1 9547   3.941   0.998   9.813  1.6101  1.3443 -1.6786
  641TMC3    H2 9548   4.076   0.613   9.689  0.3402  0.1411 -0.5900
  641TMC3    C7 9549   3.867   0.744   9.714 -0.3951 -0.0705 -0.2528
  641TMC3    C8 9550   4.313   0.617   9.789  0.4917  0.0719  0.1469
  641TMC3    O1 9551   3.860   0.667   9.620  0.1444 -0.0338 -0.4044
  641TMC3    O2 9552   4.262   0.508   9.778  0.2377  0.1086 -0.6384
  642TMC3    C1 9553   0.218   2.418  12.550 -0.0692  0.2890 -0.3116
  642TMC3    C2 9554   0.349   2.409  12.516 -0.1188 -0.6339 -0.0129
  642TMC3    C3 9555   0.395   2.282  12.499  0.4203  0.7369 -0.4097
  642TMC3    C4 9556   0.133   2.311  12.559  1.4312  0.0161  0.7140
  642TMC3    C5 9557   0.186   2.187  12.540 -0.1226  0.6289  0.4351
  642TMC3    C6 9558   0.320   2.167  12.520  0.3313 -0.6802 -0.0660
  642TMC3     C 9559   0.167   2.558  12.567  0.2683  0.3616  0.7339
  642TMC3     O 9560   0.259   2.637  12.576 -0.4803  0.3843 -0.3961
  642TMC3     H 9561   0.413   2.496  12.503 -0.9591 -0.1378 -0.8434
  642TMC3    H1 9562   0.025   2.306  12.571  1.4341 -2.2674 -0.2840
  642TMC3    H2 9563   0.355   2.066  12.505 -0.2330 -0.9691  0.5604
  642TMC3    C7 9564   0.103   2.075  12.526  0.0957 -0.5574 -0.1698
  642TMC3    C8 9565   0.502   2.268  12.403 -0.0950 -0.0479 -0.0274
  642TMC3    O1 9566   0.035   2.066  12.423 -0.4916  0.1241 -0.1201
  642TMC3    O2 9567   0.516   2.353  12.319  0.7120  0.6665 -0.0188
  643TMC3    C1 9568   4.556   1.507   0.058 -0.8244  0.4254 -0.6107
  643TMC3    C2 9569   4.422   1.523   0.066  0.2058 -0.2693 -0.9772
  643TMC3    C3 9570   4.340   1.433  17.742  0.1628 -0.7985  0.4300
  643TMC3    C4 9571   4.605   1.405  17.730 -0.2427  0.4722 -0.3826
  643TMC3    C5 9572   4.525   1.324  17.660  0.1982 -0.0235  0.0210
  643TMC3    C6 9573   4.391   1.334  17.662  0.0094  0.2089  0.0931
  643TMC3     C 9574   4.638   1.607   0.126  0.4909 -0.0982  0.0715
  643TMC3     O 9575   4.584   1.713   0.150 -0.2840  0.8198  0.1593
  643TMC3     H 9576   4.385   1.581   0.150  0.9510 -1.3773  0.1139
  643TMC3    H1 9577   4.708   1.396  17.696 -0.6554 -1.2021 -1.2003
  643TMC3    H2 9578   4.326   1.274  17.600  1.4975 -0.5520 -0.7437
  643TMC3    C7 9579   4.557   1.327  17.516  0.4289 -0.3931  0.4335
  643TMC3    C8 9580   4.212   1.488  17.714  0.2213  0.2453  0.0069
  643TMC3    O1 9581   4.628   1.417  17.466 -0.4491  0.0618 -0.0036
  643TMC3    O2 9582   4.129   1.399  17.684 -0.0605 -0.1134 -0.3058
  644MPD2     C 9583   4.131   1.888   9.650  0.8864 -0.2249  0.2073
  644MPD2    C1 9584   4.099   1.755   9.655  0.2092 -0.8716  0.2047
  644MPD2    C2 9585   3.969   1.720   9.698  0.0129  1.0512  0.5650
  644MPD2    C3 9586   3.873   1.818   9.734 -0.6501 -0.1228 -0.3455
  644MPD2    C4 9587   3.909   1.950   9.725  0.7290  0.5086  0.1831
  644MPD2    C5 9588   4.040   1.981   9.684  0.6125 -0.0570  0.1900
  644MPD2     H 9589   3.931   1.619   9.701  0.4722  0.8801  0.6460
  644MPD2    H1 9590   3.840   2.026   9.760  0.7370  0.4059  0.4205
  644MPD2    H2 9591   4.228   1.922   9.616  1.0717 -1.7462 -0.7932
  644MPD2    H3 9592   4.079   2.082   9.688 -0.0873  0.2249 -0.2225
  644MPD2     N 9593   3.747   1.764   9.775  0.9179 -0.7265 -0.5518
  644MPD2    H5 9594   3.738   1.663   9.780  0.9458 -0.6259  1.4343
  644MPD2    N1 9595   4.198   1.665   9.603 -0.1283  0.1311 -1.1668
  644MPD2    H7 9596   4.290   1.703   9.586 -0.7572  1.2509 -2.1219
  645TMC3    C1 9597   3.506   1.767   9.813 -0.0397  0.3645 -0.0001
  645TMC3    C2 9598   3.392   1.846   9.804  0.4476 -0.0693 -0.5687
  645TMC3    C3 9599   3.266   1.788   9.807 -0.5953 -0.1412  0.8058
  645TMC3    C4 9600   3.501   1.633   9.838 -0.2882 -0.5348 -0.3494
  645TMC3    C5 9601   3.376   1.576   9.831 -0.6789  0.1731  0.6783
  645TMC3    C6 9602   3.267   1.654   9.820  0.4480 -0.0053 -0.0661
  645TMC3     C 9603   3.633   1.839   9.789  0.1335 -0.2455 -0.7165
  645TMC3     O 9604   3.619   1.955   9.751  0.2346  0.0853 -0.6082
  645TMC3     H 9605   3.390   1.954   9.800 -0.5381  0.0543  2.4277
  645TMC3    H1 9606   3.591   1.576   9.855  0.7872  1.1223 -0.4439
  645TMC3    H2 9607   3.177   1.598   9.796 -0.0072  1.6615 -2.3262
  645TMC3    C7 9608   3.360   1.436   9.877  0.2738  0.9748  0.1279
  645TMC3    C8 9609   3.152   1.862   9.753 -0.0991  0.0017  0.5593
  645TMC3    O1 9610   3.464   1.377   9.886 -0.1623  0.1976  0.2209
  645TMC3    O2 9611   3.176   1.974   9.708  0.1665  0.2144  0.4914
  646MPD2     C 9612   3.576   1.418  14.673 -0.2071  0.3628 -0.9964
  646MPD2    C1 9613   3.515   1.302  14.622 -0.4975  0.4421  0.6447
  646MPD2    C2 9614   3.375   1.310  14.587 -0.0895  0.6054  0.0912
  646MPD2    C3 9615   3.307   1.433  14.598 -0.4321  1.0463 -0.5948
  646MPD2    C4 9616   3.378   1.544  14.641  0.0503  0.1059 -0.7961
  646MPD2    C5 9617   3.507   1.535  14.686 -0.0399 -0.6894 -0.4039
  646MPD2     H 9618   3.324   1.230  14.535  2.9587 -0.2935 -1.4851
  646MPD2    H1 9619   3.329   1.639  14.657 -0.8503 -0.2494 -1.4244
  646MPD2    H2 9620   3.681   1.428  14.696 -1.0809  2.4372  2.1513
  646MPD2    H3 9621   3.561   1.614  14.735  0.9665 -0.8641 -1.2372
  646MPD2     N 9622   3.170   1.436  14.561  0.0765  0.2739  0.5984
  646MPD2    H5 9623   3.131   1.353  14.517  1.5884  0.5799 -1.3131
  646MPD2    N1 9624   3.590   1.181  14.610 -0.3196  0.1981 -0.2229
  646MPD2    H7 9625   3.682   1.185  14.652 -1.0131  0.1748  1.3190
  647TMC3    C1 9626   3.639   0.953  14.631 -0.3014  0.2301  0.7642
  647TMC3    C2 9627   3.603   0.838  14.697  0.2066 -0.0524 -0.2321
  647TMC3    C3 9628   3.706   0.767  14.743 -0.4838 -0.2485 -0.4672
  647TMC3    C4 9629   3.769   0.989  14.604  0.9768 -0.1656  0.2716
  647TMC3    C5 9630   3.874   0.917  14.655 -0.0570  0.0776  0.2361
  647TMC3    C6 9631   3.843   0.802  14.730 -0.1851 -0.0894  0.1823
  647TMC3     C 9632   3.536   1.055  14.611 -0.1131 -0.0136 -0.5818
  647TMC3     O 9633   3.421   1.023  14.586 -0.0699  0.4148 -0.1205
  647TMC3     H 9634   3.502   0.799  14.706  0.7658 -1.7251 -1.2780
  647TMC3    H1 9635   3.790   1.065  14.529 -0.8386  2.0637  2.0027
  647TMC3    H2 9636   3.927   0.743  14.765 -0.4938  0.2996  1.5617
  647TMC3    C7 9637   4.012   0.928  14.611  0.1158 -0.4396  0.0781
  647TMC3    C8 9638   3.674   0.632  14.780 -0.4163 -0.0620  1.1905
  647TMC3    O1 9639   4.075   0.826  14.632 -0.0278 -0.1551  0.0290
  647TMC3    O2 9640   3.562   0.617  14.831  0.1076 -0.5034  0.1314
  648TMC3    C1 9641   2.856   3.377  15.684 -0.6378 -0.7808  0.0366
  648TMC3    C2 9642   2.871   3.245  15.640 -0.0251 -0.0492 -0.5638
  648TMC3    C3 9643   2.824   3.229  15.513 -0.8159  0.7508  0.5275
  648TMC3    C4 9644   2.783   3.469  15.624 -0.2516  0.4455  0.1007
  648TMC3    C5 9645   2.736   3.438  15.499 -0.0515  0.5154  0.0732
  648TMC3    C6 9646   2.760   3.322  15.440 -0.0911  0.2377  0.1941
  648TMC3     C 9647   2.874   3.403  15.828 -0.3806 -0.8599 -0.7808
  648TMC3     O 9648   2.868   3.523  15.855  0.0839  0.2876 -0.2548
  648TMC3     H 9649   2.914   3.164  15.698 -0.1958  1.0574  1.1098
  648TMC3    H1 9650   2.789   3.572  15.660  1.9276  0.6080 -0.7588
  648TMC3    H2 9651   2.719   3.295  15.343 -2.3119 -1.7516  1.6602
  648TMC3    C7 9652   2.680   3.553  15.422 -0.2238 -0.1012  0.5110
  648TMC3    C8 9653   2.862   3.106  15.451 -0.0901  0.3142 -0.2235
  648TMC3    O1 9654   2.703   3.562  15.305 -0.5578  0.2487 -0.5884
  648TMC3    O2 9655   2.971   3.060  15.490 -0.0812 -0.4211 -0.7381
  649TMC3    C1 9656   1.608   0.320  12.964  0.8598 -0.4332 -0.3243
  649TMC3    C2 9657   1.678   0.405  13.050  0.4590  0.0974 -0.2786
  649TMC3    C3 9658   1.793   0.356  13.117  0.0833 -0.0153 -0.0331
  649TMC3    C4 9659   1.659   0.196  12.938  0.5980 -0.1695  0.3289
  649TMC3    C5 9660   1.770   0.151  13.004  0.4365  0.4828  0.3655
  649TMC3    C6 9661   1.831   0.225  13.098 -0.2823  0.1682  0.3399
  649TMC3     C 9662   1.490   0.381  12.904  0.0865 -0.3185  0.3270
  649TMC3     O 9663   1.412   0.450  12.965  0.1622 -0.3184 -0.4104
  649TMC3     H 9664   1.652   0.510  13.055  2.8306  0.6516  0.6832
  649TMC3    H1 9665   1.600   0.135  12.871  0.8939  0.4618 -0.4946
  649TMC3    H2 9666   1.910   0.189  13.163 -0.2693  0.6588  0.5906
  649TMC3    C7 9667   1.750   0.021  13.056  0.7148  0.5215 -0.2937
  649TMC3    C8 9668   1.884   0.444  13.189  0.4780  0.6582  0.0690
  649TMC3    O1 9669   1.637   4.712  13.052  0.1045  0.2758 -0.0350
  649TMC3    O2 9670   1.976   0.392  13.244 -1.1197  0.0342 -0.2109
  650TMC3    C1 9671   4.174   1.816  13.142 -0.4005  0.1113 -0.1180
  650TMC3    C2 9672   4.142   1.936  13.200  0.1402 -0.5512  0.4584
  650TMC3    C3 9673   4.168   2.051  13.132 -1.0762  0.1493 -0.5689
  650TMC3    C4 9674   4.233   1.810  13.020 -0.0637  0.6708 -0.5146
  650TMC3    C5 9675   4.260   1.924  12.955 -0.2427  0.6603  1.3348
  650TMC3    C6 9676   4.228   2.051  13.010 -0.5214 -0.4920 -0.2073
  650TMC3     C 9677   4.161   1.697  13.227 -0.4119 -0.4143  0.3378
  650TMC3     O 9678   4.111   1.720  13.340 -0.0197 -0.2981  0.4651
  650TMC3     H 9679   4.104   1.947  13.300  0.4886  0.2002  0.5140
  650TMC3    H1 9680   4.255   1.713  12.977  1.0121  0.5276  0.3443
  650TMC3    H2 9681   4.227   2.141  12.949 -0.6860 -1.2599 -1.3306
  650TMC3    C7 9682   4.309   1.909  12.822 -1.0481 -0.2320 -0.0527
  650TMC3    C8 9683   4.094   2.170  13.165 -0.2397 -0.9306  0.1660
  650TMC3    O1 9684   4.370   1.809  12.798 -0.0092 -0.2529 -0.0181
  650TMC3    O2 9685   4.150   2.277  13.151  0.3875 -0.5944 -0.4179
  651MPD2     C 9686   3.091   3.500  10.178 -0.1411  0.2204  0.2914
  651MPD2    C1 9687   3.103   3.582  10.290  0.7641 -0.0070 -0.0950
  651MPD2    C2 9688   3.224   3.643  10.304  0.9992 -0.0998  0.0925
  651MPD2    C3 9689   3.334   3.614  10.228 -0.6294  0.0312 -1.0082
  651MPD2    C4 9690   3.315   3.540  10.114 -0.4330  0.4148  0.5154
  651MPD2    C5 9691   3.193   3.484  10.093  0.2552 -0.7119 -0.2214
  651MPD2     H 9692   3.237   3.713  10.386  1.2018 -2.2159  1.8678
  651MPD2    H1 9693   3.387   3.515  10.038 -1.3540 -1.3241  0.2099
  651MPD2    H2 9694   3.006   3.439  10.151  0.5989 -0.1679 -1.1639
  651MPD2    H3 9695   3.183   3.427  10.001 -2.0859 -1.7422  0.6769
  651MPD2     N 9696   3.460   3.679  10.259  0.0125 -0.7906  0.4547
  651MPD2    H5 9697   3.458   3.725  10.349  1.9358  1.3506 -0.6174
  651MPD2    N1 9698   2.996   3.625  10.370 -0.2976 -0.6717  0.1113
  651MPD2    H7 9699   3.018   3.703  10.431 -2.3393 -0.5253  0.6757
  652TMC3    C1 9700   3.919   3.707  10.297  0.5514  0.2489  0.4149
  652TMC3    C2 9701   3.811   3.664  10.220  0.0690  0.1511 -0.1218
  652TMC3    C3 9702   3.695   3.730  10.239  0.0215 -0.1923 -0.4565
  652TMC3    C4 9703   3.903   3.800  10.396  0.8113 -0.2497 -0.0143
  652TMC3    C5 9704   3.780   3.853  10.420 -0.6279 -0.4449  0.2232
  652TMC3    C6 9705   3.677   3.816  10.344 -0.2291  0.5043  1.1320
  652TMC3     C 9706   4.047   3.634  10.305  0.3759  0.2855 -0.0737
  652TMC3     O 9707   4.104   3.645  10.413  0.0655  0.8943 -0.6615
  652TMC3     H 9708   3.818   3.585  10.146 -3.2743 -2.8186  2.7892
  652TMC3    H1 9709   3.994   3.834  10.445  0.1177 -0.5390  1.4859
  652TMC3    H2 9710   3.583   3.867  10.362 -0.7827  0.5388 -1.9182
  652TMC3    C7 9711   3.739   3.904  10.552  0.2049 -0.0642 -0.4972
  652TMC3    C8 9712   3.574   3.672  10.179 -0.3884 -0.4253  0.4432
  652TMC3    O1 9713   3.634   3.868  10.603  0.5591 -0.2771 -0.1951
  652TMC3    O2 9714   3.590   3.611  10.073  0.1911 -0.0319 -0.1837
  653MPD2     C 9715   2.253   3.377  17.451 -0.5589 -0.8043 -0.2291
  653MPD2    C1 9716   2.188   3.486  17.397  0.3080  0.3915 -0.1525
  653MPD2    C2 9717   2.075   3.468  17.315 -0.0192  0.9121 -0.3944
  653MPD2    C3 9718   2.049   3.344  17.266  0.2756  0.6301  0.7095
  653MPD2    C4 9719   2.117   3.236  17.317 -0.7506  0.3436  0.3896
  653MPD2    C5 9720   2.223   3.249  17.404  0.0776 -0.3523 -0.3315
  653MPD2     H 9721   2.013   3.551  17.280 -0.9232  1.3472  2.1956
  653MPD2    H1 9722   2.101   3.138  17.275 -0.5861  0.9536 -1.1228
  653MPD2    H2 9723   2.343   3.389  17.510  0.8904 -3.9327 -1.7893
  653MPD2    H3 9724   2.287   3.163  17.417 -0.4891 -0.4846  1.5486
  653MPD2     N 9725   1.943   3.331  17.186 -0.0434  0.1181 -0.2530
  653MPD2    H5 9726   1.896   3.419  17.165 -1.9866 -1.0472 -0.7479
  653MPD2    N1 9727   2.225   3.621  17.428  0.1360  0.4092 -0.3247
  653MPD2    H7 9728   2.172   3.693  17.379 -1.2373 -1.3853 -1.5243
  654TMC3    C1 9729   1.767   3.216  17.073 -0.9242  0.2642 -0.0926
  654TMC3    C2 9730   1.680   3.320  17.098 -0.7495 -0.6044  0.5076
  654TMC3    C3 9731   1.546   3.316  17.059 -0.0739 -0.1443  0.1879
  654TMC3    C4 9732   1.726   3.109  17.003 -0.0482 -0.3565 -0.2520
  654TMC3    C5 9733   1.598   3.113  16.947  0.7549 -0.4709 -0.6104
  654TMC3    C6 9734   1.506   3.212  16.985  0.2380 -0.2766  0.2824
  654TMC3     C 9735   1.902   3.216  17.121 -0.1460 -0.2655 -0.6945
  654TMC3     O 9736   1.957   3.109  17.113  0.0206 -0.0761  0.1980
  654TMC3     H 9737   1.707   3.398  17.169  2.2221  0.0898 -1.3823
  654TMC3    H1 9738   1.794   3.035  16.964  0.0029 -0.6263  0.3589
  654TMC3    H2 9739   1.403   3.213  16.953  0.3189  1.1906  0.0573
  654TMC3    C7 9740   1.576   3.019  16.845 -0.0657  0.2396 -0.3016
  654TMC3    C8 9741   1.475   3.437  17.031 -0.3728  0.1126 -0.3840
  654TMC3    O1 9742   1.536   3.064  16.735 -0.0161  0.5093  0.0706
  654TMC3    O2 9743   1.362   3.422  16.989  0.0815 -0.4136 -0.0986
  655MPD2     C 9744   3.146   3.355  15.432  0.1781  0.0205  0.1392
  655MPD2    C1 9745   3.107   3.461  15.357 -0.0215 -0.1815 -0.0049
  655MPD2    C2 9746   3.092   3.454  15.221  0.1072  0.0501 -0.5197
  655MPD2    C3 9747   3.115   3.333  15.156 -0.0033 -0.2345  0.3141
  655MPD2    C4 9748   3.167   3.226  15.228 -0.5191  0.3283 -0.2558
  655MPD2    C5 9749   3.183   3.242  15.359 -0.5221  0.2062 -0.6252
  655MPD2     H 9750   3.078   3.545  15.163  0.8262 -0.1720 -1.0401
  655MPD2    H1 9751   3.195   3.138  15.172 -1.2901  0.4203 -0.7785
  655MPD2    H2 9752   3.166   3.359  15.539  1.1839 -1.4643  0.0146
  655MPD2    H3 9753   3.229   3.159  15.413 -0.6872  0.3917 -0.1957
  655MPD2     N 9754   3.096   3.323  15.014 -0.1201  0.0867 -0.3031
  655MPD2    H5 9755   3.130   3.244  14.959  0.2547 -0.1590  0.2772
  655MPD2    N1 9756   3.083   3.594  15.412 -0.1429  0.0194 -0.3094
  655MPD2    H7 9757   3.045   3.669  15.354 -1.8455  0.2856  1.1519
  656TMC3    C1 9758   3.048   3.767  15.572  0.5153 -0.2586 -0.9396
  656TMC3    C2 9759   2.979   3.778  15.689 -0.2041 -0.3830  0.2395
  656TMC3    C3 9760   2.917   3.897  15.701  0.8389  0.0722 -0.1559
  656TMC3    C4 9761   3.038   3.851  15.469  0.3143 -0.3254  0.1251
  656TMC3    C5 9762   2.975   3.973  15.486 -0.4383  0.0126 -0.4420
  656TMC3    C6 9763   2.914   3.997  15.609 -0.1204  0.5000  0.3773
  656TMC3     C 9764   3.098   3.627  15.542  0.0793 -0.5330 -0.1070
  656TMC3     O 9765   3.122   3.554  15.634 -0.9435  0.2159 -0.5360
  656TMC3     H 9766   2.986   3.698  15.761 -0.2226 -1.5208 -1.0092
  656TMC3    H1 9767   3.107   3.838  15.387 -0.2593 -1.5704 -0.1555
  656TMC3    H2 9768   2.881   4.097  15.637 -0.8935  0.1631  0.6923
  656TMC3    C7 9769   2.994   4.082  15.390  0.8028  0.1948 -0.0617
  656TMC3    C8 9770   2.851   3.915  15.829 -0.5205  0.2900  0.5998
  656TMC3    O1 9771   3.085   4.095  15.308  0.2992  0.4187 -0.9100
  656TMC3    O2 9772   2.826   4.032  15.852 -0.8880 -0.2986  0.0504
  657TMC3    C1 9773   1.802   2.957  14.493  0.2238 -0.0249 -0.4022
  657TMC3    C2 9774   1.866   3.034  14.580  0.0080 -0.1626  0.2482
  657TMC3    C3 9775   1.836   3.174  14.590  0.6367  1.3738 -0.4177
  657TMC3    C4 9776   1.719   3.020  14.396 -0.2867 -0.7784 -0.2276
  657TMC3    C5 9777   1.711   3.156  14.396  0.0355  0.3522 -0.2281
  657TMC3    C6 9778   1.766   3.236  14.493  0.6098  0.2972  0.0931
  657TMC3     C 9779   1.822   2.819  14.489  0.0375 -1.0307 -0.5149
  657TMC3     O 9780   1.733   2.755  14.435 -0.0091  0.2283  0.0201
  657TMC3     H 9781   1.922   2.986  14.659 -1.9311 -1.6349  0.7213
  657TMC3    H1 9782   1.666   2.956  14.327  0.7885  0.8350 -2.5308
  657TMC3    H2 9783   1.751   3.343  14.502 -0.2025  0.1973 -0.1142
  657TMC3    C7 9784   1.625   3.227  14.302  0.2064  0.2981 -1.2254
  657TMC3    C8 9785   1.879   3.241  14.714 -0.4451 -0.4554 -0.1223
  657TMC3    O1 9786   1.602   3.342  14.334  0.4434  0.0698 -0.0175
  657TMC3    O2 9787   1.826   3.350  14.739 -0.2010 -0.1483  0.2157
  658MPD2     C 9788   3.519   3.217  14.535  0.0536 -0.1564  0.2863
  658MPD2    C1 9789   3.410   3.294  14.503  0.0826 -0.3125 -0.1762
  658MPD2    C2 9790   3.418   3.409  14.427 -0.8926 -0.1277  0.6452
  658MPD2    C3 9791   3.544   3.451  14.395  0.0956  0.6383  0.0353
  658MPD2    C4 9792   3.654   3.371  14.425  0.1115  0.7917 -0.6379
  658MPD2    C5 9793   3.645   3.257  14.504  0.2347  0.0372 -0.2607
  658MPD2     H 9794   3.334   3.459  14.381  0.6107  2.2259  0.4591
  658MPD2    H1 9795   3.753   3.412  14.411  0.4189 -0.0957 -1.0833
  658MPD2    H2 9796   3.506   3.127  14.593  3.1014 -0.1922  0.8945
  658MPD2    H3 9797   3.725   3.202  14.552  0.2375  1.3663  1.2528
  658MPD2     N 9798   3.538   3.564  14.304 -0.3209 -0.4934 -0.3176
  658MPD2    H5 9799   3.450   3.606  14.277  0.1027 -0.1560 -1.1857
  658MPD2    N1 9800   3.279   3.257  14.557  0.5089 -0.1249  0.7627
  658MPD2    H7 9801   3.268   3.185  14.628 -1.6169 -2.1488 -1.6387
  659TMC3    C1 9802   3.055   3.317  14.617  0.7969  0.1260  1.0036
  659TMC3    C2 9803   3.092   3.340  14.752 -1.1941 -1.1042  0.0789
  659TMC3    C3 9804   2.982   3.388  14.823 -0.0619  0.3984 -0.2799
  659TMC3    C4 9805   2.934   3.322  14.563 -0.1655 -0.8195 -0.3233
  659TMC3    C5 9806   2.837   3.371  14.642  0.7962 -0.0003  0.3510
  659TMC3    C6 9807   2.860   3.411  14.773 -0.1108  0.2162 -0.1668
  659TMC3     C 9808   3.163   3.320  14.519 -0.0812  0.4001 -0.4792
  659TMC3     O 9809   3.138   3.381  14.415 -0.2787  0.5586 -0.8688
  659TMC3     H 9810   3.189   3.362  14.795 -1.7146  0.2884  0.5232
  659TMC3    H1 9811   2.930   3.315  14.455  4.4536 -1.9811 -0.4223
  659TMC3    H2 9812   2.786   3.465  14.831  0.5347 -1.3123  2.0738
  659TMC3    C7 9813   2.697   3.387  14.596 -0.2785  0.2083  0.1553
  659TMC3    C8 9814   3.007   3.409  14.957 -0.2845  0.5630  0.1113
  659TMC3    O1 9815   2.616   3.440  14.670 -0.1617 -0.0458 -0.4718
  659TMC3    O2 9816   2.918   3.478  15.009 -0.4701 -0.3896  0.0882
  660MPD2     C 9817   1.205   2.538  12.001 -0.6984  0.0381  0.2152
  660MPD2    C1 9818   1.112   2.625  12.048  0.4124  0.4168  0.2266
  660MPD2    C2 9819   1.059   2.597  12.175 -0.3172 -0.1582 -0.4808
  660MPD2    C3 9820   1.082   2.479  12.232 -0.5516 -0.1221  0.0297
  660MPD2    C4 9821   1.179   2.395  12.185  0.7784  0.2261 -0.0050
  660MPD2    C5 9822   1.244   2.424  12.074 -0.1358 -0.3684  0.8004
  660MPD2     H 9823   0.988   2.665  12.219 -0.4533 -1.3450  1.1225
  660MPD2    H1 9824   1.201   2.302  12.236 -0.1859  0.3437  0.6133
  660MPD2    H2 9825   1.255   2.564  11.908 -1.5758 -2.1315 -0.8452
  660MPD2    H3 9826   1.321   2.360  12.032 -0.6429  0.3260 -1.2275
  660MPD2     N 9827   1.015   2.430  12.353 -0.4908  0.1223  0.3405
  660MPD2    H5 9828   1.046   2.340  12.388  1.8750  0.6878 -0.3252
  660MPD2    N1 9829   1.080   2.732  11.963 -0.4515 -0.3579  0.1846
  660MPD2    H7 9830   1.125   2.723  11.873  1.3545  0.2159  1.0231
  661TMC3    C1 9831   0.944   2.916  11.887 -0.1426  0.2956  0.8411
  661TMC3    C2 9832   1.040   2.942  11.793  0.0605  0.3323 -0.2439
  661TMC3    C3 9833   0.993   2.977  11.670 -0.2708 -0.1726 -0.0663
  661TMC3    C4 9834   0.811   2.941  11.863 -0.0081 -0.2616  0.2741
  661TMC3    C5 9835   0.770   2.973  11.738 -0.0478  0.3179  0.0896
  661TMC3    C6 9836   0.861   2.994  11.636 -0.2047  0.0173 -0.0144
  661TMC3     C 9837   0.974   2.815  11.995 -0.4335  0.2445  0.2220
  661TMC3     O 9838   0.896   2.813  12.090  0.3852  0.0273  0.3242
  661TMC3     H 9839   1.145   2.940  11.822 -0.3460  4.0457  1.4758
  661TMC3    H1 9840   0.737   2.931  11.942  1.0934  0.1038  1.3530
  661TMC3    H2 9841   0.825   3.025  11.538  0.8892  2.4194  0.3458
  661TMC3    C7 9842   0.632   2.931  11.704 -0.0737 -0.5877  0.5150
  661TMC3    C8 9843   1.101   2.992  11.568  0.8531 -0.1253  0.3968
  661TMC3    O1 9844   0.573   3.006  11.627 -0.0819  0.1872 -0.3504
  661TMC3    O2 9845   1.216   2.966  11.598 -0.1919 -0.3928  0.2474
  662MPD2     C 9846   1.548   2.201  16.797 -0.3355  0.4473 -1.4922
  662MPD2    C1 9847   1.559   2.211  16.934 -0.3440 -0.2877  0.1756
  662MPD2    C2 9848   1.485   2.309  16.998  0.2485  0.0587 -0.4233
  662MPD2    C3 9849   1.390   2.388  16.933 -0.3543 -0.4538  0.3728
  662MPD2    C4 9850   1.384   2.369  16.793 -0.9496 -0.1269 -0.1371
  662MPD2    C5 9851   1.458   2.281  16.727 -0.3966  0.6026  0.1066
  662MPD2     H 9852   1.492   2.298  17.105 -1.1243  0.2150 -0.3099
  662MPD2    H1 9853   1.321   2.430  16.729 -0.0482  0.9828  0.0273
  662MPD2    H2 9854   1.600   2.133  16.731 -1.4152  0.4961 -2.4061
  662MPD2    H3 9855   1.451   2.266  16.620  0.9486 -1.0002  0.2436
  662MPD2     N 9856   1.305   2.478  17.002  0.4621 -0.1382 -0.4687
  662MPD2    H5 9857   1.232   2.525  16.949 -0.6446 -1.4953 -0.1534
  662MPD2    N1 9858   1.610   2.102  17.018 -0.3451  0.7488  0.0187
  662MPD2    H7 9859   1.576   2.096  17.113 -1.5071  2.7911 -0.2650
  663TMC3    C1 9860   1.687   1.890  17.083 -0.4555  0.2159  0.2119
  663TMC3    C2 9861   1.617   1.924  17.193 -0.0965  0.3529 -0.5100
  663TMC3    C3 9862   1.538   1.831  17.251  0.1554 -0.2557 -0.5824
  663TMC3    C4 9863   1.691   1.763  17.039 -0.4973 -0.3052  0.1888
  663TMC3    C5 9864   1.607   1.669  17.087 -0.4986  0.8014  0.5122
  663TMC3    C6 9865   1.526   1.710  17.189  0.3855 -0.0215 -0.7905
  663TMC3     C 9866   1.688   1.993  16.979 -0.2847  0.0858 -0.1343
  663TMC3     O 9867   1.733   1.970  16.871  0.1855  0.2655  0.1853
  663TMC3     H 9868   1.651   2.010  17.250  1.9334 -0.6861 -0.1667
  663TMC3    H1 9869   1.747   1.754  16.947  1.0158 -0.5152  1.1307
  663TMC3    H2 9870   1.440   1.647  17.210 -0.0360  0.8159 -0.0333
  663TMC3    C7 9871   1.571   1.570  16.991  0.4520  0.5075 -0.4462
  663TMC3    C8 9872   1.418   1.900  17.286  0.0292  0.0529  0.1059
  663TMC3    O1 9873   1.633   1.569  16.887  0.2277 -0.1979 -0.0682
  663TMC3    O2 9874   1.405   2.017  17.263  0.7177  0.3114  0.5321
  664MPD2     C 9875   4.109   4.617  17.215 -0.2463  0.0006 -0.0740
  664MPD2    C1 9876   4.170   0.002  17.246 -0.0810  0.0095 -0.1966
  664MPD2    C2 9877   4.147   0.054  17.375 -0.0820  0.0418 -0.5591
  664MPD2    C3 9878   4.081   4.725  17.467  0.0946 -0.2862  0.2770
  664MPD2    C4 9879   4.031   4.600  17.441 -0.2921 -0.0224 -0.3370
  664MPD2    C5 9880   4.044   4.545  17.315 -0.0701  0.3393  0.0212
  664MPD2     H 9881   4.181   0.154  17.399 -1.3805 -0.1542  2.0598
  664MPD2    H1 9882   3.981   4.537  17.515  0.8916  0.8680  1.2335
  664MPD2    H2 9883   4.132   4.569  17.121 -2.9125 -0.2954 -0.5766
  664MPD2    H3 9884   4.004   4.445  17.304 -0.0072  0.3021  0.1365
  664MPD2     N 9885   4.076   0.045  17.599  0.1276 -0.0022 -0.2536
  664MPD2    H5 9886   4.103   0.142  17.610 -1.3830  0.5816 -1.7834
  664MPD2    N1 9887   4.247   0.075  17.152  0.1278  0.1970 -0.6153
  664MPD2    H7 9888   4.285   0.163  17.185 -1.2595  1.1382 -1.5212
  665TMC3    C1 9889   4.054   0.081   0.080 -0.3016 -0.3638  0.3187
  665TMC3    C2 9890   4.080   0.025   0.205 -0.6352 -0.2096 -0.0505
  665TMC3    C3 9891   4.140   0.115   0.289 -1.1116 -0.5804  0.4147
  665TMC3    C4 9892   4.079   0.212   0.044  0.2254 -0.4903 -0.4338
  665TMC3    C5 9893   4.140   0.294   0.133  0.5927  0.2264 -0.0210
  665TMC3    C6 9894   4.165   0.246   0.258 -0.4494  0.3981  0.2172
  665TMC3     C 9895   4.040   4.721  17.717 -0.0816  0.1645  0.1533
  665TMC3     O 9896   4.027   4.603  17.741  0.6300  0.1868  0.0704
  665TMC3     H 9897   4.054   4.658   0.215  0.8286 -0.6053 -0.2922
  665TMC3    H1 9898   4.021   0.253  17.710 -2.0205 -0.6212  1.0890
  665TMC3    H2 9899   4.219   0.308   0.330  0.0755 -1.3325  1.3232
  665TMC3    C7 9900   4.142   0.437   0.107  0.2784 -0.3760  0.4861
  665TMC3    C8 9901   4.154   0.077   0.425 -0.0214  0.1285  0.1863
  665TMC3    O1 9902   4.080   0.487   0.007  0.5720  0.0760 -0.2338
  665TMC3    O2 9903   4.187   0.170   0.495  0.1249 -0.1002 -0.1912
  666TMC3    C1 9904   3.979   0.420  10.093 -0.1699 -0.4537 -0.3555
  666TMC3    C2 9905   4.016   0.332  10.196 -0.2381  0.2164  0.2041
  666TMC3    C3 9906   4.129   0.368  10.261 -0.6047  0.6958  0.0714
  666TMC3    C4 9907   4.057   0.521  10.049 -0.0704  0.0124  0.3520
  666TMC3    C5 9908   4.167   0.549  10.117 -0.6238  0.2277  0.0008
  666TMC3    C6 9909   4.204   0.478  10.230  0.1878 -0.1167  0.4816
  666TMC3     C 9910   3.846   0.430  10.034 -0.1650 -0.2017 -0.2354
  666TMC3     O 9911   3.816   0.536   9.978  0.2611  0.3453 -0.1979
  666TMC3     H 9912   3.959   0.245  10.225 -0.5542  0.4790  0.3697
  666TMC3    H1 9913   4.030   0.583   9.964  3.3573 -0.8138 -1.3252
  666TMC3    H2 9914   4.285   0.514  10.292 -0.7816  1.9296  0.5334
  666TMC3    C7 9915   4.171   0.694  10.132 -0.0370 -0.4029  0.3358
  666TMC3    C8 9916   4.174   0.286  10.374 -0.2727  0.2724 -0.3435
  666TMC3    O1 9917   4.077   0.767  10.102 -0.4641  0.0356 -0.9272
  666TMC3    O2 9918   4.111   0.178  10.381 -0.1300 -0.0504  0.5310
  667MPD2     C 9919   0.550   0.256  14.706  1.0285 -0.2666 -0.1449
  667MPD2    C1 9920   0.425   0.254  14.760 -0.1596  0.0258 -0.9532
  667MPD2    C2 9921   0.312   0.208  14.687 -0.1362  0.1285  0.0815
  667MPD2    C3 9922   0.326   0.173  14.553  0.6555 -0.0680  0.1679
  667MPD2    C4 9923   0.454   0.179  14.495  0.0219  0.2140 -0.0074
  667MPD2    C5 9924   0.564   0.227  14.568  0.1943 -0.8258  0.0614
  667MPD2     H 9925   0.212   0.214  14.730 -0.5717 -1.8909 -0.6532
  667MPD2    H1 9926   0.460   0.169  14.387 -0.7173  1.1211 -0.1269
  667MPD2    H2 9927   0.641   0.290  14.755 -0.3609  2.2014  0.7249
  667MPD2    H3 9928   0.660   0.230  14.518 -0.3354  1.5486 -0.8363
  667MPD2     N 9929   0.222   0.118  14.480  0.3061 -0.1706  0.4289
  667MPD2    H5 9930   0.242   0.091  14.384  0.9294  1.2522  0.1740
  667MPD2    N1 9931   0.400   0.288  14.895 -0.0563 -0.4548 -0.1328
  667MPD2    H7 9932   0.309   0.254  14.922 -0.7129  0.0654 -1.6814
  668TMC3    C1 9933   0.416   0.424  15.091  0.2569 -0.0648  0.4159
  668TMC3    C2 9934   0.452   0.552  15.117  0.3811 -0.5545 -0.0778
  668TMC3    C3 9935   0.420   0.604  15.241  0.4457 -0.2745 -0.2340
  668TMC3    C4 9936   0.350   0.336  15.170 -0.1637 -0.2249  0.2612
  668TMC3    C5 9937   0.329   0.392  15.293 -0.3621  0.5522 -0.4023
  668TMC3    C6 9938   0.370   0.517  15.333 -0.3622  0.2174  0.7089
  668TMC3     C 9939   0.476   0.378  14.968 -0.0328 -0.3801  0.0895
  668TMC3     O 9940   0.573   0.442  14.935 -0.4789  0.0487 -0.2629
  668TMC3     H 9941   0.491   0.621  15.043  3.6103 -1.1479  1.0598
  668TMC3    H1 9942   0.344   0.229  15.156  1.2583 -0.3375  0.6075
  668TMC3    H2 9943   0.355   0.555  15.434 -0.1301  0.9121  0.4802
  668TMC3    C7 9944   0.260   0.306  15.395 -0.2512 -0.3429 -0.2306
  668TMC3    C8 9945   0.499   0.715  15.283  0.1001 -0.0310 -0.1424
  668TMC3    O1 9946   0.282   0.335  15.512 -0.1589 -0.0209 -0.0496
  668TMC3    O2 9947   0.523   0.711  15.402 -0.4827 -0.8191  0.6063
  669TMC3    C1 9948   3.177   0.516  14.663  0.3465 -0.4817  0.6145
  669TMC3    C2 9949   3.057   0.506  14.595 -0.4353 -0.5249 -0.1006
  669TMC3    C3 9950   3.048   0.560  14.472 -0.2791 -0.1525 -0.0627
  669TMC3    C4 9951   3.294   0.564  14.609 -0.1832  0.1592  0.2580
  669TMC3    C5 9952   3.278   0.618  14.487 -0.8486  0.5920 -0.0399
  669TMC3    C6 9953   3.162   0.615  14.416 -0.2044 -0.1675  0.0527
  669TMC3     C 9954   3.188   0.428  14.781  0.1914  0.0641  0.0274
  669TMC3     O 9955   3.083   0.423  14.844  0.2023  0.3523 -0.1468
  669TMC3     H 9956   2.963   0.491  14.646 -0.0783 -2.3545  0.0239
  669TMC3    H1 9957   3.391   0.566  14.656 -0.7813  2.0826  1.3954
  669TMC3    H2 9958   3.165   0.644  14.312  2.6495 -0.4864  0.0677
  669TMC3    C7 9959   3.398   0.646  14.408  0.6726  0.1414 -0.7923
  669TMC3    C8 9960   2.945   0.506  14.380 -0.0663  0.5315  0.1102
  669TMC3    O1 9961   3.379   0.732  14.318  0.1575  0.0014 -0.4231
  669TMC3    O2 9962   2.882   0.414  14.425  0.0108  0.5975 -0.1299
  670MPD2     C 9963   1.823   3.078  12.783 -0.8763 -0.0035  0.7284
  670MPD2    C1 9964   1.935   3.081  12.862  0.1529 -0.3017  0.5157
  670MPD2    C2 9965   1.934   3.041  12.996 -0.6571 -0.3710  0.1079
  670MPD2    C3 9966   1.813   3.006  13.056  0.2596 -0.6387  0.4167
  670MPD2    C4 9967   1.704   3.012  12.973  0.1472  1.0519 -0.6159
  670MPD2    C5 9968   1.708   3.042  12.844 -0.1200  0.5752  0.6068
  670MPD2     H 9969   2.025   3.042  13.056 -0.5623 -1.8044 -0.0177
  670MPD2    H1 9970   1.605   2.981  13.006  0.7648  0.5698  0.7879
  670MPD2    H2 9971   1.821   3.112  12.680 -1.3937  1.1671  1.1263
  670MPD2    H3 9972   1.619   3.065  12.788 -1.2127 -0.1578  2.0398
  670MPD2     N 9973   1.816   2.943  13.189  0.5272 -0.3713  0.4654
  670MPD2    H5 9974   1.903   2.909  13.230  0.4488 -0.7588  0.3069
  670MPD2    N1 9975   2.060   3.120  12.808  0.2816 -0.1947 -0.1546
  670MPD2    H7 9976   2.134   3.125  12.877  0.1044 -2.7759  0.2352
  671TMC3    C1 9977   1.697   2.839  13.361  0.5237 -0.3971  0.2718
  671TMC3    C2 9978   1.808   2.778  13.408  0.2950  0.0535  0.0838
  671TMC3    C3 9979   1.798   2.648  13.437 -0.4465  0.1542  0.2851
  671TMC3    C4 9980   1.574   2.781  13.370  0.2809 -0.1077 -0.7098
  671TMC3    C5 9981   1.563   2.653  13.428 -0.6676 -0.0649  0.5441
  671TMC3    C6 9982   1.678   2.578  13.450 -0.2987  0.2438  0.2979
  671TMC3     C 9983   1.698   2.943  13.265 -0.6296  0.3111  0.1494
  671TMC3     O 9984   1.591   2.991  13.238  0.3493 -0.4690 -0.0597
  671TMC3     H 9985   1.906   2.818  13.386  0.0475  0.4675 -0.2726
  671TMC3    H1 9986   1.482   2.824  13.333 -0.1654 -2.9300 -2.8631
  671TMC3    H2 9987   1.673   2.477  13.489 -0.8342  0.5960  1.1447
  671TMC3    C7 9988   1.441   2.580  13.418  0.5497 -0.5912  0.4684
  671TMC3    C8 9989   1.910   2.566  13.488  0.4333 -0.7746 -0.0686
  671TMC3    O1 9990   1.455   2.470  13.372  0.2770  0.1775 -0.4247
  671TMC3    O2 9991   1.907   2.441  13.465  0.3455 -0.0112 -0.0142
  672MPD2     C 9992   2.130   3.223   0.862 -0.4020 -0.6778  0.7741
  672MPD2    C1 9993   2.204   3.162   0.768  0.1022  0.0954  0.9219
  672MPD2    C2 9994   2.342   3.154   0.778  0.4248 -0.6885  0.3823
  672MPD2    C3 9995   2.401   3.228   0.885  0.3582 -0.0360 -0.6376
  672MPD2    C4 9996   2.322   3.293   0.978 -0.5192  0.3006  0.1646
  672MPD2    C5 9997   2.190   3.289   0.963  0.5440 -0.3295 -0.3974
  672MPD2     H 9998   2.391   3.103   0.696  0.4671 -0.9093  0.5444
  672MPD2    H1 9999   2.366   3.351   1.058  1.8469  0.3915 -1.1925
  672MPD2    H210000   2.023   3.236   0.865  0.0582  3.4210 -1.8559
  672MPD2    H310001   2.123   3.321   1.041  1.5611  0.4579  0.1612
  672MPD2     N10002   2.538   3.241   0.911 -0.2300 -0.2405  0.1750
  672MPD2    H510003   2.570   3.289   0.995 -2.3212  1.2575  0.1270
  672MPD2    N110004   2.138   3.105   0.655  0.5307  0.0366  0.8620
  672MPD2    H710005   2.194   3.048   0.592 -0.0060  0.9377 -0.4214
  673TMC3    C110006   1.979   3.076   0.485 -0.0151  0.0387  0.3386
  673TMC3    C210007   2.050   2.963   0.440  0.0627 -0.2607 -0.7290
  673TMC3    C310008   2.012   2.897   0.328 -1.1056  0.2290 -0.2292
  673TMC3    C410009   1.859   3.120   0.424  0.4042  0.1427  0.1545
  673TMC3    C510010   1.823   3.044   0.313  0.0355 -0.1864 -0.3345
  673TMC3    C610011   1.893   2.933   0.258  0.8562 -0.6249 -0.2755
  673TMC3     C10012   2.014   3.140   0.611  0.3508  0.3156 -0.5553
  673TMC3     O10013   1.949   3.235   0.653 -0.5729 -0.2143  0.0404
  673TMC3     H10014   2.117   2.909   0.507 -1.3217 -1.0068  0.0436
  673TMC3    H110015   1.792   3.185   0.479 -0.1304 -1.2497  1.1441
  673TMC3    H210016   1.852   2.880   0.173  4.3120 -0.6847 -1.9133
  673TMC3    C710017   1.721   3.104   0.228  0.1054 -0.2191 -0.3288
  673TMC3    C810018   2.068   2.767   0.277  0.5969  0.0606 -0.1404
  673TMC3    O110019   1.689   3.046   0.128 -0.0286 -0.0226  0.2158
  673TMC3    O210020   2.004   2.708   0.190  0.6417  0.1844 -0.0658
  674MPD2     C10021   1.594   3.754  17.342 -0.6671  1.1329  0.1099
  674MPD2    C110022   1.564   3.628  17.376  0.0827 -0.2558  0.3926
  674MPD2    C210023   1.434   3.591  17.373 -0.1040 -0.2243 -0.0944
  674MPD2    C310024   1.334   3.680  17.358  0.0580  0.1808  0.8299
  674MPD2    C410025   1.370   3.808  17.320  0.2117 -0.5357 -0.1667
  674MPD2    C510026   1.495   3.847  17.310  0.2723  0.2932 -0.3373
  674MPD2     H10027   1.404   3.492  17.403  0.0205 -0.0540  0.5941
  674MPD2    H110028   1.289   3.877  17.297  0.4501  0.3715  1.7170
  674MPD2    H210029   1.693   3.793  17.359 -0.7759  1.4569 -0.0024
  674MPD2    H310030   1.531   3.945  17.281 -0.7923  0.4477 -1.1548
  674MPD2     N10031   1.198   3.635  17.380 -0.1107 -0.0930  0.2376
  674MPD2    H510032   1.189   3.535  17.394  1.8256  0.0103  2.2892
  674MPD2    N110033   1.670   3.545  17.427 -0.2686 -0.1832  0.8436
  674MPD2    H710034   1.760   3.590  17.440 -0.4954  0.5659 -0.1549
  675TMC3    C110035   1.774   3.333  17.481  0.5343 -0.0696  0.3515
  675TMC3    C210036   1.755   3.200  17.449  0.0630 -0.1538  0.3699
  675TMC3    C310037   1.805   3.099  17.529 -0.0785 -0.7438 -0.2176
  675TMC3    C410038   1.836   3.366  17.597  0.0970 -0.5480  0.3767
  675TMC3    C510039   1.879   3.265  17.680 -0.2819  0.6331  0.0079
  675TMC3    C610040   1.864   3.134  17.647 -1.2069  0.9807  0.2106
  675TMC3     C10041   1.648   3.405  17.453 -0.2598  0.6841 -0.8912
  675TMC3     O10042   1.552   3.331  17.431 -0.0135 -0.3925 -0.3503
  675TMC3     H10043   1.701   3.179  17.357  0.2979 -0.9957  0.4263
  675TMC3    H110044   1.870   3.468  17.612 -0.0247 -0.5462  0.6263
  675TMC3    H210045   1.896   3.050  17.709  0.3977  0.7794 -0.8872
  675TMC3    C710046   1.962   3.300   0.041  0.0203 -0.6172  0.1828
  675TMC3    C810047   1.759   2.969  17.504  0.5878 -0.4500  0.1173
  675TMC3    O110048   1.938   3.409   0.086 -0.0548  0.2529 -0.3696
  675TMC3    O210049   1.770   2.928  17.386 -0.1408 -0.3504  0.3980
  676MPD2     C10050   4.048   1.205  11.812  0.0437 -0.1472  0.3340
  676MPD2    C110051   3.973   1.242  11.703  0.2735 -0.5487 -0.7751
  676MPD2    C210052   3.940   1.149  11.607  0.7250  0.1762  0.0208
  676MPD2    C310053   3.997   1.019  11.615  0.5605  0.4481  0.1273
  676MPD2    C410054   4.078   0.987  11.722  0.3913 -0.6348  0.2655
  676MPD2    C510055   4.108   1.078  11.822 -0.0301 -0.0043 -0.0173
  676MPD2     H10056   3.873   1.184  11.529 -0.4926  0.3438  1.1457
  676MPD2    H110057   4.131   0.895  11.739 -0.3807 -1.0961  0.1508
  676MPD2    H210058   4.064   1.272  11.896 -0.1297  0.7179 -0.3264
  676MPD2    H310059   4.183   1.046  11.893  1.5036 -0.7095 -1.9513
  676MPD2     N10060   3.977   0.910  11.527  0.2642 -0.3177 -0.0043
  676MPD2    H510061   4.021   0.820  11.541  3.4840  1.2039 -0.4205
  676MPD2    N110062   3.921   1.376  11.717 -1.0127 -0.6498 -0.4624
  676MPD2    H710063   3.967   1.427  11.791  0.2977 -2.6317  0.0857
  677TMC3    C110064   3.798   1.574  11.672  0.0233  0.5647 -0.5063
  677TMC3    C210065   3.679   1.570  11.745  0.2827 -0.6312 -0.2158
  677TMC3    C310066   3.649   1.658  11.844  0.4395 -0.0857 -0.4321
  677TMC3    C410067   3.890   1.666  11.697  0.2555 -0.6927 -0.3104
  677TMC3    C510068   3.846   1.769  11.780 -0.5283  0.0739  0.2222
  677TMC3    C610069   3.725   1.774  11.843  0.7327 -0.7721 -0.5508
  677TMC3     C10070   3.838   1.443  11.630 -0.5515 -0.1427  0.2171
  677TMC3     O10071   3.786   1.396  11.528  0.0660 -0.4085  0.0783
  677TMC3     H10072   3.627   1.476  11.736  1.1152 -1.2083  1.0603
  677TMC3    H110073   3.987   1.637  11.660  1.0542  1.5372 -0.0210
  677TMC3    H210074   3.712   1.856  11.912  0.1669  0.4872 -2.1444
  677TMC3    C710075   3.954   1.836  11.863 -0.4056 -0.3446 -0.4632
  677TMC3    C810076   3.663   1.584  11.961 -0.3055 -0.1665 -0.0217
  677TMC3    O110077   3.927   1.918  11.946  0.3419 -0.6997  0.2528
  677TMC3    O210078   3.714   1.474  11.958  0.1823 -0.1024 -0.2299
  678MPD2     C10079   0.445   1.070   1.066 -0.2927  0.1512 -0.0983
  678MPD2    C110080   0.395   1.056   0.939 -0.0923 -0.7138  0.1426
  678MPD2    C210081   0.299   1.150   0.896  0.0218  0.4932  0.2982
  678MPD2    C310082   0.256   1.256   0.969 -0.1838  0.1386 -0.3498
  678MPD2    C410083   0.301   1.260   1.103 -0.6891  0.0173  0.3389
  678MPD2    C510084   0.395   1.170   1.150 -0.2490  0.6006  0.2354
  678MPD2     H10085   0.253   1.140   0.798  0.0764 -0.5765  0.3844
  678MPD2    H110086   0.286   1.343   1.171 -1.1531 -0.0852  0.3594
  678MPD2    H210087   0.503   0.990   1.110 -0.7760 -0.5673 -0.7676
  678MPD2    H310088   0.432   1.182   1.251  1.0661 -1.4880  0.0185
  678MPD2     N10089   0.165   1.349   0.917 -0.4461 -0.4713 -0.6311
  678MPD2    H510090   0.132   1.337   0.822  0.7258  2.0949 -1.3702
  678MPD2    N110091   0.433   0.950   0.853 -0.0887 -0.0840 -0.1189
  678MPD2    H710092   0.383   0.946   0.765  1.8937  0.0924 -1.2460
  679TMC3    C110093   0.717   0.609   0.713  0.1991  0.1859 -0.2261
  679TMC3    C210094   0.619   0.651   0.801  0.1119 -0.4520  0.1616
  679TMC3    C310095   0.535   0.751   0.766 -0.5420  0.4255 -0.5274
  679TMC3    C410096   0.741   0.671   0.591  0.0079  0.4365 -0.1307
  679TMC3    C510097   0.650   0.772   0.559  0.1156  1.3934  0.7816
  679TMC3    C610098   0.547   0.810   0.647 -1.2557 -0.1495 -0.1817
  679TMC3     C10099   0.833   0.552   0.773  0.1849  0.8869 -0.9215
  679TMC3     O10100   0.885   0.468   0.701  0.6247 -0.4841  0.6408
  679TMC3     H10101   0.608   0.619   0.904  0.4430  3.4944  1.3966
  679TMC3    H110102   0.833   0.647   0.539 -0.6097 -0.2820 -0.8916
  679TMC3    H210103   0.469   0.876   0.611 -0.5068  1.9685  2.0290
  679TMC3    C710104   0.684   0.875   0.464 -0.0933 -0.1567 -0.3565
  679TMC3    C810105   0.522   0.845   0.877  0.2939 -0.3685  0.0108
  679TMC3    O110106   0.608   0.971   0.454 -0.0134 -0.3364 -0.1776
  679TMC3    O210107   0.603   0.842   0.966 -0.5600 -0.0817  0.1258
  680MPD2     C10108   1.195   0.046  13.638 -0.0672  0.4024 -0.1962
  680MPD2    C110109   1.321   0.019  13.687  0.7432 -0.0742  0.1904
  680MPD2    C210110   1.400   0.128  13.726 -0.2126 -0.1237 -0.6005
  680MPD2    C310111   1.361   0.262  13.711  0.6273  0.4470  0.2654
  680MPD2    C410112   1.238   0.289  13.662 -0.0662  0.4487  0.0177
  680MPD2    C510113   1.162   0.179  13.621  0.3444  0.3735 -0.2348
  680MPD2     H10114   1.498   0.108  13.767 -0.1898  1.6123  0.1894
  680MPD2    H110115   1.199   0.391  13.659  1.2497  0.9866  0.9650
  680MPD2    H210116   1.131   4.703  13.602  1.8887 -2.5948  3.0762
  680MPD2    H310117   1.064   0.188  13.576  0.9003  2.2246 -1.0863
  680MPD2     N10118   1.439   0.374  13.748 -0.5788 -0.1031  0.1277
  680MPD2    H510119   1.393   0.465  13.745 -1.0825 -0.4448 -2.6011
  680MPD2    N110120   1.374   4.624  13.694  0.9120 -0.3515 -0.3953
  680MPD2    H710121   1.475   4.616  13.705  0.9840  0.3507 -0.5832
  681TMC3    C110122   1.391   4.404  13.684 -0.1366 -0.3092 -0.1353
  681TMC3    C210123   1.356   4.298  13.754  0.2758  0.4919 -0.0438
  681TMC3    C310124   1.406   4.177  13.716  0.1678  0.3465 -0.2419
  681TMC3    C410125   1.491   4.403  13.592  0.0567  0.0873  0.1927
  681TMC3    C510126   1.548   4.286  13.566 -0.1597  0.7955 -0.3933
  681TMC3    C610127   1.505   4.176  13.624 -0.3749 -0.7960 -0.6045
  681TMC3     C10128   1.301   4.511  13.686  0.1455 -0.4985 -0.7153
  681TMC3     O10129   1.181   4.482  13.699  0.1324 -0.4448  0.1366
  681TMC3     H10130   1.285   4.302  13.836  0.5418 -0.8214  0.2602
  681TMC3    H110131   1.515   4.493  13.538  0.6937 -0.9326 -1.1989
  681TMC3    H210132   1.545   4.078  13.603  0.8682 -0.3339 -0.3918
  681TMC3    C710133   1.640   4.266  13.456 -0.1271  0.1364 -0.1000
  681TMC3    C810134   1.398   4.062  13.810  0.6090  0.4673  0.2280
  681TMC3    O110135   1.704   4.159  13.450 -0.0969 -0.2367  0.3858
  681TMC3    O210136   1.436   3.957  13.764 -0.4053 -0.7055  0.1767
  682MPD2     C10137   3.832   1.902  10.639 -0.0529 -0.4107  0.2903
  682MPD2    C110138   3.766   1.781  10.620  0.4234  0.0048  0.0920
  682MPD2    C210139   3.656   1.753  10.700  0.0869  0.1100 -0.3014
  682MPD2    C310140   3.623   1.841  10.803  0.0392 -0.4157  0.5676
  682MPD2    C410141   3.678   1.971  10.799  0.5565 -0.2728  0.2989
  682MPD2    C510142   3.786   1.997  10.721 -0.2153  0.2455 -0.6374
  682MPD2     H10143   3.599   1.665  10.672 -1.0103  0.3870  1.0202
  682MPD2    H110144   3.631   2.049  10.858 -0.4183  0.9761 -2.1247
  682MPD2    H210145   3.914   1.935  10.577  2.0667 -1.7315  2.4036
  682MPD2    H310146   3.836   2.092  10.725 -0.8008  0.4759  1.2572
  682MPD2     N10147   3.530   1.815  10.905  0.3896  0.0345 -0.3631
  682MPD2    H510148   3.519   1.887  10.976  1.1089  1.3652 -1.6009
  682MPD2    N110149   3.810   1.681  10.528 -0.3361 -0.6860 -0.1444
  682MPD2    H710150   3.758   1.594  10.527 -3.0589  0.9234  0.4119
  683TMC3    C110151   3.304   1.700  11.240 -0.5346  0.5347 -0.6483
  683TMC3    C210152   3.200   1.616  11.227  0.2220 -0.0692 -0.4509
  683TMC3    C310153   3.176   1.570  11.097  0.6530 -0.5866 -0.0595
  683TMC3    C410154   3.381   1.742  11.138 -0.1546  0.5094 -0.4730
  683TMC3    C510155   3.356   1.692  11.015  0.1151 -0.2434 -0.0173
  683TMC3    C610156   3.255   1.601  10.989 -0.6035  0.3878 -0.3569
  683TMC3     C10157   3.344   1.741  11.371 -0.1033  0.1348 -0.1556
  683TMC3     O10158   3.453   1.799  11.383  0.3372  0.0277  0.1356
  683TMC3     H10159   3.121   1.599  11.299  0.5783 -0.2129 -0.0992
  683TMC3    H110160   3.460   1.815  11.152 -1.0826  1.6581 -1.3325
  683TMC3    H210161   3.244   1.548  10.895 -1.6273  0.4743 -0.2925
  683TMC3    C710162   3.454   1.700  10.905 -0.4450 -0.5226 -0.3914
  683TMC3    C810163   3.103   1.457  11.067  0.0676  0.0325  0.3514
  683TMC3    O110164   3.458   1.597  10.838  0.2914 -0.4304 -0.3696
  683TMC3    O210165   2.984   1.466  11.085 -0.1269 -0.0852  0.2228
  684MPD2     C10166   1.514   0.723  16.370 -0.1371 -1.8002 -0.1012
  684MPD2    C110167   1.500   0.779  16.241 -0.3343 -0.4641 -0.3431
  684MPD2    C210168   1.432   0.902  16.226  0.2531 -0.3479 -0.5648
  684MPD2    C310169   1.384   0.972  16.334  0.3314  0.0801  0.2307
  684MPD2    C410170   1.403   0.911  16.462 -0.8977 -0.0620  0.4543
  684MPD2    C510171   1.466   0.788  16.480  0.3802  0.5662 -0.0227
  684MPD2     H10172   1.418   0.941  16.126 -0.7561 -0.3037 -0.4024
  684MPD2    H110173   1.373   0.960  16.555  0.2503  1.1124  0.2095
  684MPD2    H210174   1.578   0.636  16.387  1.0668 -1.1963 -1.5950
  684MPD2    H310175   1.483   0.745  16.578 -0.3432  0.4188  0.0334
  684MPD2     N10176   1.315   1.095  16.331  0.3213 -0.0308 -0.2577
  684MPD2    H510177   1.297   1.135  16.422 -1.8388 -2.0761  0.2221
  684MPD2    N110178   1.554   0.714  16.127  0.3117  0.2427 -0.3807
  684MPD2    H710179   1.525   0.758  16.040 -0.9659  0.2658  0.0580
  685TMC3    C110180   1.699   0.592  15.995 -0.5316 -0.2827  0.6223
  685TMC3    C210181   1.609   0.556  15.898 -0.8108  1.1187 -0.1972
  685TMC3    C310182   1.661   0.523  15.777  0.1329  0.5081  0.2416
  685TMC3    C410183   1.833   0.557  15.984 -0.4996  0.4839 -0.1202
  685TMC3    C510184   1.879   0.524  15.859  0.1302 -0.1779  0.0969
  685TMC3    C610185   1.793   0.508  15.751  0.2084  0.2119 -0.1727
  685TMC3     C10186   1.656   0.629  16.123 -0.0366  0.1621 -0.5545
  685TMC3     O10187   1.727   0.599  16.222  0.4514  0.0448  0.4843
  685TMC3     H10188   1.504   0.574  15.917 -1.5751 -2.5687 -0.9659
  685TMC3    H110189   1.897   0.605  16.058 -0.8227  0.2601  0.3016
  685TMC3    H210190   1.840   0.481  15.657  0.2357 -1.1463  0.2369
  685TMC3    C710191   2.020   0.517  15.843  0.0901  0.3330 -0.2642
  685TMC3    C810192   1.582   0.512  15.660 -0.3245  0.2520 -0.6805
  685TMC3    O110193   2.064   0.545  15.732  0.4484  0.4227  0.3351
  685TMC3    O210194   1.641   0.455  15.568 -0.4506 -0.5593  0.5240
  686MPD2     C10195   3.059   0.908  15.913 -0.0616  0.3435 -0.0774
  686MPD2    C110196   3.029   0.887  15.779  0.2554  0.0940 -0.6469
  686MPD2    C210197   3.103   0.950  15.682  0.1339  1.0004  0.1312
  686MPD2    C310198   3.214   1.028  15.716  0.5476  0.5354  0.0093
  686MPD2    C410199   3.238   1.049  15.848  0.4563 -0.2451  0.1937
  686MPD2    C510200   3.164   0.991  15.945  0.5491 -0.9190 -0.2902
  686MPD2     H10201   3.087   0.933  15.576 -1.7726 -0.6356  0.6880
  686MPD2    H110202   3.327   1.104  15.875 -0.7264  0.7808  1.9881
  686MPD2    H210203   2.990   0.872  15.988  1.7407 -1.8471  0.5598
  686MPD2    H310204   3.180   1.016  16.049  2.2816  1.6279 -1.1654
  686MPD2     N10205   3.299   1.088  15.620 -0.1741 -0.0632  0.0291
  686MPD2    H510206   3.388   1.129  15.647  0.9982 -1.4575 -1.6963
  686MPD2    N110207   2.943   0.780  15.748 -0.2022  0.7248 -0.1197
  686MPD2    H710208   2.918   0.733  15.834 -1.1626  0.0437 -0.7663
  687TMC3    C110209   3.387   1.070  15.395 -0.3291  0.2633 -0.3336
  687TMC3    C210210   3.352   1.070  15.267 -0.4238 -0.8226 -0.8004
  687TMC3    C310211   3.434   1.017  15.177 -0.1972  0.1017  0.0855
  687TMC3    C410212   3.499   1.003  15.444 -0.4021  0.3755  0.1206
  687TMC3    C510213   3.574   0.932  15.350 -0.6428 -0.1264  0.1563
  687TMC3    C610214   3.540   0.931  15.213 -0.1024 -0.1048 -0.9776
  687TMC3     C10215   3.275   1.085  15.489 -0.7878  0.1731  0.6791
  687TMC3     O10216   3.164   1.089  15.434 -0.0685  0.0991  0.0255
  687TMC3     H10217   3.265   1.128  15.239 -0.8247 -0.7585  0.5795
  687TMC3    H110218   3.519   1.001  15.551  0.8166 -1.4017 -0.1401
  687TMC3    H210219   3.603   0.889  15.136  1.7560  2.0888 -0.6699
  687TMC3    C710220   3.610   0.799  15.401  0.3331  0.5444  0.3551
  687TMC3    C810221   3.378   0.973  15.053  0.0013 -0.3154  0.3921
  687TMC3    O110222   3.632   0.788  15.520 -0.3524  0.7489 -0.1767
  687TMC3    O210223   3.449   0.910  14.975 -0.5318  0.1262  0.2220
  688MPD2     C10224   2.367   4.227  17.026  0.5221 -0.2209 -0.0551
  688MPD2    C110225   2.409   4.096  17.054  0.2540 -0.0139 -0.2706
  688MPD2    C210226   2.496   4.031  16.968  0.0154  0.4962 -0.0966
  688MPD2    C310227   2.527   4.094  16.847 -0.4421  0.7853  0.4628
  688MPD2    C410228   2.478   4.228  16.819 -0.1402 -0.1230  0.5169
  688MPD2    C510229   2.386   4.290  16.905 -0.9337  0.0290  0.0666
  688MPD2     H10230   2.533   3.933  16.997 -0.6444  0.6305  1.2244
  688MPD2    H110231   2.516   4.272  16.728  2.8601 -3.1616  0.2877
  688MPD2    H210232   2.299   4.285  17.087 -0.6771  0.7323 -2.3297
  688MPD2    H310233   2.349   4.389  16.882  1.1554  0.7892 -0.0274
  688MPD2     N10234   2.604   4.030  16.744 -0.1809  0.0666  0.1186
  688MPD2    H510235   2.602   4.075  16.653  1.3631  0.3760  0.2284
  688MPD2    N110236   2.369   4.036  17.172  0.2779 -0.1638 -0.2170
  688MPD2    H710237   2.420   3.954  17.204 -1.8358 -1.4129 -0.0951
  689TMC3    C110238   2.302   4.013  17.399  0.3061  0.4155 -0.8197
  689TMC3    C210239   2.347   4.080  17.515 -0.1884  0.0194  0.2709
  689TMC3    C310240   2.382   4.011  17.625 -0.0093 -0.0298  0.9781
  689TMC3    C410241   2.307   3.876  17.401 -0.4649 -0.1381  0.7588
  689TMC3    C510242   2.341   3.806  17.512 -0.0739 -0.4795  0.3781
  689TMC3    C610243   2.374   3.868  17.631 -0.4288 -0.4038  0.6559
  689TMC3     C10244   2.292   4.091  17.278 -0.0385  0.0872  0.5241
  689TMC3     O10245   2.240   4.202  17.293 -0.5758  0.1759 -0.4035
  689TMC3     H10246   2.367   4.186  17.515 -1.2508  0.2291 -1.2519
  689TMC3    H110247   2.297   3.823  17.307  1.7496 -0.1206  0.5272
  689TMC3    H210248   2.397   3.806  17.716 -0.9568 -1.5110 -0.0075
  689TMC3    C710249   2.333   3.661  17.503  0.1075 -0.1232  0.1400
  689TMC3    C810250   2.402   4.083   0.008  0.4952  0.1844 -0.1096
  689TMC3    O110251   2.422   3.595  17.552 -0.1056 -0.0494 -0.1366
  689TMC3    O210252   2.409   4.012   0.107 -0.0430 -0.3532  0.3165
  690MPD2     C10253   4.701   1.340  15.502  0.4492  0.2096 -0.9409
  690MPD2    C110254   4.632   1.373  15.386  0.4067  0.3060  0.7620
  690MPD2    C210255   4.675   1.460  15.292  0.0163  0.2261 -0.4409
  690MPD2    C310256   0.066   1.518  15.316  0.8803  0.6039 -0.5068
  690MPD2    C410257   0.138   1.487  15.434  0.3783 -0.1824 -0.9526
  690MPD2    C510258   0.085   1.397  15.522  0.0777 -0.0173  0.4776
  690MPD2     H10259   4.622   1.486  15.201 -2.2153 -0.2806  0.7303
  690MPD2    H110260   0.233   1.533  15.461 -0.5880  1.4701 -0.3402
  690MPD2    H210261   4.659   1.284  15.585  0.0363 -1.3372 -2.1890
  690MPD2    H310262   0.143   1.381  15.613 -0.7982  1.9967  1.3724
  690MPD2     N10263   0.113   1.611  15.226  0.1734  0.4901  0.2215
  690MPD2    H510264   0.047   1.639  15.155  0.1938  1.9873  0.7883
  690MPD2    N110265   4.497   1.331  15.372  0.1119 -0.5858  0.1387
  690MPD2    H710266   4.461   1.354  15.279 -0.9148 -3.8830 -0.2973
  691TMC3    C110267   4.308   1.211  15.393  0.2627  0.2610 -0.5806
  691TMC3    C210268   4.236   1.316  15.339  0.5132 -0.1704  0.5209
  691TMC3    C310269   4.105   1.299  15.326  0.6039  0.2396 -0.5285
  691TMC3    C410270   4.239   1.110  15.458 -0.2475 -0.6245  0.0574
  691TMC3    C510271   4.106   1.103  15.447  0.2351  0.3747 -0.5838
  691TMC3    C610272   4.035   1.186  15.364  0.5488 -0.1651 -0.4356
  691TMC3     C10273   4.439   1.230  15.442  0.2338  0.0875 -0.4606
  691TMC3     O10274   4.466   1.171  15.548 -0.5645 -0.7276 -0.2873
  691TMC3     H10275   4.282   1.400  15.288 -0.2876  1.0652  1.8149
  691TMC3    H110276   4.295   1.030  15.505  2.8297  0.4047 -1.8363
  691TMC3    H210277   3.927   1.179  15.355  0.5826 -0.4468 -0.6180
  691TMC3    C710278   4.038   1.024  15.547 -0.4153  0.0033  0.0758
  691TMC3    C810279   4.023   1.393  15.256  0.0204  0.3312 -0.0431
  691TMC3    O110280   4.073   1.055  15.660  0.1796  0.2080 -0.4311
  691TMC3    O210281   4.080   1.458  15.168 -0.0359  0.4103 -0.2773
  692TMC3    C110282   0.965   2.253  15.450  0.1858 -0.1141  0.3260
  692TMC3    C210283   1.042   2.366  15.405  0.0220 -0.1168  0.2250
  692TMC3    C310284   1.169   2.338  15.367 -0.5151 -0.2540 -0.1858
  692TMC3    C410285   1.017   2.136  15.491  0.7055  0.0286  0.0020
  692TMC3    C510286   1.151   2.120  15.463 -0.8318  0.1057  0.1968
  692TMC3    C610287   1.219   2.215  15.398  0.3983  1.1994  0.2364
  692TMC3     C10288   0.851   2.289  15.530 -0.1813  0.0789 -0.0534
  692TMC3     O10289   0.811   2.208  15.611  0.0288 -1.1458  0.2346
  692TMC3     H10290   0.992   2.433  15.336 -1.0155 -1.0055  0.1104
  692TMC3    H110291   0.951   2.057  15.526 -1.8085  1.7817 -0.7092
  692TMC3    H210292   1.328   2.212  15.394  0.2551 -0.4309 -1.9548
  692TMC3    C710293   1.212   1.987  15.465  0.6938 -0.3139  0.4414
  692TMC3    C810294   1.256   2.456  15.398 -0.5371  0.5658 -0.2627
  692TMC3    O110295   1.295   1.962  15.377  0.6198 -0.4078  0.8895
  692TMC3    O210296   1.376   2.442  15.411 -0.7018  0.2157 -0.3097
  693MPD2     C10297   0.790   0.098   9.977 -0.5696  0.4303 -0.2360
  693MPD2    C110298   0.703   0.071  10.084  0.0958 -0.3716 -0.3871
  693MPD2    C210299   0.763   0.005  10.196 -0.1847 -0.0310 -0.2219
  693MPD2    C310300   0.902   4.725  10.201  0.2042  0.3715  0.0956
  693MPD2    C410301   0.983   0.016  10.090  0.4346  0.0990 -0.6482
  693MPD2    C510302   0.923   0.085   9.986 -0.1087  0.2295 -0.3441
  693MPD2     H10303   0.701   4.717  10.282  1.2711 -0.3219  0.7421
  693MPD2    H110304   1.090   0.004  10.088  0.5236  0.7933  0.3710
  693MPD2    H210305   0.748   0.151   9.893 -0.1357  2.4617  0.8373
  693MPD2    H310306   0.993   0.112   9.908  1.7361  3.0988  2.2829
  693MPD2     N10307   0.969   4.665  10.308 -0.1260  0.3419  0.2248
  693MPD2    H510308   1.065   4.651  10.278 -0.4544 -0.3616 -0.5002
  693MPD2    N110309   0.573   0.113  10.080  0.9331  0.6107 -0.2496
  693MPD2    H710310   0.516   0.088  10.160  1.4741  0.5141  0.1062
  694TMC3    C110311   0.372   0.210  10.015  0.2265  0.1900 -0.1860
  694TMC3    C210312   0.320   0.086  10.041  0.3204 -0.5624 -0.4555
  694TMC3    C310313   0.211   0.087  10.124 -0.3419  0.5422  0.3368
  694TMC3    C410314   0.329   0.328  10.078 -0.1275 -0.3764  0.4332
  694TMC3    C510315   0.224   0.317  10.165 -0.2647  0.2980  0.2705
  694TMC3    C610316   0.159   0.197  10.187  0.2287 -0.0692  0.7298
  694TMC3     C10317   0.516   0.203   9.994  0.8680 -1.1958  0.1033
  694TMC3     O10318   0.566   0.290   9.929  0.5221  0.0174  0.1946
  694TMC3     H10319   0.361   4.728  10.011 -0.0734 -0.7464 -0.4027
  694TMC3    H110320   0.387   0.419  10.066 -1.8506  0.6475 -0.2738
  694TMC3    H210321   0.069   0.185  10.245 -0.7192  0.1266 -0.7082
  694TMC3    C710322   0.215   0.416  10.267 -0.3389 -0.8621 -0.4692
  694TMC3    C810323   0.144   4.705  10.157 -0.1283  0.1384  0.2663
  694TMC3    O110324   0.226   0.537  10.236  0.8016  1.0063 -0.3915
  694TMC3    O210325   0.152   4.660  10.270  0.2496 -0.2785 -0.0480
  695MPD2     C10326   1.715   1.629  13.609  0.0128 -0.4329 -0.0643
  695MPD2    C110327   1.753   1.760  13.580 -0.5158 -0.0977  0.3246
  695MPD2    C210328   1.674   1.835  13.499  0.2325  0.5906 -0.0661
  695MPD2    C310329   1.558   1.789  13.445 -0.6704 -0.2421  0.0381
  695MPD2    C410330   1.512   1.660  13.481 -0.3295  0.3643 -0.4192
  695MPD2    C510331   1.599   1.582  13.560 -0.8169  0.8253 -0.2235
  695MPD2     H10332   1.698   1.941  13.492  1.4696  0.3362  0.3750
  695MPD2    H110333   1.418   1.613  13.453  0.1990 -0.4564 -0.8320
  695MPD2    H210334   1.781   1.573  13.674  1.9186  0.8972 -0.8692
  695MPD2    H310335   1.574   1.478  13.577  0.3516  0.5665 -0.0707
  695MPD2     N10336   1.471   1.868  13.367  0.3840 -0.3981  0.2089
  695MPD2    H510337   1.379   1.829  13.348  0.2582  0.0231 -0.0645
  695MPD2    N110338   1.869   1.822  13.632  0.3722  0.4498  0.2284
  695MPD2    H710339   1.871   1.924  13.636 -0.0468  0.4173  1.2109
  696TMC3    C110340   1.398   2.067  13.249 -0.5459 -0.1153 -0.5777
  696TMC3    C210341   1.286   2.080  13.324  0.1787 -0.3363 -0.1412
  696TMC3    C310342   1.209   2.189  13.293  0.2469 -1.3107  0.4376
  696TMC3    C410343   1.428   2.153  13.140 -0.3718 -0.0463 -0.9568
  696TMC3    C510344   1.338   2.240  13.096  0.1478 -0.1472  0.4300
  696TMC3    C610345   1.229   2.262  13.178  0.0660  0.0898  0.5374
  696TMC3     C10346   1.507   1.985  13.304  0.2431  0.1155  0.2957
  696TMC3     O10347   1.615   2.040  13.298  0.1481 -0.1392 -0.0224
  696TMC3     H10348   1.263   2.028  13.416 -1.8147  0.1157 -0.3866
  696TMC3    H110349   1.527   2.137  13.097  0.4530  1.6028  0.3313
  696TMC3    H210350   1.151   2.332  13.150  0.9245  1.0967  0.6491
  696TMC3    C710351   1.369   2.346  13.010 -0.0041 -0.6937 -0.0769
  696TMC3    C810352   1.070   2.172  13.335 -0.5796  0.1290 -0.6500
  696TMC3    O110353   1.434   2.310  12.910 -0.3744  0.1552  0.4825
  696TMC3    O210354   1.022   2.062  13.324 -0.2923  0.2028 -0.7450
  697MPD2     C10355   0.929   3.819  15.552 -0.0759  0.8764 -0.0220
  697MPD2    C110356   0.922   3.791  15.420 -0.2449  1.0347  0.8411
  697MPD2    C210357   1.014   3.854  15.334 -0.0084 -0.1327  0.4079
  697MPD2    C310358   1.103   3.949  15.380 -0.5328  0.3111  0.2877
  697MPD2    C410359   1.090   3.986  15.515 -0.3203  0.0483 -0.5961
  697MPD2    C510360   1.004   3.919  15.596 -0.1388  0.1305  0.0932
  697MPD2     H10361   1.013   3.837  15.227 -0.2255 -0.8852  0.5310
  697MPD2    H110362   1.148   4.068  15.556  0.1280 -2.5161  3.8810
  697MPD2    H210363   0.863   3.776  15.626  0.0205 -0.3705 -0.6473
  697MPD2    H310364   0.989   3.950  15.698 -0.4418  0.2708  0.0089
  697MPD2     N10365   1.186   4.018  15.294 -0.1416  0.3106 -0.1929
  697MPD2    H510366   1.151   4.027  15.199  1.1425 -2.0195 -0.8974
  697MPD2    N110367   0.843   3.694  15.369 -0.5279  0.2795  0.8589
  697MPD2    H710368   0.857   3.690  15.269  0.2686 -0.5865  1.0047
  698TMC3    C110369   1.375   4.171  15.244  0.0499  0.6031 -0.1605
  698TMC3    C210370   1.443   4.273  15.301  1.0403 -0.2171 -0.3606
  698TMC3    C310371   1.493   4.364  15.212 -1.1785  0.3974 -0.6118
  698TMC3    C410372   1.335   4.165  15.111  0.1056  0.3373 -0.1401
  698TMC3    C510373   1.392   4.257  15.026 -0.2072 -0.4262  0.4491
  698TMC3    C610374   1.471   4.358  15.074 -0.2339  0.6277  0.4505
  698TMC3     C10375   1.294   4.096  15.341  0.0935  0.9062  0.1209
  698TMC3     O10376   1.338   4.112  15.455  0.1043  0.3968  0.3701
  698TMC3     H10377   1.462   4.282  15.407  0.3222 -0.8943 -0.1721
  698TMC3    H110378   1.267   4.094  15.066 -0.9354  2.2154 -1.5193
  698TMC3    H210379   1.523   4.421  15.002  2.1912  0.1587  1.7734
  698TMC3    C710380   1.385   4.224  14.882  0.2899  0.0470 -0.9866
  698TMC3    C810381   1.567   4.475  15.273 -0.9555 -0.4098  0.0455
  698TMC3    O110382   1.342   4.112  14.848 -0.3368  0.1673 -0.4513
  698TMC3    O210383   1.618   4.456  15.382  0.2514  0.2747 -0.0062
  699TMC3    C110384   0.866   2.429  12.538  0.2464  0.6912 -0.4177
  699TMC3    C210385   0.923   2.307  12.576  0.7256 -0.2431 -0.1081
  699TMC3    C310386   0.857   2.239  12.672 -0.5424 -0.0900  0.0307
  699TMC3    C410387   0.746   2.478  12.594 -0.4022 -0.0839 -0.3615
  699TMC3    C510388   0.694   2.409  12.697  0.5609 -0.1259  0.1442
  699TMC3    C610389   0.743   2.291  12.739  0.0078  0.8137 -0.1750
  699TMC3     C10390   0.928   2.505  12.428 -0.1481  0.7377 -0.1349
  699TMC3     O10391   0.871   2.607  12.404  0.2125  0.2131 -0.0810
  699TMC3     H10392   1.005   2.252  12.531  0.4413 -1.0764  0.3926
  699TMC3    H110393   0.709   2.572  12.554  0.9050  0.2878 -0.6914
  699TMC3    H210394   0.702   2.252  12.831 -0.6461 -0.5370 -1.0465
  699TMC3    C710395   0.579   2.458  12.772  0.8021 -0.3799  0.4447
  699TMC3    C810396   0.913   2.119  12.728 -0.5035  0.0295  0.1191
  699TMC3    O110397   0.507   2.363  12.802  0.4065 -0.2217 -0.1017
  699TMC3    O210398   0.827   2.044  12.774 -0.2329  0.6291  0.3850
  700TMC3    C110399   4.676   4.244  16.821  0.0843 -0.2774  0.2235
  700TMC3    C210400   0.044   4.161  16.791 -0.0038 -0.1160 -0.3406
  700TMC3    C310401   0.117   4.113  16.895  0.3391 -0.4170  0.6297
  700TMC3    C410402   4.649   4.278  16.952  0.1323  0.6820  0.0268
  700TMC3    C510403   4.727   4.228  17.054  0.3489 -0.5251  0.7831
  700TMC3    C610404   0.091   4.142  17.028  0.2454 -0.4506 -0.7725
  700TMC3     C10405   4.631   4.335  16.718 -0.5190 -0.0806  0.4310
  700TMC3     O10406   4.512   4.363  16.726  0.1533 -0.4424  0.1762
  700TMC3     H10407   0.077   4.160  16.688 -0.3040 -0.4007 -0.4335
  700TMC3    H110408   4.559   4.338  16.965  0.1934  0.9763 -0.9033
  700TMC3    H210409   0.151   4.116  17.115 -2.0072  1.1001  1.2433
  700TMC3    C710410   0.018   4.338  17.148  0.3125 -1.1440  0.2463
  700TMC3    C810411   0.238   4.044  16.862  0.3641 -0.1465 -0.2621
  700TMC3    O110412   0.136   4.366  17.139  0.2240  0.4462  0.2909
  700TMC3    O210413   0.302   4.092  16.766  0.0414 -0.0680  0.3000
  701TMC3    C110414   4.653   2.996  15.481  0.4418  0.0489 -0.3297
  701TMC3    C210415   4.648   2.927  15.362  0.6972  1.1112 -1.1487
  701TMC3    C310416   4.734   2.955  15.266  0.6495 -0.3554 -0.2737
  701TMC3    C410417   4.727   3.104  15.495 -0.4616 -0.6597  0.4789
  701TMC3    C510418   0.076   3.138  15.391  0.3411 -0.0297  0.1035
  701TMC3    C610419   0.081   3.063  15.275  0.1559  0.2487 -0.1399
  701TMC3     C10420   4.581   2.946  15.602  0.5539  0.8556 -0.1407
  701TMC3     O10421   4.571   3.020  15.698  0.2562  0.4436 -0.1670
  701TMC3     H10422   4.592   2.835  15.350  1.4693  0.5058 -0.1190
  701TMC3    H110423   4.708   3.166  15.582  1.5722  0.4464  0.1564
  701TMC3    H210424   0.164   3.078  15.207  1.7016 -1.4176  1.3961
  701TMC3    C710425   0.177   3.245  15.403 -0.6269 -0.3338  0.1325
  701TMC3    C810426   4.728   2.884  15.140  0.2254  0.5355 -0.6703
  701TMC3    O110427   0.228   3.288  15.296  0.0299  0.2326 -0.2059
  701TMC3    O210428   4.708   2.762  15.144  0.3288 -0.0418  0.0744
  702MPD2     C10429   4.486   0.683  11.081  0.1012  0.1225  0.3730
  702MPD2    C110430   4.383   0.756  11.031  0.7555 -0.1675  0.1423
  702MPD2    C210431   4.408   0.847  10.932 -0.2458 -0.1284  0.3403
  702MPD2    C310432   4.531   0.873  10.893  0.1464  1.1228 -0.4178
  702MPD2    C410433   4.638   0.807  10.953 -0.4238  0.0767 -0.5621
  702MPD2    C510434   4.614   0.706  11.034 -0.0635 -0.5993 -0.1594
  702MPD2     H10435   4.325   0.911  10.904  0.1525  0.4484  0.4784
  702MPD2    H110436   0.000   0.822  10.912 -0.1192  0.3882  0.2910
  702MPD2    H210437   4.466   0.596  11.143 -2.0123  2.1149  2.4848
  702MPD2    H310438   4.687   0.634  11.068  1.7157  2.0200  1.6035
  702MPD2     N10439   4.570   0.962  10.789 -0.5466 -0.0197 -0.2324
  702MPD2    H510440   4.667   0.983  10.770 -1.0488  0.9604 -1.6774
  702MPD2    N110441   4.252   0.742  11.076 -0.1913  0.1055 -0.0975
  702MPD2    H710442   4.179   0.796  11.031 -1.3353 -0.0687  1.5743
  703TMC3    C110443   4.537   1.145  10.639  0.4515  0.6613  0.6954
  703TMC3    C210444   4.455   1.230  10.580 -0.1702  0.4902 -0.3191
  703TMC3    C310445   4.503   1.346  10.521  0.0743  0.3340  0.1817
  703TMC3    C410446   4.671   1.154  10.617 -0.5975  0.5086 -0.4745
  703TMC3    C510447   4.711   1.254  10.533  0.5315 -0.3293 -0.4097
  703TMC3    C610448   4.635   1.364  10.491 -1.2903 -0.1783  0.5270
  703TMC3     C10449   4.483   1.045  10.733  0.2899 -0.9373  0.4124
  703TMC3     O10450   4.364   1.029  10.727 -0.0873  0.3796  0.0849
  703TMC3     H10451   4.347   1.226  10.593 -0.1036  0.0958  0.1165
  703TMC3    H110452   0.004   1.095  10.676 -1.3255 -0.1471 -0.2721
  703TMC3    H210453   4.684   1.442  10.435  0.0748 -0.4928  1.2846
  703TMC3    C710454   0.114   1.285  10.513 -0.0280  0.1632  0.8420
  703TMC3    C810455   4.435   1.475  10.529 -0.2406 -0.8728 -0.1134
  703TMC3    O110456   0.143   1.339  10.408  0.6435  0.0556 -0.1457
  703TMC3    O210457   4.487   1.566  10.468 -0.4385 -0.3499 -0.0418
  704TMC3    C110458   2.514   0.024  12.183 -0.0912  0.3074 -0.1221
  704TMC3    C210459   2.545   0.079  12.061  0.5435 -0.4193  0.1931
  704TMC3    C310460   2.648   0.016  11.991  0.1948  0.3192 -0.4328
  704TMC3    C410461   2.593   4.670  12.240  0.1449  0.8300  0.2949
  704TMC3    C510462   2.705   4.621  12.171 -0.4524  0.3245 -0.9589
  704TMC3    C610463   2.732   4.665  12.045  0.3325  0.3293  0.3773
  704TMC3     C10464   2.424   0.105  12.269 -0.2479 -0.7232  0.2419
  704TMC3     O10465   2.399   0.219  12.234 -0.0482  0.4311 -0.0068
  704TMC3     H10466   2.473   0.137  12.004  0.0494  1.2087  2.4791
  704TMC3    H110467   2.577   4.646  12.344 -1.1889 -1.9924 -0.5743
  704TMC3    H210468   2.799   4.612  11.978  0.0463  0.7369 -0.2314
  704TMC3    C710469   2.749   4.484  12.198  0.3847  0.4553  0.2327
  704TMC3    C810470   2.623   0.011  11.846 -0.7038  0.2039  0.6734
  704TMC3    O110471   2.811   4.432  12.105  0.3427  0.1038  0.8000
  704TMC3    O210472   2.521   4.697  11.809  0.0843 -0.3518  0.3207
  705MPD2     C10473   1.784   2.137  16.057  0.3218 -0.0391  0.4902
  705MPD2    C110474   1.721   2.243  15.994 -0.2276  0.3639  0.0632
  705MPD2    C210475   1.601   2.291  16.032  0.1355 -0.7207  0.3679
  705MPD2    C310476   1.534   2.228  16.138 -0.2731  0.7227  0.4230
  705MPD2    C410477   1.599   2.128  16.207 -0.2404  0.0053 -0.0932
  705MPD2    C510478   1.713   2.076  16.159 -0.2573  0.8573 -0.0160
  705MPD2     H10479   1.567   2.385  15.992 -1.6324 -0.7814  1.7234
  705MPD2    H110480   1.553   2.076  16.290  0.0130  0.0400  0.0699
  705MPD2    H210481   1.880   2.093  16.029  0.1202  0.4542 -1.0090
  705MPD2    H310482   1.755   1.999  16.223 -2.3820  0.3187  0.7416
  705MPD2     N10483   1.409   2.266  16.187  0.0261  0.0692  0.5110
  705MPD2    H510484   1.364   2.213  16.260 -0.2860  0.4952  0.6300
  705MPD2    N110485   1.787   2.318  15.891 -0.7254 -0.2661 -0.8947
  705MPD2    H710486   1.739   2.398  15.851  0.8433  0.5436 -1.1697
  706TMC3    C110487   1.992   2.345  15.501 -0.2756  0.6869 -0.0487
  706TMC3    C210488   1.925   2.464  15.484  0.6476  0.6083  0.5543
  706TMC3    C310489   1.884   2.535  15.594 -0.8177 -0.0440  0.5860
  706TMC3    C410490   2.016   2.301  15.625 -0.7402 -0.1742 -0.7692
  706TMC3    C510491   1.957   2.369  15.729  0.5722 -1.1407  0.5279
  706TMC3    C610492   1.903   2.493  15.720 -0.2038  0.8796 -0.6039
  706TMC3     C10493   1.998   2.248  15.395  0.8814 -0.0897  0.0162
  706TMC3     O10494   2.106   2.188  15.389  0.7747 -0.4707 -0.0896
  706TMC3     H10495   1.909   2.510  15.387 -1.6639 -1.5716 -0.0926
  706TMC3    H110496   2.050   2.199  15.637 -0.1395  0.2653  1.2560
  706TMC3    H210497   1.849   2.537  15.803  1.4987  2.3732 -0.2918
  706TMC3    C710498   1.907   2.280  15.838  0.0093  0.1077  0.1456
  706TMC3    C810499   1.818   2.668  15.579  0.1236 -0.5691  0.0877
  706TMC3    O110500   1.980   2.188  15.871 -0.2731  0.1493 -0.0102
  706TMC3    O210501   1.772   2.698  15.472 -0.0751  0.2806 -0.2714
  707TMC3    C110502   4.047   1.300   1.063 -0.2004 -0.2945  0.4272
  707TMC3    C210503   4.141   1.222   1.124  0.4162  0.5222  0.0342
  707TMC3    C310504   4.154   1.234   1.264  0.0630 -0.9931 -0.1608
  707TMC3    C410505   3.961   1.384   1.132  0.1169  0.0438 -0.0097
  707TMC3    C510506   3.986   1.394   1.270 -0.3651 -0.1238 -0.5704
  707TMC3    C610507   4.075   1.317   1.328  0.1016  0.2937  0.8082
  707TMC3     C10508   4.023   1.281   0.922 -0.4345 -0.6558 -0.5975
  707TMC3     O10509   4.113   1.219   0.868 -0.3901  0.4437 -0.2240
  707TMC3     H10510   4.196   1.158   1.056  2.9303  0.0394  2.5165
  707TMC3    H110511   3.896   1.454   1.080  2.3721  0.3023 -2.4734
  707TMC3    H210512   4.087   1.331   1.434  1.2838  1.8363  0.4569
  707TMC3    C710513   3.883   1.456   1.357 -0.1011 -0.9439 -0.4498
  707TMC3    C810514   4.253   1.163   1.333  0.6761  0.3996 -0.6283
  707TMC3    O110515   3.871   1.407   1.468 -0.2992 -0.0929 -0.5750
  707TMC3    O210516   4.321   1.222   1.416  0.1437 -0.3957  0.9206
  708MPD2     C10517   0.567   0.382  14.101 -0.2174 -0.0908  0.2987
  708MPD2    C110518   0.508   0.510  14.111 -0.1661 -0.3022 -0.2480
  708MPD2    C210519   0.562   0.599  14.203  0.7146 -0.4624  0.6844
  708MPD2    C310520   0.675   0.568  14.272 -0.1791  0.1709  0.8725
  708MPD2    C410521   0.744   0.450  14.253  0.0491  0.1449 -0.1023
  708MPD2    C510522   0.688   0.361  14.164  0.2571 -0.3292  0.0682
  708MPD2     H10523   0.503   0.688  14.219  0.6808 -0.4592  0.5458
  708MPD2    H110524   0.832   0.419  14.307  1.5097 -0.8970 -3.1133
  708MPD2    H210525   0.525   0.289  14.065  1.4274 -0.0670 -1.6343
  708MPD2    H310526   0.729   0.261  14.172  2.6987  0.5072 -1.6829
  708MPD2     N10527   0.708   0.657  14.374 -0.0723  0.0834  0.0497
  708MPD2    H510528   0.643   0.734  14.384 -0.6688 -0.4141  0.0497
  708MPD2    N110529   0.395   0.552  14.025  0.4837  0.4401 -0.1127
  708MPD2    H710530   0.367   0.480  13.960 -1.7118 -1.2722  2.6937
  709TMC3    C110531   0.181   0.643  13.982 -0.2544 -0.2721  0.0530
  709TMC3    C210532   0.176   0.557  13.880 -0.6440  0.6001  0.2354
  709TMC3    C310533   0.067   0.472  13.883 -0.4668  0.2927 -0.2929
  709TMC3    C410534   0.090   0.649  14.081  0.1947 -0.1775 -0.6184
  709TMC3    C510535   4.730   0.554  14.080 -0.5155 -0.0902 -0.6135
  709TMC3    C610536   4.714   0.463  13.986  0.0716 -0.8723  0.0485
  709TMC3     C10537   0.320   0.668  14.025 -0.3508  0.3472  0.5411
  709TMC3     O10538   0.327   0.759  14.105  0.3484 -0.2729  0.0754
  709TMC3     H10539   0.243   0.562  13.795 -1.8560  0.1415 -0.7540
  709TMC3    H110540   0.104   0.716  14.165 -1.5245  0.5949 -0.9407
  709TMC3    H210541   4.632   0.393  13.977 -0.7598  0.1511 -0.3512
  709TMC3    C710542   4.700   0.509  14.214 -0.2078  0.5251 -0.2732
  709TMC3    C810543   0.026   0.427  13.753 -0.2540 -0.4040 -0.3031
  709TMC3    O110544   4.607   0.437  14.246 -0.0822 -0.4481 -0.2868
  709TMC3    O210545   4.686   0.333  13.745 -0.4386  0.1892 -0.1122
  710TMC3    C110546   0.885   1.714   0.389 -0.3132 -1.2610  0.4304
  710TMC3    C210547   0.925   1.759   0.268 -0.0316  0.3149 -0.0384
  710TMC3    C310548   0.953   1.676   0.170 -0.6252 -0.2377  0.4377
  710TMC3    C410549   0.862   1.580   0.413 -0.4574 -0.6047  0.0610
  710TMC3    C510550   0.900   1.495   0.306  0.2806 -0.3533  0.3468
  710TMC3    C610551   0.952   1.544   0.188 -0.0844  0.0856  0.5375
  710TMC3     C10552   0.814   1.819   0.467 -0.5390  0.1436 -0.1535
  710TMC3     O10553   0.737   1.781   0.555  0.2977  0.1550  0.4459
  710TMC3     H10554   0.940   1.863   0.242 -2.4113  1.2964  2.5659
  710TMC3    H110555   0.823   1.554   0.510 -0.6303  1.3895  0.5294
  710TMC3    H210556   0.968   1.479   0.103  3.2258  1.0599  0.3876
  710TMC3    C710557   0.891   1.355   0.328  0.6088  0.4078  0.1677
  710TMC3    C810558   1.030   1.709   0.048  0.0819  0.3200  0.0968
  710TMC3    O110559   0.816   1.317   0.414  0.2739 -0.1844  0.2396
  710TMC3    O210560   1.116   1.627   0.018  0.2392  0.2589  0.4522
  711TMC3    C110561   1.085   2.591  14.478 -0.1539  0.2265  0.0834
  711TMC3    C210562   1.009   2.651  14.574 -0.0395 -0.5022  0.2119
  711TMC3    C310563   1.063   2.750  14.648  0.5604 -0.2118  0.5319
  711TMC3    C410564   1.219   2.621  14.472 -0.1364 -0.1785  0.7180
  711TMC3    C510565   1.273   2.726  14.542 -0.2832  0.3477  0.4483
  711TMC3    C610566   1.197   2.787  14.634 -0.3563 -0.1143  0.7668
  711TMC3     C10567   1.021   2.507  14.375 -0.9655  0.0658  0.5889
  711TMC3     O10568   0.902   2.528  14.351 -0.0510  0.5422  0.2209
  711TMC3     H10569   0.904   2.625  14.581 -1.0083  3.2868 -0.5958
  711TMC3    H110570   1.269   2.574  14.388  2.3046  2.1706  0.8312
  711TMC3    H210571   1.250   2.857  14.697  1.9064 -1.1623  0.0207
  711TMC3    C710572   1.415   2.722  14.577  0.1941  0.1546 -0.4829
  711TMC3    C810573   0.982   2.804  14.756 -0.4896  0.1220 -0.2027
  711TMC3    O110574   1.460   2.828  14.614  0.1859  0.0943  0.2871
  711TMC3    O210575   0.886   2.735  14.788  0.8277  0.2682  0.3410
  712MPD2     C10576   2.713   3.862  13.620 -0.2505 -0.0203 -0.0834
  712MPD2    C110577   2.610   3.926  13.556  0.4614  0.0417 -0.1115
  712MPD2    C210578   2.522   4.005  13.628  0.6948 -0.5355  0.1775
  712MPD2    C310579   2.523   4.008  13.766  0.5894 -0.6173  0.2343
  712MPD2    C410580   2.625   3.940  13.832 -0.0846 -0.4289 -0.5900
  712MPD2    C510581   2.719   3.869  13.756  0.4930 -0.1176 -0.6403
  712MPD2     H10582   2.439   4.058  13.584  0.7899 -2.0064 -1.7765
  712MPD2    H110583   2.625   3.934  13.941  0.3635  0.2562 -0.5517
  712MPD2    H210584   2.777   3.792  13.567 -0.0512  0.6149 -0.6756
  712MPD2    H310585   2.804   3.814  13.796 -2.6642 -4.5819  0.0217
  712MPD2     N10586   2.434   4.079  13.854 -0.0557  0.2239 -0.0146
  712MPD2    H510587   2.450   4.075  13.954  2.7910  0.6534 -0.4694
  712MPD2    N110588   2.589   3.925  13.419  1.4503  0.1220 -0.0026
  712MPD2    H710589   2.508   3.975  13.382 -0.5212 -3.0164  0.1134
  713TMC3    C110590   2.270   4.221  13.928  0.0324 -0.0297 -0.0459
  713TMC3    C210591   2.305   4.177  14.057  0.5756  0.4329  0.4827
  713TMC3    C310592   2.346   4.267  14.151 -0.2954  0.0090 -0.0786
  713TMC3    C410593   2.257   4.353  13.892 -0.3924 -0.1978 -0.4396
  713TMC3    C510594   2.279   4.441  13.994 -0.0707  0.2550 -0.5505
  713TMC3    C610595   2.342   4.402  14.112 -0.2398  0.2296 -0.3861
  713TMC3     C10596   2.323   4.148  13.817  0.2921  0.7552  0.4676
  713TMC3     O10597   2.282   4.171  13.704 -0.0380 -0.1007 -0.1189
  713TMC3     H10598   2.307   4.071  14.077  1.0668 -0.2454 -3.1339
  713TMC3    H110599   2.233   4.382  13.790 -2.6204 -2.3838 -0.5227
  713TMC3    H210600   2.355   4.473  14.193 -0.7322 -0.3283  0.1787
  713TMC3    C710601   2.238   4.576  13.983 -0.1348 -1.0841 -0.9515
  713TMC3    C810602   2.486   4.232  14.185 -0.7375  0.0142 -0.2773
  713TMC3    O110603   2.265   4.640  14.081  0.2207  0.1717  0.0974
  713TMC3    O210604   2.541   4.147  14.116 -0.2097 -0.8245  0.0736
  714MPD2     C10605   4.436   2.627   0.887 -0.2899  0.5942  0.4202
  714MPD2    C110606   4.457   2.499   0.831  0.2933 -0.2777  0.1620
  714MPD2    C210607   4.368   2.451   0.733 -0.4537 -0.3536 -0.2991
  714MPD2    C310608   4.284   2.544   0.673  0.4246 -0.2511 -0.6697
  714MPD2    C410609   4.278   2.672   0.720 -0.0382 -0.1854  0.5038
  714MPD2    C510610   4.350   2.713   0.828 -0.2816  0.4955 -0.1087
  714MPD2     H10611   4.385   2.353   0.690 -0.5886  0.7268 -2.8465
  714MPD2    H110612   4.217   2.753   0.682 -1.1951 -1.7025 -0.8542
  714MPD2    H210613   4.497   2.669   0.967  2.7271  0.1619 -1.6713
  714MPD2    H310614   4.331   2.816   0.856  1.1352 -0.2620  3.6584
  714MPD2     N10615   4.191   2.492   0.578  0.7240  0.5932  0.3812
  714MPD2    H510616   4.187   2.390   0.576  1.4321  0.5759  0.0510
  714MPD2    N110617   4.570   2.434   0.882  0.3742  0.1914 -0.7408
  714MPD2    H710618   4.614   2.481   0.961 -0.7481 -0.6000  0.3566
  715TMC3    C110619   0.004   2.284   0.906  0.2845 -0.0929 -0.1519
  715TMC3    C210620   0.041   2.152   0.896 -0.1174 -0.7884 -0.0884
  715TMC3    C310621   0.148   2.121   0.974 -0.6272  0.6300  0.2325
  715TMC3    C410622   0.072   2.372   0.988  0.2723 -0.4187 -0.8158
  715TMC3    C510623   0.171   2.326   1.069 -1.0132 -0.7823  0.9169
  715TMC3    C610624   0.212   2.199   1.066  1.5910  0.2536  0.6835
  715TMC3     C10625   4.624   2.319   0.834 -0.5626  1.3293  0.9078
  715TMC3     O10626   4.575   2.240   0.755  0.3999  0.1108  0.0092
  715TMC3     H10627   4.734   2.082   0.826 -2.2439  2.6962 -2.2677
  715TMC3    H110628   0.056   2.480   0.986 -2.7594 -0.8810 -1.6986
  715TMC3    H210629   0.299   2.159   1.116  2.2523 -1.0462 -1.5000
  715TMC3    C710630   0.251   2.410   1.148  0.1658  0.2960  1.0818
  715TMC3    C810631   0.166   1.979   0.986 -0.3276 -0.0815  0.0714
  715TMC3    O110632   0.364   2.375   1.167  0.1752 -0.5788 -0.8453
  715TMC3    O210633   0.155   1.906   0.888 -0.1803 -0.0630 -0.6175
  716MPD2     C10634   4.651   0.580   9.924 -0.7148 -0.1359 -0.2888
  716MPD2    C110635   4.536   0.549   9.855 -0.3952 -0.0649  0.2649
  716MPD2    C210636   4.541   0.433   9.766  0.1633 -0.3729  0.0333
  716MPD2    C310637   4.643   0.340   9.786  0.4845  0.9265 -0.2641
  716MPD2    C410638   0.010   0.365   9.875 -0.1634 -0.2305  0.3897
  716MPD2    C510639   0.010   0.486   9.937 -0.7859  0.3316  0.5478
  716MPD2     H10640   4.462   0.412   9.694 -0.4632  0.7040  0.4065
  716MPD2    H110641   0.098   0.302   9.879 -0.5787 -0.7174  1.6622
  716MPD2    H210642   4.660   0.674   9.977 -2.5995  0.4163 -0.9345
  716MPD2    H310643   0.100   0.515   9.991 -0.3138 -1.0947  0.5208
  716MPD2     N10644   4.632   0.219   9.706  0.4999 -0.1908  0.4010
  716MPD2    H510645   4.566   0.224   9.629  0.7663 -2.1826  0.0542
  716MPD2    N110646   4.441   0.649   9.834  0.0585  0.0657 -0.1707
  716MPD2    H710647   4.460   0.744   9.863  1.9735 -0.0116 -1.2337
  717TMC3    C110648   4.682   4.737   9.617 -0.4897  0.4392  0.5045
  717TMC3    C210649   4.576   0.013   9.533  0.3188 -0.6811  0.5164
  717TMC3    C310650   4.560   4.653   9.441 -0.2141 -0.6385 -0.1249
  717TMC3    C410651   0.050   4.651   9.601  0.2359 -0.2130 -0.3500
  717TMC3    C510652   0.027   4.560   9.495 -0.1624  0.2616  0.1416
  717TMC3    C610653   4.651   4.549   9.424  0.0893 -0.2343  0.2570
  717TMC3     C10654   4.704   0.103   9.722 -0.0502  0.0495 -0.0695
  717TMC3     O10655   0.054   0.079   9.807 -0.7227 -0.3216 -0.8887
  717TMC3     H10656   4.497   0.074   9.575  2.2966  0.9816  1.8640
  717TMC3    H110657   0.141   4.662   9.659 -1.2022  2.0628  1.4412
  717TMC3    H210658   4.627   4.478   9.346  1.6017  0.1884 -0.5877
  717TMC3    C710659   0.131   4.460   9.467  0.1225 -0.0851 -0.3700
  717TMC3    C810660   4.450   4.654   9.344  0.3427 -0.5379 -0.4448
  717TMC3    O110661   0.097   4.348   9.430  0.2730  0.0846 -0.2293
  717TMC3    O210662   4.452   4.559   9.264  0.2561  0.1687  0.0145
  718MPD2     C10663   0.070   0.772  12.480  0.1376  0.1214  0.2230
  718MPD2    C110664   4.696   0.831  12.434  0.5375 -0.4340 -0.0745
  718MPD2    C210665   4.575   0.771  12.456  0.0142 -0.5120  0.4767
  718MPD2    C310666   4.569   0.650  12.526  0.1827 -0.1347 -0.0994
  718MPD2    C410667   4.684   0.593  12.565  0.4664 -0.1064 -0.1324
  718MPD2    C510668   0.065   0.650  12.538 -0.4106 -0.3713  0.0215
  718MPD2     H10669   4.489   0.828  12.422  0.8989  0.9479  0.7285
  718MPD2    H110670   4.688   0.493  12.606  4.3078  0.7844  1.7331
  718MPD2    H210671   0.169   0.811  12.460  0.3393 -0.7109 -0.3531
  718MPD2    H310672   0.157   0.597  12.561  1.4502  3.2779  0.8702
  718MPD2     N10673   4.444   0.591  12.541 -0.0983 -0.1688 -0.1472
  718MPD2    H510674   4.361   0.637  12.505  0.4576  0.9658  0.0050
  718MPD2    N110675   4.686   0.947  12.353 -0.1586  0.4751  0.3455
  718MPD2    H710676   4.589   0.975  12.338 -0.4584 -1.4438 -1.3101
  719TMC3    C110677   0.001   1.091  12.177  0.5959  0.0696 -0.1815
  719TMC3    C210678   4.604   1.102  12.153 -0.0962  0.0294 -0.0953
  719TMC3    C310679   4.552   1.059  12.034  0.3133 -0.1107  0.4139
  719TMC3    C410680   0.087   1.090  12.064 -0.3820 -0.4326  0.0876
  719TMC3    C510681   0.031   1.095  11.942  0.4825  0.9030 -0.3906
  719TMC3    C610682   4.636   1.074  11.924  0.5740  0.2686 -0.2393
  719TMC3     C10683   0.049   1.008  12.286 -0.5821 -0.3809  0.5579
  719TMC3     O10684   0.168   0.993  12.305 -0.0646 -0.0557  0.2268
  719TMC3     H10685   4.534   1.109  12.235 -0.3929  0.1141 -0.3570
  719TMC3    H110686   0.193   1.100  12.083 -0.7235  2.5782  0.4387
  719TMC3    H210687   4.603   1.049  11.824 -1.5548 -0.2493  0.5905
  719TMC3    C710688   0.113   1.093  11.819 -1.0368  0.6536 -0.0858
  719TMC3    C810689   4.419   0.998  12.031  0.0626 -0.1731 -0.3842
  719TMC3    O110690   0.064   1.092  11.709 -0.4521  0.6557 -0.3416
  719TMC3    O210691   4.343   1.010  12.125 -0.0167 -0.0787  0.3264
  720MPD2     C10692   2.234   1.236  12.978  0.4367 -0.0171 -0.3006
  720MPD2    C110693   2.167   1.177  13.083  0.0959  0.6954 -0.7203
  720MPD2    C210694   2.230   1.191  13.206  0.1050  1.2803 -0.8838
  720MPD2    C310695   2.349   1.252  13.225  1.0463 -0.0368 -0.0294
  720MPD2    C410696   2.417   1.307  13.120 -0.9003  0.4657 -0.0623
  720MPD2    C510697   2.353   1.293  12.994  0.8000 -0.1056 -0.9648
  720MPD2     H10698   2.176   1.164  13.296  1.0850  3.2294  0.2948
  720MPD2    H110699   2.514   1.355  13.127 -1.6491  1.8086  1.1398
  720MPD2    H210700   2.184   1.236  12.882 -3.2511  2.5897  1.6362
  720MPD2    H310701   2.407   1.326  12.905 -1.1451  1.6595 -1.4814
  720MPD2     N10702   2.391   1.252  13.360 -0.4571 -0.2595  0.3065
  720MPD2    H510703   2.340   1.204  13.433  2.7734 -0.2278  2.5692
  720MPD2    N110704   2.044   1.102  13.067  0.6578  0.1019  0.1256
  720MPD2    H710705   1.984   1.093  13.148  1.7538  0.1520  0.9513
  721TMC3    C110706   2.550   1.267  13.538  1.0883 -0.6149 -0.1625
  721TMC3    C210707   2.453   1.301  13.624  0.4180 -0.2458 -0.6699
  721TMC3    C310708   2.480   1.306  13.758 -0.2210  0.7175 -0.2113
  721TMC3    C410709   2.677   1.232  13.575  1.5446  0.6787  0.2608
  721TMC3    C510710   2.699   1.236  13.713  0.2051 -0.2917 -0.3291
  721TMC3    C610711   2.604   1.263  13.807 -0.4723 -0.0493 -0.4690
  721TMC3     C10712   2.527   1.284  13.391  0.5648  0.2114 -0.3785
  721TMC3     O10713   2.623   1.326  13.332 -0.2160 -0.4646  0.1519
  721TMC3     H10714   2.362   1.342  13.582 -1.9314 -2.9101  1.8593
  721TMC3    H110715   2.754   1.198  13.507 -1.0519 -1.1735 -1.7567
  721TMC3    H210716   2.628   1.264  13.912  0.1483  1.9633 -0.6423
  721TMC3    C710717   2.844   1.222  13.750  0.2815 -0.3359  0.1159
  721TMC3    C810718   2.398   1.398  13.834 -0.3449 -0.3123  0.3494
  721TMC3    O110719   2.920   1.247  13.654 -0.2673 -0.3509  0.5249
  721TMC3    O210720   2.326   1.482  13.777 -0.1127  0.3741 -0.7403
  722MPD2     C10721   1.260   4.526  13.344 -0.3650  0.5469 -0.2291
  722MPD2    C110722   1.241   4.646  13.280  0.0253  0.6571 -0.1912
  722MPD2    C210723   1.112   4.673  13.247 -0.0550  0.0496 -0.0247
  722MPD2    C310724   1.012   4.580  13.263  0.3796  0.9120  0.2321
  722MPD2    C410725   1.034   4.459  13.319 -0.0430 -0.0816 -0.2039
  722MPD2    C510726   1.160   4.434  13.364 -0.4392 -0.4857  0.1586
  722MPD2     H10727   1.088   0.033  13.204 -0.7419  0.4717  1.3252
  722MPD2    H110728   0.957   4.383  13.322  0.1138 -0.1966  0.6728
  722MPD2    H210729   1.354   4.506  13.394  0.3520  0.5654 -1.5651
  722MPD2    H310730   1.182   4.338  13.409 -0.1606 -0.0910  0.8644
  722MPD2     N10731   0.892   4.617  13.209  0.2890  0.2040 -0.5093
  722MPD2    H510732   0.899   4.704  13.157 -0.3038  0.0541 -0.8421
  722MPD2    N110733   1.338   0.010  13.271  0.4873 -0.0473 -0.3646
  722MPD2    H710734   1.312   0.099  13.229  0.8164  0.0192 -0.4278
  723TMC3    C110735   0.693   4.603  13.100 -0.0023  0.1377  0.8008
  723TMC3    C210736   0.630   4.520  13.008 -0.0741 -0.1773  0.9627
  723TMC3    C310737   0.574   4.582  12.898  0.7246  0.3007 -0.3922
  723TMC3    C410738   0.689   0.003  13.099  0.0682 -0.1739  0.4021
  723TMC3    C510739   0.633   0.054  12.989 -0.3195 -0.2659 -0.3361
  723TMC3    C610740   0.574   4.717  12.885 -0.1808 -0.1557  0.0467
  723TMC3     C10741   0.782   4.543  13.196 -0.4308 -0.0226 -0.4283
  723TMC3     O10742   0.757   4.431  13.240  0.1888 -0.1322 -0.3610
  723TMC3     H10743   0.627   4.412  13.021 -1.6002 -0.2992 -0.3497
  723TMC3    H110744   0.721   0.053  13.190 -0.2089 -0.2931  0.5663
  723TMC3    H210745   0.519   0.016  12.800  1.0879 -0.5882 -0.9663
  723TMC3    C710746   0.570   0.185  13.015  0.5616 -0.1145 -0.4101
  723TMC3    C810747   0.481   4.513  12.809  0.6372  0.2840  0.9017
  723TMC3    O110748   0.522   0.208  13.125 -0.0993 -0.3470  0.1762
  723TMC3    O210749   0.390   4.575  12.758  0.4051  0.8930  0.3290
  724TMC3    C110750   2.064   2.983   9.969 -0.2701  0.4674 -0.1439
  724TMC3    C210751   1.992   2.914   9.869 -0.4883  0.2293 -0.3166
  724TMC3    C310752   1.984   2.975   9.743  0.4371  0.0209  0.3261
  724TMC3    C410753   2.125   3.107   9.947 -0.3155 -0.3080  1.5201
  724TMC3    C510754   2.118   3.156   9.815  0.6662 -0.0242  0.4031
  724TMC3    C610755   2.042   3.092   9.714  0.6106  0.0990 -0.0548
  724TMC3     C10756   2.072   2.941  10.108  0.0559 -0.6242 -0.4364
  724TMC3     O10757   2.117   3.021  10.189 -0.9446  0.6357 -0.2107
  724TMC3     H10758   1.934   2.828   9.901 -1.2147  0.8045 -0.1074
  724TMC3    H110759   2.204   3.146  10.011  2.2042 -3.2919  0.2432
  724TMC3    H210760   2.035   3.142   9.618  3.0657 -1.5010 -1.0401
  724TMC3    C710761   2.180   3.283   9.783  0.0731  0.3025 -0.7794
  724TMC3    C810762   1.862   2.954   9.676 -0.4960 -0.4840 -0.3059
  724TMC3    O110763   2.243   3.297   9.677 -0.2956 -0.6649  0.1590
  724TMC3    O210764   1.835   2.840   9.633 -0.0253 -0.8464 -0.6604
  725TMC3    C110765   2.893   1.605  12.542  0.0629 -0.0226  0.7347
  725TMC3    C210766   2.861   1.618  12.409  0.0936 -0.6582  0.3554
  725TMC3    C310767   2.813   1.497  12.362 -0.5253  0.1918 -0.3559
  725TMC3    C410768   2.900   1.484  12.612 -0.0331 -0.3678 -0.2804
  725TMC3    C510769   2.867   1.369  12.550 -0.1393  0.0231 -0.0664
  725TMC3    C610770   2.827   1.380  12.422  0.7260  0.4207 -0.0196
  725TMC3     C10771   2.918   1.736  12.613  0.6606  0.4616 -0.6181
  725TMC3     O10772   2.904   1.839  12.548 -0.0933  0.1941 -0.0151
  725TMC3     H10773   2.850   1.714  12.360  3.4275  0.0857  1.0466
  725TMC3    H110774   2.939   1.482  12.713 -0.2971 -1.1392 -0.1880
  725TMC3    H210775   2.801   1.289  12.369  1.1619 -0.2946  0.9767
  725TMC3    C710776   2.922   1.244  12.594 -0.7372 -0.1807  0.7143
  725TMC3    C810777   2.802   1.481  12.219 -0.3646  0.0944  0.1988
  725TMC3    O110778   2.928   1.157  12.506 -0.0099 -0.1994 -0.3495
  725TMC3    O210779   2.730   1.390  12.182  0.6101 -0.2973 -0.7371
  726MPD2     C10780   0.701   2.546  10.154 -0.6844 -0.2760 -0.5181
  726MPD2    C110781   0.593   2.635  10.146 -0.0229  0.0502 -0.1554
  726MPD2    C210782   0.481   2.609  10.220 -0.6561 -0.3657 -0.4091
  726MPD2    C310783   0.458   2.485  10.279  0.0961 -0.4087 -0.7895
  726MPD2    C410784   0.565   2.393  10.279 -0.4701 -0.5334 -0.0291
  726MPD2    C510785   0.689   2.433  10.224 -0.3983  0.4278 -0.1875
  726MPD2     H10786   0.415   2.694  10.235  0.2634  0.3766 -0.5626
  726MPD2    H110787   0.560   2.293  10.322  1.0711  0.3359  2.1417
  726MPD2    H210788   0.798   2.568  10.109  0.2430 -1.4714  0.8894
  726MPD2    H310789   0.770   2.361  10.224 -0.1078  0.7501 -0.1652
  726MPD2     N10790   0.339   2.454  10.353 -0.0762 -0.4199 -0.1606
  726MPD2    H510791   0.326   2.363  10.398  2.1273 -0.3072  0.6841
  726MPD2    N110792   0.583   2.748  10.058  0.0901  0.4647  0.1626
  726MPD2    H710793   0.497   2.801  10.053 -0.4287 -0.3011  0.9855
  727TMC3    C110794   0.656   2.929   9.929  0.2948 -0.3661 -0.1099
  727TMC3    C210795   0.736   3.037   9.956 -0.5538 -0.3215  1.0098
  727TMC3    C310796   0.689   3.165   9.932  1.1851 -0.0201  0.0322
  727TMC3    C410797   0.523   2.950   9.884  0.5087  0.3584 -0.3016
  727TMC3    C510798   0.485   3.079   9.855  0.4085 -0.3023  0.3874
  727TMC3    C610799   0.567   3.189   9.879  0.4987 -0.3222  0.1557
  727TMC3     C10800   0.694   2.810  10.006  0.3718 -0.1954  0.3656
  727TMC3     O10801   0.809   2.792  10.039  0.2376 -0.0036 -0.7933
  727TMC3     H10802   0.833   3.016  10.000 -0.3614 -1.0230  0.2443
  727TMC3    H110803   0.457   2.871   9.852 -0.2164  0.7793  0.1400
  727TMC3    H210804   0.532   3.292   9.877  2.5854  0.4168  1.0213
  727TMC3    C710805   0.358   3.094   9.784 -0.4210  0.1941  0.1112
  727TMC3    C810806   0.776   3.275   9.968  0.5324  0.3570 -0.2981
  727TMC3    O110807   0.267   3.012   9.790  0.6292 -0.3327 -0.0341
  727TMC3    O210808   0.841   3.255  10.070  0.0279 -0.7787  0.4988
  728TMC3    C110809   0.265   1.765  15.120  0.0151 -0.0614 -0.2542
  728TMC3    C210810   0.367   1.856  15.131 -0.1723 -0.7805  0.0372
  728TMC3    C310811   0.399   1.917  15.015 -0.1733  0.7695 -0.0994
  728TMC3    C410812   0.211   1.736  14.995 -0.0503 -0.4100 -0.5593
  728TMC3    C510813   0.246   1.803  14.884  0.2434  0.3885 -1.0699
  728TMC3    C610814   0.342   1.900  14.888  0.4166 -0.6178  0.3287
  728TMC3     C10815   0.219   1.696  15.245  0.3752  0.3532 -0.2532
  728TMC3     O10816   0.292   1.714  15.339  0.0439  0.2782 -0.2073
  728TMC3     H10817   0.421   1.863  15.226 -1.5019  0.9964  0.6641
  728TMC3    H110818   0.140   1.658  14.973 -1.6419  0.9246 -0.0953
  728TMC3    H210819   0.353   1.976  14.812 -1.2417 -2.2408 -1.5157
  728TMC3    C710820   0.154   1.800  14.768 -0.8835 -1.3365  0.3308
  728TMC3    C810821   0.532   1.989  15.009  0.2365  0.4395  0.5323
  728TMC3    O110822   0.039   1.757  14.789 -0.3054  0.4307  0.0158
  728TMC3    O210823   0.608   1.982  15.108  0.6136  0.0861 -0.2400
  729MPD2     C10824   2.008   2.724  16.691 -0.6277 -0.6600 -0.1923
  729MPD2    C110825   2.104   2.631  16.708 -0.0382  0.2974  0.0952
  729MPD2    C210826   2.155   2.601  16.836 -0.2734  0.1841 -0.3238
  729MPD2    C310827   2.119   2.677  16.949  0.3393  0.2533 -0.8922
  729MPD2    C410828   2.025   2.774  16.931  0.6575  0.1314 -0.3762
  729MPD2    C510829   1.973   2.801  16.809 -0.4222 -0.3015  0.2461
  729MPD2     H10830   2.241   2.537  16.849 -1.2304 -0.8995  0.6236
  729MPD2    H110831   1.990   2.830  17.017  1.1228  1.3424 -0.9900
  729MPD2    H210832   1.977   2.747  16.590  2.2223 -0.4793 -1.0103
  729MPD2    H310833   1.897   2.879  16.809 -0.7781 -0.6420  2.0370
  729MPD2     N10834   2.174   2.670  17.083  0.0401 -0.1067  0.0206
  729MPD2    H510835   2.144   2.739  17.152  0.3450 -0.7421  0.7828
  729MPD2    N110836   2.148   2.564  16.594  1.2970  0.1122 -0.1392
  729MPD2    H710837   2.109   2.595  16.506 -0.9128  0.0284  0.8318
  730TMC3    C110838   2.336   2.604  17.251 -0.1802 -0.7882 -0.4981
  730TMC3    C210839   2.468   2.560  17.248  1.0248  0.2518  0.6203
  730TMC3    C310840   2.561   2.641  17.307 -0.6260  1.3222 -0.2964
  730TMC3    C410841   2.306   2.720  17.305  0.4729  0.1811 -0.5181
  730TMC3    C510842   2.399   2.793  17.371 -0.4808 -0.2580 -0.1243
  730TMC3    C610843   2.528   2.752  17.385 -0.1870 -0.6538  0.2743
  730TMC3     C10844   2.276   2.580  17.116 -0.1026 -0.7607 -0.0915
  730TMC3     O10845   2.326   2.491  17.047  0.8656 -0.3470 -0.0466
  730TMC3     H10846   2.498   2.468  17.200  1.3526  1.6094 -1.7381
  730TMC3    H110847   2.207   2.764  17.296 -0.5423 -1.8658  0.4269
  730TMC3    H210848   2.607   2.815  17.426  0.2614 -1.3404  0.4725
  730TMC3    C710849   2.392   2.929  17.323  0.3617  0.0118  0.0907
  730TMC3    C810850   2.661   2.663  17.214 -0.0639  0.2101  0.2934
  730TMC3    O110851   2.330   2.951  17.219  0.3020 -1.1482  0.0459
  730TMC3    O210852   2.685   2.571  17.138 -0.1880 -0.3420 -0.5985
  731MPD2     C10853   2.515   1.284  12.450 -0.7404 -0.6732  0.6838
  731MPD2    C110854   2.577   1.160  12.444  1.0977 -0.4974 -0.0433
  731MPD2    C210855   2.607   1.092  12.561 -0.0719  0.2163 -0.0012
  731MPD2    C310856   2.594   1.157  12.683 -0.2738 -0.0100 -0.9991
  731MPD2    C410857   2.548   1.284  12.690 -0.1459  0.1184  0.1827
  731MPD2    C510858   2.509   1.344  12.576 -0.2278 -0.0419 -0.4715
  731MPD2     H10859   2.654   0.995  12.548 -1.2654 -0.8100  3.3981
  731MPD2    H110860   2.551   1.346  12.778  1.4564 -1.4297  1.2310
  731MPD2    H210861   2.488   1.344  12.364  3.1350  0.6102  0.3775
  731MPD2    H310862   2.482   1.449  12.578 -1.6488 -0.3454 -4.4586
  731MPD2     N10863   2.640   1.079  12.789  0.1469  0.2356 -0.4217
  731MPD2    H510864   2.666   0.985  12.763  0.2999  0.5025 -1.2296
  731MPD2    N110865   2.609   1.104  12.319 -0.3490  0.1879  0.3994
  731MPD2    H710866   2.677   1.028  12.324 -0.8878 -0.5455 -3.3319
  732TMC3    C110867   2.594   1.074  12.092  0.0524  0.2287  0.5220
  732TMC3    C210868   2.504   1.036  11.995 -0.5703 -0.0858  0.2353
  732TMC3    C310869   2.565   0.986  11.882 -0.5618  0.5551 -0.4901
  732TMC3    C410870   2.728   1.081  12.077  0.3119 -0.7445  0.2346
  732TMC3    C510871   2.781   1.036  11.954 -1.0523 -0.2104  0.0887
  732TMC3    C610872   2.701   0.983  11.859  0.4290  0.7319  0.7195
  732TMC3     C10873   2.531   1.127  12.212  0.1834 -0.6768 -0.4467
  732TMC3     O10874   2.418   1.171  12.204  0.2693 -0.0910 -0.1256
  732TMC3     H10875   2.401   1.068  12.008 -0.4221  0.3439  0.3382
  732TMC3    H110876   2.792   1.129  12.149  1.5951  0.1084 -1.4797
  732TMC3    H210877   2.732   0.945  11.762  2.1789 -0.4928  1.7679
  732TMC3    C710878   2.898   1.101  11.903 -1.2108 -0.1382 -0.5517
  732TMC3    C810879   2.474   0.926  11.792  0.0584  0.2964  0.0931
  732TMC3    O110880   2.899   1.126  11.786 -0.2029 -0.0589 -0.4353
  732TMC3    O210881   2.517   0.909  11.677  0.2182  0.3274  0.1615
  733TMC3    C110882   4.095   0.283  12.540  0.3948 -0.0747 -0.9501
  733TMC3    C210883   4.210   0.328  12.593  0.4047  0.1966  0.7333
  733TMC3    C310884   4.296   0.409  12.524  0.1167  0.0712  0.5164
  733TMC3    C410885   4.045   0.335  12.420  0.5082  0.1497 -1.2057
  733TMC3    C510886   4.132   0.424  12.362 -0.0158  1.0427  0.0788
  733TMC3    C610887   4.253   0.464  12.409 -0.5747  0.0888  0.3450
  733TMC3     C10888   3.987   0.235  12.622  0.5786  0.1171 -0.7916
  733TMC3     O10889   3.881   0.285  12.608  0.6032  0.3011  0.3443
  733TMC3     H10890   4.227   0.301  12.697 -0.9603 -1.1993  0.5912
  733TMC3    H110891   3.952   0.304  12.375  0.7115 -1.4068 -0.5455
  733TMC3    H210892   4.323   0.505  12.337 -0.0939 -0.8898  0.2608
  733TMC3    C710893   4.095   0.460  12.226 -0.2553 -0.1962 -0.0158
  733TMC3    C810894   4.423   0.464  12.585  0.7704 -0.3975 -1.1044
  733TMC3    O110895   4.028   0.383  12.164 -0.0883 -0.7637 -0.0256
  733TMC3    O210896   4.496   0.379  12.631 -0.4426  0.3365  0.2910
  734MPD2     C10897   1.092   1.611  12.227 -0.3019 -0.3799 -0.5750
  734MPD2    C110898   0.973   1.573  12.170 -0.1722 -1.0726 -0.1411
  734MPD2    C210899   0.960   1.570  12.034  0.8905 -0.4841  0.0887
  734MPD2    C310900   1.059   1.607  11.949 -0.0911  0.5982 -0.5567
  734MPD2    C410901   1.181   1.646  12.005  0.0810 -0.4834 -0.4669
  734MPD2    C510902   1.190   1.660  12.143  0.2516  0.4158  0.1374
  734MPD2     H10903   0.863   1.540  11.994  0.3813 -0.3783  1.2638
  734MPD2    H110904   1.269   1.675  11.948 -0.5108 -0.1425 -1.2167
  734MPD2    H210905   1.106   1.617  12.335 -1.0432  2.3522 -0.6208
  734MPD2    H310906   1.276   1.700  12.196  0.6343 -2.8518  1.9614
  734MPD2     N10907   1.041   1.602  11.810  0.2720 -0.2431 -0.4902
  734MPD2    H510908   0.947   1.587  11.775 -0.4483 -1.0259  1.8136
  734MPD2    N110909   0.866   1.550  12.262  0.5360  0.3102  0.0939
  734MPD2    H710910   0.880   1.539  12.362  2.5127 -2.1627 -0.4668
  735TMC3    C110911   0.652   1.480  12.305  0.4542  0.3120  0.5733
  735TMC3    C210912   0.525   1.509  12.261  0.0538 -0.3439  0.1313
  735TMC3    C310913   0.441   1.405  12.238  0.1736 -0.2638  0.0764
  735TMC3    C410914   0.699   1.350  12.325 -0.1038 -0.1215  0.5781
  735TMC3    C510915   0.604   1.255  12.302 -0.0562 -0.4615  0.1488
  735TMC3    C610916   0.476   1.272  12.262 -0.3692  0.8249 -0.6676
  735TMC3     C10917   0.735   1.559  12.225  0.3417 -0.8493  0.3831
  735TMC3     O10918   0.682   1.616  12.130 -0.3098  0.0205 -0.0919
  735TMC3     H10919   0.487   1.611  12.252  0.1865 -0.0111  3.5505
  735TMC3    H110920   0.797   1.332  12.366 -0.3751 -0.1774  1.1974
  735TMC3    H210921   0.416   1.189  12.227  1.2628 -0.4071 -0.5390
  735TMC3    C710922   0.649   1.118  12.288  0.0448 -0.3399 -0.1771
  735TMC3    C810923   0.390   1.399  12.103  0.0100  0.5186 -0.0090
  735TMC3    O110924   0.571   1.029  12.300  0.6046  0.1436 -0.0428
  735TMC3    O210925   0.318   1.309  12.063  0.0985 -0.1353 -0.0107
  736MPD2     C10926   0.825   0.883  12.238  0.0667  0.0493  0.0512
  736MPD2    C110927   0.845   1.008  12.187  0.0002 -0.4363  0.0503
  736MPD2    C210928   0.942   1.023  12.091 -0.2124 -0.4891  0.6094
  736MPD2    C310929   1.018   0.920  12.033  0.8645 -0.1074  0.1353
  736MPD2    C410930   0.987   0.799  12.080  0.3411  0.1172 -0.2479
  736MPD2    C510931   0.891   0.784  12.177  0.1132  0.1204  0.8355
  736MPD2     H10932   0.967   1.125  12.064 -0.5297 -0.1507  1.5706
  736MPD2    H110933   1.037   0.706  12.056  0.3429  0.0531  0.0036
  736MPD2    H210934   0.745   0.862  12.308  0.4399 -1.3135  0.0649
  736MPD2    H310935   0.875   0.684  12.218  1.1959  0.1563  1.3402
  736MPD2     N10936   1.129   0.925  11.947 -0.1785  0.3289 -0.2187
  736MPD2    H510937   1.181   0.843  11.917  1.5863  2.3476 -2.7077
  736MPD2    N110938   0.780   1.125  12.237  0.6852 -0.0706  0.6329
  736MPD2    H710939   0.805   1.213  12.194  0.3802 -0.8445 -1.1158
  737TMC3    C110940   1.282   1.032  11.788  0.0910  0.4643 -0.1997
  737TMC3    C210941   1.351   1.148  11.765 -0.3331  0.4931 -0.0898
  737TMC3    C310942   1.438   1.154  11.655 -0.2736 -0.6166  0.1649
  737TMC3    C410943   1.302   0.914  11.713  0.1251  0.0983  0.3328
  737TMC3    C510944   1.400   0.922  11.621 -0.3225 -0.1690  0.4752
  737TMC3    C610945   1.459   1.040  11.588  0.1561  0.5033  0.2104
  737TMC3     C10946   1.185   1.041  11.899  0.4067 -0.7025 -0.3952
  737TMC3     O10947   1.138   1.154  11.904  1.1607 -0.0166  0.4227
  737TMC3     H10948   1.333   1.239  11.821  1.0297  0.1153  0.9773
  737TMC3    H110949   1.255   0.819  11.732 -2.2962  1.2196 -0.1099
  737TMC3    H210950   1.522   1.055  11.501 -0.5389  1.5480 -0.1121
  737TMC3    C710951   1.413   0.806  11.537  1.2315 -0.1962 -0.1471
  737TMC3    C810952   1.468   1.287  11.606  0.2442  0.3049  0.1327
  737TMC3    O110953   1.332   0.720  11.546  0.1765  0.1973 -0.1825
  737TMC3    O210954   1.411   1.381  11.662  0.1775 -0.1446 -0.0205
  738MPD2     C10955   1.595   0.008  15.362  0.0301 -0.2944 -0.4668
  738MPD2    C110956   1.609   4.703  15.229  0.3087  0.2812  0.2082
  738MPD2    C210957   1.666   0.057  15.142  0.2001 -0.0606 -0.6298
  738MPD2    C310958   1.699   0.179  15.179 -0.2318  1.1306  0.0356
  738MPD2    C410959   1.683   0.223  15.306 -0.4718  0.0563 -0.0130
  738MPD2    C510960   1.639   0.135  15.399  0.5780 -0.0914 -0.5643
  738MPD2     H10961   1.686   0.021  15.042 -1.9395  1.4797 -1.5829
  738MPD2    H110962   1.728   0.313  15.346  1.5743 -0.4040 -1.2333
  738MPD2    H210963   1.542   4.681  15.432  0.5562  2.0074  2.0600
  738MPD2    H310964   1.624   0.178  15.497 -1.3178  0.5701 -1.1570
  738MPD2     N10965   1.779   0.258  15.093  0.3256  0.4348  0.1790
  738MPD2    H510966   1.809   0.341  15.143  0.2341 -1.3332  3.1953
  738MPD2    N110967   1.581   4.573  15.185  0.4467 -0.0426 -0.2712
  738MPD2    H710968   1.566   4.562  15.085 -0.9765 -0.3176 -0.0205
  739TMC3    C110969   1.926   0.305  14.907 -0.3247  0.4099 -0.1610
  739TMC3    C210970   1.915   0.353  14.779 -0.0642  0.0136 -0.2885
  739TMC3    C310971   2.026   0.404  14.718 -0.5521  0.3923  0.3752
  739TMC3    C410972   2.049   0.291  14.967 -0.3911 -0.5893 -0.0467
  739TMC3    C510973   2.156   0.321  14.895  0.1032 -0.5174  0.2920
  739TMC3    C610974   2.150   0.388  14.775  0.2496 -0.0848  0.4173
  739TMC3     C10975   1.810   0.231  14.962  0.4485 -0.2542 -0.5280
  739TMC3     O10976   1.737   0.167  14.882  0.7282 -0.0588  0.6390
  739TMC3     H10977   1.816   0.354  14.734  0.3622  0.7424 -1.2095
  739TMC3    H110978   2.059   0.248  15.066 -2.1436 -0.8923 -0.0044
  739TMC3    H210979   2.247   0.411  14.732  0.4664  4.4599  3.3336
  739TMC3    C710980   2.282   0.304  14.966 -0.0336  0.0760 -0.1738
  739TMC3    C810981   2.011   0.456  14.587  0.5989  0.1022 -0.3182
  739TMC3    O110982   2.282   0.204  15.038 -0.0064  0.5486  0.0363
  739TMC3    O210983   1.905   0.423  14.532  0.4197 -0.3122 -0.4340
  740TMC3    C110984   1.974   1.367  14.467 -0.1486 -0.7046 -0.1966
  740TMC3    C210985   2.037   1.283  14.561  0.3767  0.9427 -0.1848
  740TMC3    C310986   2.098   1.167  14.524  0.6017 -0.0609 -0.0474
  740TMC3    C410987   1.974   1.340  14.333 -0.2684  0.1568 -0.6001
  740TMC3    C510988   2.025   1.220  14.304  0.1387 -0.3819 -1.0158
  740TMC3    C610989   2.089   1.139  14.388  0.3488  0.1969  0.0948
  740TMC3     C10990   1.902   1.481  14.520 -0.3960 -0.1056  0.0028
  740TMC3     O10991   1.876   1.581  14.446  0.6700 -0.3462 -0.0463
  740TMC3     H10992   2.049   1.321  14.661  3.4764 -0.7105  0.0655
  740TMC3    H110993   1.924   1.405  14.262  0.8944 -0.4348 -1.9402
  740TMC3    H210994   2.121   1.039  14.360 -2.5470 -0.2420 -1.6051
  740TMC3    C710995   2.002   1.160  14.175  0.7318  0.4893  0.1273
  740TMC3    C810996   2.171   1.091  14.622 -0.3444  0.3586 -0.0357
  740TMC3    O110997   2.036   1.042  14.158 -0.2913 -0.0216 -0.2339
  740TMC3    O210998   2.151   1.122  14.738 -0.0491 -0.1288 -0.6397
  741TMC3    C110999   1.622   0.885  14.347  0.1194 -0.2616 -0.3557
  741TMC3    C211000   1.575   0.797  14.255  0.4121  0.5020  0.2930
  741TMC3    C311001   1.578   0.659  14.282 -0.0681  0.2190 -0.6213
  741TMC3    C411002   1.658   0.841  14.476 -0.0116 -0.4274 -0.4905
  741TMC3    C511003   1.656   0.707  14.498  0.6722 -0.7819 -0.5357
  741TMC3    C611004   1.613   0.615  14.408 -0.3527  0.7209  0.0922
  741TMC3     C11005   1.579   1.022  14.339  0.9959  0.0550 -0.5564
  741TMC3     O11006   1.557   1.079  14.449  0.1604 -0.2812 -0.1075
  741TMC3     H11007   1.516   0.836  14.173  0.4624 -0.1364 -0.0523
  741TMC3    H111008   1.677   0.913  14.555 -0.0935  0.8237 -1.6103
  741TMC3    H211009   1.609   0.508  14.429 -1.9980  0.8056  0.1858
  741TMC3    C711010   1.701   0.656  14.620 -0.7547  0.2448 -0.6766
  741TMC3    C811011   1.499   0.577  14.196 -0.3833  0.0455 -0.1583
  741TMC3    O111012   1.669   0.543  14.654  0.4288 -0.0310  0.2048
  741TMC3    O211013   1.428   0.636  14.117 -0.5568  0.2404  0.1202
  742TMC3    C111014   1.433   3.766  15.268 -0.1694 -0.0337 -0.1655
  742TMC3    C211015   1.340   3.748  15.172 -0.0045  0.4090  0.2641
  742TMC3    C311016   1.371   3.808  15.056  0.3637 -1.4030  0.1523
  742TMC3    C411017   1.554   3.832  15.250 -0.3668 -0.0089  0.4294
  742TMC3    C511018   1.578   3.891  15.130 -0.3265  0.2813  0.3875
  742TMC3    C611019   1.485   3.884  15.029 -0.4919  0.5322 -0.5999
  742TMC3     C11020   1.417   3.717  15.400 -0.3399 -0.3359  0.4727
  742TMC3     O11021   1.501   3.747  15.487 -0.1115  0.4701 -0.2894
  742TMC3     H11022   1.244   3.698  15.170 -1.6976  3.6587  1.1852
  742TMC3    H111023   1.625   3.831  15.331  0.4296  0.1225 -0.2654
  742TMC3    H211024   1.515   3.922  14.932  0.5663  0.9903 -0.0962
  742TMC3    C711025   1.720   3.902  15.092  0.5006  0.1072  0.6483
  742TMC3    C811026   1.303   3.747  14.942  1.2652  0.1544 -0.1712
  742TMC3    O111027   1.740   3.882  14.971 -0.1507  0.0157  0.1780
  742TMC3    O211028   1.254   3.637  14.947  0.0768 -0.3873  0.0110
  743MPD2     C11029   4.733   4.533   1.250  0.3869  0.4904 -0.1764
  743MPD2    C111030   0.013   4.657   1.206 -0.0763  0.3281  0.1530
  743MPD2    C211031   0.122   4.682   1.130 -0.9329  0.3251 -0.2761
  743MPD2    C311032   0.226   4.594   1.122  0.4145 -0.5200  0.6435
  743MPD2    C411033   0.214   4.473   1.189  0.1164 -0.1131 -0.0422
  743MPD2    C511034   0.091   4.439   1.246 -0.3380 -0.2347 -0.0520
  743MPD2     H11035   0.134   0.037   1.075 -0.0893  1.5551  1.9459
  743MPD2    H111036   0.297   4.403   1.189 -1.9825 -2.5924  1.4279
  743MPD2    H211037   4.646   4.510   1.311  1.4350  0.1132  1.1789
  743MPD2    H311038   0.071   4.343   1.292  0.1759  0.8367  2.3849
  743MPD2     N11039   0.337   4.627   1.037  0.2509  0.3847 -0.5230
  743MPD2    H511040   0.327   4.712   0.982  0.1440  1.3557  0.9976
  743MPD2    N111041   4.635   0.004   1.212  0.3467 -0.7404 -0.2093
  743MPD2    H711042   4.545   4.698   1.226 -0.0534 -0.3532 -1.5707
  744TMC3    C111043   4.506   0.197   1.161  0.5261 -0.8252 -0.0443
  744TMC3    C211044   4.485   0.327   1.197  0.0904 -0.2678  0.7048
  744TMC3    C311045   4.361   0.375   1.176  0.2198 -0.6844 -0.4454
  744TMC3    C411046   4.408   0.124   1.098  0.1713 -0.2430  0.0099
  744TMC3    C511047   4.287   0.176   1.074 -0.2741 -0.7609 -0.7383
  744TMC3    C611048   4.264   0.305   1.108 -0.2184  0.5377 -0.3265
  744TMC3     C11049   4.641   0.136   1.178 -0.2347  0.4647  0.2143
  744TMC3     O11050   0.007   0.206   1.176 -0.1747 -0.3905 -0.0728
  744TMC3     H11051   4.566   0.384   1.241 -1.2798  1.4997  0.9613
  744TMC3    H111052   4.433   0.024   1.064  3.4585  0.1357  1.3032
  744TMC3    H211053   4.168   0.348   1.084 -0.2812 -0.2835 -1.5696
  744TMC3    C711054   4.220   0.131   0.949  0.1128 -0.1507  0.3628
  744TMC3    C811055   4.321   0.507   1.215 -0.2708 -0.1306  0.5216
  744TMC3    O111056   4.155   0.220   0.893 -0.2172 -0.6482 -0.1432
  744TMC3    O211057   4.214   0.562   1.184 -0.3528 -0.0066  0.3624
  745TMC3    C111058   2.623   3.904  13.188  0.1003  0.0364 -0.2215
  745TMC3    C211059   2.495   3.871  13.164 -0.4920  1.1963  0.8119
  745TMC3    C311060   2.462   3.854  13.029  0.3983 -0.1845  0.1959
  745TMC3    C411061   2.721   3.915  13.101  0.2744 -0.4066 -0.3604
  745TMC3    C511062   2.688   3.874  12.977  0.3805  0.1552 -0.1278
  745TMC3    C611063   2.559   3.846  12.934 -1.0745  0.5392  0.1719
  745TMC3     C11064   2.676   3.882  13.327  0.6114 -0.3031 -1.2069
  745TMC3     O11065   2.793   3.850  13.333  0.4868  0.5471  0.6431
  745TMC3     H11066   2.418   3.870  13.240 -0.1024  0.8288  1.2003
  745TMC3    H111067   2.824   3.920  13.133  0.1507 -0.2816  0.0243
  745TMC3    H211068   2.548   3.798  12.838  0.3219 -0.6111  0.5993
  745TMC3    C711069   2.797   3.902  12.878  0.0468 -0.0020 -0.0998
  745TMC3    C811070   2.321   3.845  12.981  0.0213 -0.3876  1.1103
  745TMC3    O111071   2.804   3.828  12.780 -0.5796  0.4706 -0.0364
  745TMC3    O211072   2.291   3.896  12.875 -0.0141  0.1013  0.2609
  746TMC3    C111073   3.913   0.788  11.338  0.2869 -0.0606 -0.1217
  746TMC3    C211074   4.030   0.726  11.333 -0.1469 -0.7277  0.2607
  746TMC3    C311075   4.074   0.677  11.215  0.7175 -0.2153 -0.3466
  746TMC3    C411076   3.827   0.797  11.229 -0.4687  0.4044  0.2746
  746TMC3    C511077   3.866   0.735  11.116  0.1332 -0.4602 -0.7073
  746TMC3    C611078   3.992   0.679  11.107 -0.3219  0.2114 -0.0969
  746TMC3     C11079   3.912   0.913  11.409  0.1231  0.5840  0.4471
  746TMC3     O11080   3.840   1.003  11.374  0.1849  0.7711 -0.6420
  746TMC3     H11081   4.086   0.707  11.424  1.4581 -3.0432 -1.1637
  746TMC3    H111082   3.732   0.849  11.235  0.3538  1.9211  0.1990
  746TMC3    H211083   4.032   0.639  11.015  1.1663  2.2609 -0.3461
  746TMC3    C711084   3.779   0.725  11.001 -0.3934 -0.4531  0.8635
  746TMC3    C811085   4.217   0.669  11.186  0.0528  0.6620 -0.4543
  746TMC3    O111086   3.803   0.649  10.910  0.7067 -0.1675  0.1041
  746TMC3    O211087   4.290   0.612  11.271  0.2801  0.2700  0.6764
  747TMC3    C111088   2.194   0.678  10.835  0.3623  0.7191 -0.8107
  747TMC3    C211089   2.065   0.641  10.839 -0.6450  0.8908 -0.2142
  747TMC3    C311090   2.007   0.656  10.966 -0.4459 -0.7094 -0.0413
  747TMC3    C411091   2.272   0.716  10.942  0.4767  0.0556  0.4923
  747TMC3    C511092   2.204   0.737  11.056  0.4018 -0.2038 -0.3698
  747TMC3    C611093   2.077   0.715  11.063  0.2486 -0.4120  0.3941
  747TMC3     C11094   2.272   0.670  10.712  0.2659 -0.5835  0.1470
  747TMC3     O11095   2.356   0.757  10.694 -0.0653 -0.1298 -0.3913
  747TMC3     H11096   2.005   0.620  10.752 -1.9183 -2.3194  1.4450
  747TMC3    H111097   2.373   0.752  10.927  0.3438  0.8232  1.5169
  747TMC3    H211098   2.033   0.729  11.161  1.3801  0.0151  0.8423
  747TMC3    C711099   2.265   0.811  11.163  0.2264 -0.4017  0.1064
  747TMC3    C811100   1.869   0.626  10.989  0.5096  0.2924 -0.2050
  747TMC3    O111101   2.183   0.857  11.243 -0.3807 -0.5853 -0.2390
  747TMC3    O211102   1.824   0.540  10.913  0.0168 -0.0683  0.7208
  748MPD2     C11103   3.977   2.086   1.613 -0.1996 -0.4203 -0.2365
  748MPD2    C111104   3.998   1.959   1.558 -0.0853 -0.8969 -0.2511
  748MPD2    C211105   4.016   1.942   1.422 -0.1387  0.3393  0.3428
  748MPD2    C311106   3.996   2.049   1.340 -0.4672  0.0609  0.2291
  748MPD2    C411107   3.969   2.172   1.397 -0.5265  0.3779  0.2721
  748MPD2    C511108   3.962   2.191   1.526 -0.7394 -0.2034  0.0254
  748MPD2     H11109   4.033   1.848   1.371 -0.2584  0.0651  0.8135
  748MPD2    H111110   3.946   2.256   1.333 -4.3555 -0.5155  0.4541
  748MPD2    H211111   3.973   2.096   1.721  0.0996 -1.0554 -0.1646
  748MPD2    H311112   3.940   2.284   1.577  0.1837 -1.0531  1.9734
  748MPD2     N11113   3.989   2.017   1.198 -0.6660 -0.2852 -0.5711
  748MPD2    H511114   3.987   1.922   1.163 -0.3348 -0.4426 -0.1623
  748MPD2    N111115   4.021   1.858   1.654  0.4258 -0.2236 -0.0684
  748MPD2    H711116   3.994   1.881   1.749 -0.0129 -0.7558 -0.0626
  749TMC3    C111117   3.982   2.047   0.977  0.2509 -0.0793  0.2477
  749TMC3    C211118   3.957   1.917   0.971  0.4318 -0.1005 -0.3032
  749TMC3    C311119   4.037   1.840   0.884  0.4952  0.9446 -1.0631
  749TMC3    C411120   4.057   2.112   0.877 -0.0860 -0.0599  0.2776
  749TMC3    C511121   4.126   2.037   0.781 -0.3058 -0.1098  0.3035
  749TMC3    C611122   4.122   1.901   0.786  0.5121  0.1428 -0.1796
  749TMC3     C11123   3.986   2.115   1.103  0.9466 -0.3516  0.4908
  749TMC3     O11124   3.965   2.238   1.108  0.0469 -0.6710  0.0610
  749TMC3     H11125   3.881   1.865   1.030  2.4326  0.6896  2.9655
  749TMC3    H111126   4.069   2.219   0.878  0.8879 -0.1470 -1.6666
  749TMC3    H211127   4.170   1.827   0.722 -0.4547 -0.8211  0.2092
  749TMC3    C711128   4.201   2.110   0.686 -0.3583 -0.1776 -0.0719
  749TMC3    C811129   4.077   1.717   0.954  0.1322  0.7977 -0.0891
  749TMC3    O111130   4.171   2.227   0.668 -0.0627  0.8587  0.3097
  749TMC3    O211131   4.044   1.718   1.074  0.1382  0.2951  0.1964
  750MPD2     C11132   4.242   2.955  11.140 -0.0744  0.4142  0.3733
  750MPD2    C111133   4.151   2.899  11.221 -0.0144  0.4378  0.1416
  750MPD2    C211134   4.189   2.793  11.300  0.2208  0.0714  0.1202
  750MPD2    C311135   4.314   2.728  11.276 -0.2264  0.2410  0.4476
  750MPD2    C411136   4.404   2.790  11.187 -0.0236 -0.6856  0.0775
  750MPD2    C511137   4.358   2.896  11.119 -0.3833  0.0537  0.1659
  750MPD2     H11138   4.116   2.750  11.368 -1.2257 -0.7251 -1.9719
  750MPD2    H111139   4.502   2.749  11.164  0.5246 -0.0449  1.2786
  750MPD2    H211140   4.216   3.044  11.085  2.0688  0.4758 -0.5470
  750MPD2    H311141   4.429   2.950  11.059 -1.6220  0.8800 -0.5522
  750MPD2     N11142   4.353   2.605  11.333 -0.0638  0.4834 -0.0513
  750MPD2    H511143   4.448   2.577  11.314 -0.9210 -3.2743  1.2253
  750MPD2    N111144   4.021   2.962  11.233  0.3169  0.9125 -0.8204
  750MPD2    H711145   4.022   3.061  11.208  1.4991  0.9185 -0.7486
  751TMC3    C111146   4.333   2.386  11.452 -0.1059 -0.0875  0.1452
  751TMC3    C211147   4.268   2.324  11.556 -0.3188  0.7169 -0.4915
  751TMC3    C311148   4.298   2.191  11.579 -0.7380 -0.0391 -0.0645
  751TMC3    C411149   4.422   2.321  11.372  0.0931 -0.8408 -0.8800
  751TMC3    C511150   4.451   2.192  11.397  0.4224 -0.3277  0.1907
  751TMC3    C611151   4.397   2.127  11.511  0.1991 -0.7203 -0.1681
  751TMC3     C11152   4.278   2.519  11.410  0.2748 -0.2559  0.0601
  751TMC3     O11153   4.163   2.537  11.444  0.3264  0.3679 -0.2464
  751TMC3     H11154   4.179   2.365  11.602 -0.9514  0.9566 -1.9026
  751TMC3    H111155   4.457   2.368  11.281  0.8172 -1.5531 -0.9609
  751TMC3    H211156   4.426   2.027  11.539 -1.1173 -0.0935  3.4350
  751TMC3    C711157   4.491   2.114  11.283 -0.9261  0.3770 -0.2045
  751TMC3    C811158   4.181   2.109  11.560 -0.0219  0.1331  0.3495
  751TMC3    O111159   4.582   2.161  11.216  0.2574 -0.2428 -0.2471
  751TMC3    O211160   4.203   2.023  11.472  0.0492  0.1285  0.7004
  752TMC3    C111161   3.042   2.318  17.071 -0.3290  0.6078 -0.3776
  752TMC3    C211162   3.079   2.236  17.184  0.1222 -0.1450  0.3223
  752TMC3    C311163   3.127   2.298  17.298  0.3851  0.0586  0.1128
  752TMC3    C411164   3.056   2.453  17.075  0.1729  0.1335  0.6864
  752TMC3    C511165   3.096   2.507  17.196  1.1049  0.1658 -0.0216
  752TMC3    C611166   3.134   2.432  17.305 -0.4766 -0.0756 -0.9008
  752TMC3     C11167   3.057   2.259  16.944  0.1844  0.0712 -0.2571
  752TMC3     O11168   3.125   2.156  16.938  0.2309 -0.3978  0.1291
  752TMC3     H11169   3.047   2.132  17.182  0.6875 -0.3136  0.0272
  752TMC3    H111170   3.033   2.507  16.983 -0.6310  1.2608  1.5414
  752TMC3    H211171   3.161   2.479  17.398  0.1149 -2.1325 -0.0322
  752TMC3    C711172   3.072   2.648  17.207 -0.1581 -0.2645 -0.1069
  752TMC3    C811173   3.128   2.209  17.415 -0.2466 -0.1256  0.0268
  752TMC3    O111174   3.062   2.708  17.101  0.1191 -0.3762 -0.1115
  752TMC3    O211175   3.075   2.097  17.413  0.4595  0.2485 -0.0357
  753TMC3    C111176   0.484   3.350  13.678 -0.9886  0.3391 -0.3891
  753TMC3    C211177   0.499   3.382  13.813 -0.3842  0.2680 -0.6225
  753TMC3    C311178   0.511   3.277  13.897 -0.6823 -0.4003  0.2169
  753TMC3    C411179   0.480   3.222  13.632 -0.3179  0.2757  0.3452
  753TMC3    C511180   0.489   3.122  13.723  0.4303 -0.3453  0.5577
  753TMC3    C611181   0.503   3.145  13.859  0.4255 -0.3930 -0.1079
  753TMC3     C11182   0.490   3.453  13.573  0.5967 -0.3779  0.3833
  753TMC3     O11183   0.486   3.403  13.457  0.6321  0.2005  0.4629
  753TMC3     H11184   0.478   3.481  13.851  0.3880 -0.7271  2.3919
  753TMC3    H111185   0.478   3.206  13.525  0.1550 -1.5599  0.6110
  753TMC3    H211186   0.550   3.069  13.920 -0.9949 -0.4580  0.9195
  753TMC3    C711187   0.480   2.985  13.673  0.4496  1.3550  0.7116
  753TMC3    C811188   0.565   3.301  14.030 -0.6591 -0.0313 -0.6193
  753TMC3    O111189   0.415   2.968  13.578 -0.5050 -0.1789 -0.1598
  753TMC3    O211190   0.579   3.198  14.093 -0.3513 -0.1122  0.3160
  754MPD2     C11191   3.933   2.582  13.199  0.1443  0.1198  0.6718
  754MPD2    C111192   3.837   2.500  13.259 -0.0770 -0.9114 -0.8288
  754MPD2    C211193   3.712   2.497  13.193 -0.1999  0.4980  0.1895
  754MPD2    C311194   3.686   2.563  13.077 -0.4273 -0.6207  0.3409
  754MPD2    C411195   3.785   2.641  13.021  0.0919  1.0208  0.3664
  754MPD2    C511196   3.907   2.642  13.080  0.4396 -0.0013  0.0138
  754MPD2     H11197   3.639   2.428  13.232  0.8290  0.7654  2.5997
  754MPD2    H111198   3.768   2.685  12.923 -0.1413  1.6699  0.6938
  754MPD2    H211199   4.038   2.580  13.226 -0.0780 -0.8439  1.5075
  754MPD2    H311200   3.993   2.694  13.040  0.2102  1.2814  1.1791
  754MPD2     N11201   3.560   2.554  13.012  0.1307 -0.2178  0.0962
  754MPD2    H511202   3.559   2.588  12.916 -2.6761  0.4301  0.3318
  754MPD2    N111203   3.882   2.418  13.370  0.2960  0.6818  0.2160
  754MPD2    H711204   3.983   2.407  13.379  0.4067  1.0415 -0.5847
  755MPD2     C11205   2.915   3.129  12.746  0.5727  1.3295  0.4784
  755MPD2    C111206   2.881   3.005  12.681  0.0599  0.2214  0.4778
  755MPD2    C211207   2.959   2.890  12.693 -0.2669  0.2280  0.3486
  755MPD2    C311208   3.080   2.899  12.754 -0.3543  0.0013 -0.7073
  755MPD2    C411209   3.127   3.016  12.811 -0.7380 -0.6088 -0.1975
  755MPD2    C511210   3.044   3.135  12.800  0.4463  0.6746  0.2752
  755MPD2     H11211   2.913   2.798  12.658  0.9412  0.4743 -1.8765
  755MPD2    H111212   3.221   3.027  12.864 -1.1612 -1.7287  0.7988
  755MPD2    H211213   2.847   3.213  12.735  1.1138  1.9729  1.9643
  755MPD2    H311214   3.083   3.229  12.836 -3.0477  1.5770  1.6934
  755MPD2     N11215   3.168   2.790  12.774  0.1099 -0.3545  0.2928
  755MPD2    H511216   3.254   2.817  12.821 -0.3831 -1.1071  1.6235
  755MPD2    N111217   2.748   2.973  12.647  0.6565  0.1210 -0.7602
  755MPD2    H711218   2.739   2.878  12.613 -0.1281 -0.0891  0.0269
  756MPD2     C11219   4.385   3.138   9.441 -0.1484  0.6300  0.0173
  756MPD2    C111220   4.262   3.156   9.497  0.0535 -0.0744 -1.3022
  756MPD2    C211221   4.167   3.229   9.420  0.6619 -0.3079 -0.7504
  756MPD2    C311222   4.199   3.299   9.304 -0.0028  0.3126  0.4089
  756MPD2    C411223   4.330   3.286   9.267  0.0790 -0.2528  0.5083
  756MPD2    C511224   4.419   3.201   9.327 -0.0075  0.1310  0.0729
  756MPD2     H11225   4.071   3.247   9.465  0.2706 -0.1887 -1.6284
  756MPD2    H111226   4.362   3.328   9.172  0.4436 -2.1604 -0.2111
  756MPD2    H211227   4.465   3.083   9.489 -0.4086  1.4645  1.3790
  756MPD2    H311228   4.519   3.185   9.288  0.2275 -3.0449  1.9347
  756MPD2     N11229   4.103   3.377   9.235  0.6187  0.6067 -0.0577
  756MPD2    H511230   4.010   3.378   9.276 -1.1951 -2.6184 -4.0347
  756MPD2    N111231   4.215   3.097   9.616  0.6215 -0.4276  0.1809
  756MPD2    H711232   4.117   3.108   9.642  0.4596 -3.4592  0.8103
  757MPD2     C11233   3.261   3.251   9.223  0.6540  0.6273 -0.0317
  757MPD2    C111234   3.373   3.176   9.233 -0.2348 -0.4579 -0.0508
  757MPD2    C211235   3.498   3.242   9.225  0.4296 -1.0442 -0.0464
  757MPD2    C311236   3.510   3.379   9.212  1.2833 -0.0873 -0.3971
  757MPD2    C411237   3.388   3.453   9.215  0.7367 -0.2351  0.2605
  757MPD2    C511238   3.272   3.386   9.206 -0.3787 -0.2118 -0.2801
  757MPD2     H11239   3.593   3.190   9.222  2.0754  1.8877  0.1545
  757MPD2    H111240   3.389   3.558   9.190 -2.4479 -0.0545  0.9270
  757MPD2    H211241   3.158   3.217   9.232  1.2775 -0.4809  3.0128
  757MPD2    H311242   3.174   3.431   9.199 -0.4565 -0.0839  1.5168
  757MPD2     N11243   3.636   3.443   9.196 -0.0337 -0.2179  0.1064
  757MPD2    H511244   3.711   3.375   9.205 -1.0543 -1.4057 -0.4348
  757MPD2    N111245   3.363   3.036   9.243 -0.3703  0.1171 -0.2194
  757MPD2    H711246   3.267   3.005   9.231 -0.4978  0.6929 -0.7336
  758MPD2     C11247   3.794   1.823  15.544 -0.2621 -0.3474  0.2051
  758MPD2    C111248   3.853   1.727  15.620 -0.1204 -0.3631  0.8699
  758MPD2    C211249   3.812   1.700  15.751  0.0223  0.0538  0.2777
  758MPD2    C311250   3.695   1.764  15.801 -0.9179 -0.0066  1.2330
  758MPD2    C411251   3.643   1.867  15.721 -0.5583  0.6953  0.3305
  758MPD2    C511252   3.690   1.897  15.597 -0.0730  0.5720  0.4519
  758MPD2     H11253   3.864   1.633  15.818 -0.1482 -0.2045  0.1491
  758MPD2    H111254   3.557   1.927  15.748 -0.0772  0.4047  2.4786
  758MPD2    H211255   3.826   1.854  15.446  0.5309 -0.5954  0.3831
  758MPD2    H311256   3.656   1.977  15.533  0.1760  0.4065  0.1161
  758MPD2     N11257   3.629   1.738  15.928  0.4196 -0.4084  0.1862
  758MPD2    H511258   3.561   1.807  15.959  1.2336  1.6833 -2.7434
  758MPD2    N111259   3.971   1.667  15.567  0.2640  0.4232 -0.2824
  758MPD2    H711260   3.992   1.686  15.470 -3.9538  2.7417 -0.7655
  759MPD2     C11261   3.086   0.370   9.491 -0.5463 -0.1157  0.2854
  759MPD2    C111262   2.965   0.393   9.434  0.6457 -0.5229  0.0108
  759MPD2    C211263   2.931   0.322   9.323 -0.2957  0.0446 -0.1933
  759MPD2    C311264   3.009   0.220   9.271 -0.1334  0.2307  0.3534
  759MPD2    C411265   3.122   0.193   9.343 -0.6364  0.3330  0.3081
  759MPD2    C511266   3.162   0.267   9.448 -0.5830  0.4647 -0.4222
  759MPD2     H11267   2.836   0.356   9.281  0.2459 -0.4366 -1.8225
  759MPD2    H111268   3.196   0.117   9.318 -2.3956 -0.6692 -1.8186
  759MPD2    H211269   3.124   0.431   9.573  0.4364  0.6942 -0.7745
  759MPD2    H311270   3.253   0.243   9.502 -1.5929  0.0621  1.0843
  759MPD2     N11271   2.961   0.137   9.168 -0.3948 -0.5071  0.5713
  759MPD2    H511272   2.866   0.158   9.139 -0.6981  0.5875  2.3426
  759MPD2    N111273   2.868   0.469   9.496 -0.0915 -0.1239  0.3712
  759MPD2    H711274   2.772   0.458   9.463 -0.0403 -0.3066  0.2867
  760MPD2     C11275   2.390   2.527  11.927  0.6467  0.1418 -0.2943
  760MPD2    C111276   2.467   2.581  11.828 -0.0020 -0.2891  1.0906
  760MPD2    C211277   2.563   2.505  11.764  0.2149  0.1512  0.7506
  760MPD2    C311278   2.573   2.368  11.789  0.0618 -0.1524  0.0141
  760MPD2    C411279   2.499   2.311  11.890 -0.0389 -0.6311  0.0137
  760MPD2    C511280   2.405   2.394  11.955  0.3984 -0.3950  0.2418
  760MPD2     H11281   2.619   2.554  11.685  1.1135 -0.0395  1.2832
  760MPD2    H111282   2.500   2.207  11.918  1.3677 -0.3378  1.0437
  760MPD2    H211283   2.312   2.577  11.984  2.6570  0.8925  1.8064
  760MPD2    H311284   2.341   2.353  12.033 -1.3491  3.0758  0.6485
  760MPD2     N11285   2.642   2.269  11.714 -0.8435 -0.3385 -0.4041
  760MPD2    H511286   2.644   2.175  11.752 -0.6209  0.2651  1.0875
  760MPD2    N111287   2.456   2.723  11.804 -0.6319 -0.3462 -0.0808
  760MPD2    H711288   2.528   2.760  11.743 -2.7094  0.9734 -1.6967
  761MPD2     C11289   3.682   2.017  11.530 -0.0680  0.6214 -0.2872
  761MPD2    C111290   3.787   1.939  11.487  0.2092  0.5065 -0.3156
  761MPD2    C211291   3.914   1.985  11.514  0.0709 -0.0345 -0.8180
  761MPD2    C311292   3.938   2.095  11.595  0.5479  0.0420 -0.8667
  761MPD2    C411293   3.833   2.165  11.640  0.3893 -0.2012 -0.3968
  761MPD2    C511294   3.707   2.128  11.611  0.3080  0.4590 -0.3753
  761MPD2     H11295   4.000   1.934  11.471 -0.8939 -0.8737 -1.7741
  761MPD2    H111296   3.842   2.251  11.706 -1.3059  0.6455 -1.2735
  761MPD2    H211297   3.579   1.990  11.509  0.1184 -0.0128 -0.3988
  761MPD2    H311298   3.624   2.181  11.657 -0.6216 -1.6070  0.3409
  761MPD2     N11299   4.066   2.151  11.620 -0.3832  0.1630  0.0690
  761MPD2    H511300   4.079   2.225  11.687 -0.0577 -0.3598  0.5806
  761MPD2    N111301   3.757   1.839  11.396  0.1643  0.3934  0.2540
  761MPD2    H711302   3.661   1.833  11.363  0.2081 -0.0241  0.2034
  762MPD2     C11303   4.124   1.795  10.777 -1.1602 -0.2191  0.2828
  762MPD2    C111304   4.077   1.665  10.798  0.9780 -0.0837  0.1294
  762MPD2    C211305   4.156   1.558  10.755  0.7103  0.1423 -0.0535
  762MPD2    C311306   4.262   1.579  10.671 -0.5763  0.3257 -0.3091
  762MPD2    C411307   4.307   1.704  10.653  0.5567 -0.3598  0.0928
  762MPD2    C511308   4.241   1.809  10.711  0.6612 -0.8233  0.4500
  762MPD2     H11309   4.135   1.455  10.781  0.0385 -0.1070 -1.5611
  762MPD2    H111310   4.403   1.728  10.609  0.8350 -0.0918  0.8493
  762MPD2    H211311   4.068   1.883  10.809 -1.9162 -0.6560  0.1684
  762MPD2    H311312   4.284   1.906  10.690 -2.6381  0.5755  0.0823
  762MPD2     N11313   4.328   1.469  10.617  0.0036  0.4093 -0.0575
  762MPD2    H511314   4.300   1.380  10.657  2.5855 -1.4721 -2.3951
  762MPD2    N111315   3.955   1.659  10.874 -0.8665 -0.1873 -0.2296
  762MPD2    H711316   3.918   1.746  10.912  1.3852  0.6569  0.0732
  763MPD2     C11317   1.134   2.269  15.820 -0.2364  0.7082  1.0617
  763MPD2    C111318   1.011   2.284  15.880 -0.6241  0.2863  0.5327
  763MPD2    C211319   0.970   2.415  15.924 -0.2521  0.2984 -0.5639
  763MPD2    C311320   1.066   2.517  15.912  0.3260 -0.5097  0.3155
  763MPD2    C411321   1.185   2.498  15.847  0.5343  0.0552 -0.4852
  763MPD2    C511322   1.218   2.374  15.802 -0.1160 -0.7229 -0.3350
  763MPD2     H11323   0.875   2.429  15.973 -1.4110  0.5562 -2.9284
  763MPD2    H111324   1.256   2.578  15.831  1.5072 -0.7304 -0.0316
  763MPD2    H211325   1.174   2.171  15.797 -2.4318 -0.5955  2.7418
  763MPD2    H311326   1.318   2.348  15.769 -0.2225 -0.6391 -0.7243
  763MPD2     N11327   1.037   2.648  15.953  0.0571 -0.4239  0.4061
  763MPD2    H511328   1.110   2.715  15.932 -0.5935  0.3539  0.6494
  763MPD2    N111329   0.925   2.176  15.894  0.7437  0.1443 -0.0021
  763MPD2    H711330   0.830   2.186  15.927  0.7476 -2.3819  0.8255
  764MPD2     C11331   3.873   3.572  17.064  0.6634  0.8280 -0.8171
  764MPD2    C111332   3.741   3.533  17.045  0.0096  0.5163 -0.0981
  764MPD2    C211333   3.684   3.450  17.139 -0.2099  0.5073 -0.2285
  764MPD2    C311334   3.749   3.409  17.257 -0.2513  0.3992 -0.4691
  764MPD2    C411335   3.882   3.446  17.267 -0.3456  0.3451  0.1121
  764MPD2    C511336   3.938   3.525  17.170 -0.2658 -0.1983  0.0964
  764MPD2     H11337   3.584   3.412  17.124 -0.8570  1.7287  1.0154
  764MPD2    H111338   3.949   3.423  17.349  0.7952  0.7213 -0.7228
  764MPD2    H211339   3.932   3.632  16.996  0.3934  0.8280 -1.0498
  764MPD2    H311340   4.043   3.546  17.187 -1.0494  3.3853  0.4674
  764MPD2     N11341   3.678   3.351  17.358  0.5060  0.1429  0.2918
  764MPD2    H511342   3.577   3.352  17.349  0.5234  1.1563  0.2682
  764MPD2    N111343   3.667   3.554  16.926  0.1245 -0.1794  0.2384
  764MPD2    H711344   3.571   3.521  16.918  0.7246 -1.6807 -0.5836
  765MPD2     C11345   3.558   1.566  15.150  0.4851  0.4824 -0.2843
  765MPD2    C111346   3.560   1.525  15.284 -0.1723  0.7730 -0.0325
  765MPD2    C211347   3.683   1.484  15.338  0.2752 -0.0904  0.1590
  765MPD2    C311348   3.792   1.479  15.261  0.3400  0.5118 -0.4988
  765MPD2    C411349   3.793   1.535  15.135  0.3080 -0.3036 -0.1131
  765MPD2    C511350   3.676   1.581  15.081 -0.2768 -0.1398  0.4935
  765MPD2     H11351   3.690   1.449  15.441 -0.6631  2.1094  0.9839
  765MPD2    H111352   3.868   1.518  15.059 -0.4901  1.1273 -1.2128
  765MPD2    H211353   3.473   1.606  15.095  0.6807 -0.8474 -1.5497
  765MPD2    H311354   3.680   1.627  14.983 -0.8048 -0.0997  0.4862
  765MPD2     N11355   3.907   1.420  15.326  0.2386  0.1999  0.1826
  765MPD2    H511356   3.899   1.380  15.419 -2.4729 -0.8228 -0.4802
  765MPD2    N111357   3.433   1.524  15.358  0.3987  0.4951 -0.2654
  765MPD2    H711358   3.345   1.538  15.309 -0.2382 -2.1897  0.1052
  766MPD2     C11359   2.804   1.809  15.091  0.4520 -0.1911  0.6056
  766MPD2    C111360   2.931   1.760  15.127  0.1872  0.1788  1.1263
  766MPD2    C211361   3.039   1.781  15.038 -0.7422 -0.1499 -0.5218
  766MPD2    C311362   3.020   1.858  14.927 -0.6319  0.1976 -0.3424
  766MPD2    C411363   2.891   1.909  14.894 -0.5538 -0.4788 -0.3074
  766MPD2    C511364   2.782   1.879  14.970 -0.0507 -0.3800  0.1709
  766MPD2     H11365   3.141   1.765  15.072 -0.8861  2.1549  0.9842
  766MPD2    H111366   2.889   1.970  14.804  1.4582  0.5419  0.3351
  766MPD2    H211367   2.726   1.778  15.160  1.7183 -0.9650  1.7109
  766MPD2    H311368   2.683   1.913  14.945  0.3452 -0.6378 -1.7902
  766MPD2     N11369   3.126   1.906  14.850  0.3721  0.0420  0.0275
  766MPD2    H511370   3.112   1.977  14.779 -0.6473 -1.7105 -1.4946
  766MPD2    N111371   2.955   1.712  15.253 -0.2815 -0.1731  0.0062
  766MPD2    H711372   2.879   1.727  15.319 -0.6149  0.5401 -0.5413
  767MPD2     C11373   2.782   2.274  14.465  0.2795 -1.0411  0.7539
  767MPD2    C111374   2.883   2.212  14.534  0.3883  0.2891  0.9710
  767MPD2    C211375   2.877   2.075  14.560 -1.6248 -0.7163  0.4183
  767MPD2    C311376   2.761   2.005  14.538 -0.0935  0.7591 -0.0064
  767MPD2    C411377   2.651   2.072  14.492 -0.1160 -0.1769 -1.0580
  767MPD2    C511378   2.665   2.202  14.453 -0.0495 -0.1078 -0.4245
  767MPD2     H11379   2.968   2.029  14.597 -0.1547  0.7809 -1.2572
  767MPD2    H111380   2.557   2.024  14.467 -0.9905  0.6364  0.7148
  767MPD2    H211381   2.791   2.376  14.430  1.2849 -1.9701 -1.6643
  767MPD2    H311382   2.588   2.245  14.390  0.1463 -0.3159 -0.8048
  767MPD2     N11383   2.774   1.863  14.560 -0.6618  0.0427 -0.0464
  767MPD2    H511384   2.863   1.836  14.602 -0.2060 -0.2936 -1.2199
  767MPD2    N111385   2.995   2.295  14.571  0.3246  0.2732 -0.9574
  767MPD2    H711386   3.007   2.381  14.518  4.5039 -1.0616 -2.1678
  768MPD2     C11387   4.051   0.716  10.491  0.0659  0.0924  0.6980
  768MPD2    C111388   3.982   0.602  10.509 -0.1009  0.2619 -0.2521
  768MPD2    C211389   4.033   0.508  10.597 -0.1422  0.5120 -0.0664
  768MPD2    C311390   4.149   0.529  10.666 -0.0706  0.2417  0.1991
  768MPD2    C411391   4.227   0.639  10.627  0.5213 -0.9487 -0.2073
  768MPD2    C511392   4.179   0.729  10.535 -0.4132 -0.3314 -0.5200
  768MPD2     H11393   3.969   0.422  10.614  1.1148 -0.4458 -0.1914
  768MPD2    H111394   4.319   0.658  10.682  0.2256  0.1749 -0.1054
  768MPD2    H211395   4.012   0.789  10.422  1.0601 -1.3781 -1.4118
  768MPD2    H311396   4.229   0.826  10.531 -0.8690 -0.1676 -2.3729
  768MPD2     N11397   4.201   0.445  10.770 -0.3105  0.4847 -0.1930
  768MPD2    H511398   4.300   0.451  10.794 -0.5939 -1.9770  1.5841
  768MPD2    N111399   3.861   0.589  10.434 -0.3153 -1.1079  0.4278
  768MPD2    H711400   3.834   0.676  10.389 -0.4330 -1.1200  0.4751
  769MPD2     C11401   4.736   2.877  14.619 -0.3214  0.5493  0.1460
  769MPD2    C111402   4.736   3.009  14.662 -0.9753 -0.0349 -0.1734
  769MPD2    C211403   4.733   3.040  14.797 -0.4841  1.0801 -0.6824
  769MPD2    C311404   4.735   2.935  14.889 -0.1093 -0.6453  0.0803
  769MPD2    C411405   4.724   2.809  14.843  1.4769 -0.0213 -0.5646
  769MPD2    C511406   4.723   2.781  14.710 -0.1546  0.4274  0.3600
  769MPD2     H11407   4.724   3.142  14.834 -0.4046  0.9027 -0.1687
  769MPD2    H111408   4.720   2.719  14.902 -3.8731  0.6811  0.1205
  769MPD2    H211409   0.016   2.851  14.515 -1.6606  0.8863 -0.1668
  769MPD2    H311410   4.735   2.680  14.671  2.4415  0.8407  0.0554
  769MPD2     N11411   0.003   2.969  15.026 -0.6848 -0.0187  0.4295
  769MPD2    H511412   4.735   3.069  15.044  1.7322 -0.1790  2.0999
  769MPD2    N111413   0.004   3.113  14.567 -0.6611  0.2352 -0.1110
  769MPD2    H711414   4.714   3.081  14.475 -0.3012  1.0234 -0.4862
  770MPD2     C11415   4.300   2.959  15.011  0.3112  0.2457 -0.5759
  770MPD2    C111416   4.343   2.901  14.892 -0.0627 -1.3613 -0.0814
  770MPD2    C211417   4.361   2.983  14.783 -0.1390  0.0205  0.2772
  770MPD2    C311418   4.352   3.123  14.789 -0.9583  0.1325 -0.0600
  770MPD2    C411419   4.322   3.178  14.914 -0.4265 -0.0706 -0.5044
  770MPD2    C511420   4.292   3.095  15.017 -0.0093  0.4326  0.3681
  770MPD2     H11421   4.401   2.941  14.691 -0.1375  5.2701 -2.1580
  770MPD2    H111422   4.313   3.284  14.934 -0.5241  0.1293 -1.6177
  770MPD2    H211423   4.301   2.902  15.103 -1.6332 -0.0486 -0.7437
  770MPD2    H311424   4.273   3.148  15.109  0.3405 -2.1072  1.8956
  770MPD2     N11425   4.377   3.195  14.676  0.1962  0.2222 -0.1115
  770MPD2    H511426   4.410   3.138  14.599 -2.2321  0.1564 -1.0988
  770MPD2    N111427   4.358   2.761  14.892  0.0257  0.4215  0.2665
  770MPD2    H711428   4.357   2.711  14.981  1.2205  0.3179  0.2208
  771MPD2     C11429   1.038   1.176  13.648  0.1427  0.1588 -0.5933
  771MPD2    C111430   0.927   1.247  13.606  0.5337  0.7077 -0.6967
  771MPD2    C211431   0.807   1.172  13.594 -0.3266 -0.0669  0.1244
  771MPD2    C311432   0.805   1.036  13.591 -0.1233  0.0080  0.5154
  771MPD2    C411433   0.921   0.965  13.619 -0.1372  0.3662 -0.3160
  771MPD2    C511434   1.034   1.041  13.647  0.0557 -0.3455 -0.1026
  771MPD2     H11435   0.717   1.231  13.581  0.8405  0.8488 -3.9462
  771MPD2    H111436   0.926   0.858  13.605 -2.1892  0.5073 -2.1498
  771MPD2    H211437   1.133   1.218  13.677 -0.0755 -0.9797  1.7657
  771MPD2    H311438   1.129   0.992  13.664  0.1611  0.0775  0.5368
  771MPD2     N11439   0.683   0.986  13.553  0.2636  0.4052 -0.3377
  771MPD2    H511440   0.600   1.043  13.549  0.7456  1.0661 -0.8474
  771MPD2    N111441   0.927   1.387  13.597 -0.3281  0.0547  0.1987
  771MPD2    H711442   0.835   1.419  13.568  0.7408  0.7156 -2.4427
  772MPD2     C11443   0.424   1.886  13.477 -0.8051 -0.2457  0.0201
  772MPD2    C111444   0.473   1.768  13.530 -0.3720  0.6199  0.3595
  772MPD2    C211445   0.384   1.679  13.593  0.4085 -1.2032 -0.3270
  772MPD2    C311446   0.250   1.706  13.603  0.1526 -0.1774  0.6398
  772MPD2    C411447   0.199   1.817  13.541  0.4570 -0.5544 -0.3265
  772MPD2    C511448   0.287   1.898  13.477 -0.0151 -0.2673 -0.4671
  772MPD2     H11449   0.430   1.592  13.637  0.5154 -1.2584 -0.5518
  772MPD2    H111450   0.096   1.850  13.535 -0.0099 -1.7725  1.0264
  772MPD2    H211451   0.471   1.963  13.417 -1.0220  1.9198  2.6165
  772MPD2    H311452   0.244   1.984  13.428  0.2478 -0.1996 -0.5824
  772MPD2     N11453   0.166   1.623  13.680 -0.3180 -0.0022  0.3914
  772MPD2    H511454   0.084   1.665  13.723  0.6400  0.4818  1.7813
  772MPD2    N111455   0.607   1.722  13.506  0.7757 -0.2818  0.1141
  772MPD2    H711456   0.632   1.628  13.532  0.6871 -0.9384 -2.1991
  773MPD2     C11457   4.582   2.537  17.726 -0.1250 -0.0527 -0.1804
  773MPD2    C111458   4.532   2.414  17.698  0.6936  0.0371 -0.8105
  773MPD2    C211459   4.615   2.306  17.689  0.4404 -0.1025 -0.4508
  773MPD2    C311460   0.007   2.318  17.720 -0.2297 -0.0442 -0.3246
  773MPD2    C411461   0.057   2.439   0.002 -0.0747 -0.0050  0.7691
  773MPD2    C511462   4.713   2.548   0.002  0.3377  0.0940 -0.3736
  773MPD2     H11463   4.583   2.206  17.660  2.9556 -0.6798 -1.2825
  773MPD2    H111464   0.164   2.454   0.014 -0.1975  0.8819  0.7365
  773MPD2    H211465   4.522   2.627  17.719 -0.7375 -0.4211  0.2296
  773MPD2    H311466   0.010   2.649   0.024  2.1138 -0.3337 -1.1561
  773MPD2     N11467   0.088   2.198  17.705  0.2830 -0.1818  0.3513
  773MPD2    H511468   0.043   2.116  17.666 -1.1899  0.7616  0.0556
  773MPD2    N111469   4.397   2.397  17.659  0.7301  0.1740  0.9770
  773MPD2    H711470   4.373   2.304  17.626  1.6839  0.7026 -1.2226
  774MPD2     C11471   3.232   1.728  13.689 -0.1714  0.5866  0.2455
  774MPD2    C111472   3.365   1.743  13.705 -0.0909 -0.5721  0.0458
  774MPD2    C211473   3.433   1.863  13.665 -0.6073  0.5798 -0.0097
  774MPD2    C311474   3.368   1.951  13.576 -0.2349  0.5176  0.6207
  774MPD2    C411475   3.230   1.929  13.555 -0.2912 -0.2995  0.1469
  774MPD2    C511476   3.168   1.823  13.616  0.5358  0.1361 -0.0934
  774MPD2     H11477   3.536   1.881  13.693 -1.3290  2.4014  1.3876
  774MPD2    H111478   3.170   1.995  13.492  0.0637  1.1881  1.3718
  774MPD2    H211479   3.181   1.645  13.736 -0.3771  0.3039 -0.4640
  774MPD2    H311480   3.062   1.808  13.595  0.7456 -2.8074  0.8578
  774MPD2     N11481   3.433   2.064  13.530  0.4016 -0.0815  0.4316
  774MPD2    H511482   3.531   2.081  13.553  0.4013  0.7393 -0.1803
  774MPD2    N111483   3.434   1.625  13.759 -0.0179 -0.0154 -0.5562
  774MPD2    H711484   3.383   1.538  13.770 -0.7529  0.4761 -0.0547
  775MPD2     C11485   0.271   2.767  15.433 -0.4350  0.0508  0.2997
  775MPD2    C111486   0.275   2.868  15.528 -0.0981 -0.7975 -0.4565
  775MPD2    C211487   0.350   2.980  15.493  0.1969  0.3311  0.0372
  775MPD2    C311488   0.424   2.980  15.372  0.2226 -0.2091 -0.2100
  775MPD2    C411489   0.420   2.869  15.290 -0.0813 -0.7480 -0.4949
  775MPD2    C511490   0.346   2.764  15.323  0.2255  0.1344  1.0411
  775MPD2     H11491   0.360   3.063  15.563  0.5946  0.2505  0.0724
  775MPD2    H111492   0.463   2.871  15.191  1.7449 -2.6373  0.2525
  775MPD2    H211493   0.226   2.673  15.460  0.1869  0.6178  3.2548
  775MPD2    H311494   0.333   2.683  15.253 -0.6743  0.1431  1.1980
  775MPD2     N11495   0.494   3.096  15.329  0.2545  0.0211 -0.1267
  775MPD2    H511496   0.534   3.087  15.236  0.2869 -1.6628  0.0434
  775MPD2    N111497   0.196   2.854  15.644  0.4667 -0.3601 -0.2840
  775MPD2    H711498   0.143   2.768  15.653 -0.8306  0.3683 -0.9509
  776MPD2     C11499   3.476   3.595  11.424 -0.6169  0.0690 -0.1677
  776MPD2    C111500   3.579   3.546  11.351 -0.5286  1.0172  0.6636
  776MPD2    C211501   3.669   3.638  11.297 -0.3790 -0.1264 -0.4584
  776MPD2    C311502   3.649   3.777  11.295 -0.1529  0.8392  0.6048
  776MPD2    C411503   3.534   3.821  11.364 -0.1582 -0.1208 -0.0219
  776MPD2    C511504   3.464   3.729  11.435  0.1455 -0.3035 -0.4049
  776MPD2     H11505   3.764   3.607  11.254 -0.6551  0.5830 -1.5764
  776MPD2    H111506   3.510   3.926  11.377 -1.6273 -0.9949  4.2515
  776MPD2    H211507   3.408   3.531  11.478 -0.2339  1.2185  1.6804
  776MPD2    H311508   3.371   3.769  11.475 -0.5615  1.0180 -3.3206
  776MPD2     N11509   3.752   3.871  11.267 -0.1144 -0.1248 -0.3056
  776MPD2    H511510   3.736   3.967  11.296 -1.2282 -0.1842 -0.7190
  776MPD2    N111511   3.589   3.406  11.346  0.3095  0.5991  0.5683
  776MPD2    H711512   3.507   3.356  11.378 -0.6856  1.6958 -0.2465
  777MPD2     C11513   4.225   0.902   0.298 -0.1303 -0.8919  0.0908
  777MPD2    C111514   4.314   0.820   0.356 -0.6649  0.2193 -0.7526
  777MPD2    C211515   4.325   0.689   0.311 -0.3622 -0.2541  0.1114
  777MPD2    C311516   4.230   0.639   0.224 -0.0587  0.1082  0.5198
  777MPD2    C411517   4.147   0.732   0.161  0.2813 -0.4991  0.5239
  777MPD2    C511518   4.135   0.862   0.203 -0.1949 -0.0161 -0.6111
  777MPD2     H11519   4.396   0.621   0.356 -1.7197 -0.0621  2.5440
  777MPD2    H111520   4.087   0.695   0.080 -0.7846  1.5611  0.3841
  777MPD2    H211521   4.229   1.006   0.329  1.2162 -1.2654  1.2289
  777MPD2    H311522   4.068   0.929   0.151  0.6307  0.1881 -1.4295
  777MPD2     N11523   4.223   0.498   0.197  0.1514  0.1981  0.5267
  777MPD2    H511524   4.285   0.444   0.257  0.4711 -0.5995 -0.5375
  777MPD2    N111525   4.398   0.881   0.455 -0.3820  0.2440 -0.0877
  777MPD2    H711526   4.380   0.979   0.474 -3.3426  0.0904 -2.0879
  778MPD2     C11527   0.676   0.951  15.335 -0.5985  0.0745  0.0019
  778MPD2    C111528   0.625   0.914  15.208  0.4922 -0.6114 -0.0643
  778MPD2    C211529   0.650   0.989  15.095  0.4035 -0.0303 -0.4008
  778MPD2    C311530   0.731   1.102  15.109 -0.7837 -1.3197 -0.5437
  778MPD2    C411531   0.791   1.135  15.224 -0.3820  0.0777  0.2288
  778MPD2    C511532   0.763   1.062  15.340  0.5456  0.7464 -0.8374
  778MPD2     H11533   0.607   0.965  14.998 -2.1808  1.7431  0.3239
  778MPD2    H111534   0.863   1.216  15.229  0.0516 -0.3764  1.3393
  778MPD2    H211535   0.664   0.899  15.429  3.8980  0.9632  1.0474
  778MPD2    H311536   0.805   1.102  15.431  1.4490 -0.1823 -0.8501
  778MPD2     N11537   0.750   1.169  14.991 -0.1079 -1.1952 -0.3414
  778MPD2    H511538   0.725   1.121  14.905 -0.4080 -0.0383 -0.9062
  778MPD2    N111539   0.556   0.794  15.188  0.1266  0.3288 -0.0137
  778MPD2    H711540   0.532   0.774  15.092 -0.3153 -0.0441  0.1735
  779MPD2     C11541   0.482   4.517  14.015  0.1787  0.1288  0.1869
  779MPD2    C111542   0.618   4.521  14.032  0.2278 -0.0620 -0.1380
  779MPD2    C211543   0.682   4.617  13.959 -0.7965  0.0904  0.2105
  779MPD2    C311544   0.615   4.720  13.890 -0.1745  0.3464 -0.6651
  779MPD2    C411545   0.483   4.719  13.880 -0.1603  0.0474  0.2781
  779MPD2    C511546   0.420   4.609  13.936 -0.3345 -0.9057 -0.6668
  779MPD2     H11547   0.791   4.616  13.959 -0.7953 -0.0475  1.2648
  779MPD2    H111548   0.413   0.047  13.829 -1.6940 -1.5621  0.3150
  779MPD2    H211549   0.417   4.441  14.056  0.0909 -0.1153 -0.4004
  779MPD2    H311550   0.312   4.598  13.934 -0.6022  1.4222  1.1608
  779MPD2     N11551   0.694   0.082  13.824 -0.1564  0.2439 -0.2439
  779MPD2    H511552   0.788   0.091  13.862 -0.0391  0.1449 -0.5114
  779MPD2    N111553   0.687   4.426  14.111 -0.7803  0.1366 -0.2360
  779MPD2    H711554   0.782   4.403  14.082  0.0541  1.4382  1.4940
  780MPD2     C11555   0.623   4.314   0.588 -0.0917 -0.0899 -0.0351
  780MPD2    C111556   0.506   4.386   0.591 -0.1055  0.6691 -0.3432
  780MPD2    C211557   0.481   4.474   0.484  0.2622  0.8084 -0.2461
  780MPD2    C311558   0.578   4.506   0.391  0.3288  0.1368 -0.7681
  780MPD2    C411559   0.700   4.446   0.398  0.5023  0.4524 -0.2536
  780MPD2    C511560   0.717   4.357   0.499  0.9963  0.3188  0.3825
  780MPD2     H11561   0.380   4.509   0.465 -0.6194 -1.2420  0.6062
  780MPD2    H111562   0.780   4.468   0.329  0.8451 -0.2499 -0.0772
  780MPD2    H211563   0.646   4.237   0.661 -1.0621 -0.7469 -0.4228
  780MPD2    H311564   0.812   4.305   0.506  2.1869  2.4031 -0.3259
  780MPD2     N11565   0.551   4.599   0.287  0.3073  0.6942  0.4527
  780MPD2    H511566   0.453   4.628   0.290  0.3456  0.6260  2.2484
  780MPD2    N111567   0.414   4.352   0.689  0.0123  0.1595  0.1932
  780MPD2    H711568   0.434   4.265   0.738  5.3390  2.1230  1.4695
  781MPD2     C11569   1.684   1.153  11.898 -0.4455 -0.2117  0.3772
  781MPD2    C111570   1.739   1.271  11.956 -0.7561  0.0586  0.7404
  781MPD2    C211571   1.867   1.306  11.921  0.4500  0.2525  0.0898
  781MPD2    C311572   1.942   1.234  11.838 -0.6019  0.2320 -0.6718
  781MPD2    C411573   1.892   1.118  11.783 -0.2240  0.2866  0.4048
  781MPD2    C511574   1.766   1.081  11.813  0.8940  0.3657  0.0047
  781MPD2     H11575   1.913   1.400  11.951  1.6822 -0.3673  0.1308
  781MPD2    H111576   1.945   1.046  11.722 -0.5559 -0.2652  0.7676
  781MPD2    H211577   1.587   1.111  11.923 -0.2844 -1.6570 -1.4549
  781MPD2    H311578   1.730   0.990  11.767 -0.1001  1.0047 -0.4896
  781MPD2     N11579   2.072   1.273  11.799 -0.0250  0.4436 -0.4899
  781MPD2    H511580   2.115   1.231  11.716 -0.5964 -0.1852 -0.4697
  781MPD2    N111581   1.668   1.347  12.046  0.1618 -0.4076  0.3934
  781MPD2    H711582   1.719   1.425  12.086  0.2216 -0.1411 -0.2045
  782MPD2     C11583   4.715   2.046  10.130  0.5704  0.0498  1.2644
  782MPD2    C111584   4.700   2.059  10.267  0.0440 -0.0235 -0.3024
  782MPD2    C211585   4.625   2.163  10.310 -0.6639 -0.1314  0.8290
  782MPD2    C311586   4.583   2.262  10.222  0.1313 -1.2813  0.2522
  782MPD2    C411587   4.611   2.255  10.088 -0.7216  0.4219 -0.7448
  782MPD2    C511588   4.664   2.133  10.043  0.5575  0.1084 -0.4464
  782MPD2     H11589   4.611   2.160  10.418 -1.2375  2.4396  0.8273
  782MPD2    H111590   4.611   2.344  10.026 -1.2758 -0.2191 -1.6587
  782MPD2    H211591   0.033   1.962  10.089 -1.3263 -0.8652  0.5890
  782MPD2    H311592   4.695   2.123   9.940 -1.7801 -0.6166 -1.0574
  782MPD2     N11593   4.550   2.396  10.267  0.4728 -0.0102  0.0566
  782MPD2    H511594   4.561   2.477  10.206  0.5655  0.2532  0.4235
  782MPD2    N111595   0.008   1.955  10.350  0.8442 -0.4300  0.1419
  782MPD2    H711596   0.062   1.876  10.317  1.9429  0.9753 -1.4304
  783MPD2     C11597   4.393   1.762  11.270  0.3592  0.0042  0.4893
  783MPD2    C111598   4.458   1.873  11.219  0.2214 -0.3408 -0.5958
  783MPD2    C211599   4.527   1.861  11.105  0.1856 -0.3196 -0.1830
  783MPD2    C311600   4.552   1.739  11.039  0.5133 -0.3156  0.4181
  783MPD2    C411601   4.501   1.623  11.100  0.3714 -1.1654 -0.2919
  783MPD2    C511602   4.427   1.634  11.211 -0.0962 -0.4282 -0.3585
  783MPD2     H11603   4.565   1.951  11.057 -0.4331 -0.8175 -1.6059
  783MPD2    H111604   4.525   1.527  11.056  0.9693 -1.9553  1.7893
  783MPD2    H211605   4.330   1.767  11.359 -0.8991 -0.3367 -0.3843
  783MPD2    H311606   4.389   1.545  11.260  1.3643 -1.1311 -0.4853
  783MPD2     N11607   4.630   1.738  10.919  0.6042  0.4494 -0.4621
  783MPD2    H511608   4.649   1.827  10.874  2.4534  1.5217  2.4692
  783MPD2    N111609   4.432   1.996  11.295  0.1958 -0.1383  0.9650
  783MPD2    H711610   4.360   1.991  11.367  0.8804  1.1730  1.7376
  784MPD2     C11611   2.450   2.427   0.209  0.5300 -0.8031  0.5527
  784MPD2    C111612   2.475   2.493   0.329  0.3026 -0.6696  0.3451
  784MPD2    C211613   2.383   2.593   0.364  0.7750 -0.2252  0.1381
  784MPD2    C311614   2.272   2.626   0.287 -0.0746  0.2227 -0.4606
  784MPD2    C411615   2.262   2.556   0.167  0.3515 -0.0780 -0.3889
  784MPD2    C511616   2.350   2.467   0.129 -0.3241 -0.2829 -0.6000
  784MPD2     H11617   2.412   2.643   0.456  2.2218  1.1228 -1.0447
  784MPD2    H111618   2.176   2.567   0.101 -1.1485 -0.0636  1.5722
  784MPD2    H211619   2.514   2.344   0.181 -0.2553 -0.4346 -2.3650
  784MPD2    H311620   2.334   2.421   0.032  2.0639 -1.4880 -0.4296
  784MPD2     N11621   2.192   2.735   0.327 -0.2865 -0.3233 -0.2038
  784MPD2    H511622   2.214   2.800   0.402  0.6209  0.8932 -1.5313
  784MPD2    N111623   2.578   2.459   0.424 -0.3600 -0.3185 -0.0557
  784MPD2    H711624   2.591   2.520   0.503  1.9379  0.7813 -1.2975
  785MPD2     C11625   3.191   1.535  10.588  0.3964  0.2968 -0.0131
  785MPD2    C111626   3.118   1.619  10.668  0.0526 -0.0170  1.2621
  785MPD2    C211627   3.002   1.572  10.720 -0.8322  0.0935  0.6739
  785MPD2    C311628   2.949   1.444  10.685 -0.8359 -0.9733  0.3741
  785MPD2    C411629   3.022   1.361  10.603  0.5742 -0.1904  0.0316
  785MPD2    C511630   3.141   1.411  10.548 -0.6469 -0.3419 -0.2316
  785MPD2     H11631   2.932   1.627  10.782 -0.8083  0.1258  0.6718
  785MPD2    H111632   2.993   1.264  10.565 -0.6107 -0.8733  2.6785
  785MPD2    H211633   3.277   1.576  10.536  1.6753 -1.1134  1.0026
  785MPD2    H311634   3.194   1.346  10.480  2.3177  0.0535  1.7157
  785MPD2     N11635   2.820   1.421  10.740  0.4013 -0.8493 -0.0084
  785MPD2    H511636   2.778   1.491  10.800  0.7366  0.6333 -1.5045
  785MPD2    N111637   3.181   1.742  10.702 -0.4210 -0.4063  0.0039
  785MPD2    H711638   3.277   1.751  10.671 -0.1257  0.2299  1.1366
  786MPD2     C11639   1.211   3.757  14.418 -0.1028  0.0499 -0.7352
  786MPD2    C111640   1.197   3.653  14.504 -0.1771  0.1788  0.2526
  786MPD2    C211641   1.226   3.675  14.637  0.1585  0.1559 -0.1416
  786MPD2    C311642   1.259   3.798  14.686 -0.0166  0.6151  0.1286
  786MPD2    C411643   1.263   3.903  14.596  0.5742 -0.3466  0.0337
  786MPD2    C511644   1.241   3.885  14.466  0.2239  0.2145  0.4152
  786MPD2     H11645   1.215   3.596  14.710  0.2650  0.7313  0.4926
  786MPD2    H111646   1.296   4.001  14.628 -0.0481  0.1877 -0.9276
  786MPD2    H211647   1.203   3.750  14.311 -1.2086  0.3205 -0.6806
  786MPD2    H311648   1.255   3.969  14.399 -1.6732  0.2860  0.1145
  786MPD2     N11649   1.303   3.828  14.826 -0.0674  0.1681 -0.2916
  786MPD2    H511650   1.335   3.921  14.850 -1.4557  1.0571 -1.9067
  786MPD2    N111651   1.155   3.525  14.457  0.0921  0.0757  0.4019
  786MPD2    H711652   1.151   3.458  14.533  1.1621  0.1105  0.4950
  787MPD2     C11653   1.212   2.717  14.104 -0.0175 -0.0215 -0.5443
  787MPD2    C111654   1.280   2.799  14.190 -0.0712  0.2148 -0.0555
  787MPD2    C211655   1.400   2.757  14.247  0.5162 -0.4237  0.2180
  787MPD2    C311656   1.451   2.633  14.213 -0.2466 -0.3101  0.5983
  787MPD2    C411657   1.386   2.561  14.116  0.5426  0.1899 -0.2194
  787MPD2    C511658   1.265   2.600  14.070 -0.0527  0.2563 -0.9115
  787MPD2     H11659   1.440   2.826  14.320  2.0839 -0.1456 -0.9150
  787MPD2    H111660   1.427   2.471  14.072 -0.1227 -0.2459  0.0528
  787MPD2    H211661   1.129   2.753  14.044 -1.1051  1.8850  2.0659
  787MPD2    H311662   1.221   2.532  13.998 -2.5717  0.5129  0.3661
  787MPD2     N11663   1.582   2.588  14.266  0.2550  0.4833 -0.6570
  787MPD2    H511664   1.636   2.653  14.321  1.8382 -0.4707 -1.0783
  787MPD2    N111665   1.211   2.918  14.213  0.3599  0.7114  0.2898
  787MPD2    H711666   1.116   2.919  14.176  0.6230 -1.9135 -0.4899
  788MPD2     C11667   3.343   2.017   0.692 -0.3972 -0.4276 -0.4690
  788MPD2    C111668   3.257   1.991   0.589 -0.1759  0.0280  0.0818
  788MPD2    C211669   3.214   2.100   0.513  0.5245  0.1090 -0.6148
  788MPD2    C311670   3.272   2.222   0.534  0.1947  0.3713 -0.5736
  788MPD2    C411671   3.352   2.247   0.643  0.1189 -0.0132  0.3058
  788MPD2    C511672   3.391   2.140   0.723  0.5804 -0.8788 -0.0601
  788MPD2     H11673   3.149   2.080   0.429  0.6953 -3.4965  0.0796
  788MPD2    H111674   3.387   2.348   0.662  1.5737 -0.8096  1.8801
  788MPD2    H211675   3.383   1.933   0.747 -1.6947 -0.0410  1.0727
  788MPD2    H311676   3.448   2.164   0.811  0.8330 -0.1544 -0.4244
  788MPD2     N11677   3.257   2.325   0.446 -0.5668 -0.2390 -0.8351
  788MPD2    H511678   3.317   2.404   0.467 -1.7999 -0.6375  4.1570
  788MPD2    N111679   3.216   1.864   0.542 -0.4975  0.0937 -0.4155
  788MPD2    H711680   3.147   1.873   0.468 -1.3472  0.5826  0.4458
  789MPD2     C11681   3.518   1.361  16.822  0.3937 -0.0825  0.2992
  789MPD2    C111682   3.432   1.286  16.743 -0.1740  0.1643 -0.5732
  789MPD2    C211683   3.311   1.344  16.712 -0.3505  0.0140 -0.4166
  789MPD2    C311684   3.287   1.477  16.734 -0.8789 -0.2502 -0.1040
  789MPD2    C411685   3.369   1.547  16.818 -0.4058  0.0372 -0.0020
  789MPD2    C511686   3.481   1.487  16.860 -0.3830  0.5696 -0.8158
  789MPD2     H11687   3.230   1.294  16.659 -0.8177 -2.4489  2.6461
  789MPD2    H111688   3.353   1.653  16.832 -0.7020  0.3801 -3.0137
  789MPD2    H211689   3.619   1.324  16.840  0.4962 -0.1539 -0.4214
  789MPD2    H311690   3.554   1.544  16.917  2.0594 -2.9756 -0.3896
  789MPD2     N11691   3.168   1.545  16.693  0.6720  0.1195  0.3674
  789MPD2    H511692   3.151   1.641  16.722 -0.9490 -0.8515  2.6135
  789MPD2    N111693   3.442   1.146  16.710 -0.4740  0.0528  0.5554
  789MPD2    H711694   3.369   1.106  16.652  1.2146 -4.1448  1.3486
  790MPD2     C11695   0.184   3.651  13.431 -0.0880 -0.0716  0.6329
  790MPD2    C111696   0.105   3.541  13.442 -0.5408 -0.4170 -0.0844
  790MPD2    C211697   0.041   3.483  13.337  0.2849  0.3250 -0.5405
  790MPD2    C311698   0.052   3.548  13.217  0.1994  0.1866 -0.1987
  790MPD2    C411699   0.128   3.662  13.207 -0.0532  0.0613  0.4689
  790MPD2    C511700   0.192   3.720  13.314 -0.1197  0.3121  1.0294
  790MPD2     H11701   4.732   3.386  13.349 -1.0101  0.8250 -1.3978
  790MPD2    H111702   0.136   3.714  13.112  1.4935 -3.5178 -1.4091
  790MPD2    H211703   0.212   3.700  13.524  2.1103  0.7700 -0.5003
  790MPD2    H311704   0.251   3.811  13.312  2.3698 -1.3934 -1.8731
  790MPD2     N11705   4.727   3.495  13.104 -1.2799 -0.1442  0.1029
  790MPD2    H511706   4.660   3.421  13.120  0.0719 -0.9127  2.2350
  790MPD2    N111707   0.096   3.488  13.567 -0.1452  0.1267 -0.1414
  790MPD2    H711708   0.136   3.544  13.641  0.7931 -1.0946  0.2792
  791MPD2     C11709   4.108   3.611  13.006  0.4385  0.5072  0.1254
  791MPD2    C111710   4.143   3.500  12.930 -0.1514 -0.8272 -0.6001
  791MPD2    C211711   4.047   3.404  12.894  0.1715  0.0167  0.3550
  791MPD2    C311712   3.916   3.439  12.918  0.5572  0.4676 -0.0659
  791MPD2    C411713   3.878   3.554  12.982 -0.2645 -0.9419 -0.0588
  791MPD2    C511714   3.973   3.642  13.031 -0.0978  0.2086  0.5785
  791MPD2     H11715   4.062   3.319  12.828  2.5120  0.1659  0.6800
  791MPD2    H111716   3.774   3.579  13.000 -0.7313 -2.1469 -1.0644
  791MPD2    H211717   4.182   3.680  13.046  2.4606 -1.4210 -0.2962
  791MPD2    H311718   3.943   3.736  13.075 -0.4192 -0.2032  1.2374
  791MPD2     N11719   3.814   3.353  12.870 -0.0554  0.1948 -0.5458
  791MPD2    H511720   3.838   3.257  12.848 -0.8210  0.0209 -0.6080
  791MPD2    N111721   4.284   3.481  12.900 -0.1705  0.0701  0.0105
  791MPD2    H711722   4.352   3.545  12.939 -0.4378  0.0824  0.4550
  792MPD2     C11723   4.454   3.541  11.030 -0.1489 -0.3984 -0.5205
  792MPD2    C111724   4.427   3.533  10.897  0.0699 -0.2721  0.0287
  792MPD2    C211725   4.296   3.554  10.857 -0.1857 -0.2315 -0.2383
  792MPD2    C311726   4.198   3.564  10.950 -0.0193 -0.7364 -0.0216
  792MPD2    C411727   4.225   3.550  11.083 -0.5208 -0.2222  0.6162
  792MPD2    C511728   4.353   3.536  11.120 -0.0879 -0.0603 -0.0358
  792MPD2     H11729   4.278   3.557  10.750  0.1989 -0.2280 -0.3051
  792MPD2    H111730   4.146   3.555  11.158  1.7361  4.1935  2.7025
  792MPD2    H211731   4.554   3.525  11.068 -0.4101  0.0534  0.3577
  792MPD2    H311732   4.382   3.521  11.224 -1.6390 -0.0699  0.3964
  792MPD2     N11733   4.061   3.573  10.919 -0.5175 -1.0338  0.6418
  792MPD2    H511734   4.001   3.579  11.001 -1.4250 -1.5706  0.0125
  792MPD2    N111735   4.530   3.497  10.807  0.6704  0.1797 -0.0197
  792MPD2    H711736   4.626   3.496  10.841  0.9364  1.9587 -0.6908
  793MPD2     C11737   3.686   3.220  10.150  0.0914 -0.3025 -0.2011
  793MPD2    C111738   3.810   3.236  10.206 -0.5332  0.3724 -0.0905
  793MPD2    C211739   3.816   3.315  10.325  0.3934  0.5437 -0.0223
  793MPD2    C311740   3.708   3.383  10.376  0.5538  0.3811 -0.1779
  793MPD2    C411741   3.586   3.371  10.306  0.0239  0.2691 -0.3256
  793MPD2    C511742   3.574   3.292  10.195  0.3005 -0.2379 -0.1496
  793MPD2     H11743   3.915   3.328  10.367  1.1700  0.0889 -1.7114
  793MPD2    H111744   3.497   3.430  10.326  0.2231  0.4233  0.0941
  793MPD2    H211745   3.680   3.147  10.070  1.6398  0.6117 -1.1399
  793MPD2    H311746   3.476   3.267  10.158  0.4994  0.5973 -1.2313
  793MPD2     N11747   3.731   3.466  10.485 -0.1596  0.6442 -0.1090
  793MPD2    H511748   3.824   3.468  10.525  0.3513 -0.6224 -1.2540
  793MPD2    N111749   3.927   3.177  10.154  0.5594 -0.4215 -0.0016
  793MPD2    H711750   4.012   3.180  10.210  1.1326 -1.0119 -0.8344
  794MPD2     C11751   3.811   2.793  17.175 -0.0364  0.4399 -0.0518
  794MPD2    C111752   3.815   2.656  17.151 -0.9285  0.1370 -0.1365
  794MPD2    C211753   3.761   2.602  17.037  0.7971 -0.0427  0.1140
  794MPD2    C311754   3.725   2.691  16.936  0.8186 -0.7533 -0.1992
  794MPD2    C411755   3.725   2.829  16.964 -0.1922 -0.0366 -0.7356
  794MPD2    C511756   3.761   2.883  17.081  1.1588 -0.2425  0.6047
  794MPD2     H11757   3.770   2.495  17.022  0.8518 -0.1230  0.7142
  794MPD2    H111758   3.708   2.899  16.883 -0.1124  1.2080  0.3231
  794MPD2    H211759   3.855   2.838  17.263 -0.0281 -1.7042  1.0401
  794MPD2    H311760   3.750   2.988  17.107  1.2329 -0.2361  0.6118
  794MPD2     N11761   3.688   2.654  16.806  0.0266  0.4311  0.9491
  794MPD2    H511762   3.648   2.727  16.748 -0.0771  0.4814  1.0822
  794MPD2    N111763   3.865   2.570  17.247 -0.0073  0.2731  0.0211
  794MPD2    H711764   3.865   2.472  17.221  1.9699  0.6808 -1.5490
  795MPD2     C11765   1.992   0.243  13.782 -0.0804 -0.2080 -0.0797
  795MPD2    C111766   1.967   0.132  13.703 -0.4491  0.4109  0.0132
  795MPD2    C211767   2.029   0.008  13.735 -0.5213 -0.3925  0.2792
  795MPD2    C311768   2.107   4.733  13.849  0.6497 -0.0793 -0.6461
  795MPD2    C411769   2.125   0.108  13.930 -0.3168  0.1670 -0.2673
  795MPD2    C511770   2.077   0.225  13.888  0.2776 -0.3941  0.1147
  795MPD2     H11771   2.008   4.660  13.672 -0.4147 -0.4811  0.3638
  795MPD2    H111772   2.182   0.109  14.022 -0.7445  0.5182 -0.0056
  795MPD2    H211773   1.961   0.344  13.761 -0.8174 -0.2081  1.0334
  795MPD2    H311774   2.099   0.315  13.944  0.6228 -0.2655 -0.2277
  795MPD2     N11775   2.166   4.609  13.872 -0.0814  0.3984 -0.4402
  795MPD2    H511776   2.144   4.533  13.808  0.1022 -1.4794  1.7081
  795MPD2    N111777   1.882   0.145  13.586  0.1203 -0.1972  0.0132
  795MPD2    H711778   1.857   0.060  13.537  1.4233 -0.7181  0.2444
  796MPD2     C11779   1.337   1.536  15.643  0.0463 -0.3467 -0.3573
  796MPD2    C111780   1.296   1.615  15.756  0.2742 -0.0256  0.2161
  796MPD2    C211781   1.248   1.741  15.729  0.1775 -0.2816  0.2101
  796MPD2    C311782   1.248   1.793  15.603  0.8791  0.0417  0.3600
  796MPD2    C411783   1.281   1.711  15.498  0.3051 -0.6019 -0.3907
  796MPD2    C511784   1.331   1.585  15.517  0.0885  0.2936  0.1538
  796MPD2     H11785   1.218   1.805  15.811 -0.2413  1.0920 -0.9959
  796MPD2    H111786   1.252   1.741  15.399  1.1647 -0.2290 -0.5306
  796MPD2    H211787   1.364   1.431  15.650 -0.4424 -0.5334 -1.3239
  796MPD2    H311788   1.356   1.518  15.436  0.3481 -0.0782  0.5412
  796MPD2     N11789   1.199   1.921  15.586 -0.0327  0.5711  0.3959
  796MPD2    H511790   1.170   1.971  15.670  4.5692 -0.3878  2.5789
  796MPD2    N111791   1.310   1.548  15.886  0.0185  0.2148  0.4531
  796MPD2    H711792   1.349   1.454  15.887  0.2046  0.2586 -2.3050
  797MPD2     C11793   2.525   0.979  17.316  0.5681  0.3990  0.0061
  797MPD2    C111794   2.517   1.107  17.272  0.0626 -0.0737  0.7221
  797MPD2    C211795   2.397   1.163  17.246  0.5801 -0.3137 -0.2647
  797MPD2    C311796   2.279   1.093  17.261  0.0887 -0.1578  0.0311
  797MPD2    C411797   2.285   0.967  17.305 -0.5603  0.0460 -0.2398
  797MPD2    C511798   2.406   0.911  17.336  0.0933  0.2008  0.0198
  797MPD2     H11799   2.400   1.264  17.206  2.4349  0.3356  1.4670
  797MPD2    H111800   2.186   0.923  17.309 -0.8782  0.6414 -1.3438
  797MPD2    H211801   2.624   0.937  17.334  0.4511  0.8469  1.7650
  797MPD2    H311802   2.407   0.807  17.367  3.5152  0.7146  1.5571
  797MPD2     N11803   2.157   1.153  17.236 -0.2959 -0.7946  0.4670
  797MPD2    H511804   2.071   1.101  17.222 -0.9951 -0.1800  2.4842
  797MPD2    N111805   2.629   1.191  17.271 -0.1636 -0.2482  0.4231
  797MPD2    H711806   2.628   1.276  17.215  2.3003 -1.6334 -1.7176
  798MPD2     C11807   2.274   1.838  17.209  0.4676  0.6322 -0.0207
  798MPD2    C111808   2.274   1.707  17.217 -0.0271  0.1501 -0.6317
  798MPD2    C211809   2.389   1.635  17.235 -0.6934  0.0206  0.3767
  798MPD2    C311810   2.511   1.693  17.233  0.3635  0.3081  0.4860
  798MPD2    C411811   2.514   1.823  17.196  0.3766 -0.5168 -0.3676
  798MPD2    C511812   2.396   1.898  17.188 -0.1661  0.3900 -0.2586
  798MPD2     H11813   2.379   1.529  17.252 -0.1657 -0.0702  0.0976
  798MPD2    H111814   2.611   1.867  17.181  0.7463 -0.7129  1.5524
  798MPD2    H211815   2.187   1.903  17.208  0.9050  1.2570  1.6990
  798MPD2    H311816   2.400   2.006  17.175  0.6355  0.5878  1.5860
  798MPD2     N11817   2.620   1.614  17.263 -0.3930  0.0777  0.6799
  798MPD2    H511818   2.607   1.513  17.265 -0.7185  0.1393  1.7971
  798MPD2    N111819   2.154   1.629  17.223  0.2781 -0.3585  0.3421
  798MPD2    H711820   2.167   1.530  17.240  0.3441 -0.1573  1.4223
  799MPD2     C11821   1.744   2.767  13.801  0.3349  0.1695  0.5557
  799MPD2    C111822   1.612   2.725  13.780 -0.2184  0.5749  0.1226
  799MPD2    C211823   1.526   2.806  13.710 -0.3169  0.4097  0.0912
  799MPD2    C311824   1.563   2.936  13.667  0.5830 -0.7962 -0.0095
  799MPD2    C411825   1.682   2.981  13.713  0.9089 -0.3155  0.3277
  799MPD2    C511826   1.776   2.898  13.768  0.2700  0.0412 -0.5096
  799MPD2     H11827   1.427   2.764  13.698  0.0840 -1.3580  2.9262
  799MPD2    H111828   1.699   3.088  13.706 -0.3351 -0.0599  1.0607
  799MPD2    H211829   1.825   2.715  13.852 -0.5209 -0.0823  1.6434
  799MPD2    H311830   1.869   2.943  13.800  0.2241 -0.9818  1.0259
  799MPD2     N11831   1.475   3.026  13.605  0.0035  0.5712 -0.3886
  799MPD2    H511832   1.513   3.118  13.583 -1.0352  0.6997 -1.6895
  799MPD2    N111833   1.557   2.597  13.814  0.2660 -0.3238 -0.8521
  799MPD2    H711834   1.467   2.574  13.774 -0.1475  0.4323 -0.3664
  800MPD2     C11835   1.864   3.981  13.171  0.3722  0.3663  0.4811
  800MPD2    C111836   1.940   3.925  13.278 -0.2546 -0.1107  0.5176
  800MPD2    C211837   2.057   3.859  13.238  0.0041  0.5839 -0.5508
  800MPD2    C311838   2.108   3.865  13.105  0.5067  0.2751  0.9088
  800MPD2    C411839   2.039   3.923  13.008  0.1153  0.2487  0.4785
  800MPD2    C511840   1.918   3.981  13.041  0.1121  0.1053  0.2133
  800MPD2     H11841   2.122   3.821  13.316  0.1224 -2.9854 -2.3995
  800MPD2    H111842   2.074   3.935  12.905 -2.3132  0.5447 -0.3077
  800MPD2    H211843   1.764   4.017  13.187 -0.1919 -0.8255 -0.3749
  800MPD2    H311844   1.871   4.033  12.959  1.4370 -0.3083 -0.8145
  800MPD2     N11845   2.241   3.819  13.091  0.2288 -0.3960 -0.4054
  800MPD2    H511846   2.297   3.771  13.160 -0.8016 -1.3859 -0.2684
  800MPD2    N111847   1.889   3.931  13.416  0.6946 -0.2215  0.4368
  800MPD2    H711848   1.820   4.005  13.427  0.2930 -0.6122  0.5748
  801MPD2     C11849   1.887   4.401  13.983  0.1367  0.1494  0.2476
  801MPD2    C111850   1.910   4.275  14.038  0.1457  0.6567  0.1465
  801MPD2    C211851   1.941   4.282  14.173  0.0051 -1.0396 -0.4379
  801MPD2    C311852   1.954   4.396  14.242  0.2282 -0.2976 -0.1098
  801MPD2    C411853   1.946   4.517  14.178  0.2457 -0.1718  0.1209
  801MPD2    C511854   1.919   4.521  14.048 -0.3582 -0.6108  0.4582
  801MPD2     H11855   1.934   4.189  14.229  0.7121 -0.5567  0.4466
  801MPD2    H111856   1.961   4.613  14.227 -1.0419  0.7604 -1.2664
  801MPD2    H211857   1.866   4.410  13.877  1.1935  0.3017  0.0439
  801MPD2    H311858   1.928   4.616  13.997 -0.1609  0.3606  2.3104
  801MPD2     N11859   1.945   4.399  14.384  0.3781  0.2205 -0.5778
  801MPD2    H511860   1.894   4.480  14.417 -1.2886  0.1423 -2.9671
  801MPD2    N111861   1.885   4.149  13.985  0.1747  0.1477  0.0838
  801MPD2    H711862   1.897   4.071  14.047  0.1052  1.2313  1.4550
  802MPD2     C11863   0.875   0.415  17.236  0.7802  0.6287 -0.3104
  802MPD2    C111864   0.959   0.415  17.343  1.1128  0.1161  0.0728
  802MPD2    C211865   1.036   0.299  17.373 -0.5698 -0.0807  0.7306
  802MPD2    C311866   1.011   0.183  17.302  0.5387  0.0413 -0.4178
  802MPD2    C411867   0.913   0.182  17.202  0.2761  0.1347  0.0731
  802MPD2    C511868   0.839   0.297  17.173  0.1142 -0.2354  0.0928
  802MPD2     H11869   1.111   0.302  17.451  2.3337 -1.2169 -1.9780
  802MPD2    H111870   0.900   0.097  17.136  0.3662 -0.7906  1.2434
  802MPD2    H211871   0.805   0.494  17.213  1.2156  1.3500  0.7980
  802MPD2    H311872   0.769   0.292  17.091  1.4078  0.4554 -1.0491
  802MPD2     N11873   1.092   0.065  17.324 -0.2708 -0.4181 -0.1984
  802MPD2    H511874   1.175   0.072  17.384 -1.4710 -0.9373  1.5252
  802MPD2    N111875   0.976   0.534  17.421  0.4701 -0.6662  0.2557
  802MPD2    H711876   1.031   0.535  17.506 -0.2581  0.6746  0.6997
  803MPD2     C11877   2.403   3.735  11.449 -0.0649  0.2761 -0.0574
  803MPD2    C111878   2.493   3.837  11.477  0.3085 -0.1428 -0.6659
  803MPD2    C211879   2.567   3.808  11.592 -0.1597 -0.1158 -0.1582
  803MPD2    C311880   2.544   3.693  11.674  0.7968  0.0023  0.6294
  803MPD2    C411881   2.454   3.601  11.629  1.0102 -0.3373  0.5311
  803MPD2    C511882   2.378   3.624  11.521 -0.0215  0.1717  0.1115
  803MPD2     H11883   2.661   3.861  11.607  0.0107 -0.6682  0.7375
  803MPD2    H111884   2.431   3.513  11.688 -0.4412  1.5862  2.8225
  803MPD2    H211885   2.343   3.756  11.361  0.4130 -0.4145 -0.5565
  803MPD2    H311886   2.290   3.563  11.506 -0.9197  1.1170  1.6242
  803MPD2     N11887   2.621   3.656  11.790  0.4911 -0.6466  0.4679
  803MPD2    H511888   2.600   3.570  11.841 -0.9660 -0.3286  0.3866
  803MPD2    N111889   2.511   3.956  11.405 -0.2713 -0.4292 -0.5268
  803MPD2    H711890   2.576   4.021  11.448 -0.0741  0.5513 -2.2935
  804MPD2     C11891   2.000   4.596  16.893  0.5244  0.1413  0.0028
  804MPD2    C111892   2.046   4.542  17.015 -0.2855 -0.8555 -0.1673
  804MPD2    C211893   2.114   4.621  17.100 -0.4337  0.4197  0.0162
  804MPD2    C311894   2.141   0.008  17.061  0.0931 -0.1962  0.4182
  804MPD2    C411895   2.108   0.059  16.939 -0.4249  0.5997 -0.0807
  804MPD2    C511896   2.040   4.724  16.854  0.3951  0.8563 -0.3542
  804MPD2     H11897   2.154   4.581  17.193  0.6995 -1.2581 -1.1780
  804MPD2    H111898   2.137   0.157  16.903 -0.4331  0.7663  0.3667
  804MPD2    H211899   1.939   4.544  16.821  3.1075 -0.6295 -1.6112
  804MPD2    H311900   2.017   0.028  16.756  1.2359 -0.0587 -0.9443
  804MPD2     N11901   2.224   0.076  17.154  0.1158  0.6964  0.4622
  804MPD2    H511902   2.258   0.026  17.236 -0.2581 -0.0377  0.1671
  804MPD2    N111903   2.015   4.413  17.065 -0.7394 -0.7634 -0.1023
  804MPD2    H711904   2.036   4.400  17.163 -1.2298  2.1755  0.3782
  805MPD2     C11905   0.886   2.932  15.001  0.2141  0.3208 -0.7026
  805MPD2    C111906   1.004   2.968  14.941  0.3319  0.1868 -0.2292
  805MPD2    C211907   1.080   3.073  14.993 -0.2293 -0.4338  1.0856
  805MPD2    C311908   1.068   3.101  15.124  0.4539 -0.4947 -0.9101
  805MPD2    C411909   0.959   3.054  15.198 -0.0431  0.0097 -0.0958
  805MPD2    C511910   0.864   2.981  15.129 -0.1480  0.1667 -0.4254
  805MPD2     H11911   1.167   3.118  14.947 -0.0119  0.8036  2.6946
  805MPD2    H111912   0.943   3.070  15.304 -0.7707 -2.1996  0.1215
  805MPD2    H211913   0.806   2.873  14.958 -1.1506  0.8499  1.1089
  805MPD2    H311914   0.775   2.948  15.180  2.0245 -1.2957  2.4004
  805MPD2     N11915   1.172   3.175  15.180  0.0495 -0.2631 -0.3076
  805MPD2    H511916   1.246   3.195  15.114  0.4428  2.0997  0.8239
  805MPD2    N111917   1.045   2.909  14.817  0.3120  0.4554  0.0168
  805MPD2    H711918   1.134   2.945  14.783  1.0345  0.0176  1.4291
  806MPD2     C11919   1.579   2.530  17.665  0.2204  0.0581  1.1188
  806MPD2    C111920   1.560   2.622   0.021  1.2803  0.6718 -0.3888
  806MPD2    C211921   1.581   2.759  17.746  0.2366  0.5513  0.5071
  806MPD2    C311922   1.629   2.796  17.617  0.6314  0.6300  0.1047
  806MPD2    C411923   1.632   2.702  17.515  0.5382  0.3729 -0.4773
  806MPD2    C511924   1.617   2.567  17.541  0.5502 -0.3706 -0.1854
  806MPD2     H11925   1.561   2.836   0.073  0.2524  2.3547 -1.3703
  806MPD2    H111926   1.660   2.723  17.412  1.9644  2.2783  0.2892
  806MPD2    H211927   1.560   2.425  17.681  0.9753 -0.2622 -0.0600
  806MPD2    H311928   1.631   2.495  17.462  2.2006  0.7284 -0.8859
  806MPD2     N11929   1.678   2.923  17.609 -0.0888  0.2772  0.2663
  806MPD2    H511930   1.678   2.978  17.694  0.6677 -0.7039  0.9039
  806MPD2    N111931   1.508   2.564   0.136 -0.4981 -0.3233 -0.1699
  806MPD2    H711932   1.505   2.463   0.142 -0.8526 -0.3155 -0.2076
  807MPD2     C11933   1.217   1.945   0.497  0.2898 -0.7319  0.6644
  807MPD2    C111934   1.183   2.054   0.590  0.0646  0.4154 -0.0575
  807MPD2    C211935   1.102   2.021   0.700 -0.3129  0.6819  0.5784
  807MPD2    C311936   1.050   1.888   0.718 -0.4008  0.2992  1.0053
  807MPD2    C411937   1.104   1.786   0.640 -0.2962  0.0828 -0.4026
  807MPD2    C511938   1.179   1.818   0.530 -0.8746  0.0962 -0.5128
  807MPD2     H11939   1.077   2.098   0.772  1.5293  1.9364 -0.1230
  807MPD2    H111940   1.088   1.681   0.660  2.2769 -0.4188 -0.9156
  807MPD2    H211941   1.277   1.954   0.408 -1.0439  0.3780 -0.1237
  807MPD2    H311942   1.213   1.742   0.461  1.3074  2.3669 -1.9193
  807MPD2     N11943   0.977   1.864   0.843 -0.0222  0.2925 -0.5210
  807MPD2    H511944   0.948   1.946   0.895 -1.2424 -0.2161 -0.3944
  807MPD2    N111945   1.229   2.191   0.580 -0.2577 -0.9794  0.8723
  807MPD2    H711946   1.220   2.254   0.658  0.2903 -0.7649  0.7602
  808MPD2     C11947   1.865   3.937   9.014  0.0247 -0.3426 -0.2934
  808MPD2    C111948   1.895   3.990   9.142 -0.2059  0.8973 -0.2065
  808MPD2    C211949   1.957   4.114   9.150 -0.2011  0.3974 -0.1318
  808MPD2    C311950   1.998   4.173   9.037 -0.6516 -1.3892  0.1540
  808MPD2    C411951   1.974   4.122   8.913  0.4942  0.0621  0.3887
  808MPD2    C511952   1.907   4.001   8.899  0.5108 -0.7344 -0.2453
  808MPD2     H11953   1.970   4.158   9.248 -2.0028  0.5497  0.0428
  808MPD2    H111954   2.008   4.169   8.821  1.5484 -0.8532  0.3037
  808MPD2    H211955   1.803   3.849   8.996  0.0594 -0.2937 -0.6574
  808MPD2    H311956   1.879   3.958   8.803 -1.7992 -1.6793  0.8499
  808MPD2     N11957   2.082   4.287   9.039  0.1411 -0.1681 -0.2540
  808MPD2    H511958   2.125   4.317   8.953 -1.0941  1.5068 -0.2912
  808MPD2    N111959   1.864   3.917   9.257 -0.3147  1.4078 -0.0594
  808MPD2    H711960   1.870   3.965   9.346 -0.7998  1.3533  0.0056
  809MPD2     C11961   2.881   4.184   8.750  0.1704  0.0572 -0.4295
  809MPD2    C111962   2.913   4.255   8.869 -0.1179 -0.8226  0.3054
  809MPD2    C211963   2.813   4.324   8.931 -0.2640  0.5005 -0.2864
  809MPD2    C311964   2.684   4.311   8.880 -0.1681  0.5026 -0.1876
  809MPD2    C411965   2.657   4.234   8.769  0.2107 -0.1113 -0.1370
  809MPD2    C511966   2.758   4.180   8.695  0.4175 -0.2878  0.3386
  809MPD2     H11967   2.831   4.369   9.028 -1.1672 -1.0500  0.6066
  809MPD2    H111968   2.556   4.211   8.735 -0.8095  0.1949  2.6343
  809MPD2    H211969   2.962   4.144   8.690 -0.3646 -0.7293 -0.6288
  809MPD2    H311970   2.742   4.124   8.603 -2.6076 -3.1200  2.5827
  809MPD2     N11971   2.571   4.375   8.940  0.1806 -0.3711  0.3631
  809MPD2    H511972   2.476   4.358   8.909 -0.3806  1.6226  1.0071
  809MPD2    N111973   3.042   4.255   8.923 -0.4817 -0.2139  0.1287
  809MPD2    H711974   3.053   4.319   9.001 -0.4777 -0.5632  0.4148
  810MPD2     C11975   1.398   3.054  10.741  0.3002  0.4132 -0.3496
  810MPD2    C111976   1.454   3.096  10.624 -0.0370  0.0536 -0.4612
  810MPD2    C211977   1.438   3.227  10.579  0.1438 -0.7252  0.0770
  810MPD2    C311978   1.366   3.314  10.654 -0.4047  0.1160  0.7690
  810MPD2    C411979   1.304   3.264  10.773 -0.4811  0.1159 -0.2441
  810MPD2    C511980   1.315   3.137  10.809  0.0790 -1.3455  0.0301
  810MPD2     H11981   1.476   3.263  10.483 -3.6932 -0.4651 -1.3583
  810MPD2    H111982   1.245   3.333  10.832 -2.4432 -2.5199  0.9047
  810MPD2    H211983   1.431   2.958  10.778 -0.5246 -0.1207 -1.0189
  810MPD2    H311984   1.268   3.097  10.897  0.8421 -0.5571  0.8023
  810MPD2     N11985   1.346   3.450  10.614  0.5617  0.3673  0.3266
  810MPD2    H511986   1.281   3.507  10.668 -1.1332  0.7129 -2.0620
  810MPD2    N111987   1.521   2.996  10.548 -0.2186 -0.6797 -0.0887
  810MPD2    H711988   1.500   2.901  10.577  0.5135 -1.0189 -0.6546
  811MPD2     C11989   1.452   2.883   9.730  0.0084  0.4095  0.0845
  811MPD2    C111990   1.504   2.950   9.840  0.4669  0.1309  0.1577
  811MPD2    C211991   1.478   3.083   9.857  0.0761 -0.0669  0.3321
  811MPD2    C311992   1.403   3.162   9.770  0.2433  0.0120 -0.5993
  811MPD2    C411993   1.349   3.091   9.663  0.5650  0.0270 -0.1083
  811MPD2    C511994   1.380   2.957   9.639 -0.1059  0.3935 -0.5655
  811MPD2     H11995   1.516   3.143   9.939  0.5859  0.2371 -0.1278
  811MPD2    H111996   1.291   3.139   9.585 -0.9189 -0.4132  0.7361
  811MPD2    H211997   1.488   2.786   9.699  0.2501  0.1213  1.2699
  811MPD2    H311998   1.348   2.909   9.548  1.5360  0.3391 -1.1218
  811MPD2     N11999   1.378   3.300   9.801  0.6358  0.1804  0.0144
  811MPD2    H512000   1.428   3.336   9.882  1.1513 -0.6861  0.0858
  811MPD2    N112001   1.586   2.876   9.926 -0.5608  0.3594  0.3540
  811MPD2    H712002   1.586   2.775   9.935 -1.6649  0.3162 -0.0994
  812MPD2     C12003   0.244   3.239  11.620  0.0809 -0.1718 -0.0214
  812MPD2    C112004   0.324   3.341  11.664  0.3152 -0.3839  0.6422
  812MPD2    C212005   0.382   3.338  11.795  0.4652  0.2511 -0.0071
  812MPD2    C312006   0.368   3.229  11.873 -0.4873  0.6579 -0.1870
  812MPD2    C412007   0.289   3.121  11.823  0.0240  0.3868 -0.3757
  812MPD2    C512008   0.231   3.132  11.694  0.2554  0.5332  0.5006
  812MPD2     H12009   0.429   3.426  11.837  0.4154  0.5852 -0.6521
  812MPD2    H112010   0.287   3.023  11.870 -0.6979 -0.1787 -1.5677
  812MPD2    H212011   0.211   3.229  11.517  1.7418 -1.9601 -0.3966
  812MPD2    H312012   0.178   3.050  11.646  0.9386 -0.1085  0.8336
  812MPD2     N12013   0.423   3.223  12.005 -0.3581 -0.5306  0.0159
  812MPD2    H512014   0.472   3.304  12.041  1.3912 -1.1358 -0.9803
  812MPD2    N112015   0.339   3.448  11.577 -0.2701 -0.5177  0.0921
  812MPD2    H712016   0.288   3.436  11.490  0.2177 -0.9055 -0.1381
  813MPD2     C12017   4.536   0.381  12.925  0.4730  0.0914 -0.2814
  813MPD2    C112018   4.489   0.502  12.953  1.1306  0.1027 -0.4234
  813MPD2    C212019   4.395   0.517  13.059  0.5140  0.3534 -0.4004
  813MPD2    C312020   4.347   0.403  13.129  0.2322 -0.2269  1.0322
  813MPD2    C412021   4.397   0.275  13.095 -0.0092 -0.0558 -0.6931
  813MPD2    C512022   4.494   0.270  12.999  0.5224  0.0824  0.4251
  813MPD2     H12023   4.355   0.615  13.079  0.4673  0.5410 -1.4211
  813MPD2    H112024   4.367   0.188  13.153  0.9047 -0.5586 -0.9767
  813MPD2    H212025   4.620   0.375  12.856  0.7011 -0.9938  0.0989
  813MPD2    H312026   4.540   0.180  12.960  0.6736 -0.9011  2.8629
  813MPD2     N12027   4.255   0.420  13.237  0.0557 -0.0722 -0.8139
  813MPD2    H512028   4.200   0.506  13.238 -0.6432 -0.4918 -2.8602
  813MPD2    N112029   4.548   0.611  12.893  0.3789  0.1203 -0.1515
  813MPD2    H712030   4.646   0.597  12.869  0.7429  0.9416  0.8546
  814MPD2     C12031   4.660   1.646  12.724 -0.4224  0.4587 -0.6792
  814MPD2    C112032   4.644   1.702  12.599 -0.4851 -0.0221  0.1249
  814MPD2    C212033   4.708   1.818  12.573 -0.1604 -1.3875 -0.3290
  814MPD2    C312034   0.030   1.890  12.671  0.3612  0.0039  0.6160
  814MPD2    C412035   0.043   1.843  12.797  0.4116 -0.0143 -0.1493
  814MPD2    C512036   4.723   1.723  12.818  0.0601 -0.2034  0.0438
  814MPD2     H12037   4.700   1.860  12.473  0.3442  0.3868  0.3711
  814MPD2    H112038   0.095   1.892  12.879  0.6115  1.1637 -0.9980
  814MPD2    H212039   4.624   1.548  12.752 -0.9142 -0.1612 -3.5048
  814MPD2    H312040   4.717   1.686  12.920  0.1611 -0.9697 -0.2295
  814MPD2     N12041   0.094   2.013  12.645 -0.0302  0.0851 -0.2149
  814MPD2    H512042   0.144   2.056  12.722 -2.5599 -0.0157  1.4948
  814MPD2    N112043   4.571   1.634  12.495  0.1773  0.1421 -0.6436
  814MPD2    H712044   4.578   1.666  12.399 -0.3480  1.1449 -0.3441
  815MPD2     C12045   0.785   0.301  10.614  0.6779 -0.3382  0.3778
  815MPD2    C112046   0.709   0.247  10.723  0.0185  0.0617  0.2975
  815MPD2    C212047   0.672   0.328  10.826 -0.1335  0.9117 -0.0843
  815MPD2    C312048   0.683   0.466  10.810 -0.2369 -0.6472  0.5424
  815MPD2    C412049   0.753   0.518  10.700 -0.0450  0.5035 -0.1266
  815MPD2    C512050   0.802   0.442  10.602 -0.0587 -0.2253  0.0886
  815MPD2     H12051   0.623   0.297  10.918 -0.7075 -0.6285 -0.9070
  815MPD2    H112052   0.746   0.626  10.693 -0.5316  0.3963 -1.3686
  815MPD2    H212053   0.831   0.235  10.541 -0.4610  1.1170 -1.6518
  815MPD2    H312054   0.849   0.473  10.509  0.5810  1.6687  1.0488
  815MPD2     N12055   0.613   0.553  10.902  0.1263  0.3036  0.5195
  815MPD2    H512056   0.557   0.498  10.967 -2.8346  1.1033 -1.3229
  815MPD2    N112057   0.689   0.104  10.727 -0.1960 -0.0570  0.1204
  815MPD2    H712058   0.722   0.051  10.647  2.0156 -0.6951  1.4587
  816MPD2     C12059   0.328   3.693  16.949  1.1059 -0.8718  0.6911
  816MPD2    C112060   0.335   3.812  16.881 -0.1262  0.2379  0.8141
  816MPD2    C212061   0.440   3.830  16.788 -0.0581 -0.3952  0.7022
  816MPD2    C312062   0.537   3.726  16.778  0.2856  0.3817  0.7632
  816MPD2    C412063   0.527   3.606  16.842  0.7083 -0.3402 -0.2658
  816MPD2    C512064   0.413   3.589  16.921  0.2976  0.5200  0.3187
  816MPD2     H12065   0.454   3.924  16.736 -2.4745 -0.5394 -0.1832
  816MPD2    H112066   0.601   3.527  16.831  0.9415 -0.1658  0.0712
  816MPD2    H212067   0.245   3.669  17.015 -0.2633 -0.6305 -0.9378
  816MPD2    H312068   0.404   3.494  16.973 -0.8801 -0.2200 -1.2579
  816MPD2     N12069   0.642   3.756  16.685  0.3825  0.5419  0.0560
  816MPD2    H512070   0.645   3.841  16.630 -3.1121  0.6024 -0.0379
  816MPD2    N112071   0.243   3.913  16.912 -0.0050 -0.3527 -0.2058
  816MPD2    H712072   0.166   3.882  16.970  1.0566 -1.9823  0.3308
  817MPD2     C12073   4.571   0.635   9.495  0.0157  0.0654  0.2262
  817MPD2    C112074   4.668   0.717   9.536  0.5771 -0.1728 -0.5850
  817MPD2    C212075   4.644   0.853   9.544  0.4704  0.3042  0.0833
  817MPD2    C312076   4.527   0.914   9.517  0.2638  0.4072  0.3170
  817MPD2    C412077   4.437   0.822   9.460  0.1967 -0.4782 -0.3507
  817MPD2    C512078   4.447   0.688   9.452 -0.2128 -0.5946 -1.0368
  817MPD2     H12079   4.725   0.919   9.576  0.3945  0.8659 -0.8717
  817MPD2    H112080   4.346   0.860   9.416  0.3191  0.8424  0.5388
  817MPD2    H212081   4.583   0.528   9.490  1.9807  0.2575  0.5588
  817MPD2    H312082   4.366   0.628   9.412 -0.6780 -1.3070  0.9940
  817MPD2     N12083   4.508   1.055   9.523  0.0819  0.2190 -0.1605
  817MPD2    H512084   4.590   1.114   9.535 -0.5596  0.6866  1.9296
  817MPD2    N112085   0.060   0.673   9.571  0.2422 -0.3049 -0.2987
  817MPD2    H712086   0.120   0.747   9.605  2.8110 -2.9346  0.9063
  818MPD2     C12087   4.423   1.128  10.233  0.0643 -0.1315  1.0584
  818MPD2    C112088   4.292   1.108  10.218  0.5593 -0.0035  0.1015
  818MPD2    C212089   4.249   0.974  10.207  0.2860 -0.6412  1.3094
  818MPD2    C312090   4.335   0.866  10.196  0.0929 -0.0730 -0.1761
  818MPD2    C412091   4.467   0.899  10.215 -0.1291 -0.1473 -0.0660
  818MPD2    C512092   4.514   1.022  10.226 -0.0575 -0.1973  0.1593
  818MPD2     H12093   4.144   0.962  10.182  0.2357 -0.5431  1.4711
  818MPD2    H112094   4.538   0.818  10.223  0.8728  0.6926 -0.4611
  818MPD2    H212095   4.457   1.226  10.265 -0.8808  0.6051 -0.1711
  818MPD2    H312096   4.618   1.051  10.237 -0.4434  1.6177 -1.0056
  818MPD2     N12097   4.301   0.733  10.166  0.2123 -0.5242  0.2594
  818MPD2    H512098   4.376   0.665  10.169  0.9786  0.2714 -0.8308
  818MPD2    N112099   4.189   1.201  10.229 -0.0288 -0.0570 -0.0571
  818MPD2    H712100   4.092   1.173  10.246  0.2568 -1.1895 -0.2604
  819MPD2     C12101   2.186   2.848  15.656  0.0619  0.3831 -0.2658
  819MPD2    C112102   2.163   2.773  15.540  1.4079  0.4903 -0.6861
  819MPD2    C212103   2.208   2.645  15.531 -0.4013  0.5256  0.3318
  819MPD2    C312104   2.274   2.576  15.630  0.0556  0.2172 -0.8358
  819MPD2    C412105   2.278   2.647  15.750  0.1891 -0.0100  0.2669
  819MPD2    C512106   2.237   2.779  15.759  0.0141 -0.1167 -0.5196
  819MPD2     H12107   2.188   2.590  15.439  0.8432  0.9102 -0.1778
  819MPD2    H112108   2.334   2.612  15.836  1.8559  2.3440  0.1259
  819MPD2    H212109   2.159   2.951  15.672 -0.2364  0.3463 -0.5258
  819MPD2    H312110   2.258   2.829  15.853 -2.0458 -2.0519  0.9754
  819MPD2     N12111   2.316   2.446  15.622 -0.3517  0.2111  0.1588
  819MPD2    H512112   2.312   2.404  15.530  0.1961  0.5208 -0.0069
  819MPD2    N112113   2.091   2.832  15.438 -0.3170  0.6030 -0.5978
  819MPD2    H712114   2.038   2.913  15.468  0.8730  1.0496  0.3095
  820MPD2     C12115   1.593   2.431  14.701 -0.0189  0.2532 -0.4763
  820MPD2    C112116   1.573   2.565  14.665  0.1398 -0.2317 -0.3416
  820MPD2    C212117   1.655   2.662  14.723 -0.9145  0.6394 -0.2864
  820MPD2    C312118   1.744   2.618  14.823 -0.0551 -0.5907  0.1331
  820MPD2    C412119   1.751   2.483  14.864  0.1920  0.8678  0.4263
  820MPD2    C512120   1.677   2.390  14.799  0.5236  0.0982  0.2116
  820MPD2     H12121   1.651   2.766  14.692  0.3555  1.1009  1.0544
  820MPD2    H112122   1.826   2.451  14.935 -0.0026 -0.3643  0.0731
  820MPD2    H212123   1.540   2.353  14.646 -0.4153  1.1107 -1.3046
  820MPD2    H312124   1.686   2.283  14.814  0.3373 -0.1458 -1.3374
  820MPD2     N12125   1.829   2.700  14.901  0.1420 -0.1385  0.0290
  820MPD2    H512126   1.877   2.654  14.978  1.6055 -1.5583 -1.7247
  820MPD2    N112127   1.464   2.593  14.580 -0.6234  0.7264  0.3010
  820MPD2    H712128   1.403   2.520  14.544 -0.4450  0.1875  1.0842
  821MPD2     C12129   3.074   3.963  12.766  0.3749 -0.0001  0.7665
  821MPD2    C112130   3.005   4.049  12.852 -0.3551 -0.0196  0.3277
  821MPD2    C212131   3.044   4.178  12.878 -0.4524 -0.6593 -0.0905
  821MPD2    C312132   3.171   4.217  12.839  0.0311  0.2738  0.5773
  821MPD2    C412133   3.242   4.130  12.760  0.0521  0.0009 -0.1337
  821MPD2    C512134   3.196   4.003  12.719 -0.3857  0.0969 -0.0244
  821MPD2     H12135   2.986   4.231  12.952 -1.1739  1.0083 -1.8602
  821MPD2    H112136   3.337   4.166  12.721 -0.2805  2.1207  1.0007
  821MPD2    H212137   3.023   3.874  12.730  1.2686 -0.3637  0.3834
  821MPD2    H312138   3.242   3.938  12.645 -1.3621  1.2209 -1.6331
  821MPD2     N12139   3.223   4.345  12.853  0.1647 -0.4008 -0.4839
  821MPD2    H512140   3.322   4.361  12.840  0.1030  0.7602  0.3760
  821MPD2    N112141   2.880   4.011  12.912  0.5726  0.0121 -0.0663
  821MPD2    H712142   2.838   4.078  12.975 -0.0794  0.8340 -1.3834
  822MPD2     C12143   2.623   3.854  15.388 -1.3210 -0.2909 -1.0245
  822MPD2    C112144   2.589   3.785  15.498  0.0380  0.3575 -0.2767
  822MPD2    C212145   2.535   3.852  15.609 -0.1169 -0.1597  0.3028
  822MPD2    C312146   2.534   3.985  15.620 -0.1213  0.3308  0.6831
  822MPD2    C412147   2.580   4.058  15.515  0.3513  0.0149 -0.9718
  822MPD2    C512148   2.611   3.990  15.395  0.1425  0.1863  0.5494
  822MPD2     H12149   2.503   3.790  15.692  1.6552 -0.0390  1.0973
  822MPD2    H112150   2.583   4.167  15.510  2.4361 -0.0012 -0.4673
  822MPD2    H212151   2.684   3.817  15.306 -1.4465 -5.1545  1.0871
  822MPD2    H312152   2.645   4.049  15.311  1.8674  0.0422  1.1473
  822MPD2     N12153   2.500   4.036  15.744 -0.0228 -0.3638  0.1144
  822MPD2    H512154   2.471   3.972  15.818  0.6439  1.6676  2.1268
  822MPD2    N112155   2.620   3.642  15.514 -0.1378 -0.2956 -0.0420
  822MPD2    H712156   2.600   3.614  15.610 -2.4286 -1.4945 -0.8761
  823MPD2     C12157   2.186   4.147  16.563 -0.4920  0.3079 -0.4076
  823MPD2    C112158   2.230   4.066  16.458  0.3888  0.5903  0.1644
  823MPD2    C212159   2.281   3.941  16.495  0.2934  0.3088 -0.1299
  823MPD2    C312160   2.281   3.905  16.627  0.0727  0.0078  0.2850
  823MPD2    C412161   2.236   3.986  16.727 -0.0623  0.0574 -0.4211
  823MPD2    C512162   2.181   4.106  16.695  0.5505 -0.4167  0.4050
  823MPD2     H12163   2.320   3.879  16.416 -3.9074 -1.0815 -1.1254
  823MPD2    H112164   2.238   3.962  16.833  3.0735 -0.8184 -0.6908
  823MPD2    H212165   2.164   4.251  16.544  0.7321  0.9311  1.5603
  823MPD2    H312166   2.143   4.173  16.770 -1.4039 -1.5736  0.4581
  823MPD2     N12167   2.343   3.781  16.670  0.5657  0.1963  0.2726
  823MPD2    H512168   2.361   3.782  16.770 -0.7206  1.7355  0.4996
  823MPD2    N112169   2.225   4.125  16.324 -0.3124  0.0733 -0.7509
  823MPD2    H712170   2.203   4.223  16.311  1.9851  0.8161  0.7603
  824MPD2     C12171   2.656   2.877  15.261  0.1735 -0.8541 -0.1275
  824MPD2    C112172   2.775   2.938  15.296 -0.1238  0.1011  0.1864
  824MPD2    C212173   2.891   2.888  15.259 -0.7532  0.2312 -0.4798
  824MPD2    C312174   2.896   2.773  15.182 -0.4362  0.2777  0.0266
  824MPD2    C412175   2.777   2.717  15.137  0.0265 -0.7444  0.4027
  824MPD2    C512176   2.659   2.757  15.184  0.0208 -0.4521  0.5477
  824MPD2     H12177   2.982   2.940  15.287 -0.8480  0.0261  0.2074
  824MPD2    H112178   2.764   2.633  15.069 -1.6082  1.3446 -1.8766
  824MPD2    H212179   2.564   2.932  15.278  0.2260 -0.3624 -1.4299
  824MPD2    H312180   2.572   2.703  15.148  0.5445 -1.4151  0.7087
  824MPD2     N12181   3.022   2.738  15.127  0.1501 -0.3812  0.3380
  824MPD2    H512182   3.101   2.796  15.152  0.5343 -0.7274 -0.0628
  824MPD2    N112183   2.762   3.053  15.369  0.2977  0.3733 -0.3982
  824MPD2    H712184   2.671   3.098  15.372 -0.8114 -1.9082  0.0992
  825MPD2     C12185   3.799   2.871  15.131 -0.5913  0.4323  0.0955
  825MPD2    C112186   3.696   2.888  15.034 -0.3985 -0.5540  0.5582
  825MPD2    C212187   3.686   3.015  14.981  0.2751  0.1672 -0.2326
  825MPD2    C312188   3.787   3.113  15.002 -0.3545 -0.4931  1.4147
  825MPD2    C412189   3.892   3.090  15.089 -0.1976 -0.3444 -0.0820
  825MPD2    C512190   3.895   2.967  15.153  0.7588  0.5557  0.1482
  825MPD2     H12191   3.602   3.048  14.921  0.1531  0.5541  0.1512
  825MPD2    H112192   3.964   3.168  15.110  0.5388  0.1811 -4.6035
  825MPD2    H212193   3.811   2.780  15.188 -1.1761  1.0914  1.2900
  825MPD2    H312194   3.971   2.957  15.230 -1.7582  0.9240  2.6828
  825MPD2     N12195   3.768   3.250  14.946 -0.2028  0.3583 -0.3330
  825MPD2    H512196   3.830   3.322  14.981 -1.3190  1.1181  0.0753
  825MPD2    N112197   3.601   2.785  15.015  0.1897 -0.2432 -0.6105
  825MPD2    H712198   3.620   2.691  15.048  1.4005  0.8484  1.7818
  826MPD2     C12199   3.409   3.320  13.105 -0.5267 -0.0559  0.1341
  826MPD2    C112200   3.475   3.432  13.151  0.0643 -0.2026  0.4907
  826MPD2    C212201   3.420   3.557  13.130 -0.4478 -0.4898  0.3046
  826MPD2    C312202   3.290   3.567  13.087  0.6042 -0.0300 -0.0681
  826MPD2    C412203   3.222   3.449  13.044 -0.2835  0.1686 -0.5610
  826MPD2    C512204   3.283   3.328  13.047  0.3553  0.4916 -0.4350
  826MPD2     H12205   3.460   3.646  13.178  0.4244 -0.2287 -0.9091
  826MPD2    H112206   3.122   3.458  13.004 -0.7477 -0.3925  0.4664
  826MPD2    H212207   3.457   3.224  13.120 -0.4728 -0.0620 -0.0712
  826MPD2    H312208   3.230   3.236  13.025 -0.4771  0.4490  1.7385
  826MPD2     N12209   3.223   3.683  13.110 -0.2312 -0.5178  0.1438
  826MPD2    H512210   3.123   3.673  13.119 -0.1687 -2.1257 -0.7448
  826MPD2    N112211   3.596   3.413  13.226  0.4731  0.4637 -1.1446
  826MPD2    H712212   3.618   3.315  13.245  1.0325  1.2703  2.5066
  827MPD2     C12213   4.105   3.947  10.055 -0.4646  0.0587  0.5584
  827MPD2    C112214   4.064   4.006  10.171  0.0732 -0.1030  0.7892
  827MPD2    C212215   3.927   4.043  10.184  0.0775  0.1061  0.1555
  827MPD2    C312216   3.840   4.002  10.076 -0.5483  0.3748 -0.2536
  827MPD2    C412217   3.892   3.950   9.958 -0.0370  0.3098 -0.0638
  827MPD2    C512218   4.027   3.932   9.946 -0.3428  0.7658 -0.0313
  827MPD2     H12219   3.886   4.089  10.273  0.9960 -0.7384  1.0106
  827MPD2    H112220   3.835   3.944   9.866  0.7777 -1.2690 -0.4654
  827MPD2    H212221   4.209   3.916  10.050 -0.5142  0.0671 -0.4962
  827MPD2    H312222   4.072   3.894   9.855  0.2055 -1.7878  1.2948
  827MPD2     N12223   3.704   4.031  10.093  0.2296 -0.0670  0.0495
  827MPD2    H512224   3.673   4.064  10.183  0.6002 -1.3790  0.6660
  827MPD2    N112225   4.163   4.057  10.262 -0.5667  0.4942  0.2234
  827MPD2    H712226   4.261   4.048  10.236 -0.8297  0.5487 -0.7910
  828MPD2     C12227   2.433   4.399  12.019 -0.8217  0.1090 -1.4417
  828MPD2    C112228   2.313   4.378  12.087 -0.7238  0.1027 -0.2364
  828MPD2    C212229   2.305   4.256  12.150  0.3294  0.0024 -0.2112
  828MPD2    C312230   2.397   4.159  12.121  0.8313 -0.5870  0.4943
  828MPD2    C412231   2.509   4.176  12.047 -0.1053 -0.7707 -0.1755
  828MPD2    C512232   2.533   4.303  12.011  0.6283  0.1351 -0.2473
  828MPD2     H12233   2.215   4.236  12.208  1.0105 -0.7424  0.5763
  828MPD2    H112234   2.586   4.100  12.033 -2.3511 -2.9531 -0.8237
  828MPD2    H212235   2.456   4.495  11.973  1.1620  0.4303  0.2205
  828MPD2    H312236   2.631   4.320  11.969  0.0538  0.1178 -1.5862
  828MPD2     N12237   2.352   4.025  12.143  0.4815  0.0979 -0.0432
  828MPD2    H512238   2.261   4.026  12.189  1.7998 -1.3954  2.6352
  828MPD2    N112239   2.212   4.478  12.096  0.5317  0.3706 -0.4470
  828MPD2    H712240   2.130   4.444  12.146  0.5855  1.7775  0.5926
  829MPD2     C12241   1.870   0.417  11.498  0.8971 -0.5241 -0.1725
  829MPD2    C112242   1.774   0.379  11.594 -0.3015 -0.2842 -0.0686
  829MPD2    C212243   1.819   0.320  11.706  0.0594  0.0508  0.5312
  829MPD2    C312244   1.955   0.310  11.739 -0.3383  0.0848  0.2404
  829MPD2    C412245   2.050   0.353  11.643  0.5633  0.1580 -0.3010
  829MPD2    C512246   2.003   0.403  11.523 -0.3417  0.0126  0.4419
  829MPD2     H12247   1.746   0.282  11.776  0.0220  1.9561  1.5182
  829MPD2    H112248   2.157   0.349  11.663  0.4496  0.6869  0.3971
  829MPD2    H212249   1.832   0.455  11.404  0.6613 -0.0451  0.1146
  829MPD2    H312250   2.080   0.442  11.458 -1.4163  2.4899  0.6570
  829MPD2     N12251   2.003   0.265  11.867  0.8718 -0.4299  0.5246
  829MPD2    H512252   2.101   0.240  11.870  1.0624  0.3204  0.6114
  829MPD2    N112253   1.636   0.390  11.560 -0.7107  0.1682 -0.3370
  829MPD2    H712254   1.616   0.431  11.470 -1.0091 -1.7589 -1.1629
  830MPD2     C12255   2.963   2.109  15.276  0.6922 -0.0905 -0.1436
  830MPD2    C112256   2.829   2.141  15.271  0.5702 -0.1779  0.0621
  830MPD2    C212257   2.784   2.189  15.142  0.3815  0.1698  0.1332
  830MPD2    C312258   2.875   2.218  15.039 -0.4019 -0.7662  0.1459
  830MPD2    C412259   3.007   2.187  15.059 -0.3299 -0.6841  0.6923
  830MPD2    C512260   3.048   2.127  15.171 -0.7819  0.3567  0.0547
  830MPD2     H12261   2.679   2.214  15.128 -0.3352 -2.5882  0.6718
  830MPD2    H112262   3.076   2.177  14.975  0.2117  2.7061  0.7296
  830MPD2    H212263   2.986   2.057  15.368  1.5338  0.5721  0.0138
  830MPD2    H312264   3.149   2.089  15.173 -2.0071 -2.7905  0.5787
  830MPD2     N12265   2.829   2.274  14.914 -0.1821  0.0253 -0.0759
  830MPD2    H512266   2.906   2.312  14.859 -1.4905  1.7416 -0.7284
  830MPD2    N112267   2.756   2.119  15.384  0.6965 -1.1031  0.0896
  830MPD2    H712268   2.806   2.088  15.467 -0.0260 -0.3280  0.8172
  831MPD2     C12269   2.720   3.918  16.094 -0.7592 -0.1957 -0.3045
  831MPD2    C112270   2.721   3.811  16.013  0.0764 -0.2631 -0.9937
  831MPD2    C212271   2.634   3.706  16.028 -0.2006  0.0757 -0.7232
  831MPD2    C312272   2.553   3.705  16.146  0.3390  0.0701 -0.6088
  831MPD2    C412273   2.566   3.809  16.236 -0.9961  1.0241  0.2810
  831MPD2    C512274   2.649   3.913  16.210  0.6628 -0.7201  0.6062
  831MPD2     H12275   2.645   3.619  15.964  1.1102  1.3498 -2.2352
  831MPD2    H112276   2.525   3.811  16.336  0.6139 -3.1806  1.0525
  831MPD2    H212277   2.781   4.007  16.080 -1.2492  0.5035  1.9084
  831MPD2    H312278   2.661   3.995  16.280 -0.5818  0.2477 -0.3016
  831MPD2     N12279   2.449   3.614  16.179  0.6328  0.1327  0.1898
  831MPD2    H512280   2.390   3.625  16.261  0.4940 -2.2170  0.3838
  831MPD2    N112281   2.814   3.805  15.902 -0.3237  0.5349  0.3889
  831MPD2    H712282   2.829   3.715  15.857 -0.4988  1.7130 -1.9873
  832MPD2     C12283   1.111   0.195  16.938  0.6145 -0.0811  1.0605
  832MPD2    C112284   1.065   0.319  16.930  0.4639 -0.0213  0.1628
  832MPD2    C212285   0.941   0.336  16.867  0.8996  0.6345 -1.1582
  832MPD2    C312286   0.868   0.226  16.820 -1.1652  0.2597 -0.3851
  832MPD2    C412287   0.913   0.103  16.839  0.0984  0.6751 -0.1503
  832MPD2    C512288   1.038   0.088  16.894  0.2018 -0.5491  0.1086
  832MPD2     H12289   0.905   0.438  16.858  0.7710  0.5925 -1.1141
  832MPD2    H112290   0.856   0.014  16.815 -0.6406  0.6144  1.8218
  832MPD2    H212291   1.204   0.170  16.988  0.6494  2.3409  2.1948
  832MPD2    H312292   1.086   4.728  16.903 -1.7638 -1.5312 -0.1736
  832MPD2     N12293   0.754   0.247  16.736 -0.9422 -0.1483 -0.5034
  832MPD2    H512294   0.715   0.163  16.694 -1.5626  0.5118 -1.2362
  832MPD2    N112295   1.136   0.425  16.993 -0.2313 -0.1792 -0.0482
  832MPD2    H712296   1.212   0.398  17.054 -1.1421 -1.9357  0.2932
  833MPD2     C12297   3.213   2.730  12.426  0.1231 -0.8026  0.4927
  833MPD2    C112298   3.165   2.608  12.391  0.0198  0.4461  0.7708
  833MPD2    C212299   3.249   2.503  12.347 -0.0278  0.2818 -0.3358
  833MPD2    C312300   3.382   2.531  12.330 -0.0608  0.2956 -0.1812
  833MPD2    C412301   3.424   2.649  12.355  0.0575 -0.9172  0.0900
  833MPD2    C512302   3.347   2.748  12.408 -0.2728 -0.1314 -0.4077
  833MPD2     H12303   3.204   2.410  12.313 -0.0057  0.0922  0.1456
  833MPD2    H112304   3.529   2.675  12.346 -0.5299  2.5657  3.4125
  833MPD2    H212305   3.147   2.804  12.470 -0.5663 -1.2743  0.2497
  833MPD2    H312306   3.393   2.836  12.451  0.5711 -0.7554 -0.0143
  833MPD2     N12307   3.470   2.445  12.266  0.2043 -0.3959 -0.2738
  833MPD2    H512308   3.546   2.489  12.216  0.3819 -0.5373 -0.1307
  833MPD2    N112309   3.029   2.582  12.409  0.2442  0.1872  0.5299
  833MPD2    H712310   2.973   2.665  12.421  0.1829  0.6595 -2.9588
  834MPD2     C12311   3.239   1.591  11.679 -1.1134 -0.0225 -0.4224
  834MPD2    C112312   3.302   1.677  11.602 -0.3587  0.7123 -0.2026
  834MPD2    C212313   3.352   1.789  11.660 -0.0281 -0.5140 -0.5959
  834MPD2    C312314   3.348   1.804  11.799  0.4686 -0.3879  0.0967
  834MPD2    C412315   3.287   1.707  11.876  0.3585  0.2068 -0.1595
  834MPD2    C512316   3.234   1.598  11.818 -0.0931  0.1131  0.3464
  834MPD2     H12317   3.393   1.863  11.591  2.1209 -0.2919  0.9061
  834MPD2    H112318   3.252   1.724  11.977  2.4745 -3.5645  1.2228
  834MPD2    H212319   3.175   1.517  11.632 -0.0083  0.6918 -3.0492
  834MPD2    H312320   3.168   1.532  11.872  0.6445 -2.8444 -2.3729
  834MPD2     N12321   3.384   1.927  11.851  0.5317 -0.0241  0.2955
  834MPD2    H512322   3.392   1.998  11.778  0.1514 -0.8323 -0.5336
  834MPD2    N112323   3.280   1.666  11.462 -0.1582  0.5077  0.0901
  834MPD2    H712324   3.206   1.609  11.423 -1.1704  0.4756  2.0358
  835MPD2     C12325   3.230   4.161  11.267  0.6970 -1.1589  0.2541
  835MPD2    C112326   3.209   4.293  11.300 -0.3963 -0.6778 -0.6641
  835MPD2    C212327   3.201   4.326  11.434  0.3326  0.2764  0.6155
  835MPD2    C312328   3.220   4.230  11.536 -0.2739 -0.3644 -0.0489
  835MPD2    C412329   3.245   4.098  11.505  0.3576  0.4314  1.1263
  835MPD2    C512330   3.253   4.067  11.369 -0.0020 -0.4725  1.1661
  835MPD2     H12331   3.186   4.429  11.463  2.2148  0.1739  1.9912
  835MPD2    H112332   3.260   4.013  11.572 -1.5739 -0.1074  0.8796
  835MPD2    H212333   3.223   4.131  11.163 -0.6348 -2.6210  0.7637
  835MPD2    H312334   3.254   3.963  11.338  1.2332  0.0148 -0.3847
  835MPD2     N12335   3.195   4.261  11.672 -0.3316  0.6669 -0.3164
  835MPD2    H512336   3.198   4.176  11.727  2.3657  0.0035 -1.4588
  835MPD2    N112337   3.186   4.389  11.197 -0.4090 -0.5817  0.0337
  835MPD2    H712338   3.183   4.356  11.100 -1.7647  2.3859 -0.9224
  836MPD2     C12339   3.019   4.629  12.506  0.3402 -0.0866  0.4134
  836MPD2    C112340   3.004   4.657  12.376  0.1742  0.4375  0.4171
  836MPD2    C212341   2.935   0.037  12.344 -1.0083 -0.3682 -0.9009
  836MPD2    C312342   2.881   0.116  12.448  0.4965 -0.0032 -0.1522
  836MPD2    C412343   2.900   0.082  12.579  0.0145  0.0787 -0.2266
  836MPD2    C512344   2.964   4.704  12.612 -0.0668 -0.3433 -0.1991
  836MPD2     H12345   2.923   0.072  12.242 -1.3283  2.9208  0.2436
  836MPD2    H112346   2.854   0.144  12.655 -0.2064  0.3435 -0.5719
  836MPD2    H212347   3.082   4.544  12.531  1.1739 -0.6271 -3.4972
  836MPD2    H312348   2.976   4.690  12.719  0.6789 -1.9916 -0.5062
  836MPD2     N12349   2.808   0.231  12.419 -0.5306 -0.3830 -0.2130
  836MPD2    H512350   2.793   0.278  12.508 -1.2058 -2.4340  0.7532
  836MPD2    N112351   3.052   4.565  12.276 -0.7667 -0.2385  0.1699
  836MPD2    H712352   3.079   4.473  12.310 -0.0439  0.3263  1.1271
  837MPD2     C12353   1.549   3.958  10.229  0.0143  0.9674  0.9147
  837MPD2    C112354   1.512   3.983  10.094  0.0291 -0.4334 -0.5281
  837MPD2    C212355   1.519   4.113  10.038 -0.3468 -0.3094  0.1991
  837MPD2    C312356   1.579   4.214  10.115  0.0628  0.0801  0.0479
  837MPD2    C412357   1.611   4.190  10.244  0.7193 -0.2796 -0.4706
  837MPD2    C512358   1.605   4.066  10.297  0.3362  0.1611  0.0653
  837MPD2     H12359   1.472   4.132   9.942 -1.6796 -1.9820  0.5194
  837MPD2    H112360   1.655   4.265  10.309  1.2953 -2.1766  1.3314
  837MPD2    H212361   1.539   3.864  10.282  1.6027  1.4697  2.1002
  837MPD2    H312362   1.638   4.047  10.399 -0.4949  1.4431  0.5653
  837MPD2     N12363   1.580   4.352  10.075 -0.1838  0.1794 -0.4947
  837MPD2    H512364   1.609   4.425  10.139  1.1963 -0.0352 -0.8662
  837MPD2    N112365   1.456   3.882  10.013 -0.8529  0.0639  0.4650
  837MPD2    H712366   1.437   3.911   9.918  0.9764 -0.3983 -0.0393
  838MPD2     C12367   4.552   2.572  11.641 -0.4144 -0.2908  0.6405
  838MPD2    C112368   4.560   2.464  11.729  0.4251  0.0589 -0.2023
  838MPD2    C212369   4.497   2.479  11.847  0.3873  0.4332  0.4814
  838MPD2    C312370   4.425   2.586  11.886  0.3145 -0.4182  0.1202
  838MPD2    C412371   4.423   2.695  11.801  1.0994 -0.4006  0.0249
  838MPD2    C512372   4.480   2.686  11.674  0.5045  0.1887 -0.1669
  838MPD2     H12373   4.502   2.386  11.903  0.8807  0.7290  0.9333
  838MPD2    H112374   4.371   2.790  11.811  2.5816  0.3905  0.0919
  838MPD2    H212375   4.600   2.575  11.544 -0.2300  2.5019  0.8238
  838MPD2    H312376   4.472   2.771  11.606 -1.4086  0.0387 -0.1024
  838MPD2     N12377   4.345   2.584  12.001 -0.2488 -0.3697 -0.6925
  838MPD2    H512378   4.369   2.506  12.061  0.2034  0.3572  0.0602
  838MPD2    N112379   4.619   2.340  11.701 -0.4653  0.4116 -0.2007
  838MPD2    H712380   4.618   2.270  11.774  1.3611 -0.9951 -1.5380
  839MPD2     C12381   4.196   1.838  12.019  0.2156  0.0602  0.2266
  839MPD2    C112382   4.194   1.834  11.877 -0.3407  0.5264  0.0059
  839MPD2    C212383   4.309   1.842  11.803 -0.2513 -0.0309 -0.0062
  839MPD2    C312384   4.427   1.861  11.869 -0.6739  0.7310 -0.1736
  839MPD2    C412385   4.426   1.856  12.009 -0.0712 -0.7767 -0.2021
  839MPD2    C512386   4.318   1.840  12.084  0.4983 -0.0256 -0.0323
  839MPD2     H12387   4.299   1.841  11.695  1.4630 -4.5709 -0.0978
  839MPD2    H112388   4.524   1.866  12.054  0.2192 -0.9594 -0.7991
  839MPD2    H212389   4.109   1.822  12.081  0.2753 -0.5345  0.1546
  839MPD2    H312390   4.323   1.845  12.193  2.0044  0.1751 -0.1108
  839MPD2     N12391   4.551   1.885  11.815  0.4209  0.2336 -0.0153
  839MPD2    H512392   4.624   1.933  11.866  0.3322  0.3408  0.0134
  839MPD2    N112393   4.077   1.817  11.808  0.0447  0.6748 -0.3105
  839MPD2    H712394   4.079   1.770  11.718  1.4220 -1.6459  0.9464
  840MPD2     C12395   4.662   4.282   9.981 -0.5912  0.5243 -0.3874
  840MPD2    C112396   4.668   4.334  10.109  0.4711 -0.2990 -0.6385
  840MPD2    C212397   4.730   4.453  10.131 -0.1896 -0.4850 -0.0461
  840MPD2    C312398   0.054   4.518  10.025  0.7400  0.4026 -0.1407
  840MPD2    C412399   0.050   4.456   9.897  0.7192 -0.1657 -0.3701
  840MPD2    C512400   4.727   4.339   9.877  0.1857  1.0938 -0.2038
  840MPD2     H12401   4.726   4.512  10.223 -2.5733  0.6798 -0.8786
  840MPD2    H112402   0.097   4.510   9.815  2.5305 -1.4646 -0.1881
  840MPD2    H212403   4.600   4.196   9.957  1.0474 -1.2024  1.5596
  840MPD2    H312404   4.735   4.293   9.779  0.5929 -0.5510  0.5877
  840MPD2     N12405   0.104   4.650  10.041  0.0176 -0.1306  0.2605
  840MPD2    H512406   0.104   4.703   9.955 -2.8494  0.0359  0.3703
  840MPD2    N112407   4.594   4.265  10.210 -0.1673 -0.3877  0.0157
  840MPD2    H712408   4.546   4.180  10.183  0.1351 -0.4108 -0.4556
  841MPD2     C12409   0.011   3.933  14.130 -0.1103  0.2091 -0.0406
  841MPD2    C112410   4.679   4.014  14.043  0.6092  0.4151  0.1151
  841MPD2    C212411   4.672   4.146  14.084  1.6919 -0.1113 -0.0368
  841MPD2    C312412   4.718   4.193  14.209  0.7408  0.0393 -0.2438
  841MPD2    C412413   0.050   4.106  14.293 -1.4013 -0.3237 -0.4874
  841MPD2    C512414   0.073   3.979  14.245 -0.4012  0.2645 -0.4275
  841MPD2     H12415   4.610   4.206  14.018 -0.4785 -1.3955  0.8643
  841MPD2    H112416   0.103   4.142  14.380 -0.2166  0.7508 -1.6481
  841MPD2    H212417   0.025   3.827  14.108 -0.5910  0.7439 -2.8927
  841MPD2    H312418   0.135   3.918  14.311 -0.5020 -1.7998 -2.2534
  841MPD2     N12419   4.702   4.331  14.233  0.0485 -0.0478 -0.5116
  841MPD2    H512420   4.639   4.383  14.173 -0.3924  0.7243  0.6226
  841MPD2    N112421   4.614   3.976  13.919 -0.1290  0.5466  0.1065
  841MPD2    H712422   4.570   4.044  13.858  1.6632  1.0267 -0.6516
  842MPD2     C12423   0.209   0.529  16.727  0.3791  1.3195 -0.1298
  842MPD2    C112424   0.088   0.465  16.700  0.2083 -0.0955  0.1728
  842MPD2    C212425   0.069   0.341  16.759  0.2727 -0.3560  0.7677
  842MPD2    C312426   0.153   0.295  16.858 -0.3064 -0.1867 -0.6475
  842MPD2    C412427   0.267   0.363  16.881  0.3811 -0.2777 -0.6204
  842MPD2    C512428   0.302   0.475  16.811 -0.1302 -0.4181  0.1686
  842MPD2     H12429   4.706   0.305  16.738  0.3349  0.7348 -1.3637
  842MPD2    H112430   0.348   0.321  16.941 -1.6761 -0.1619  2.2379
  842MPD2    H212431   0.239   0.620  16.676 -0.5174  0.9425 -1.3176
  842MPD2    H312432   0.402   0.516  16.814  0.0078 -0.8023  0.9546
  842MPD2     N12433   0.126   0.174  16.938 -0.1888  0.2383 -0.2012
  842MPD2    H512434   0.211   0.129  16.971 -0.4886 -0.2652 -0.1207
  842MPD2    N112435   0.010   0.530  16.594  0.3872  0.8467 -0.1824
  842MPD2    H712436   0.052   0.601  16.535 -0.5755  0.9550 -0.7290
  843MPD2     C12437   1.691   1.738  17.633  0.4943 -0.5997  0.2582
  843MPD2    C112438   1.773   1.684  17.728 -0.2807 -0.0972  0.2007
  843MPD2    C212439   1.913   1.673  17.701 -0.3159 -0.0483 -0.2576
  843MPD2    C312440   1.965   1.742  17.590  0.2409  0.5137 -0.2176
  843MPD2    C412441   1.881   1.794  17.496  0.2001  0.0826  0.6800
  843MPD2    C512442   1.746   1.781  17.517 -0.0154 -0.5151 -0.7930
  843MPD2     H12443   1.978   1.618   0.021 -1.2628 -0.4159  0.3599
  843MPD2    H112444   1.930   1.839  17.411 -0.2025 -0.8551 -0.0598
  843MPD2    H212445   1.584   1.738  17.648  0.0218 -1.8965 -3.1798
  843MPD2    H312446   1.683   1.826  17.443 -2.1325  0.6109  1.7036
  843MPD2     N12447   2.110   1.760  17.566 -0.0628  0.3926  0.6239
  843MPD2    H512448   2.144   1.827  17.498 -0.8023  0.5488  0.4015
  843MPD2    N112449   1.704   1.630   0.094 -0.7209 -0.9673 -0.1197
  843MPD2    H712450   1.605   1.609   0.089 -1.2564  1.1266  1.7547
  844MPD2     C12451   0.753   0.120  15.992  0.1243  0.5190 -0.3004
  844MPD2    C112452   0.865   0.050  16.031  0.6710 -0.2416 -0.7306
  844MPD2    C212453   0.939   0.084  16.148 -0.1666  0.1714  0.4781
  844MPD2    C312454   0.893   0.185  16.229 -0.2031  0.1420  0.8903
  844MPD2    C412455   0.798   0.273  16.166 -1.1925 -0.0388  0.6498
  844MPD2    C512456   0.733   0.240  16.051 -0.1699 -0.3115  0.4539
  844MPD2     H12457   1.016   0.021  16.190 -1.6481 -1.5054  0.6932
  844MPD2    H112458   0.770   0.363  16.219  0.9435 -0.0118  1.7347
  844MPD2    H212459   0.702   0.104  15.897  0.0388  2.6268 -0.6137
  844MPD2    H312460   0.656   0.301  16.004 -1.1413  0.1739  2.6311
  844MPD2     N12461   0.964   0.209  16.348 -0.9841 -0.1775  0.7183
  844MPD2    H512462   1.053   0.160  16.354  0.5928  2.5074 -0.1031
  844MPD2    N112463   0.915   4.676  15.948 -0.2814 -0.5198  0.3394
  844MPD2    H712464   0.993   4.620  15.981 -1.2275 -2.6842 -1.1364
  845MPD2     C12465   1.007   1.134  16.549  0.0551 -1.0487  0.6004
  845MPD2    C112466   1.044   1.070  16.663 -0.3418  1.1307  0.1234
  845MPD2    C212467   1.094   0.948  16.664  0.2642 -0.0855 -0.0557
  845MPD2    C312468   1.088   0.877  16.544 -0.7578  0.2227  0.6242
  845MPD2    C412469   1.041   0.937  16.428  0.0510 -0.3671 -0.2461
  845MPD2    C512470   1.007   1.068  16.432 -0.2063 -0.6143  0.2511
  845MPD2     H12471   1.129   0.904  16.757  2.5418 -1.0807 -1.3790
  845MPD2    H112472   1.039   0.879  16.337  1.3248  0.6464 -0.9190
  845MPD2    H212473   0.980   1.238  16.562  3.2740 -0.1496  0.2601
  845MPD2    H312474   0.962   1.112  16.343  0.6873 -0.6776 -0.2420
  845MPD2     N12475   1.108   0.741  16.540  1.0224 -0.9368  0.0830
  845MPD2    H512476   1.094   0.692  16.453 -1.1128  0.9544 -0.6417
  845MPD2    N112477   1.046   1.146  16.787 -0.3044 -0.4691  0.1934
  845MPD2    H712478   1.020   1.243  16.779  1.6317  0.1514  1.6184
  846MPD2     C12479   1.912   1.172  13.670 -0.1313 -0.4167  0.0499
  846MPD2    C112480   1.975   1.291  13.710  0.1324 -0.3241 -0.0096
  846MPD2    C212481   2.003   1.321  13.842 -0.8986 -0.0217  0.3161
  846MPD2    C312482   1.967   1.227  13.937  0.1960 -0.0226  0.0816
  846MPD2    C412483   1.922   1.103  13.897 -0.0805 -0.2779 -0.1227
  846MPD2    C512484   1.883   1.079  13.766  0.0666 -0.4144 -1.3502
  846MPD2     H12485   2.057   1.410  13.872 -0.6407 -0.0853  0.0321
  846MPD2    H112486   1.899   1.024  13.967 -2.2246 -0.3622 -0.9016
  846MPD2    H212487   1.884   1.153  13.567 -1.9488  0.2077  0.4128
  846MPD2    H312488   1.823   0.993  13.738 -1.2571  0.9634 -2.7586
  846MPD2     N12489   1.995   1.252  14.073  0.2479 -0.6042 -0.0215
  846MPD2    H512490   2.000   1.352  14.089  1.8548 -0.7407  0.3406
  846MPD2    N112491   2.017   1.388  13.614  0.7253  0.9210 -0.0281
  846MPD2    H712492   2.040   1.480  13.650 -1.4239  2.1194 -1.7952
  847MPD2     C12493   2.690   2.972  13.204 -0.0266  0.0408 -0.7479
  847MPD2    C112494   2.681   2.857  13.283  0.2107 -0.3157 -0.6669
  847MPD2    C212495   2.665   2.728  13.228 -0.4279  0.0520  0.5774
  847MPD2    C312496   2.654   2.715  13.093 -0.5640  0.4098 -0.6552
  847MPD2    C412497   2.665   2.827  13.015  0.1190  0.3863 -0.2804
  847MPD2    C512498   2.682   2.953  13.069 -0.0673 -0.3823 -0.6542
  847MPD2     H12499   2.640   2.645  13.293  0.4014  0.0561  0.9016
  847MPD2    H112500   2.666   2.817  12.907  0.6400 -1.7704 -0.0676
  847MPD2    H212501   2.710   3.071  13.241 -0.4939 -0.2061  0.1545
  847MPD2    H312502   2.690   3.038  13.002  2.4270  0.4044  0.6395
  847MPD2     N12503   2.636   2.591  13.034 -0.1979  0.0423 -0.1578
  847MPD2    H512504   2.629   2.581  12.933 -2.4133 -1.6848  0.1511
  847MPD2    N112505   2.695   2.866  13.426  0.1612 -0.3314  0.1033
  847MPD2    H712506   2.708   2.780  13.478  0.9646  0.1090  0.6330
  848MPD2     C12507   0.301   0.694  16.155 -0.6577  0.2496 -0.2189
  848MPD2    C112508   0.417   0.709  16.233 -0.0839  0.0151 -0.0508
  848MPD2    C212509   0.499   0.815  16.199 -0.4281  0.0601 -0.1858
  848MPD2    C312510   0.469   0.894  16.091 -0.1476 -0.1404 -0.7802
  848MPD2    C412511   0.359   0.864  16.009 -0.4376 -0.0961  0.8258
  848MPD2    C512512   0.274   0.763  16.044  0.6205 -0.2292  0.2952
  848MPD2     H12513   0.582   0.832  16.267  0.3499  0.1989 -1.1717
  848MPD2    H112514   0.344   0.918  15.917  3.3498 -0.0154  0.2594
  848MPD2    H212515   0.239   0.609  16.181  2.0159 -1.2423  1.3315
  848MPD2    H312516   0.189   0.743  15.980 -1.6091  1.4715  2.7538
  848MPD2     N12517   0.533   1.020  16.052  0.4866  0.1225 -0.3084
  848MPD2    H512518   0.484   1.063  15.974 -2.2394  0.0530  1.3983
  848MPD2    N112519   0.451   0.638  16.351 -0.2997  0.1321  0.2657
  848MPD2    H712520   0.539   0.657  16.397 -0.1302 -0.2352  0.0975
  849MPD2     C12521   0.028   0.471  14.505  0.4718  0.2954  0.1974
  849MPD2    C112522   0.124   0.508  14.415  0.1608 -0.1858 -0.8493
  849MPD2    C212523   0.250   0.553  14.453 -0.5522  0.3273  0.4673
  849MPD2    C312524   0.288   0.565  14.580  0.2754 -0.0270  0.1885
  849MPD2    C412525   0.197   0.519  14.675  0.4166 -0.0163 -0.2697
  849MPD2    C512526   0.075   0.472  14.633  0.5096 -0.3820  0.6515
  849MPD2     H12527   0.318   0.605  14.386  0.5385 -2.8235 -0.8710
  849MPD2    H112528   0.220   0.502  14.780 -3.9828 -0.9939  0.5346
  849MPD2    H212529   4.662   0.455  14.476  0.2698 -0.5887  1.3968
  849MPD2    H312530   4.733   0.464  14.706 -0.9541 -0.5522 -0.9465
  849MPD2     N12531   0.414   0.620  14.607 -0.1341 -0.2411 -0.2868
  849MPD2    H512532   0.479   0.638  14.531 -1.7529  2.4699 -1.0305
  849MPD2    N112533   0.084   0.525  14.279  0.1566 -0.3363  0.3638
  849MPD2    H712534   0.165   0.558  14.227  2.1583 -2.9726  1.8742
  850MPD2     C12535   2.329   3.340  14.233 -0.4838 -0.2873 -0.6552
  850MPD2    C112536   2.319   3.385  14.359 -0.2152  1.1916  0.4455
  850MPD2    C212537   2.433   3.395  14.438 -0.4260 -1.2175  0.2670
  850MPD2    C312538   2.555   3.338  14.402  1.0049 -0.7000  0.6208
  850MPD2    C412539   2.554   3.279  14.275  0.5434  0.5751  0.1897
  850MPD2    C512540   2.444   3.278  14.196 -0.3926 -0.0192 -0.0755
  850MPD2     H12541   2.436   3.449  14.532 -0.8608  0.4222 -0.6519
  850MPD2    H112542   2.652   3.250  14.238  0.2992 -1.1450  0.8831
  850MPD2    H212543   2.240   3.344  14.170 -0.2439 -0.6050 -1.0140
  850MPD2    H312544   2.463   3.223  14.105  0.8092 -1.0619  0.7970
  850MPD2     N12545   2.680   3.350  14.467  0.1480 -1.0895 -0.2821
  850MPD2    H512546   2.757   3.310  14.415  0.8654  0.6566 -0.5602
  850MPD2    N112547   2.195   3.448  14.400 -0.2196 -0.4160  0.1029
  850MPD2    H712548   2.142   3.473  14.317  2.8303 -1.1412 -2.0854
  851MPD2     C12549   2.754   3.162  14.937  0.3053  0.3807  0.1202
  851MPD2    C112550   2.644   3.130  14.859  0.3396  0.2815  0.1375
  851MPD2    C212551   2.645   3.004  14.799 -0.1755  0.7607 -0.2695
  851MPD2    C312552   2.753   2.919  14.800  0.1843  0.5503  0.4977
  851MPD2    C412553   2.855   2.955  14.885  0.8827 -0.2910 -0.5972
  851MPD2    C512554   2.856   3.071  14.952 -0.0950  0.2059  0.7660
  851MPD2     H12555   2.561   2.975  14.737  0.0005 -0.2195 -0.0585
  851MPD2    H112556   2.945   2.895  14.884  1.0118 -0.1083  0.2112
  851MPD2    H212557   2.759   3.247  15.003 -1.0365  0.8073 -0.3393
  851MPD2    H312558   2.936   3.101  15.019  0.6600 -2.5261  1.0728
  851MPD2     N12559   2.743   2.798  14.728  0.8324  0.8354 -0.8565
  851MPD2    H512560   2.648   2.766  14.712  0.6768  0.3327  1.1416
  851MPD2    N112561   2.529   3.215  14.849  0.5300  0.1415 -0.4155
  851MPD2    H712562   2.524   3.298  14.907  2.0970 -0.8133  1.0590
  852MPD2     C12563   2.260   1.477  10.246  0.2624  0.2005  0.1315
  852MPD2    C112564   2.377   1.513  10.306  0.2366 -0.7300 -0.0492
  852MPD2    C212565   2.468   1.584  10.233 -0.4929  0.0599 -0.1811
  852MPD2    C312566   2.435   1.634  10.108  0.0432 -0.3322 -0.6509
  852MPD2    C412567   2.314   1.596  10.047  0.1248 -0.2211 -0.2028
  852MPD2    C512568   2.223   1.526  10.125 -0.7204  0.6508  0.1583
  852MPD2     H12569   2.567   1.610  10.268 -2.1746  1.7911  3.2987
  852MPD2    H112570   2.285   1.634   9.950 -0.4350 -0.1047  0.0098
  852MPD2    H212571   2.193   1.407  10.295  0.6544 -0.0822  0.2643
  852MPD2    H312572   2.131   1.495  10.077  0.7954 -1.6615 -1.2646
  852MPD2     N12573   2.530   1.723  10.053 -0.0217  0.2141  1.0156
  852MPD2    H512574   2.605   1.748  10.116  0.8929  0.2766 -0.0933
  852MPD2    N112575   2.416   1.488  10.442 -0.7818  0.3440  0.1900
  852MPD2    H712576   2.509   1.515  10.471 -0.2971  0.4009 -1.4081
  853MPD2     C12577   3.895   0.744  12.587 -0.6228 -0.1767  0.1957
  853MPD2    C112578   3.909   0.867  12.527  0.8063  0.5680  0.3145
  853MPD2    C212579   3.906   0.873  12.388  0.9540 -0.0892  0.1667
  853MPD2    C312580   3.864   0.763  12.313 -0.2880 -0.6235  0.1680
  853MPD2    C412581   3.847   0.646  12.379  0.0569 -0.0846 -0.3906
  853MPD2    C512582   3.864   0.633  12.512  0.4998 -0.8197 -0.6788
  853MPD2     H12583   3.933   0.964  12.336 -0.1916 -0.0992 -0.4372
  853MPD2    H112584   3.829   0.555  12.324 -1.1955  0.3140 -0.6296
  853MPD2    H212585   3.908   0.720  12.692 -1.1079 -1.8275 -0.1182
  853MPD2    H312586   3.852   0.538  12.562  0.6434  0.0626  1.0417
  853MPD2     N12587   3.842   0.768  12.167  0.9346  0.0487  0.1362
  853MPD2    H512588   3.817   0.685  12.114  2.6963 -0.5600  0.2680
  853MPD2    N112589   3.939   0.978  12.611  0.8899  0.3422 -0.2641
  853MPD2    H712590   3.955   0.960  12.709 -0.3263  1.5060  0.1495
  854MPD2     C12591   0.788   1.199  12.662  0.4060  0.1292 -0.0680
  854MPD2    C112592   0.814   1.253  12.792  0.5648 -0.3542 -0.0151
  854MPD2    C212593   0.915   1.195  12.864 -0.2386 -0.2571 -0.0752
  854MPD2    C312594   0.973   1.074  12.826 -0.5534  0.5502 -0.0250
  854MPD2    C412595   0.951   1.030  12.694 -0.4930  0.5799  0.1981
  854MPD2    C512596   0.860   1.094  12.614 -0.2380  0.3129 -0.0145
  854MPD2     H12597   0.946   1.233  12.961  0.5482  0.8694 -0.7728
  854MPD2    H112598   1.010   0.954  12.645 -1.1761 -0.0416  0.3424
  854MPD2    H212599   0.705   1.239  12.604  0.0662  1.2943  1.2190
  854MPD2    H312600   0.848   1.063  12.511  2.2844 -0.4746 -0.0723
  854MPD2     N12601   1.077   1.024  12.909  0.5613  0.2024  0.0616
  854MPD2    H512602   1.117   1.069  12.990 -0.1798  1.4512 -0.2694
  854MPD2    N112603   0.733   1.366  12.824  0.5620  0.7425 -0.0659
  854MPD2    H712604   0.646   1.365  12.771  1.5557 -1.0171 -1.6534
  855MPD2     C12605   1.435   1.102  13.733 -0.6354  0.8225  0.5837
  855MPD2    C112606   1.460   0.978  13.670 -0.2304  0.5331  0.6263
  855MPD2    C212607   1.441   0.966  13.533  0.7212 -0.1967 -0.0587
  855MPD2    C312608   1.383   1.068  13.455  0.7459  0.5878 -0.3212
  855MPD2    C412609   1.355   1.183  13.523 -0.4445  0.4899  0.2919
  855MPD2    C512610   1.385   1.201  13.656  0.3531 -0.3280 -0.2338
  855MPD2     H12611   1.465   0.871  13.487  1.9063  0.7482 -1.4132
  855MPD2    H112612   1.320   1.263  13.458 -1.1500 -1.6749 -2.0060
  855MPD2    H212613   1.448   1.117  13.840  0.2341  1.0737  0.4376
  855MPD2    H312614   1.365   1.295  13.706 -0.6402 -0.3509 -0.5772
  855MPD2     N12615   1.375   1.059  13.320  0.2494  0.7405 -1.0571
  855MPD2    H512616   1.307   1.118  13.273 -0.9382  1.1183  1.1411
  855MPD2    N112617   1.522   0.863  13.730 -0.2007 -0.0498 -0.4412
  855MPD2    H712618   1.525   0.789  13.662  2.2936 -2.6664  2.5446
  856MPD2     C12619   3.267   1.733  14.115  0.1647  0.3419  0.3192
  856MPD2    C112620   3.321   1.850  14.070 -0.0660  0.2208  0.2650
  856MPD2    C212621   3.244   1.934  13.993 -0.2001  0.4860  0.3808
  856MPD2    C312622   3.116   1.888  13.960  0.3740  0.6993 -0.3684
  856MPD2    C412623   3.067   1.772  14.003 -0.7076  0.4429 -0.2003
  856MPD2    C512624   3.144   1.693  14.080 -0.9236 -0.2093  0.1474
  856MPD2     H12625   3.281   2.030  13.958 -1.7456  1.4896  1.4671
  856MPD2    H112626   2.964   1.743  13.985 -0.8479  0.9413 -0.2015
  856MPD2    H212627   3.311   1.673  14.194 -1.1238 -1.7444 -0.5504
  856MPD2    H312628   3.120   1.591  14.106 -2.1680  0.1155  0.2742
  856MPD2     N12629   3.026   1.960  13.877 -0.0493 -0.3159 -0.4932
  856MPD2    H512630   2.934   1.920  13.866 -1.1749  1.3885  2.5104
  856MPD2    N112631   3.450   1.899  14.096  0.5371 -0.0734 -0.5882
  856MPD2    H712632   3.478   1.987  14.054  0.4855  0.2271  0.0091
  857MPD2     C12633   0.315   4.122  12.522  0.0980 -0.2508  1.2228
  857MPD2    C112634   0.448   4.117  12.521  0.4114 -0.2546  0.8007
  857MPD2    C212635   0.521   4.217  12.595 -0.0662 -0.1086 -0.3553
  857MPD2    C312636   0.453   4.311  12.667  0.7138  0.7029 -0.5764
  857MPD2    C412637   0.311   4.324  12.659 -0.1007  0.4163  0.0689
  857MPD2    C512638   0.244   4.224  12.588 -1.2956  0.5649  0.1237
  857MPD2     H12639   0.629   4.213  12.601 -0.1340  0.0574  0.9867
  857MPD2    H112640   0.249   4.399  12.707 -2.1593 -1.1777 -0.1149
  857MPD2    H212641   0.258   4.041  12.479  1.5933 -1.3030  1.2412
  857MPD2    H312642   0.136   4.230  12.590 -1.3116 -0.1292  1.4473
  857MPD2     N12643   0.530   4.395  12.761  0.5189  0.0713 -0.0327
  857MPD2    H512644   0.628   4.370  12.767  0.3994 -0.4536 -0.2390
  857MPD2    N112645   0.512   4.011  12.454 -0.0352 -0.0204  0.2787
  857MPD2    H712646   0.452   3.939  12.416  1.6788 -1.8736  1.0520
  858MPD2     C12647   0.987   3.371  16.280 -0.0847 -0.4258  0.3037
  858MPD2    C112648   1.056   3.254  16.289  0.5917 -0.0434 -1.5366
  858MPD2    C212649   1.097   3.207  16.413  0.8351  0.3699 -0.2562
  858MPD2    C312650   1.064   3.271  16.530 -0.1946  0.1567 -0.0374
  858MPD2    C412651   0.998   3.391  16.519 -0.1708  0.3938  0.1359
  858MPD2    C512652   0.957   3.438  16.396  0.3675 -0.5774  0.1818
  858MPD2     H12653   1.147   3.110  16.415 -1.4813 -0.8493 -0.9620
  858MPD2    H112654   0.969   3.453  16.603  2.2825  1.5124  0.1539
  858MPD2    H212655   0.957   3.417  16.187 -1.5299 -0.2312  0.8770
  858MPD2    H312656   0.891   3.523  16.388 -0.3461 -1.0198  1.3748
  858MPD2     N12657   1.084   3.225  16.661 -0.2895 -0.5605  0.0455
  858MPD2    H512658   1.052   3.290  16.731  3.2382  1.5250 -0.3066
  858MPD2    N112659   1.066   3.186  16.167  0.2303 -0.8957  0.4011
  858MPD2    H712660   1.009   3.205  16.085  0.8393 -1.4945 -0.1516
  859MPD2     C12661   4.733   0.543  15.372  0.3525  0.2278  0.4782
  859MPD2    C112662   4.665   0.534  15.251  0.0337 -0.0798 -0.3497
  859MPD2    C212663   4.570   0.431  15.230 -0.4581 -0.0593 -0.4031
  859MPD2    C312664   4.543   0.342  15.333 -0.0449 -0.5155  0.1164
  859MPD2    C412665   4.605   0.355  15.458  0.0273 -0.1046 -0.0046
  859MPD2    C512666   4.704   0.451  15.475  0.5712  0.6326 -0.3367
  859MPD2     H12667   4.522   0.419  15.133  0.7515 -1.7717 -0.8004
  859MPD2    H112668   4.581   0.277  15.530 -1.0950  0.1301 -0.1162
  859MPD2    H212669   0.071   0.618  15.393 -2.1136  2.4038  1.6158
  859MPD2    H312670   0.013   0.464  15.572 -1.0857 -0.5682  0.6046
  859MPD2     N12671   4.467   0.222  15.315  0.1346 -0.1291 -0.2306
  859MPD2    H512672   4.452   0.166  15.399 -1.5529 -1.5641 -1.5004
  859MPD2    N112673   4.695   0.629  15.150  0.0826 -0.5350 -0.6203
  859MPD2    H712674   0.044   0.679  15.166 -0.3696 -0.1079  0.5176
  860MPD2     C12675   2.245   0.851  11.631 -0.5310  0.0075  0.5141
  860MPD2    C112676   2.249   0.844  11.772  0.3102  0.4516 -0.5094
  860MPD2    C212677   2.137   0.807  11.840 -0.0781 -0.0481  0.3678
  860MPD2    C312678   2.032   0.753  11.772 -0.0154  0.5157  0.0913
  860MPD2    C412679   2.035   0.747  11.633  0.0204  0.1674  0.1775
  860MPD2    C512680   2.142   0.790  11.564 -0.6760  1.4587  0.5201
  860MPD2     H12681   2.127   0.810  11.948 -0.8876  2.0719  0.2216
  860MPD2    H112682   1.960   0.690  11.579 -0.5138 -0.9725  2.1125
  860MPD2    H212683   2.331   0.879  11.571  1.9125 -3.8544  2.3047
  860MPD2    H312684   2.149   0.783  11.456 -1.1320  0.1814  0.5689
  860MPD2     N12685   1.923   0.708  11.843  0.4310  0.0013 -0.0308
  860MPD2    H512686   1.929   0.689  11.943 -3.5110 -0.8665  0.0215
  860MPD2    N112687   2.353   0.893  11.846 -0.1179 -0.0840  0.1925
  860MPD2    H712688   2.340   0.899  11.947  1.0256  2.6919  0.1785
  861MPD2     C12689   0.951   3.322  10.841 -0.3887 -0.5875  0.2226
  861MPD2    C112690   0.917   3.455  10.861  0.4015  0.0189 -0.3197
  861MPD2    C212691   0.884   3.534  10.752 -0.5155  0.0730 -0.7130
  861MPD2    C312692   0.883   3.479  10.625 -0.3981  0.2302  0.1449
  861MPD2    C412693   0.911   3.348  10.609 -0.1701 -0.4186  0.3514
  861MPD2    C512694   0.951   3.270  10.717  0.6047 -0.1261 -0.4803
  861MPD2     H12695   0.851   3.637  10.763  2.1024  0.7975  0.3857
  861MPD2    H112696   0.921   3.309  10.508 -1.8158  0.2284 -0.0680
  861MPD2    H212697   0.992   3.259  10.918  2.4465 -1.7530 -2.2379
  861MPD2    H312698   0.964   3.163  10.711 -0.3379 -0.2907  0.3733
  861MPD2     N12699   0.849   3.558  10.512 -0.0867 -0.3893 -0.0117
  861MPD2    H512700   0.842   3.508  10.424 -1.3026  0.1405 -0.2174
  861MPD2    N112701   0.924   3.517  10.993 -0.0230  0.3821 -0.2278
  861MPD2    H712702   0.911   3.617  11.003 -0.2118  0.2782  0.4949
  862MPD2     C12703   0.305   3.454  10.061 -1.2124 -0.3813 -0.1409
  862MPD2    C112704   0.420   3.415  10.128 -0.6025  0.3066  0.6088
  862MPD2    C212705   0.432   3.287  10.181 -0.0794  0.0843  0.2546
  862MPD2    C312706   0.334   3.192  10.162 -0.1801 -0.4387 -0.5567
  862MPD2    C412707   0.228   3.232  10.089 -0.2600 -0.2244 -0.0302
  862MPD2    C512708   0.209   3.357  10.043  0.2383  0.2183 -0.0720
  862MPD2     H12709   0.504   3.268  10.260  1.7916  1.7002 -1.0889
  862MPD2    H112710   0.137   3.173  10.079 -1.0808  0.7580  1.7085
  862MPD2    H212711   0.292   3.558  10.034  1.6414 -0.6295 -2.4575
  862MPD2    H312712   0.118   3.377   9.988 -0.6455 -0.8378  1.0177
  862MPD2     N12713   0.331   3.066  10.224  0.0192 -0.7182  0.2562
  862MPD2    H512714   0.247   3.010  10.230 -1.7713  2.0509  0.7596
  862MPD2    N112715   0.525   3.506  10.162  0.1981  0.1780 -0.1023
  862MPD2    H712716   0.577   3.474  10.243 -2.6055 -0.1442  1.5906
  863MPD2     C12717   3.891   1.867  16.745 -0.1132 -0.5000  0.0780
  863MPD2    C112718   3.929   1.786  16.643  0.0720  0.0636  0.0598
  863MPD2    C212719   4.054   1.739  16.638 -0.7228  0.0502 -1.1290
  863MPD2    C312720   4.147   1.792  16.719  0.1007 -0.2896 -0.0955
  863MPD2    C412721   4.114   1.882  16.817  0.4222  0.0618  0.6010
  863MPD2    C512722   3.986   1.914  16.835 -0.7579  0.3368  0.0947
  863MPD2     H12723   4.092   1.667  16.565 -2.9584  0.8600 -3.1005
  863MPD2    H112724   4.176   1.921  16.896 -0.9834 -1.2471  2.3389
  863MPD2    H212725   3.788   1.899  16.758  0.5364  1.4161  0.5166
  863MPD2    H312726   3.949   1.978  16.913 -3.4105 -0.9743 -0.0753
  863MPD2     N12727   4.281   1.748  16.719 -0.1818  0.6637  0.2523
  863MPD2    H512728   4.308   1.662  16.672  0.9610  0.5832  1.0549
  863MPD2    N112729   3.827   1.758  16.552 -0.6225 -0.6692  0.4242
  863MPD2    H712730   3.733   1.790  16.575  0.0374  1.6184  0.0160
  864MPD2     C12731   4.526   2.848  17.234 -0.2793  0.3711  0.1060
  864MPD2    C112732   4.624   2.797  17.142 -0.2445  0.0494  0.5111
  864MPD2    C212733   4.714   2.885  17.079 -0.3502  0.6312 -0.1606
  864MPD2    C312734   4.712   3.020  17.100  0.2366  0.5773 -0.1476
  864MPD2    C412735   4.612   3.061  17.185  0.3515 -0.0079 -0.3363
  864MPD2    C512736   4.523   2.983  17.256  0.0553  0.1187 -0.1907
  864MPD2     H12737   0.048   2.838  17.012 -1.1126  1.0306 -1.2399
  864MPD2    H112738   4.599   3.169  17.189  1.4002  0.1477 -1.0112
  864MPD2    H212739   4.455   2.781  17.282 -0.8767 -0.6159 -2.1647
  864MPD2    H312740   4.438   3.020  17.312 -0.9692 -0.6350 -1.2718
  864MPD2     N12741   0.058   3.119  17.042 -0.1200  0.3044  0.3722
  864MPD2    H512742   0.035   3.217  17.048  0.1966  0.3602  0.6571
  864MPD2    N112743   4.600   2.659  17.102  0.3150 -0.2341 -0.2007
  864MPD2    H712744   4.536   2.606  17.161 -0.0651 -0.3682 -0.7289
  865MPD2     C12745   4.428   3.251  16.331 -0.4315  0.8759 -0.2674
  865MPD2    C112746   4.559   3.218  16.289 -0.2102 -0.5928  0.1915
  865MPD2    C212747   4.661   3.275  16.361  0.1836  0.2894  0.1285
  865MPD2    C312748   4.638   3.347  16.480  0.1342 -0.1300 -0.4374
  865MPD2    C412749   4.514   3.392  16.507  0.1919  0.0052  0.5665
  865MPD2    C512750   4.402   3.342  16.438  0.2909 -0.1375 -0.3486
  865MPD2     H12751   0.027   3.246  16.343  0.0578  0.3591 -0.7217
  865MPD2    H112752   4.505   3.460  16.591 -1.0272  1.0888 -0.4517
  865MPD2    H212753   4.342   3.213  16.277  0.0835 -1.4290  0.5561
  865MPD2    H312754   4.303   3.374  16.470 -0.0744 -2.0104  0.4215
  865MPD2     N12755   0.013   3.372  16.564  0.1422 -0.4726 -0.2998
  865MPD2    H512756   0.099   3.326  16.538  1.0454  0.3193  1.2810
  865MPD2    N112757   4.575   3.121  16.191 -0.4549 -0.2501  0.5052
  865MPD2    H712758   4.503   3.055  16.163  0.4066 -1.7622  1.8834
  866MPD2     C12759   1.322   3.830  11.318 -0.0196 -0.0414 -0.1084
  866MPD2    C112760   1.282   3.731  11.217 -0.5333 -0.0167 -0.1930
  866MPD2    C212761   1.195   3.772  11.121  0.1675  0.6007  0.5965
  866MPD2    C312762   1.161   3.912  11.116 -0.5643  0.4296 -0.0096
  866MPD2    C412763   1.226   3.996  11.197  0.0428 -0.8807  0.2786
  866MPD2    C512764   1.301   3.962  11.305 -0.1233  0.1744  0.2724
  866MPD2     H12765   1.154   3.709  11.043  1.8516 -0.6151  0.7169
  866MPD2    H112766   1.207   4.103  11.191 -1.5547 -1.1891 -0.2282
  866MPD2    H212767   1.384   3.795  11.400 -1.4825 -1.0401  0.5666
  866MPD2    H312768   1.337   4.034  11.377  0.3631  0.6638 -0.4592
  866MPD2     N12769   1.066   3.976  11.028  0.3704  1.0436 -0.4610
  866MPD2    H512770   1.046   4.076  11.024  2.0495  1.3754 -0.3422
  866MPD2    N112771   1.328   3.596  11.234  0.5036 -0.2316 -0.4455
  866MPD2    H712772   1.383   3.576  11.316  0.4244 -1.6847 -0.7554
  867MPD2     C12773   3.328   2.986  16.160  0.1745  0.5703 -0.2680
  867MPD2    C112774   3.401   2.972  16.277 -0.2487  0.0366 -0.3219
  867MPD2    C212775   3.417   3.086  16.356 -0.2404 -0.2473 -0.2462
  867MPD2    C312776   3.392   3.213  16.306  0.2101 -0.4389 -0.2664
  867MPD2    C412777   3.340   3.224  16.183  0.1298 -0.2366 -0.1587
  867MPD2    C512778   3.313   3.113  16.111  0.0644 -0.1844 -1.0779
  867MPD2     H12779   3.457   3.072  16.456 -1.6620  0.3315  0.4018
  867MPD2    H112780   3.317   3.313  16.125 -0.0499  0.1606  0.5177
  867MPD2    H212781   3.295   2.900  16.103 -2.6733  1.3425  0.1839
  867MPD2    H312782   3.261   3.125  16.017  1.3910  0.4252 -1.7407
  867MPD2     N12783   3.419   3.332  16.385 -0.4521  0.0762  0.1834
  867MPD2    H512784   3.401   3.422  16.340 -0.3848  0.6951  1.3924
  867MPD2    N112785   3.439   2.844  16.323 -0.3556 -0.4111  1.0111
  867MPD2    H712786   3.408   2.764  16.269  1.1496  0.3557 -0.9732
  868MPD2     C12787   0.468   2.802  12.805 -0.3200 -0.7796 -0.8694
  868MPD2    C112788   0.454   2.671  12.816 -0.8271 -0.1315  0.6746
  868MPD2    C212789   0.346   2.613  12.874 -0.3900  0.2764  0.2538
  868MPD2    C312790   0.237   2.688  12.920 -0.2426 -0.0648  0.0352
  868MPD2    C412791   0.245   2.820  12.889 -0.1286 -0.1308 -1.0127
  868MPD2    C512792   0.362   2.879  12.838  0.1533 -1.1023 -0.3734
  868MPD2     H12793   0.344   2.505  12.886 -1.8738  0.4664  1.7077
  868MPD2    H112794   0.158   2.881  12.909  1.1408  1.2459  0.3796
  868MPD2    H212795   0.563   2.847  12.777  0.7005 -2.6538 -0.3911
  868MPD2    H312796   0.354   2.985  12.815  0.9008 -1.1844 -0.9881
  868MPD2     N12797   0.132   2.619  12.977  0.7931 -0.1671  0.6778
  868MPD2    H512798   0.137   2.518  12.981  1.4722 -0.2495 -2.7547
  868MPD2    N112799   0.568   2.595  12.773 -0.1222 -0.8731  0.2563
  868MPD2    H712800   0.643   2.649  12.732 -1.9869  2.2450  0.9159
  869MPD2     C12801   2.063   0.153   0.196 -0.1589 -0.8124  0.0166
  869MPD2    C112802   1.928   0.147   0.200  0.7779  0.3743  0.2755
  869MPD2    C212803   1.866   0.212   0.303  0.5471 -0.0696 -0.0158
  869MPD2    C312804   1.928   0.294   0.397 -0.8455  0.1987 -0.4446
  869MPD2    C412805   2.061   0.302   0.380 -0.8781 -0.9376 -0.0435
  869MPD2    C512806   2.119   0.243   0.277  0.2578  0.3003  0.6363
  869MPD2     H12807   1.760   0.190   0.311 -0.0693  3.5362  1.7477
  869MPD2    H112808   2.116   0.376   0.437 -1.9459 -0.4912  0.4033
  869MPD2    H212809   2.116   0.090   0.125  0.8662  1.1142 -0.9170
  869MPD2    H312810   2.226   0.257   0.268  0.0239  2.9289  1.8018
  869MPD2     N12811   1.860   0.356   0.504 -0.2403 -0.4542 -0.0984
  869MPD2    H512812   1.919   0.417   0.561 -0.7432 -0.4627  0.4269
  869MPD2    N112813   1.847   0.070   0.117 -0.5127  0.0031  0.2431
  869MPD2    H712814   1.748   0.086   0.133 -0.8307 -0.3743 -1.3810
  870MPD2     C12815   2.382   3.442   1.592  0.2537  0.2235 -0.0914
  870MPD2    C112816   2.280   3.404   1.510  0.3910  0.6055  0.0368
  870MPD2    C212817   2.198   3.505   1.472  0.0608 -0.6059  0.4097
  870MPD2    C312818   2.188   3.624   1.533  0.3599  0.2769  0.5110
  870MPD2    C412819   2.285   3.660   1.626 -0.1199 -0.0409  0.1887
  870MPD2    C512820   2.385   3.565   1.651 -0.1581 -0.3745  0.1539
  870MPD2     H12821   2.126   3.476   1.396 -0.1859 -0.5126  0.6082
  870MPD2    H112822   2.302   3.753   1.679  2.1322  0.2846 -1.0926
  870MPD2    H212823   2.448   3.362   1.622  0.7910  0.9688  0.6978
  870MPD2    H312824   2.450   3.592   1.734  1.2634  0.2709 -1.1591
  870MPD2     N12825   2.094   3.718   1.483  0.0953 -0.1169  0.0435
  870MPD2    H512826   2.033   3.686   1.408  2.7632 -0.0485 -2.1649
  870MPD2    N112827   2.289   3.271   1.460  0.5452 -0.7186  0.3108
  870MPD2    H712828   2.367   3.218   1.496  0.2328 -1.4600 -0.1086
  871MPD2     C12829   2.585   3.176  16.219 -0.3615 -0.1863 -1.2422
  871MPD2    C112830   2.537   3.142  16.344 -0.5943 -0.3545 -0.5337
  871MPD2    C212831   2.479   3.020  16.363  0.3545  0.5114  0.0568
  871MPD2    C312832   2.462   2.933  16.254  0.4974 -0.1180 -0.1028
  871MPD2    C412833   2.484   2.976  16.123 -0.5263 -0.0274  0.3668
  871MPD2    C512834   2.551   3.095  16.111 -0.6791 -0.3265  0.1225
  871MPD2     H12835   2.447   2.981  16.459  0.1119  0.5022 -0.0267
  871MPD2    H112836   2.458   2.922  16.032  0.6187 -1.1458  0.6990
  871MPD2    H212837   2.633   3.267  16.185  0.0688 -0.7975 -2.2658
  871MPD2    H312838   2.582   3.134  16.015  1.1387 -2.2915 -0.0829
  871MPD2     N12839   2.421   2.804  16.284 -0.2125  0.0594 -0.0102
  871MPD2    H512840   2.397   2.794  16.382 -0.4460 -1.1054 -0.1966
  871MPD2    N112841   2.547   3.239  16.443  0.5544  0.1360  0.1081
  871MPD2    H712842   2.593   3.322  16.409  4.1388 -1.2756  1.4885
  872MPD2     C12843   3.249   1.000  13.976  0.2922 -0.2876 -0.3357
  872MPD2    C112844   3.232   1.115  13.899  0.0159 -0.5796  0.6118
  872MPD2    C212845   3.114   1.164  13.861  0.7564  0.2226  0.0146
  872MPD2    C312846   2.997   1.104  13.901 -0.2234  0.3258 -0.7388
  872MPD2    C412847   3.008   0.992  13.978  0.0445  0.2126  0.6339
  872MPD2    C512848   3.131   0.937  14.006 -0.2854 -0.6471  0.5962
  872MPD2     H12849   3.104   1.255  13.803  1.4229  0.2433 -0.0636
  872MPD2    H112850   2.915   0.940  14.000 -1.2281  3.4334  2.9105
  872MPD2    H212851   3.344   0.965  14.017 -1.2939 -0.6326  3.0591
  872MPD2    H312852   3.132   0.846  14.065 -0.4284 -0.7032  0.5140
  872MPD2     N12853   2.873   1.147  13.864  0.1915 -0.0672 -0.1506
  872MPD2    H512854   2.798   1.108  13.919 -0.2908 -0.4474 -1.0811
  872MPD2    N112855   3.351   1.180  13.852  0.0588  0.5742 -0.1177
  872MPD2    H712856   3.339   1.256  13.787  0.1143  1.6469  1.1317
  873MPD2     C12857   4.410   1.367   0.368  0.1553  0.4400 -0.2073
  873MPD2    C112858   4.541   1.363   0.410 -0.1053 -0.7251 -0.4470
  873MPD2    C212859   4.615   1.261   0.358 -0.7792  0.3561 -0.0365
  873MPD2    C312860   4.552   1.160   0.278  0.2422  0.5029 -0.0166
  873MPD2    C412861   4.420   1.172   0.236  0.4405 -0.2668 -0.2475
  873MPD2    C512862   4.349   1.285   0.273 -0.0273  0.2743 -0.3942
  873MPD2     H12863   4.718   1.255   0.392 -0.0416 -1.6107 -2.6296
  873MPD2    H112864   4.370   1.106   0.165  1.4360 -1.0783 -0.1899
  873MPD2    H212865   4.343   1.448   0.393 -0.2218 -0.1428  0.6607
  873MPD2    H312866   4.244   1.295   0.246 -0.4150 -1.4076  0.4740
  873MPD2     N12867   4.616   1.032   0.243  0.0142 -0.3105 -0.2222
  873MPD2    H512868   4.579   0.962   0.180  0.5558 -2.9084  2.3533
  873MPD2    N112869   4.579   1.449   0.513  0.3309  0.7428  0.6095
  873MPD2    H712870   4.508   1.516   0.542  1.2366  1.0465  2.0923
  874MPD2     C12871   4.633   0.995  15.936  0.2298 -0.2668 -0.0491
  874MPD2    C112872   4.689   0.992  16.061  0.1101  0.1907  0.2761
  874MPD2    C212873   0.076   1.060  16.074  1.3981 -0.0126  0.0155
  874MPD2    C312874   0.127   1.142  15.969  0.0341  0.0234 -0.3648
  874MPD2    C412875   0.055   1.157  15.852 -0.0523  0.2435 -0.3766
  874MPD2    C512876   4.678   1.079  15.835 -0.2012 -0.2998  0.7224
  874MPD2     H12877   0.132   1.053  16.167 -0.7375  1.3726  1.4246
  874MPD2    H112878   0.080   1.224  15.771  0.2638 -0.5197 -0.9138
  874MPD2    H212879   4.545   0.937  15.912  0.7597 -1.4706  0.9091
  874MPD2    H312880   4.622   1.089  15.743  0.7230  0.5800  0.2639
  874MPD2     N12881   0.244   1.217  15.992 -0.2348 -1.0105  0.4555
  874MPD2    H512882   0.294   1.211  16.081  1.4365  0.0449 -0.4047
  874MPD2    N112883   4.632   0.898  16.151  0.2958  0.9778  0.0063
  874MPD2    H712884   4.552   0.847  16.116  0.1664  1.0736  0.1638
  875MPD2     C12885   1.336   4.372  14.402  0.1029 -0.6316 -0.0105
  875MPD2    C112886   1.259   4.274  14.473 -0.2840 -0.1492  0.7883
  875MPD2    C212887   1.287   4.264  14.607 -0.8273  0.4227  0.2161
  875MPD2    C312888   1.384   4.344  14.669  0.1128  0.1823 -0.8073
  875MPD2    C412889   1.445   4.446  14.600  0.1431 -0.4112  0.4656
  875MPD2    C512890   1.425   4.456  14.470  0.0839  0.0045 -0.2441
  875MPD2     H12891   1.221   4.202  14.666 -2.4535  1.9458  0.0135
  875MPD2    H112892   1.494   4.527  14.654  1.4556 -0.1676 -1.0973
  875MPD2    H212893   1.327   4.406  14.300 -0.9766  0.7170  0.5327
  875MPD2    H312894   1.466   4.541  14.417 -0.5403 -0.4863 -1.5160
  875MPD2     N12895   1.411   4.333  14.805 -0.4855 -0.2752  0.4701
  875MPD2    H512896   1.435   4.422  14.849 -0.8861 -0.6615  1.4783
  875MPD2    N112897   1.145   4.208  14.428 -0.4712  0.1414 -0.3749
  875MPD2    H712898   1.088   4.162  14.499  1.7813  1.5047  2.3127
  876MPD2     C12899   4.693   0.559  15.965 -0.1513 -0.1316  0.4056
  876MPD2    C112900   0.056   0.522  15.876 -0.0896 -0.2241 -0.2864
  876MPD2    C212901   0.133   0.411  15.900  0.8134 -0.1203  0.3928
  876MPD2    C312902   0.116   0.339  16.022  0.0655 -0.6028 -0.7331
  876MPD2    C412903   0.022   0.381  16.112  0.1155  0.2838 -0.0887
  876MPD2    C512904   4.682   0.492  16.086  0.4443 -0.2694  0.3735
  876MPD2     H12905   0.211   0.385  15.829  0.5899 -0.2815  0.2058
  876MPD2    H112906   4.735   0.333  16.207  2.2322  1.1780  0.8869
  876MPD2    H212907   4.632   0.644  15.937  1.9980  0.9323 -1.0400
  876MPD2    H312908   4.619   0.536  16.162 -0.2346 -1.1875  0.3306
  876MPD2     N12909   0.192   0.224  16.042 -0.0658  0.5711 -0.9610
  876MPD2    H512910   0.264   0.198  15.976 -0.2038 -0.6847 -0.6283
  876MPD2    N112911   0.082   0.613  15.775 -0.5933 -0.3203  0.2724
  876MPD2    H712912   0.002   0.674  15.759 -0.1317  0.2943  0.3534
  877MPD2     C12913   4.517   1.025  15.204  0.3138  0.2130 -0.3524
  877MPD2    C112914   4.648   1.064  15.217  0.3942  0.2219 -0.0218
  877MPD2    C212915   4.707   1.166  15.139  0.4398 -0.2741  0.3568
  877MPD2    C312916   4.632   1.213  15.036 -1.0412  0.5863  0.0674
  877MPD2    C412917   4.502   1.171  15.018  0.3021 -0.5353 -0.0084
  877MPD2    C512918   4.446   1.080  15.101 -0.3723 -0.2349 -0.4383
  877MPD2     H12919   0.070   1.197  15.169  0.5340 -0.7850  0.5758
  877MPD2    H112920   4.455   1.197  14.924 -0.8492  0.2635  0.7887
  877MPD2    H212921   4.469   0.954  15.271  0.2780  0.0621 -0.5388
  877MPD2    H312922   4.346   1.045  15.079 -0.2817 -1.0776  0.4759
  877MPD2     N12923   4.693   1.312  14.957  0.3944  0.1569 -0.9080
  877MPD2    H512924   0.057   1.315  14.964  0.5469 -1.9929 -2.1565
  877MPD2    N112925   4.728   1.011  15.326  0.2760  0.0465  0.0994
  877MPD2    H712926   0.088   1.041  15.331  0.7143 -1.2007 -0.7457
  878MPD2     C12927   0.000   0.453  13.239 -0.1102  0.4257 -0.1463
  878MPD2    C112928   0.023   0.577  13.289  0.2745  1.3744  0.3661
  878MPD2    C212929   0.038   0.596  13.424  0.5758  0.3685 -0.8450
  878MPD2    C312930   0.036   0.488  13.515 -0.7475  0.7026 -0.2610
  878MPD2    C412931   0.010   0.364  13.461 -0.2275 -0.2489 -0.0582
  878MPD2    C512932   4.737   0.347  13.327  0.3292  0.1926 -0.8323
  878MPD2     H12933   0.047   0.698  13.460 -0.8365 -0.3060  1.4114
  878MPD2    H112934   0.012   0.273  13.520  1.4486 -0.7340 -0.8742
  878MPD2    H212935   4.734   0.431  13.133  2.3316  1.2327 -0.3937
  878MPD2    H312936   4.723   0.248  13.285  0.1392 -0.2485  0.2568
  878MPD2     N12937   0.059   0.512  13.652  0.5760 -0.3739  0.2614
  878MPD2    H512938   0.075   0.611  13.667 -1.3333 -0.1509  0.7810
  878MPD2    N112939   0.023   0.684  13.199  0.4622  0.8292  1.0330
  878MPD2    H712940   0.030   0.657  13.102  0.9488  0.3607  1.1990
  879MPD2     C12941   0.354   1.100  17.064 -0.0779 -0.0627 -0.4082
  879MPD2    C112942   0.322   1.226  17.019  0.2969 -0.4087  0.2107
  879MPD2    C212943   0.212   1.245  16.942  0.2075 -0.0919  0.1580
  879MPD2    C312944   0.146   1.133  16.887  0.1392  0.0962  0.0867
  879MPD2    C412945   0.186   1.013  16.930  0.1024 -1.2362 -0.3672
  879MPD2    C512946   0.287   0.995  17.016 -0.7322 -0.6232  0.0451
  879MPD2     H12947   0.171   1.340  16.910  1.3952  0.9768  1.8170
  879MPD2    H112948   0.132   0.927  16.890 -0.2529 -0.7336 -0.9631
  879MPD2    H212949   0.441   1.084  17.126 -1.2927  1.3957  1.6998
  879MPD2    H312950   0.313   0.897  17.055 -0.2825 -1.4466 -2.3234
  879MPD2     N12951   0.038   1.128  16.797 -0.3668  0.1114 -0.4735
  879MPD2    H512952   4.734   1.036  16.791  2.9111 -1.3509 -0.2672
  879MPD2    N112953   0.399   1.337  17.074 -0.7099  0.1779 -0.2024
  879MPD2    H712954   0.481   1.315  17.129 -1.1716 -1.3724 -0.1466
  880MPD2     C12955   1.441   3.498   0.071 -0.2326 -0.2458 -0.7501
  880MPD2    C112956   1.489   3.528   0.192 -0.7497 -0.5345  0.1305
  880MPD2    C212957   1.563   3.439   0.265 -0.3604 -0.0578 -0.6937
  880MPD2    C312958   1.599   3.320   0.203 -0.0588  0.3908  0.5379
  880MPD2    C412959   1.564   3.294   0.067 -0.3761  0.3193  0.0461
  880MPD2    C512960   1.485   3.381   0.010  0.3621  0.2341 -0.5297
  880MPD2     H12961   1.597   3.454   0.367  0.1772 -1.1369 -0.7068
  880MPD2    H112962   1.606   3.217   0.005 -2.0909  1.2822 -2.3300
  880MPD2    H212963   1.382   3.564   0.009  1.5443  1.4852 -0.5823
  880MPD2    H312964   1.466   3.372  17.651 -1.2028  0.5173 -0.2779
  880MPD2     N12965   1.677   3.228   0.272  0.2121  1.0234 -0.0394
  880MPD2    H512966   1.698   3.252   0.368  2.5018  0.7039 -0.4587
  880MPD2    N112967   1.453   3.652   0.242  0.1879  0.1141  0.3178
  880MPD2    H712968   1.404   3.712   0.176  0.7324  1.9473  1.5684
  881MPD2     C12969   1.515   4.222  17.435  1.0645  0.5213 -0.9394
  881MPD2    C112970   1.629   4.163  17.484  0.7595 -0.0799  0.2040
  881MPD2    C212971   1.647   4.141  17.619 -0.5446  0.3912  0.5667
  881MPD2    C312972   1.535   4.152  17.692 -0.6043  0.6857 -0.0728
  881MPD2    C412973   1.412   4.198  17.647  0.3162  0.5200  0.1753
  881MPD2    C512974   1.406   4.240  17.517  0.8080 -0.0901 -0.0078
  881MPD2     H12975   1.741   4.097  17.652 -0.1122 -1.2514 -2.9294
  881MPD2    H112976   1.327   4.215  17.712 -0.5246 -0.2162 -0.7527
  881MPD2    H212977   1.492   4.247  17.332  0.8089  1.5920 -0.6199
  881MPD2    H312978   1.323   4.295  17.475 -0.1619 -0.6646  1.1511
  881MPD2     N12979   1.533   4.110   0.081 -0.6199 -0.0703  0.2397
  881MPD2    H512980   1.439   4.089   0.113 -0.1388 -2.8935 -0.1895
  881MPD2    N112981   1.731   4.151  17.387  0.3311  0.0716  0.1772
  881MPD2    H712982   1.707   4.200  17.301 -1.0485  0.1862  0.6141
  882MPD2     C12983   0.016   1.098  14.261  0.3498  0.4366 -0.4493
  882MPD2    C112984   4.675   1.204  14.289  0.6019  0.1310  0.3938
  882MPD2    C212985   4.550   1.217  14.231 -0.3806  0.3188 -0.0910
  882MPD2    C312986   4.503   1.117  14.150 -0.4211 -0.0461 -0.0110
  882MPD2    C412987   4.579   1.002  14.134  0.8160  0.5215  0.3465
  882MPD2    C512988   4.707   1.002  14.183 -0.5858  0.1412  0.4111
  882MPD2     H12989   4.490   1.297  14.274  0.9316  1.1632  0.1685
  882MPD2    H112990   4.550   0.926  14.063 -0.0871  0.1371  1.1252
  882MPD2    H212991   0.117   1.083  14.299  0.8415  0.8795 -1.5978
  882MPD2    H312992   0.039   0.926  14.148  1.6382  0.7832  3.3191
  882MPD2     N12993   4.370   1.108  14.102  0.5550  0.1534 -0.4534
  882MPD2    H512994   4.348   1.013  14.074 -0.1885  0.2346 -0.1556
  882MPD2    N112995   4.733   1.303  14.382  0.1149  0.2666 -0.9505
  882MPD2    H712996   0.070   1.279  14.446 -0.2629 -0.2827 -0.7247
  883MPD2     C12997   1.791   0.935  15.928 -0.0264  0.5021 -0.0756
  883MPD2    C112998   1.897   0.936  15.835 -0.5116  0.1711  0.5266
  883MPD2    C212999   2.025   0.925  15.882 -0.4218  0.6106  0.0235
  883MPD2    C313000   2.051   0.893  16.012  0.0068 -0.3948  0.1838
  883MPD2    C413001   1.950   0.893  16.106  0.0982 -0.1504  0.3349
  883MPD2    C513002   1.824   0.915  16.061  0.9888 -0.1683  0.4647
  883MPD2     H13003   2.120   0.933  15.830  0.1763  3.7532  1.6054
  883MPD2    H113004   1.955   0.876  16.212 -1.0487  0.1443  0.4417
  883MPD2    H213005   1.691   0.964  15.899 -0.8747 -0.6423  1.7217
  883MPD2    H313006   1.748   0.903  16.137 -0.1185 -2.3625 -0.9696
  883MPD2     N13007   2.188   0.877  16.052 -0.4653  0.3137  0.1824
  883MPD2    H513008   2.257   0.873  15.977 -0.8375 -0.9134 -0.0844
  883MPD2    N113009   1.872   0.965  15.701  0.0432  0.1025  0.3722
  883MPD2    H713010   1.952   0.979  15.641  1.1352  0.0312  1.8125
  884MPD2     C13011   4.040   2.132  14.552 -0.8745  0.7881  0.7013
  884MPD2    C113012   4.034   2.243  14.631  0.0952 -0.3560  0.6531
  884MPD2    C213013   3.914   2.306  14.660 -0.0060  0.0038 -0.1948
  884MPD2    C313014   3.795   2.260  14.612  0.6483 -0.6052 -0.3837
  884MPD2    C413015   3.799   2.159  14.522 -0.2589 -0.0428  0.1342
  884MPD2    C513016   3.922   2.097  14.493  0.3076  0.1449 -0.1588
  884MPD2     H13017   3.909   2.389  14.729 -0.1730 -1.1813  1.2357
  884MPD2    H113018   3.708   2.131  14.469 -0.6702 -0.7243  1.1991
  884MPD2    H213019   4.128   2.076  14.523 -1.2160  0.5569  0.1044
  884MPD2    H313020   3.921   2.004  14.436  1.1743 -1.5183  2.5137
  884MPD2     N13021   3.678   2.331  14.642 -0.3022 -0.0883  0.4911
  884MPD2    H513022   3.686   2.418  14.694  1.4446 -0.1555  0.3445
  884MPD2    N113023   4.139   2.293  14.693 -0.1775 -0.0605  0.0701
  884MPD2    H713024   4.117   2.376  14.748 -0.0042 -0.6132  0.9607
  885MPD2     C13025   1.872   2.113  17.719 -0.1147 -0.6738  0.6328
  885MPD2    C113026   1.998   2.145  17.695  0.2584 -0.3669  0.5152
  885MPD2    C213027   2.041   2.160  17.568  0.6610 -0.9318  0.6652
  885MPD2    C313028   1.944   2.163  17.466 -0.2353  0.8790  0.1047
  885MPD2    C413029   1.806   2.141  17.499  0.4987 -0.2830 -0.1553
  885MPD2    C513030   1.774   2.117  17.627 -0.0974  0.1361 -0.0997
  885MPD2     H13031   2.142   2.194  17.551  0.7743 -1.6667 -0.1380
  885MPD2    H113032   1.729   2.138  17.423  1.0248 -0.7190 -0.6714
  885MPD2    H213033   1.835   2.082   0.068  2.9137  0.1669  2.0644
  885MPD2    H313034   1.670   2.092  17.647 -0.4404  1.6849  0.0426
  885MPD2     N13035   1.995   2.190  17.340  0.1342  0.2221  0.2227
  885MPD2    H513036   2.096   2.200  17.341  0.0726  0.8630  0.1133
  885MPD2    N113037   2.084   2.146   0.063  0.2029 -0.0049 -0.0234
  885MPD2    H713038   2.050   2.145   0.158 -1.0865 -0.1566 -0.4926
  886MPD2     C13039   3.846   0.179  14.877  0.2846  0.5436 -0.0905
  886MPD2    C113040   3.772   0.255  14.965 -0.7159  0.3778 -0.2413
  886MPD2    C213041   3.744   0.383  14.915 -0.2154  1.0887  0.2605
  886MPD2    C313042   3.789   0.421  14.791 -0.1162 -0.2511 -0.1104
  886MPD2    C413043   3.868   0.339  14.714 -0.1576 -1.0475  0.0600
  886MPD2    C513044   3.894   0.219  14.767  0.4015  0.4875 -0.0412
  886MPD2     H13045   3.704   0.461  14.980  0.3381  0.6016  1.1984
  886MPD2    H113046   3.900   0.363  14.614 -1.2206 -0.8363 -0.2335
  886MPD2    H213047   3.884   0.081  14.906  0.2727  1.2575  2.3672
  886MPD2    H313048   3.948   0.152  14.700 -1.2997 -1.5006  0.5827
  886MPD2     N13049   3.760   0.541  14.733 -0.5200  0.2000 -1.0587
  886MPD2    H513050   3.828   0.579  14.668  0.8480  2.7158  1.8152
  886MPD2    N113051   3.742   0.231  15.103 -0.6964 -0.3173  0.5903
  886MPD2    H713052   3.723   0.311  15.164 -2.2580  0.1782 -0.5406
  887MPD2     C13053   3.979   0.539  15.717  0.0243 -0.5965  0.0674
  887MPD2    C113054   3.960   0.546  15.580  0.3246  0.0494 -0.0148
  887MPD2    C213055   3.961   0.666  15.514 -0.0246 -0.3769  0.3874
  887MPD2    C313056   3.982   0.781  15.580 -0.3663 -0.2351 -0.6070
  887MPD2    C413057   4.011   0.778  15.714  0.2869 -0.2500 -0.2204
  887MPD2    C513058   4.017   0.656  15.781 -0.6354  0.1509  0.1994
  887MPD2     H13059   3.935   0.675  15.409 -0.2602  4.8906  0.8718
  887MPD2    H113060   4.033   0.866  15.772 -1.0209 -0.2955  0.3577
  887MPD2    H213061   4.006   0.449  15.772 -1.9882  0.1492  2.3304
  887MPD2    H313062   4.052   0.662  15.884 -0.1460  0.9755 -0.0132
  887MPD2     N13063   3.998   0.897  15.501  0.0032 -0.0550  0.4061
  887MPD2    H513064   3.978   0.888  15.402 -2.2455  3.2943  0.5471
  887MPD2    N113065   3.957   0.423  15.498 -0.5609  0.1170 -0.0464
  887MPD2    H713066   3.937   0.439  15.400 -1.9070 -2.1704 -0.1435
  888MPD2     C13067   0.915   0.523  14.972 -0.1869 -0.1835  0.4984
  888MPD2    C113068   1.031   0.497  15.042  0.4842  0.2404  0.2407
  888MPD2    C213069   1.101   0.607  15.092 -0.9643 -0.0392 -0.1313
  888MPD2    C313070   1.063   0.740  15.063 -0.0545 -0.2362 -0.2666
  888MPD2    C413071   0.952   0.751  14.977 -0.0234  0.4506  0.0826
  888MPD2    C513072   0.877   0.648  14.944 -0.6695 -0.2399 -0.2365
  888MPD2     H13073   1.192   0.592  15.148 -0.4987  0.0602 -0.8632
  888MPD2    H113074   0.918   0.841  14.927  2.3005  1.6928  0.7215
  888MPD2    H213075   0.849   0.459  14.914  0.4416  1.3331 -1.8756
  888MPD2    H313076   0.800   0.664  14.870 -1.8186 -1.1926  0.7437
  888MPD2     N13077   1.140   0.853  15.111  0.0546 -0.7485  0.1433
  888MPD2    H513078   1.215   0.834  15.178 -1.0292 -1.6594  1.0965
  888MPD2    N113079   1.094   0.369  15.053  0.6911 -0.3755 -0.2349
  888MPD2    H713080   1.180   0.359  15.106 -0.4968 -1.4914  1.4950
  889MPD2     C13081   0.467   0.419  12.771 -0.4717  0.9019 -0.8634
  889MPD2    C113082   0.494   0.375  12.898  0.0692  0.3812  0.0056
  889MPD2    C213083   0.492   0.467  13.002  0.1045  0.1819 -0.7056
  889MPD2    C313084   0.431   0.593  12.982 -0.0202  0.1924  0.0628
  889MPD2    C413085   0.385   0.629  12.854 -0.4596  0.1471  0.5711
  889MPD2    C513086   0.418   0.541  12.752  0.2216  0.6186  0.3836
  889MPD2     H13087   0.527   0.438  13.100 -1.0344  0.0780 -0.3282
  889MPD2    H113088   0.336   0.719  12.818  0.8761  1.1580  1.2866
  889MPD2    H213089   0.484   0.358  12.683 -0.8376 -1.8641  1.0035
  889MPD2    H313090   0.406   0.563  12.647  0.6165 -1.1716 -0.0317
  889MPD2     N13091   0.421   0.678  13.097 -0.3239 -0.2050 -0.2077
  889MPD2    H513092   0.450   0.640  13.187 -2.1177 -0.5190  0.2362
  889MPD2    N113093   0.570   0.259  12.905  0.4894 -0.6463  0.0894
  889MPD2    H713094   0.597   0.209  12.821  0.2729 -1.7556  0.6838
  890MPD2     C13095   0.007   1.907  14.300  0.4051  0.5848 -0.2396
  890MPD2    C113096   0.139   1.940  14.313 -0.3744 -0.0110  0.2821
  890MPD2    C213097   0.205   1.913  14.430  0.6526 -0.2510 -0.0178
  890MPD2    C313098   0.134   1.858  14.535 -0.3514 -0.4923  0.7363
  890MPD2    C413099   0.002   1.825  14.522  0.3373 -0.6058  0.7104
  890MPD2    C513100   4.679   1.849  14.398 -0.8091 -0.3278 -0.0567
  890MPD2     H13101   0.311   1.935  14.430  0.7425 -0.6893 -2.4728
  890MPD2    H113102   4.669   1.793  14.599 -0.6224 -3.2429 -1.2686
  890MPD2    H213103   4.689   1.940  14.213 -0.2071 -0.0951 -0.1062
  890MPD2    H313104   4.576   1.819  14.382 -0.8118 -0.0505 -0.5573
  890MPD2     N13105   0.206   1.843  14.654  0.2712 -0.2421  0.2888
  890MPD2    H513106   0.300   1.880  14.657 -1.0287  2.7978  2.5173
  890MPD2    N113107   0.202   2.003  14.202  0.0747 -0.0981  0.3654
  890MPD2    H713108   0.142   2.016  14.122  1.2409  0.7246 -0.3871
  891MPD2     C13109   2.725   4.506  16.576  0.1680 -0.3650  0.3207
  891MPD2    C113110   2.774   4.626  16.619  0.1968  0.2559  0.2946
  891MPD2    C213111   2.886   4.635  16.704  0.6767 -0.5056 -0.2009
  891MPD2    C313112   2.950   4.524  16.740 -0.0183  0.1575 -0.3213
  891MPD2    C413113   2.902   4.404  16.696  0.0703 -0.0461  0.2063
  891MPD2    C513114   2.801   4.391  16.607 -0.3604 -0.6658 -0.0729
  891MPD2     H13115   2.924   4.728  16.745  0.7900 -0.9744  0.7366
  891MPD2    H113116   2.960   4.319  16.730 -0.7289 -0.5815  0.2303
  891MPD2    H213117   2.638   4.494  16.513  1.3320 -0.1048 -1.3300
  891MPD2    H313118   2.771   4.295  16.569  0.8489 -0.4168 -1.6449
  891MPD2     N13119   3.067   4.547  16.805 -0.8478  0.1570 -0.4389
  891MPD2    H513120   3.101   4.642  16.813 -2.0230  0.5919 -0.5752
  891MPD2    N113121   2.706   0.003  16.583 -0.1377 -0.7864  0.1614
  891MPD2    H713122   2.613   4.727  16.543 -0.6582  0.9207  0.7576
  892MPD2     C13123   3.930   1.771  14.562  1.0357 -0.3637 -0.3130
  892MPD2    C113124   3.821   1.722  14.490 -0.2576 -0.4282 -0.0209
  892MPD2    C213125   3.837   1.617  14.394 -0.1455  0.1332  0.2926
  892MPD2    C313126   3.957   1.552  14.378 -0.0849  0.0358  0.3058
  892MPD2    C413127   4.065   1.600  14.452  1.0774 -0.1109  0.5596
  892MPD2    C513128   4.050   1.709  14.538 -0.1041 -0.1265  0.4083
  892MPD2     H13129   3.751   1.587  14.335  2.1079 -1.2005 -2.2858
  892MPD2    H113130   4.163   1.554  14.455  0.4784 -1.2202  3.1900
  892MPD2    H213131   3.926   1.839  14.646  1.6886  0.7901 -1.2194
  892MPD2    H313132   4.132   1.738  14.602  0.6317 -0.9202 -0.1542
  892MPD2     N13133   3.976   1.446  14.293  0.2154 -0.2748 -0.4861
  892MPD2    H513134   4.074   1.420  14.292  0.2023 -0.3439  0.1090
  892MPD2    N113135   3.689   1.780  14.505  0.0850  0.0325  0.1276
  892MPD2    H713136   3.618   1.744  14.442  0.9864 -1.9428  0.2521
  893MPD2     C13137   0.865   0.195   0.915 -0.4131 -0.3089 -0.1984
  893MPD2    C113138   0.901   0.100   1.004  0.3660 -0.8601  0.0398
  893MPD2    C213139   0.815   0.077   1.106  0.5086  0.4551  0.0816
  893MPD2    C313140   0.689   0.132   1.125 -0.7777  0.0543 -0.7743
  893MPD2    C413141   0.665   0.239   1.038 -0.7683  0.0412 -0.4537
  893MPD2    C513142   0.746   0.262   0.933  0.1830 -0.5124 -0.1693
  893MPD2     H13143   0.843   0.003   1.180  0.4517 -2.0559 -2.4083
  893MPD2    H113144   0.571   0.288   1.057 -0.5344  1.1228 -2.0826
  893MPD2    H213145   0.930   0.212   0.830  0.4269  1.4160  0.7761
  893MPD2    H313146   0.727   0.340   0.861  0.3406 -1.1067 -0.8594
  893MPD2     N13147   0.588   0.083   1.209 -0.0596  0.3964  0.2141
  893MPD2    H513148   0.498   0.129   1.205 -0.6483 -0.7104  0.6982
  893MPD2    N113149   1.024   0.026   0.979  0.0087 -0.0289 -0.0315
  893MPD2    H713150   1.073   0.060   0.897 -1.3864 -0.8174 -1.1806
  894MPD2     C13151   3.757   1.658   0.711 -0.5447 -0.1323 -0.5161
  894MPD2    C113152   3.681   1.749   0.782  0.5663 -0.1505  0.3589
  894MPD2    C213153   3.677   1.883   0.750  0.0300  0.2236  0.2029
  894MPD2    C313154   3.747   1.932   0.640 -0.9745  0.5061  0.1084
  894MPD2    C413155   3.826   1.838   0.575 -0.4197  0.3217  0.4830
  894MPD2    C513156   3.830   1.703   0.606  0.3585  0.0927  0.3537
  894MPD2     H13157   3.616   1.952   0.806  0.0178  0.4624 -0.1070
  894MPD2    H113158   3.881   1.866   0.486 -1.4537  0.4157 -0.1341
  894MPD2    H213159   3.745   1.551   0.725  1.4476 -0.2947 -0.0099
  894MPD2    H313160   3.885   1.631   0.546  1.7249 -0.0545  1.8016
  894MPD2     N13161   3.766   2.075   0.610 -0.0805 -0.1109  0.5153
  894MPD2    H513162   3.713   2.130   0.677  0.8725  3.6134 -1.7870
  894MPD2    N113163   3.600   1.712   0.892  0.3000  0.1149  0.1902
  894MPD2    H713164   3.531   1.785   0.906  2.2230  1.6083  1.8264
  895MPD2     C13165   3.633   0.092  13.761 -0.4744  0.2628  0.1452
  895MPD2    C113166   3.495   0.102  13.758  0.2578  0.3926  0.6597
  895MPD2    C213167   3.415   4.732  13.808 -0.2104 -0.4930  0.1618
  895MPD2    C313168   3.483   4.615  13.841  0.1958  0.2007 -0.2983
  895MPD2    C413169   3.622   4.608  13.840  0.9171  0.4078 -0.2968
  895MPD2    C513170   3.697   4.718  13.806  0.0749 -0.0533 -1.1084
  895MPD2     H13171   3.307   4.733  13.796 -0.0340  1.2673 -1.1732
  895MPD2    H113172   3.681   4.522  13.871  0.0190 -0.3708 -0.7560
  895MPD2    H213173   3.699   0.174  13.735 -0.1205 -0.0330  0.1004
  895MPD2    H313174   3.805   4.710  13.813 -0.1833 -0.4230  2.5748
  895MPD2     N13175   3.416   4.497  13.863 -0.3523 -0.0575  0.2070
  895MPD2    H513176   3.472   4.415  13.881 -2.5504 -1.3278  1.1387
  895MPD2    N113177   3.424   0.215  13.716 -0.3062  0.2763 -0.4168
  895MPD2    H713178   3.325   0.203  13.701 -0.5227 -0.5072  1.6608
  896MPD2     C13179   1.091   3.132   1.339  0.4116  0.1200 -0.5079
  896MPD2    C113180   1.041   3.113   1.213  0.5584  0.5249 -0.1304
  896MPD2    C213181   0.907   3.096   1.194 -0.0845  0.3627 -0.0440
  896MPD2    C313182   0.816   3.084   1.301  0.0585  0.3716 -0.7220
  896MPD2    C413183   0.876   3.083   1.422  0.0624  0.3005 -0.3009
  896MPD2    C513184   1.006   3.120   1.444  0.5357  0.2241 -0.2227
  896MPD2     H13185   0.866   3.085   1.094 -1.9373  0.2285  0.7385
  896MPD2    H113186   0.813   3.066   1.509  2.9019 -0.6697  1.6051
  896MPD2    H213187   1.197   3.150   1.357  0.1709  0.8645  0.1716
  896MPD2    H313188   1.044   3.131   1.545 -1.6277  0.9501  0.5250
  896MPD2     N13189   0.683   3.052   1.279  0.2188 -0.4040 -0.4483
  896MPD2    H513190   0.656   3.010   1.191 -1.0107 -1.0005  0.2265
  896MPD2    N113191   1.128   3.127   1.108 -0.5265 -0.4896  1.0102
  896MPD2    H713192   1.223   3.156   1.131 -0.6758  1.8489 -1.2200
  897MPD2     C13193   1.797   4.564  10.330  0.5711 -0.5260 -1.1252
  897MPD2    C113194   1.730   4.674  10.299  0.7201  0.7962  0.5988
  897MPD2    C213195   1.616   4.709  10.364  0.5162  0.0704  0.2614
  897MPD2    C313196   1.567   4.621  10.458 -0.2535 -0.0024 -0.2786
  897MPD2    C413197   1.645   4.516  10.502 -1.3411  0.3672 -0.3401
  897MPD2    C513198   1.755   4.485  10.433 -0.3341 -0.2796  0.1367
  897MPD2     H13199   1.552   0.051  10.328 -0.1308 -0.7923 -0.4990
  897MPD2    H113200   1.615   4.452  10.584 -1.8783  0.9556 -0.0800
  897MPD2    H213201   1.892   4.532  10.288  1.4652  1.2557 -0.4685
  897MPD2    H313202   1.809   4.393  10.454  1.1109 -0.0658 -2.5346
  897MPD2     N13203   1.436   4.641  10.495 -0.5663  0.9653  0.3084
  897MPD2    H513204   1.377   4.700  10.438 -0.7728  1.9391  1.5145
  897MPD2    N113205   1.776   0.016  10.196  0.6043  0.5658  0.1434
  897MPD2    H713206   1.722   0.102  10.192  1.1053  0.7389 -3.0665
  898MPD2     C13207   3.024   0.721  17.595  0.0801 -0.6310  0.1234
  898MPD2    C113208   3.157   0.696  17.592  0.0366  0.3924  0.0073
  898MPD2    C213209   3.237   0.788  17.524 -0.0708  0.7024 -0.2005
  898MPD2    C313210   3.185   0.904  17.478  0.0335  0.2963  0.1333
  898MPD2    C413211   3.055   0.935  17.495  0.1764  0.9596  0.4292
  898MPD2    C513212   2.971   0.842  17.543  0.1097  0.2521  0.3036
  898MPD2     H13213   3.343   0.777  17.504 -0.0732 -1.9587  1.2483
  898MPD2    H113214   3.019   1.026  17.449 -1.5191 -0.1397 -0.4169
  898MPD2    H213215   2.948   0.649  17.623 -1.8862  0.8656 -1.3403
  898MPD2    H313216   2.864   0.861  17.546 -0.0935 -1.2209  2.1119
  898MPD2     N13217   3.280   0.996  17.432  0.3410 -0.2972  0.4239
  898MPD2    H513218   3.376   0.966  17.441  0.0664 -1.2141  0.2415
  898MPD2    N113219   3.206   0.574  17.632 -0.2865 -0.7546  0.6536
  898MPD2    H713220   3.306   0.561  17.634 -0.5086 -2.2475  1.7425
  899MPD2     C13221   4.396   1.226  17.036  0.8198  1.2474  0.3341
  899MPD2    C113222   4.474   1.323  17.091 -0.0977 -0.1588  0.3495
  899MPD2    C213223   4.524   1.317  17.219  0.2689  0.4760  0.0365
  899MPD2    C313224   4.473   1.222  17.308  0.0258 -0.0110  0.5758
  899MPD2    C413225   4.394   1.125  17.249  0.5971 -0.1881 -0.4118
  899MPD2    C513226   4.355   1.124  17.116 -0.1702 -0.0151  0.8542
  899MPD2     H13227   4.583   1.404  17.244 -0.6405  1.2869 -0.6595
  899MPD2    H113228   4.355   1.042  17.306 -1.3748  0.1801 -1.2098
  899MPD2    H213229   4.360   1.225  16.933  0.3435  1.9568  0.4982
  899MPD2    H313230   4.288   1.043  17.087  0.8370 -0.7629  0.6156
  899MPD2     N13231   4.497   1.223  17.449  0.5242  0.0450  0.1783
  899MPD2    H513232   4.445   1.155  17.505 -0.5263  1.1437  0.5458
  899MPD2    N113233   4.500   1.434  17.012  0.1998  0.2320  0.1427
  899MPD2    H713234   4.457   1.438  16.920  3.4247 -2.4871 -1.4917
  900MPD2     C13235   3.975   3.287  12.515 -0.5765 -0.0482 -0.3845
  900MPD2    C113236   3.891   3.182  12.482 -0.3666 -0.2642  0.1580
  900MPD2    C213237   3.766   3.213  12.427 -0.0711  0.4097 -0.3958
  900MPD2    C313238   3.717   3.346  12.419 -0.5337  0.4014  0.2300
  900MPD2    C413239   3.796   3.445  12.472 -0.0635 -0.2242 -0.2982
  900MPD2    C513240   3.929   3.417  12.507 -0.7570  0.2187  0.1449
  900MPD2     H13241   3.702   3.135  12.386  0.1662  0.3574 -0.6665
  900MPD2    H113242   3.762   3.548  12.465 -1.6834 -0.7391 -0.1698
  900MPD2    H213243   4.076   3.263  12.544  0.2390  2.1107 -1.3958
  900MPD2    H313244   3.996   3.491  12.550  0.0350 -0.1629 -0.4372
  900MPD2     N13245   3.591   3.366  12.352  0.1399 -0.2259 -0.3698
  900MPD2    H513246   3.550   3.278  12.322  0.0145 -0.4811  0.5745
  900MPD2    N113247   3.939   3.050  12.493 -0.4260 -0.0553  0.5336
  900MPD2    H713248   4.038   3.038  12.515 -1.0582  0.2988  3.4727
  901MPD2     C13249   3.746   2.132  13.055  0.0086  0.2283  0.6853
  901MPD2    C113250   3.875   2.185  13.065 -0.2845 -0.7286 -0.8182
  901MPD2    C213251   3.919   2.273  12.972 -0.0577  0.0662  0.0575
  901MPD2    C313252   3.832   2.332  12.880  0.7211 -0.0992  0.1397
  901MPD2    C413253   3.704   2.290  12.874  0.4654 -0.6884  0.0552
  901MPD2    C513254   3.661   2.200  12.972  0.5875 -0.0626  0.4022
  901MPD2     H13255   4.022   2.307  12.975 -0.1536  0.5022 -1.2259
  901MPD2    H113256   3.629   2.338  12.813 -1.0259 -3.3082 -0.1842
  901MPD2    H213257   3.696   2.077  13.134 -0.3678 -1.7430 -0.9477
  901MPD2    H313258   3.554   2.186  12.984  0.1296  1.0090 -2.3050
  901MPD2     N13259   3.891   2.431  12.797 -0.0072 -0.1831 -0.6060
  901MPD2    H513260   3.989   2.450  12.813  0.5058 -1.6431 -2.0533
  901MPD2    N113261   3.965   2.130  13.157  0.0575 -0.3557 -0.2240
  901MPD2    H713262   3.937   2.048  13.210 -1.4422 -0.8937 -1.8509
  902MPD2     C13263   3.078   1.123  12.892 -0.1322  0.5167  0.3340
  902MPD2    C113264   3.066   1.150  12.759 -0.4395  0.3727  0.0873
  902MPD2    C213265   3.159   1.099  12.669 -0.1471  0.4396 -0.4872
  902MPD2    C313266   3.256   1.010  12.706 -0.3082 -0.4180 -0.1928
  902MPD2    C413267   3.252   0.974  12.840 -0.1861  0.4540  0.2640
  902MPD2    C513268   3.161   1.023  12.928 -0.0715  0.2051 -0.1518
  902MPD2     H13269   3.161   1.123  12.564 -0.7124 -1.5860 -0.9650
  902MPD2    H113270   3.332   0.907  12.869  0.2444  0.2863 -1.3358
  902MPD2    H213271   3.022   1.162  12.976 -1.3925 -3.3598  1.3104
  902MPD2    H313272   3.160   0.978  13.027 -0.4618 -1.5242 -0.9390
  902MPD2     N13273   3.358   0.978  12.617  0.2464  0.4630  0.4097
  902MPD2    H513274   3.358   1.014  12.523  1.3196 -0.5591  0.0183
  902MPD2    N113275   2.964   1.240  12.721 -0.4622  0.4282  0.2049
  902MPD2    H713276   2.919   1.294  12.794 -1.5825 -0.2813  0.0324
  903MPD2     C13277   3.402   1.254  11.938 -0.0168  0.6474  0.1547
  903MPD2    C113278   3.365   1.193  12.059 -0.6982 -1.0073 -0.4880
  903MPD2    C213279   3.231   1.158  12.071 -0.3327 -0.2195 -0.2659
  903MPD2    C313280   3.135   1.164  11.975  0.0546  0.2426  0.2723
  903MPD2    C413281   3.173   1.227  11.861 -0.2825 -0.1689  0.3700
  903MPD2    C513282   3.305   1.269  11.840  0.0158 -0.4919 -0.0739
  903MPD2     H13283   3.197   1.119  12.166  0.2631 -1.4251 -0.5458
  903MPD2    H113284   3.112   1.213  11.772 -1.1204 -0.2572  0.9539
  903MPD2    H213285   3.501   1.286  11.910 -1.0403  0.3010 -3.7432
  903MPD2    H313286   3.338   1.312  11.746 -0.7135 -4.6133 -2.2293
  903MPD2     N13287   2.996   1.122  12.001  0.2866  0.6925  0.3685
  903MPD2    H513288   2.978   1.086  12.094 -0.7773  2.8756  0.9946
  903MPD2    N113289   3.466   1.162  12.156 -0.6477  0.2683 -0.0056
  903MPD2    H713290   3.564   1.175  12.132 -0.8373 -0.7755 -1.3721
  904MPD2     C13291   2.955   0.120  14.389 -0.0555 -0.1006 -0.4137
  904MPD2    C113292   2.928   0.002  14.332 -0.3349 -0.0246 -0.0666
  904MPD2    C213293   3.035   4.651  14.317  0.1143 -0.4982  0.1225
  904MPD2    C313294   3.165   4.694  14.328  0.3791 -0.2143  1.2268
  904MPD2    C413295   3.193   0.085  14.380  0.1867 -0.8165  0.3423
  904MPD2    C513296   3.083   0.159  14.417  0.0850  0.3413 -0.0895
  904MPD2     H13297   3.012   4.550  14.284 -0.4163 -0.3561  0.0547
  904MPD2    H113298   3.292   0.130  14.384 -0.7288  1.1224  1.2250
  904MPD2    H213299   2.880   0.191  14.422 -1.4354 -0.9140 -1.8263
  904MPD2    H313300   3.095   0.255  14.466 -2.7259  1.3375 -1.3738
  904MPD2     N13301   3.269   4.611  14.293  0.0039 -0.5873 -0.1924
  904MPD2    H513302   3.252   4.511  14.283 -1.1983 -0.3236 -0.6971
  904MPD2    N113303   2.800   4.689  14.298 -0.5373 -0.0436 -0.7644
  904MPD2    H713304   2.809   4.600  14.250  0.1793 -1.3486  1.7334
  905MPD2     C13305   2.608   4.364  13.567  0.7778  0.3318  0.4541
  905MPD2    C113306   2.646   4.374  13.700  0.1316  0.7649  0.0885
  905MPD2    C213307   2.774   4.316  13.736  0.7203  0.5553  0.3730
  905MPD2    C313308   2.843   4.228  13.649 -0.2437  0.3092  0.3438
  905MPD2    C413309   2.801   4.214  13.523 -0.3782  0.0266  0.2815
  905MPD2    C513310   2.683   4.278  13.484  0.0238 -0.1789 -0.4332
  905MPD2     H13311   2.833   4.336  13.825  2.0605 -0.8531 -0.1954
  905MPD2    H113312   2.843   4.141  13.455  0.1547  0.9934 -0.4355
  905MPD2    H213313   2.509   4.399  13.537  0.3343 -0.4646  1.0076
  905MPD2    H313314   2.653   4.257  13.382  0.0539  1.7424 -0.8536
  905MPD2     N13315   2.957   4.160  13.699  0.4291  0.4242 -0.1555
  905MPD2    H513316   3.036   4.132  13.642  0.6691  3.3659 -1.2813
  905MPD2    N113317   2.583   4.470  13.787  0.2046 -0.2064  0.4671
  905MPD2    H713318   2.512   4.530  13.747  1.3740  0.6757 -0.2821
  906MPD2     C13319   0.103   0.555  10.514  0.0116 -0.9136 -0.4146
  906MPD2    C113320   0.158   0.431  10.518  0.6507  0.1784  0.7680
  906MPD2    C213321   0.171   0.367  10.636  0.8574  0.4744  0.3221
  906MPD2    C313322   0.141   0.441  10.757 -0.5060  0.3342  0.1968
  906MPD2    C413323   0.084   0.565  10.752  0.5809  0.6740  0.2490
  906MPD2    C513324   0.070   0.622  10.631 -0.3483  0.0545  0.0121
  906MPD2     H13325   0.211   0.266  10.645 -1.6056 -0.5884 -0.4878
  906MPD2    H113326   0.070   0.611  10.849 -0.2694  0.4126  0.2480
  906MPD2    H213327   0.084   0.609  10.422 -0.8553  0.0154  0.3093
  906MPD2    H313328   0.032   0.723  10.634 -0.3125  0.1080 -1.4452
  906MPD2     N13329   0.165   0.374  10.884 -0.1872  0.4947 -0.1429
  906MPD2    H513330   0.130   0.423  10.965 -1.9468  2.3791 -2.0292
  906MPD2    N113331   0.188   0.366  10.394  0.1967 -0.0202  0.2512
  906MPD2    H713332   0.201   0.266  10.406  3.2703  0.4795  1.0648
  907MPD2     C13333   4.040   3.924  15.046 -0.5888 -0.1977 -0.2123
  907MPD2    C113334   4.000   3.797  15.085 -0.0270  0.2929 -0.2141
  907MPD2    C213335   4.037   3.762  15.210 -0.2539 -0.6430  0.4846
  907MPD2    C313336   4.116   3.836  15.292  0.3527 -0.0336  0.0062
  907MPD2    C413337   4.162   3.956  15.246  0.0224  0.2383 -0.6504
  907MPD2    C513338   4.121   4.001  15.121 -0.2674 -0.4311  0.4367
  907MPD2     H13339   4.004   3.661  15.233 -0.9021 -0.6301 -0.4190
  907MPD2    H113340   4.219   4.023  15.309 -0.1777 -1.3226  1.1812
  907MPD2    H213341   4.008   3.966  14.951  0.3067 -1.9588 -1.2938
  907MPD2    H313342   4.172   4.086  15.077  0.2997 -0.4862  0.9909
  907MPD2     N13343   4.149   3.782  15.416 -0.5396 -0.3508  0.0293
  907MPD2    H513344   4.089   3.710  15.455  0.7168 -0.7628  1.1845
  907MPD2    N113345   3.904   3.721  15.015 -0.1714  0.1828 -0.2910
  907MPD2    H713346   3.865   3.644  15.067 -2.1186  1.4497  0.1322
  908MPD2     C13347   1.402   0.327   9.448 -0.6261 -0.0944 -0.5883
  908MPD2    C113348   1.446   0.203   9.481 -0.0733  0.6766 -0.2477
  908MPD2    C213349   1.546   0.194   9.577  0.4848 -0.1036  0.0170
  908MPD2    C313350   1.595   0.306   9.638 -0.7325 -0.2609 -0.7053
  908MPD2    C413351   1.536   0.431   9.618  0.1434  0.2098 -0.2223
  908MPD2    C513352   1.442   0.436   9.520  0.4063  0.3229  0.1304
  908MPD2     H13353   1.600   0.101   9.590 -1.1638 -1.0018  0.3121
  908MPD2    H113354   1.578   0.518   9.667  1.3125 -1.5269  1.8659
  908MPD2    H213355   1.317   0.332   9.380  0.0093 -0.4165 -1.4122
  908MPD2    H313356   1.391   0.531   9.508 -0.0394  0.4489  3.0821
  908MPD2     N13357   1.700   0.281   9.727  0.1470 -0.4245  0.5806
  908MPD2    H513358   1.736   0.186   9.736 -1.1906 -0.9257  0.6791
  908MPD2    N113359   1.390   0.097   9.408  0.4364  0.8064 -0.2492
  908MPD2    H713360   1.327   0.112   9.330  0.2852  0.7490 -0.1387
  909MPD2     C13361   1.960   2.827  11.619  0.2997  0.7408 -0.0671
  909MPD2    C113362   1.857   2.921  11.600 -0.2708  0.4503 -0.4581
  909MPD2    C213363   1.761   2.931  11.692  0.2822 -0.3015 -0.3665
  909MPD2    C313364   1.760   2.854  11.809 -0.7744 -0.3199  0.3329
  909MPD2    C413365   1.857   2.757  11.826  0.3075  0.2327  0.3110
  909MPD2    C513366   1.959   2.750  11.729 -0.0104  0.0061  0.4655
  909MPD2     H13367   1.676   2.997  11.679  0.6972  0.6053  1.6222
  909MPD2    H113368   1.859   2.699  11.918 -0.2601  1.0281  0.8298
  909MPD2    H213369   2.034   2.802  11.544  0.6522  2.8032 -0.4114
  909MPD2    H313370   2.043   2.686  11.754 -1.7120 -2.5935 -0.4927
  909MPD2     N13371   1.653   2.873  11.888 -0.2428 -0.5349  0.3964
  909MPD2    H513372   1.579   2.936  11.858 -0.3487  0.4443  2.6671
  909MPD2    N113373   1.843   2.996  11.483  0.3713 -0.5096  0.1611
  909MPD2    H713374   1.757   3.050  11.471 -0.0439 -1.2680 -0.2599
  910MPD2     C13375   3.512   4.618  16.095  0.0709  0.4613  0.2074
  910MPD2    C113376   3.520   4.560  15.969 -0.2368 -0.1131  0.4258
  910MPD2    C213377   3.416   4.590  15.876 -0.6174  0.6144  0.3959
  910MPD2    C313378   3.314   4.678  15.904 -0.2345  0.2706 -0.9383
  910MPD2    C413379   3.318   4.736  16.030 -0.5458  0.2953  0.3651
  910MPD2    C513380   3.416   4.710  16.122 -0.5309  0.0894  0.6052
  910MPD2     H13381   3.418   4.547  15.776  0.7883  0.5691  0.4427
  910MPD2    H113382   3.239   0.067  16.061  0.1986  1.5827 -0.5406
  910MPD2    H213383   3.591   4.601  16.167 -0.5852 -0.2474  0.7633
  910MPD2    H313384   3.418   0.025  16.217 -1.4819  1.5523 -0.1724
  910MPD2     N13385   3.212   4.727  15.821  0.1630  0.3877 -0.1657
  910MPD2    H513386   3.163   0.075  15.845 -0.2748 -0.5397  2.1461
  910MPD2    N113387   3.615   4.463  15.937  0.1389  0.3117 -0.4856
  910MPD2    H713388   3.623   4.431  15.841  0.6069  0.1518 -0.3952
  911MPD2     C13389   1.218   0.177  15.821 -0.2727 -0.5524 -0.1985
  911MPD2    C113390   1.208   0.258  15.930 -0.0966  0.0106 -0.6867
  911MPD2    C213391   1.097   0.339  15.953 -0.1812  0.4495  0.3480
  911MPD2    C313392   1.004   0.347  15.853  0.0758 -0.5690 -0.0671
  911MPD2    C413393   1.003   0.255  15.751  0.0955 -0.1663 -0.5127
  911MPD2    C513394   1.112   0.176  15.734  0.0420  0.1376  0.0300
  911MPD2     H13395   1.100   0.408  16.036  2.0267 -0.3409  0.9448
  911MPD2    H113396   0.922   0.278  15.682 -2.7353 -0.3988  2.7181
  911MPD2    H213397   1.310   0.120  15.805 -0.4025 -1.6103  2.9018
  911MPD2    H313398   1.128   0.122  15.641 -1.0861 -1.2007  0.6060
  911MPD2     N13399   0.888   0.436  15.862 -0.5225 -0.2712 -0.6893
  911MPD2    H513400   0.806   0.419  15.804  0.8861 -3.0323 -1.8858
  911MPD2    N113401   1.320   0.247  16.014 -0.4383 -0.4969 -0.3205
  911MPD2    H713402   1.395   0.188  15.979 -1.6400 -2.3258  0.1687
  912MPD2     C13403   0.701   0.327  15.278 -0.2105  0.2485 -0.1921
  912MPD2    C113404   0.695   0.320  15.414 -0.6770  0.1264  0.6365
  912MPD2    C213405   0.713   0.195  15.472 -0.5425  0.1862  0.0276
  912MPD2    C313406   0.761   0.085  15.397 -0.5459 -0.1115 -0.3233
  912MPD2    C413407   0.774   0.101  15.262  0.1452 -1.1186 -0.5553
  912MPD2    C513408   0.743   0.224  15.205  0.0502  0.1641  0.4185
  912MPD2     H13409   0.711   0.184  15.580 -1.0913 -0.1697 -0.0177
  912MPD2    H113410   0.803   0.024  15.190 -0.5996 -0.7915 -1.2055
  912MPD2    H213411   0.674   0.417  15.223 -0.4105 -1.0005 -2.1330
  912MPD2    H313412   0.759   0.233  15.098 -1.0687 -2.6908  0.0223
  912MPD2     N13413   0.813   4.713  15.465 -0.1621  0.2228  0.7248
  912MPD2    H513414   0.812   4.722  15.566  0.4589 -2.4308  0.9659
  912MPD2    N113415   0.674   0.440  15.483  0.5113  0.2206  0.6151
  912MPD2    H713416   0.678   0.526  15.428  1.7240 -0.5567 -0.4833
  913MPD2     C13417   1.889   1.648  10.280 -0.8890 -0.4956  0.4300
  913MPD2    C113418   1.841   1.653  10.151 -0.1448  0.3915  0.0762
  913MPD2    C213419   1.849   1.777  10.090 -0.5135 -0.1397 -0.7862
  913MPD2    C313420   1.904   1.892  10.151 -0.1947  0.2872  0.2014
  913MPD2    C413421   1.967   1.873  10.265  0.1594  0.0217 -0.4348
  913MPD2    C513422   1.963   1.753  10.333  0.4093  0.4559  0.1631
  913MPD2     H13423   1.798   1.788   9.995 -1.0840 -2.7498 -0.8066
  913MPD2    H113424   2.014   1.958  10.313 -1.8018  1.1286 -0.5102
  913MPD2    H213425   1.866   1.563  10.343 -3.6615 -1.6989 -2.2035
  913MPD2    H313426   2.005   1.739  10.432 -0.4144  0.4239  0.5169
  913MPD2     N13427   1.896   2.027  10.101 -0.0621  0.0523 -0.6130
  913MPD2    H513428   1.948   2.096  10.155 -1.4061  1.0128 -0.5432
  913MPD2    N113429   1.788   1.532  10.096 -0.2867  0.4572  0.0079
  913MPD2    H713430   1.778   1.454  10.160 -0.4109 -1.7134 -2.6765
  914MPD2     C13431   4.371   2.107  12.353 -0.1271 -0.6029  0.7105
  914MPD2    C113432   4.263   2.170  12.406  0.6426 -0.5669 -0.5025
  914MPD2    C213433   4.210   2.126  12.532 -0.9066 -0.0339 -0.1180
  914MPD2    C313434   4.270   2.020  12.598  0.5767 -0.4590  0.2710
  914MPD2    C413435   4.366   1.957  12.537  0.1305 -0.9652 -0.6744
  914MPD2    C513436   4.416   1.996  12.417  0.3962  0.5031  0.4022
  914MPD2     H13437   4.139   2.189  12.584 -1.5410  0.8966 -2.1322
  914MPD2    H113438   4.428   1.878  12.579 -0.1835 -1.6022 -1.4013
  914MPD2    H213439   4.422   2.143  12.265 -2.5892  1.4929  0.1561
  914MPD2    H313440   4.495   1.945  12.363  1.4534  0.5978  1.8728
  914MPD2     N13441   4.241   1.997  12.736 -0.0162  0.3614  0.3439
  914MPD2    H513442   4.178   2.053  12.792 -0.7597  0.5993 -0.7332
  914MPD2    N113443   4.218   2.287  12.342  0.1121 -0.5793 -0.0717
  914MPD2    H713444   4.262   2.310  12.253  0.0199  0.8874  0.2554
  915MPD2     C13445   1.799   1.984  15.009  0.0628 -0.4479 -0.0841
  915MPD2    C113446   1.700   2.065  15.068 -0.1939 -0.0769  0.3555
  915MPD2    C213447   1.725   2.139  15.185 -0.8729 -0.5843 -0.0086
  915MPD2    C313448   1.849   2.131  15.231  0.6946  0.2190 -0.0554
  915MPD2    C413449   1.947   2.049  15.175  0.3063  0.2909 -0.3533
  915MPD2    C513450   1.918   1.968  15.069  0.0512 -0.0917 -0.3856
  915MPD2     H13451   1.662   2.211  15.237  1.1025  0.8059  0.4668
  915MPD2    H113452   2.048   2.049  15.213  0.3435  2.2081 -0.4373
  915MPD2    H213453   1.776   1.918  14.926 -2.6466  0.3560  0.0455
  915MPD2    H313454   1.992   1.912  15.014 -0.2458  0.8681 -1.7872
  915MPD2     N13455   1.875   2.225  15.338 -0.3733  0.1766  0.0321
  915MPD2    H513456   1.802   2.284  15.376 -2.1990 -1.4215 -1.0330
  915MPD2    N113457   1.580   2.074  15.000  0.9672  0.3242 -0.1017
  915MPD2    H713458   1.585   2.042  14.903 -0.3336  2.4226 -0.8529
  916MPD2     C13459   0.445   4.723  15.512  0.3647  0.3788  0.3118
  916MPD2    C113460   0.478   4.631  15.613 -0.1344  0.4105 -0.6599
  916MPD2    C213461   0.512   4.503  15.579  0.3220 -0.2549 -0.3839
  916MPD2    C313462   0.524   4.471  15.447  0.6680 -0.2415 -0.2211
  916MPD2    C413463   0.507   4.573  15.349  0.7546 -0.1283 -0.7415
  916MPD2    C513464   0.463   4.697  15.378 -0.1882  0.4031  0.1874
  916MPD2     H13465   0.542   4.430  15.654  0.4398  0.1792 -0.0128
  916MPD2    H113466   0.518   4.551  15.243  0.1244 -0.2965 -0.7746
  916MPD2    H213467   0.398   0.079  15.542  0.3927 -0.5830  3.4217
  916MPD2    H313468   0.460   0.034  15.299  1.0769 -0.7286 -0.9188
  916MPD2     N13469   0.561   4.341  15.409 -0.1282  0.5500 -0.5152
  916MPD2    H513470   0.570   4.280  15.490  0.3603  1.4806  0.1400
  916MPD2    N113471   0.465   4.679  15.750 -0.3294  0.1885  0.6206
  916MPD2    H713472   0.449   0.041  15.765 -1.1562 -0.1709  2.2514
  917MPD2     C13473   0.525   1.794  11.296 -0.7612  0.6813 -0.0005
  917MPD2    C113474   0.594   1.876  11.381  0.3750  0.4584 -0.4292
  917MPD2    C213475   0.704   1.941  11.345 -0.7470  0.2502 -0.4623
  917MPD2    C313476   0.755   1.925  11.216 -0.2130  0.5893 -0.3560
  917MPD2    C413477   0.685   1.844  11.126  0.6411 -0.8681 -0.0283
  917MPD2    C513478   0.574   1.778  11.169 -0.6736 -0.3962  0.5751
  917MPD2     H13479   0.758   2.016  11.402 -1.3943  0.0935  0.3595
  917MPD2    H113480   0.712   1.830  11.022 -0.3415  0.9143 -0.5354
  917MPD2    H213481   0.436   1.738  11.322 -0.9124  0.0623 -1.7963
  917MPD2    H313482   0.526   1.713  11.096 -0.2531  1.1224 -1.0601
  917MPD2     N13483   0.857   2.004  11.163  0.1659  0.1036  0.1447
  917MPD2    H513484   0.882   1.987  11.066  3.1039  0.4662  0.8408
  917MPD2    N113485   0.540   1.901  11.512  0.2873 -0.3822 -0.0756
  917MPD2    H713486   0.457   1.847  11.530  0.5754 -0.5352  0.7673
  918MPD2     C13487   0.347   2.795  11.703 -0.8466 -0.0247  0.4344
  918MPD2    C113488   0.466   2.748  11.751 -0.6773 -0.7904 -0.0579
  918MPD2    C213489   0.467   2.619  11.799 -0.4577 -0.1407  0.0344
  918MPD2    C313490   0.352   2.536  11.784 -0.4774  0.3768  0.2781
  918MPD2    C413491   0.236   2.585  11.738  0.4312 -0.0043  0.1314
  918MPD2    C513492   0.233   2.718  11.694  0.7124  0.1045 -0.4656
  918MPD2     H13493   0.556   2.574  11.842  0.3045 -0.2326 -1.6545
  918MPD2    H113494   0.148   2.526  11.717  0.6777 -1.3838  2.9131
  918MPD2    H213495   0.348   2.898  11.668  1.0614 -1.0813 -2.6626
  918MPD2    H313496   0.139   2.757  11.657  0.0625 -2.0425 -1.0956
  918MPD2     N13497   0.379   2.405  11.804 -0.3538 -0.0028  0.2607
  918MPD2    H513498   0.478   2.395  11.828 -0.6517 -0.0126  1.4912
  918MPD2    N113499   0.595   2.813  11.760 -0.2305 -1.2852  0.8570
  918MPD2    H713500   0.667   2.765  11.813  0.1003  0.2056  1.7652
  919MPD2     C13501   1.489   1.511  11.398 -0.0253  0.0345 -0.0531
  919MPD2    C113502   1.550   1.386  11.390 -0.7433  0.6626 -0.1505
  919MPD2    C213503   1.613   1.358  11.272  0.4678  0.1967  0.1218
  919MPD2    C313504   1.614   1.446  11.162 -0.2807  0.1468  0.3676
  919MPD2    C413505   1.546   1.567  11.175 -0.7005 -0.2941 -0.0917
  919MPD2    C513506   1.492   1.599  11.296  0.2872 -0.0465  0.2363
  919MPD2     H13507   1.663   1.262  11.263 -2.9601 -1.5266 -0.6701
  919MPD2    H113508   1.523   1.626  11.088 -0.6341 -1.1001 -0.6571
  919MPD2    H213509   1.443   1.550  11.488  0.1953  0.3907 -0.0929
  919MPD2    H313510   1.428   1.687  11.299  1.8312  1.0310  1.2085
  919MPD2     N13511   1.661   1.415  11.034  0.1244 -0.6013 -0.4647
  919MPD2    H513512   1.670   1.493  10.971  0.8042 -1.1501 -1.0492
  919MPD2    N113513   1.544   1.286  11.491  0.2499 -0.2357  0.3354
  919MPD2    H713514   1.589   1.198  11.471 -0.2667 -0.4978  0.3203
  920MPD2     C13515   1.291   1.631  10.166 -0.3305  0.4073  0.3442
  920MPD2    C113516   1.233   1.521  10.219 -0.3069 -0.1037  0.5052
  920MPD2    C213517   1.298   1.445  10.315  0.1257  0.4187  0.4617
  920MPD2    C313518   1.422   1.485  10.365  0.3804  0.2738 -0.7549
  920MPD2    C413519   1.475   1.598  10.311 -0.5277  0.0952  0.2392
  920MPD2    C513520   1.408   1.678  10.221 -0.3932  0.3597 -0.4302
  920MPD2     H13521   1.250   1.359  10.360 -1.1508  0.7911 -0.1943
  920MPD2    H113522   1.572   1.622  10.352  0.0739 -1.1531 -0.4418
  920MPD2    H213523   1.234   1.697  10.100 -1.4973  0.5250  1.4748
  920MPD2    H313524   1.462   1.766  10.188  0.7091 -0.6555 -1.3488
  920MPD2     N13525   1.499   1.406  10.464  0.3818  0.6937  0.5559
  920MPD2    H513526   1.451   1.321  10.492 -1.3283  1.6325  0.4676
  920MPD2    N113527   1.095   1.484  10.212 -0.3783  0.0549 -0.1971
  920MPD2    H713528   1.067   1.396  10.254 -0.0744  0.0461 -0.0068
  921MPD2     C13529   2.059   0.559  16.743 -0.0984  0.4822 -0.2996
  921MPD2    C113530   2.097   0.437  16.690 -0.0010 -0.1861  0.2587
  921MPD2    C213531   2.001   0.349  16.636 -0.3072  0.1532  1.1293
  921MPD2    C313532   1.875   0.396  16.613 -0.5210 -0.1421 -0.0723
  921MPD2    C413533   1.836   0.525  16.658  0.1405 -0.3754  0.1746
  921MPD2    C513534   1.928   0.599  16.730 -0.3816 -0.2392 -0.3553
  921MPD2     H13535   2.025   0.248  16.604 -0.0232 -0.5417  3.5216
  921MPD2    H113536   1.738   0.569  16.646  0.2367  0.3942  2.1350
  921MPD2    H213537   2.134   0.627  16.781 -0.4284  2.0903 -2.5002
  921MPD2    H313538   1.894   0.700  16.746 -1.4526 -0.4521 -1.3165
  921MPD2     N13539   1.797   0.328  16.521  0.0550  0.3776  0.3217
  921MPD2    H513540   1.843   0.243  16.489 -1.1464  0.7919 -2.4911
  921MPD2    N113541   2.237   0.405  16.687 -0.0066  0.2407 -0.4108
  921MPD2    H713542   2.297   0.483  16.712 -0.2640 -0.3166  1.9292
  922MPD2     C13543   2.725   3.005  16.836 -0.0009  0.3831  0.0794
  922MPD2    C113544   2.762   3.059  16.955  0.2647 -0.0790 -0.4189
  922MPD2    C213545   2.734   2.991  17.067 -0.2443  0.0506  0.2776
  922MPD2    C313546   2.695   2.851  17.068 -0.2170  0.3751  0.5555
  922MPD2    C413547   2.649   2.803  16.949  0.6611 -0.2395  0.7842
  922MPD2    C513548   2.667   2.877  16.835  0.0915  0.6980  0.3006
  922MPD2     H13549   2.746   3.030  17.167 -1.8694  1.2233  0.0115
  922MPD2    H113550   2.583   2.717  16.940  2.1737 -1.5004  1.7888
  922MPD2    H213551   2.737   3.055  16.741 -1.7616  1.6561  0.5266
  922MPD2    H313552   2.638   2.830  16.742 -1.1346 -0.3371  1.2129
  922MPD2     N13553   2.669   2.798  17.192 -0.0774 -0.0217 -0.2652
  922MPD2    H513554   2.673   2.859  17.273  1.1257 -0.5814  0.1072
  922MPD2    N113555   2.807   3.195  16.969  0.1820 -0.8668  0.1677
  922MPD2    H713556   2.818   3.221  17.067 -0.4986  0.5827 -0.1443
  923MPD2     C13557   4.098   0.090   9.027  0.1391 -0.0052 -0.4026
  923MPD2    C113558   4.128   4.696   9.062  0.1955 -0.6627 -0.0825
  923MPD2    C213559   4.220   4.675   9.169  0.2867  0.5949  0.3558
  923MPD2    C313560   4.281   0.051   9.228  0.1275  0.2039  0.2726
  923MPD2    C413561   4.250   0.178   9.189 -0.3252  0.3620  0.0205
  923MPD2    C513562   4.158   0.198   9.090  0.5111 -0.0556 -0.9977
  923MPD2     H13563   4.239   4.571   9.192 -0.3731  0.7671  1.6760
  923MPD2    H113564   4.299   0.265   9.230 -0.0096  0.6782 -1.0292
  923MPD2    H213565   4.034   0.098   8.940 -1.2267  1.1053  0.7028
  923MPD2    H313566   4.123   0.299   9.070  1.2935  0.3225 -0.4432
  923MPD2     N13567   4.388   0.036   9.327 -0.3390  0.1266  0.1710
  923MPD2    H513568   4.429   0.119   9.368  1.4025 -0.5794 -0.1423
  923MPD2    N113569   4.051   4.584   8.999  0.6929 -0.1041  0.3377
  923MPD2    H713570   3.996   4.609   8.917  0.5185 -1.5954  0.0061
  924MPD2     C13571   3.955   2.990  15.598  0.5851 -0.2789  0.2956
  924MPD2    C113572   3.942   3.109  15.527  0.1795 -0.0900  0.0401
  924MPD2    C213573   4.028   3.213  15.549  0.4081  0.6417 -0.0771
  924MPD2    C313574   4.141   3.191  15.633 -0.3794 -0.5746  0.9872
  924MPD2    C413575   4.146   3.069  15.706  0.8076  0.7891  0.1625
  924MPD2    C513576   4.055   2.970  15.683 -0.8129  0.3685 -0.2748
  924MPD2     H13577   4.018   3.308  15.499  1.6961  0.8358  0.0185
  924MPD2    H113578   4.221   3.038  15.778 -0.8779 -0.4357  1.3882
  924MPD2    H213579   3.884   2.912  15.571  4.3161 -2.4508 -3.2562
  924MPD2    H313580   4.063   2.877  15.737 -3.9848  0.7977  0.9365
  924MPD2     N13581   4.226   3.296  15.667  0.3599  0.3176 -0.0809
  924MPD2    H513582   4.285   3.285  15.749  1.0790  1.9658 -0.3926
  924MPD2    N113583   3.826   3.121  15.445 -0.4511  0.4265  0.0734
  924MPD2    H713584   3.774   3.034  15.446 -0.0563  0.1730 -3.3989
  925MPD2     C13585   2.283   1.555  14.067 -0.4957 -0.0720  0.1513
  925MPD2    C113586   2.360   1.441  14.076 -0.0519 -0.9712  0.5255
  925MPD2    C213587   2.395   1.395  14.205 -0.0651  0.3583  0.1275
  925MPD2    C313588   2.342   1.453  14.318  0.2155 -0.0526  0.0703
  925MPD2    C413589   2.264   1.566  14.308  0.7309 -0.7415  0.1158
  925MPD2    C513590   2.243   1.619  14.182 -0.2300 -0.8090 -0.1033
  925MPD2     H13591   2.474   1.322  14.205  0.3708  0.8318  0.2642
  925MPD2    H113592   2.234   1.627  14.393  1.4812  0.8064 -0.7375
  925MPD2    H213593   2.269   1.603  13.972  2.6648 -1.4836 -1.0350
  925MPD2    H313594   2.199   1.717  14.172  0.6735 -0.3511  0.4104
  925MPD2     N13595   2.376   1.411  14.453  0.5736  0.0879  0.0595
  925MPD2    H513596   2.324   1.457  14.527 -0.9228 -0.3917 -0.6782
  925MPD2    N113597   2.419   1.375  13.965  0.5891  0.3343 -0.0539
  925MPD2    H713598   2.475   1.299  14.004  1.2921  0.4571 -0.8029
  926MPD2     C13599   1.864   4.310  13.257 -0.2412 -0.3822  0.0546
  926MPD2    C113600   1.758   4.395  13.282 -0.0628 -0.0772  0.3708
  926MPD2    C213601   1.748   4.509  13.213 -0.2016  0.0579 -0.6054
  926MPD2    C313602   1.858   4.555  13.138  0.5745  0.1013  0.1175
  926MPD2    C413603   1.963   4.470  13.117 -0.5487 -0.2754  0.1388
  926MPD2    C513604   1.964   4.344  13.173 -0.6959 -0.5329  0.8869
  926MPD2     H13605   1.663   4.574  13.227 -0.7336 -0.2851 -2.1881
  926MPD2    H113606   2.054   4.500  13.066 -2.5817  3.9557 -0.9666
  926MPD2    H213607   1.874   4.214  13.307 -0.9897 -0.7809 -0.5678
  926MPD2    H313608   2.050   4.282  13.152  0.7158  1.4865  0.7558
  926MPD2     N13609   1.866   4.683  13.077  0.5561 -0.0135 -0.3215
  926MPD2    H513610   1.952   4.719  13.039  1.0595 -0.4314  0.4233
  926MPD2    N113611   1.650   4.372  13.371 -0.1445  0.5235 -0.7539
  926MPD2    H713612   1.593   4.455  13.385 -0.7702 -0.0584  0.0498
  927MPD2     C13613   1.022   2.004  17.590 -0.4637 -0.3886  0.5405
  927MPD2    C113614   1.063   1.885  17.625  0.1281  0.5603 -0.6853
  927MPD2    C213615   1.173   1.834  17.556  0.5056  0.1723 -0.3969
  927MPD2    C313616   1.226   1.893  17.442 -0.1806  0.1648  0.3584
  927MPD2    C413617   1.167   2.011  17.403 -0.0820  0.6676  0.0425
  927MPD2    C513618   1.061   2.060  17.477  0.4123 -0.4366 -0.3136
  927MPD2     H13619   1.210   1.739  17.594 -1.4718 -1.2405 -2.0080
  927MPD2    H113620   1.193   2.059  17.309 -1.2213 -0.3720 -0.8002
  927MPD2    H213621   0.941   2.050  17.647 -1.4464  0.2398 -1.3456
  927MPD2    H313622   1.016   2.153  17.443 -1.8771 -0.8278  1.6811
  927MPD2     N13623   1.338   1.834  17.379  0.1569 -0.2185  0.2831
  927MPD2    H513624   1.371   1.746  17.418  1.6475 -0.4897 -1.5829
  927MPD2    N113625   1.002   1.832  17.744  0.1433  0.3005  0.7472
  927MPD2    H713626   0.919   1.878   0.032  0.7808  1.4384  0.7660
  928MPD2     C13627   4.165   4.517   0.836 -0.6545  0.4050  0.2563
  928MPD2    C113628   4.168   4.653   0.822 -0.1099 -0.0976  0.1224
  928MPD2    C213629   4.143   4.714   0.703  0.9862 -1.1056 -0.0866
  928MPD2    C313630   4.123   4.635   0.587 -0.1475 -0.1208  0.4221
  928MPD2    C413631   4.106   4.497   0.607  0.6338 -0.2311 -0.4413
  928MPD2    C513632   4.123   4.442   0.733 -0.0027 -0.9804  0.4081
  928MPD2     H13633   4.146   0.085   0.705 -0.3642 -1.0393 -1.5216
  928MPD2    H113634   4.088   4.434   0.521 -0.4045  0.3096 -0.6276
  928MPD2    H213635   4.179   4.471   0.933  2.8427 -2.4536 -1.6188
  928MPD2    H313636   4.100   4.337   0.738 -0.9611 -0.8597 -1.6577
  928MPD2     N13637   4.107   4.691   0.456  0.3121  0.3320 -0.2801
  928MPD2    H513638   4.075   4.631   0.381 -0.1607  0.9914 -0.6051
  928MPD2    N113639   4.214   4.729   0.937  0.0140  0.4648 -0.6352
  928MPD2    H713640   4.276   4.681   1.002 -0.7058  2.2528  1.3602
  929MPD2     C13641   4.530   0.164  10.730 -0.3098  0.1832 -0.2070
  929MPD2    C113642   4.407   0.110  10.713  0.4387  0.1972  0.6768
  929MPD2    C213643   4.323   0.156  10.613  0.2941  1.4533  0.5263
  929MPD2    C313644   4.368   0.259  10.537 -0.4863  0.1411 -0.2097
  929MPD2    C413645   4.498   0.300  10.546  0.3433  0.3420  0.3572
  929MPD2    C513646   4.573   0.262  10.651 -1.0890  0.1427  0.4525
  929MPD2     H13647   4.220   0.122  10.604  0.0778  1.8429  1.4850
  929MPD2    H113648   4.535   0.379  10.483 -0.8789 -0.9390 -1.9634
  929MPD2    H213649   4.593   0.133  10.813 -1.5949 -2.1886 -0.1155
  929MPD2    H313650   4.669   0.308  10.672  0.4990 -2.8219 -0.2673
  929MPD2     N13651   4.302   0.323  10.425  0.5303  0.1133 -0.0988
  929MPD2    H513652   4.348   0.406  10.389  0.7479  0.9703  2.1964
  929MPD2    N113653   4.388   0.000  10.801 -0.1101 -0.5075  0.3460
  929MPD2    H713654   4.461   4.710  10.866 -0.6302 -0.3936  0.9825
  930MPD2     C13655   1.088   2.695  13.434 -0.1357 -0.2977 -0.8551
  930MPD2    C113656   1.196   2.603  13.430  0.8427  0.2901 -0.0888
  930MPD2    C213657   1.170   2.468  13.410 -0.0973 -0.4121  0.6031
  930MPD2    C313658   1.039   2.417  13.408  0.1366 -0.6026  0.0892
  930MPD2    C413659   0.935   2.508  13.413 -0.2978  0.1772 -0.2318
  930MPD2    C513660   0.957   2.647  13.431 -0.1465  0.4537  0.5646
  930MPD2     H13661   1.236   2.385  13.429  1.4311  0.7396  0.3349
  930MPD2    H113662   0.832   2.472  13.408 -0.4019  0.4136  0.2347
  930MPD2    H213663   1.103   2.801  13.450 -2.9659 -0.1516  0.9224
  930MPD2    H313664   0.878   2.721  13.434 -1.6497 -1.2133  2.2100
  930MPD2     N13665   0.995   2.285  13.383  0.2340 -0.2853  0.3502
  930MPD2    H513666   0.898   2.263  13.400 -0.0704  0.4441 -0.4605
  930MPD2    N113667   1.326   2.653  13.445  0.6144 -0.0073 -0.7576
  930MPD2    H713668   1.329   2.751  13.471 -2.5351 -0.2660  0.5315
  931MPD2     C13669   1.048   1.067   0.149  0.6668  0.0210 -0.1010
  931MPD2    C113670   0.953   1.132   0.231  0.9578 -0.4045 -0.3318
  931MPD2    C213671   0.873   1.046   0.312 -0.0610 -0.2514  0.3637
  931MPD2    C313672   0.872   0.912   0.302 -0.1660  0.3747 -0.4228
  931MPD2    C413673   0.967   0.852   0.228 -0.1470  0.9147  0.5368
  931MPD2    C513674   1.048   0.928   0.143 -0.5270 -0.2865  0.2792
  931MPD2     H13675   0.796   1.100   0.366  0.4967  1.2201 -0.2830
  931MPD2    H113676   0.984   0.745   0.214  2.3938  1.4107 -0.2280
  931MPD2    H213677   1.109   1.119   0.076  0.3146 -3.3162 -2.7945
  931MPD2    H313678   1.119   0.876   0.079  2.9494  3.0102  1.4707
  931MPD2     N13679   0.790   0.833   0.388 -0.0918 -0.2209  1.1928
  931MPD2    H513680   0.809   0.734   0.398  0.6429 -0.2744 -0.7485
  931MPD2    N113681   0.952   1.273   0.227 -0.5524  0.2259  0.0110
  931MPD2    H713682   1.030   1.318   0.182 -2.0192  2.1760 -0.5560
  932MPD2     C13683   2.994   1.194  11.033  0.5047 -0.3332  0.1794
  932MPD2    C113684   3.127   1.215  11.068 -0.4631  0.3747 -0.2997
  932MPD2    C213685   3.213   1.114  11.106 -0.4562  0.0885 -0.0269
  932MPD2    C313686   3.160   0.988  11.110  0.3264  0.1171  0.7447
  932MPD2    C413687   3.028   0.969  11.070  0.0855 -0.9344  0.0929
  932MPD2    C513688   2.944   1.068  11.032  0.1524 -0.7735  0.0539
  932MPD2     H13689   3.319   1.134  11.114 -0.2614 -1.6794  1.6818
  932MPD2    H113690   2.982   0.872  11.085 -0.2808 -0.7230  0.3581
  932MPD2    H213691   2.923   1.270  11.005  1.0711 -0.1140 -0.6653
  932MPD2    H313692   2.840   1.046  11.011  0.1451  1.0193 -1.7727
  932MPD2     N13693   3.232   0.884  11.171 -0.5098 -0.3638 -0.1709
  932MPD2    H513694   3.318   0.899  11.222 -0.0781 -2.4287 -0.2612
  932MPD2    N113695   3.187   1.344  11.062 -0.3868 -0.2242 -0.4911
  932MPD2    H713696   3.285   1.348  11.088 -0.2650 -0.5235 -0.9055
  933MPD2     C13697   4.518   0.737   1.428 -0.5469 -0.1356 -0.4902
  933MPD2    C113698   4.415   0.706   1.345 -0.2887 -0.7544 -0.3842
  933MPD2    C213699   4.327   0.801   1.297 -0.1884 -0.1114 -0.1642
  933MPD2    C313700   4.339   0.931   1.342 -0.2422 -0.2497 -0.1705
  933MPD2    C413701   4.439   0.959   1.434  0.1660 -0.2131  0.2261
  933MPD2    C513702   4.531   0.866   1.471 -0.0277 -0.4355  1.1201
  933MPD2     H13703   4.250   0.774   1.226 -2.0405  1.7747  1.1165
  933MPD2    H113704   4.443   1.055   1.483  0.1100 -1.2588  2.2748
  933MPD2    H213705   4.587   0.659   1.457  0.2673  0.2194 -1.4589
  933MPD2    H313706   4.609   0.897   1.540 -0.3933 -0.9568  1.7731
  933MPD2     N13707   4.253   1.034   1.289 -0.5061 -0.2499  0.1102
  933MPD2    H513708   4.184   1.004   1.221  0.6912 -1.3223 -0.6511
  933MPD2    N113709   4.409   0.568   1.301 -0.1158  0.5587 -0.3695
  933MPD2    H713710   4.479   0.505   1.336  0.8569  0.6548 -2.1571
  934MPD2     C13711   0.300   2.765   1.528  0.5140 -0.3284  0.0230
  934MPD2    C113712   0.394   2.698   1.452 -0.4102  0.0091 -0.6106
  934MPD2    C213713   0.349   2.612   1.357 -0.0986 -0.2301 -0.3059
  934MPD2    C313714   0.219   2.590   1.330  0.3856  0.7968  0.1096
  934MPD2    C413715   0.129   2.663   1.399 -0.1715 -0.9544  0.6686
  934MPD2    C513716   0.169   2.754   1.493  0.1995  0.1971 -0.4550
  934MPD2     H13717   0.424   2.564   1.295  2.2473  1.2319  1.3905
  934MPD2    H113718   0.021   2.655   1.398 -0.0569 -2.2370 -1.8901
  934MPD2    H213719   0.331   2.848   1.591 -1.0288  2.0274 -2.3059
  934MPD2    H313720   0.093   2.804   1.551  0.3866  0.1319 -0.1559
  934MPD2     N13721   0.179   2.494   1.231  0.5348  0.9387 -0.6381
  934MPD2    H513722   0.079   2.502   1.211 -0.0685 -1.4228  1.4698
  934MPD2    N113723   0.532   2.722   1.475 -0.2971 -0.0710  0.1460
  934MPD2    H713724   0.545   2.785   1.553 -1.6663 -0.9813  1.1016
  935MPD2     C13725   0.440   1.604   1.191  0.3255  0.1454 -0.0191
  935MPD2    C113726   0.426   1.644   1.064  0.0024 -0.0971 -0.0900
  935MPD2    C213727   0.346   1.754   1.029 -0.4024  0.5961 -0.2735
  935MPD2    C313728   0.279   1.820   1.133 -0.0588  0.3630  0.4681
  935MPD2    C413729   0.299   1.792   1.271 -0.0537  0.1440 -0.3578
  935MPD2    C513730   0.373   1.677   1.295  0.2261  0.0752  0.3508
  935MPD2     H13731   0.337   1.784   0.926  0.4299 -2.4045 -1.2227
  935MPD2    H113732   0.243   1.845   1.347  1.1446  0.5240  0.2580
  935MPD2    H213733   0.491   1.511   1.214  1.2438  0.5523 -0.4145
  935MPD2    H313734   0.381   1.636   1.395 -1.4481 -2.3713 -0.5243
  935MPD2     N13735   0.204   1.940   1.107 -0.1257 -0.5414  0.3408
  935MPD2    H513736   0.186   1.992   1.193  2.6504  0.0974  0.5353
  935MPD2    N113737   0.484   1.572   0.956  0.2961 -0.2773  0.1971
  935MPD2    H713738   0.468   1.616   0.866 -1.5511 -2.0315 -0.3345
  936MPD2     C13739   4.173   0.553  11.969  0.3638  0.9697  0.2438
  936MPD2    C113740   4.180   0.636  12.080  0.8107 -1.1754 -0.0320
  936MPD2    C213741   4.262   0.747  12.069 -0.4249  0.0571  0.2532
  936MPD2    C313742   4.327   0.783  11.950  0.1747 -0.6726 -0.1639
  936MPD2    C413743   4.304   0.708  11.837 -0.6066  0.0762  0.2034
  936MPD2    C513744   4.224   0.591  11.848  0.6217  0.0806  0.4927
  936MPD2     H13745   4.281   0.795  12.164  1.2582 -1.7019  0.8154
  936MPD2    H113746   4.362   0.726  11.747  0.1339 -1.2726  0.4179
  936MPD2    H213747   4.111   0.464  11.965  1.9667 -0.0963 -0.8150
  936MPD2    H313748   4.204   0.534  11.758 -0.8397  1.0141  0.2191
  936MPD2     N13749   4.424   0.893  11.946 -0.4012  0.5615  0.3703
  936MPD2    H513750   4.495   0.884  11.874 -1.4234 -0.5550 -0.4962
  936MPD2    N113751   4.139   0.584  12.204 -0.5094  0.0890  0.0662
  936MPD2    H713752   4.177   0.620  12.291  1.1034  1.1873 -1.0953
  937MPD2     C13753   1.460   0.635  11.288  0.3976  0.2016  0.0393
  937MPD2    C113754   1.551   0.723  11.349 -0.2617  0.6253  0.7118
  937MPD2    C213755   1.655   0.753  11.263  0.1431 -0.0390  0.4643
  937MPD2    C313756   1.691   0.677  11.158  0.0581  0.3053  0.3229
  937MPD2    C413757   1.615   0.565  11.123  0.1163 -0.3575 -0.2173
  937MPD2    C513758   1.501   0.548  11.192 -0.1588 -0.0965  0.2480
  937MPD2     H13759   1.716   0.841  11.281  0.0564  0.1681 -0.2749
  937MPD2    H113760   1.631   0.512  11.030  2.0559  0.3343 -0.2799
  937MPD2    H213761   1.358   0.631  11.326  0.0426  0.2666 -0.9233
  937MPD2    H313762   1.427   0.478  11.154 -0.7483  1.6128 -1.7343
  937MPD2     N13763   1.809   0.706  11.085  0.0916  0.1209  0.4755
  937MPD2    H513764   1.855   0.791  11.116 -0.7942  1.3883 -1.6593
  937MPD2    N113765   1.525   0.809  11.454 -0.2810 -0.2713  0.3675
  937MPD2    H713766   1.592   0.882  11.474  0.0268 -0.4958  0.1589
  938MPD2     C13767   4.578   2.122   0.344  0.8818 -0.4667 -0.2740
  938MPD2    C113768   4.470   2.215   0.363  0.1442 -0.2390 -0.6054
  938MPD2    C213769   4.369   2.182   0.452  0.4860 -0.5223  0.1862
  938MPD2    C313770   4.388   2.069   0.527 -0.5180  0.2789 -0.2777
  938MPD2    C413771   4.491   1.976   0.504 -0.1104 -0.0872 -0.3204
  938MPD2    C513772   4.579   1.999   0.407 -0.1979  0.1069  0.1915
  938MPD2     H13773   4.281   2.245   0.463  0.6135 -0.6015  1.6193
  938MPD2    H113774   4.514   1.886   0.559  0.4523 -0.6396 -1.4545
  938MPD2    H213775   4.653   2.131   0.267 -0.4975  0.3249 -1.5254
  938MPD2    H313776   4.650   1.919   0.386  0.4157  0.1035  2.3342
  938MPD2     N13777   4.302   2.033   0.634 -0.1348 -0.0769  0.3734
  938MPD2    H513778   4.315   1.945   0.681 -1.7478 -0.5360 -0.0183
  938MPD2    N113779   4.474   2.345   0.301 -0.0820 -0.3030  0.1544
  938MPD2    H713780   4.568   2.383   0.298 -0.3396  0.1693 -1.8860
  939MPD2     C13781   0.855   3.043   0.630  0.8231 -0.1481  0.0473
  939MPD2    C113782   0.788   3.163   0.642 -0.4969  0.0157 -0.0956
  939MPD2    C213783   0.687   3.196   0.551 -0.0886 -0.4405 -0.3129
  939MPD2    C313784   0.652   3.104   0.461  0.0031  0.3829 -0.4537
  939MPD2    C413785   0.729   2.992   0.443 -0.7064 -0.1576 -0.4351
  939MPD2    C513786   0.829   2.956   0.531 -0.5434  0.4615  0.1947
  939MPD2     H13787   0.625   3.284   0.567  1.4018  0.7954 -1.4284
  939MPD2    H113788   0.709   2.920   0.364 -0.3954 -1.5987  0.8029
  939MPD2    H213789   0.934   3.016   0.699  1.5482  0.4399 -0.5604
  939MPD2    H313790   0.873   2.857   0.526 -0.7518  0.5500 -3.3204
  939MPD2     N13791   0.547   3.140   0.373  0.1285  0.3253  0.2638
  939MPD2    H513792   0.514   3.236   0.381 -1.0126 -0.1240  1.0223
  939MPD2    N113793   0.827   3.248   0.744  0.3232 -0.3393 -0.3268
  939MPD2    H713794   0.896   3.213   0.810  0.4429  1.8851  0.7234
  940MPD2     C13795   4.367   4.423  12.685  0.0019  0.6428 -0.2230
  940MPD2    C113796   4.485   4.371  12.711 -0.1111 -0.0448 -0.1903
  940MPD2    C213797   4.521   4.249  12.657 -0.4665  0.1131  0.2553
  940MPD2    C313798   4.423   4.163  12.591  0.3496 -0.4021  0.3254
  940MPD2    C413799   4.302   4.220  12.571  0.0312  0.0271 -0.0685
  940MPD2    C513800   4.279   4.344  12.616 -0.0459  0.3835 -0.0783
  940MPD2     H13801   4.616   4.204  12.683 -2.2113 -2.6192  1.9884
  940MPD2    H113802   4.219   4.162  12.531 -0.5589 -0.0452  1.2735
  940MPD2    H213803   4.325   4.515  12.723  0.8981  0.5452  1.0065
  940MPD2    H313804   4.181   4.386  12.595 -1.5593 -2.1255  1.8937
  940MPD2     N13805   4.453   4.034  12.546 -0.2403  0.9507  0.5188
  940MPD2    H513806   4.383   3.984  12.493  0.2454  2.2056 -1.3188
  940MPD2    N113807   4.583   4.442  12.779 -0.0630  0.4913 -0.0981
  940MPD2    H713808   4.668   4.388  12.796 -0.1467  1.2688  2.9014
  941MPD2     C13809   3.155   2.941   9.612  0.2999 -0.3619 -0.3113
  941MPD2    C113810   3.266   2.952   9.700  0.1664  0.2585 -0.0698
  941MPD2    C213811   3.266   2.865   9.808  0.1906 -0.1636  0.0102
  941MPD2    C313812   3.174   2.764   9.821  0.1140  0.4493 -0.8019
  941MPD2    C413813   3.072   2.753   9.729  0.6863 -0.0305 -0.7554
  941MPD2    C513814   3.056   2.846   9.630  0.0854  0.1755  0.5884
  941MPD2     H13815   3.350   2.872   9.875 -0.6720 -0.7294  1.1610
  941MPD2    H113816   2.998   2.674   9.728  0.4576  0.1574  0.4696
  941MPD2    H213817   3.151   3.003   9.524 -0.8136  0.8837  0.6103
  941MPD2    H313818   2.966   2.844   9.570  0.4592  0.7125  0.0169
  941MPD2     N13819   3.182   2.658   9.912 -0.1303 -0.4099  0.3589
  941MPD2    H513820   3.104   2.593   9.903  0.5186 -0.8672 -1.9339
  941MPD2    N113821   3.372   3.035   9.674 -0.1343 -0.1608 -0.0311
  941MPD2    H713822   3.461   3.012   9.716 -0.5687  0.0439  0.9891
  942MPD2     C13823   2.097   3.588   9.341 -0.4284 -0.3799 -0.0500
  942MPD2    C113824   2.092   3.690   9.438 -0.0867 -0.1693  0.2858
  942MPD2    C213825   2.155   3.810   9.418  0.3337 -0.2577 -0.2229
  942MPD2    C313826   2.212   3.848   9.297 -0.3823 -0.1364 -0.5251
  942MPD2    C413827   2.215   3.745   9.200 -0.1526  0.1755 -1.1498
  942MPD2    C513828   2.166   3.622   9.226 -0.0082 -0.6847  0.9222
  942MPD2     H13829   2.145   3.885   9.496  1.4383 -1.6387  1.2336
  942MPD2    H113830   2.262   3.756   9.103  1.9067 -1.5285 -0.3470
  942MPD2    H213831   2.034   3.501   9.352 -0.7493 -0.2041 -0.5277
  942MPD2    H313832   2.163   3.565   9.134  0.5241  0.4621  0.1951
  942MPD2     N13833   2.274   3.969   9.275 -0.2171 -0.3134  0.2786
  942MPD2    H513834   2.316   3.994   9.185  0.2646 -0.7841  0.3738
  942MPD2    N113835   2.025   3.671   9.563 -0.0677  0.8980  0.6296
  942MPD2    H713836   2.021   3.753   9.623  1.0569 -0.2692  2.2837
  943MPD2     C13837   2.864   3.201   9.520  0.2076 -0.7385  0.3971
  943MPD2    C113838   2.753   3.264   9.575 -0.4481 -0.2647  0.5650
  943MPD2    C213839   2.707   3.379   9.505  0.2881  0.6650 -1.0154
  943MPD2    C313840   2.780   3.436   9.403  0.1629 -0.4493  0.1716
  943MPD2    C413841   2.889   3.368   9.342 -0.5053  0.1877  0.5997
  943MPD2    C513842   2.921   3.251   9.400 -0.3954 -0.2138  0.2235
  943MPD2     H13843   2.615   3.429   9.535  0.5919  1.2420 -1.0486
  943MPD2    H113844   2.947   3.400   9.256 -1.0037  1.1934  0.6429
  943MPD2    H213845   2.911   3.116   9.568 -0.1636 -2.0682 -1.5861
  943MPD2    H313846   3.011   3.206   9.359  0.6204 -1.3689  3.7254
  943MPD2     N13847   2.749   3.568   9.358 -0.0271  0.0438  0.1687
  943MPD2    H513848   2.817   3.622   9.305  0.4359 -0.8098 -0.1056
  943MPD2    N113849   2.680   3.211   9.689  0.1535  0.5722 -0.4589
  943MPD2    H713850   2.714   3.125   9.731 -2.2267 -1.2065 -2.2045
  944MPD2     C13851   2.404   2.481  11.415  0.4829  0.3271  0.3937
  944MPD2    C113852   2.389   2.515  11.285 -0.2615 -0.3389 -0.3672
  944MPD2    C213853   2.261   2.553  11.240 -0.1676 -0.7120 -0.0447
  944MPD2    C313854   2.160   2.563  11.327  0.0830 -0.1815 -0.1537
  944MPD2    C413855   2.179   2.523  11.456 -0.3971  0.4495  0.5895
  944MPD2    C513856   2.300   2.478  11.501 -0.4701 -0.4215  0.2741
  944MPD2     H13857   2.239   2.587  11.139  3.6657  0.9408 -0.3378
  944MPD2    H113858   2.098   2.530  11.528 -0.7591  2.2826  0.0056
  944MPD2    H213859   2.496   2.439  11.454  0.6714 -2.7823 -3.3632
  944MPD2    H313860   2.310   2.451  11.605  2.8426  0.2960  0.1650
  944MPD2     N13861   2.032   2.598  11.283 -0.0804  0.1154  0.2816
  944MPD2    H513862   2.036   2.627  11.186 -1.9008 -1.9103 -0.3905
  944MPD2    N113863   2.503   2.515  11.201 -0.0200 -0.5194 -0.1589
  944MPD2    H713864   2.589   2.519  11.255  1.8594 -0.8840 -3.1004
    1TMC1    C113865   0.160   2.720  14.263 -1.3746 -0.1787 -0.1014
    1TMC1    C213866   0.075   2.784  14.177  0.4558  0.0180  0.2393
    1TMC1    C313867   0.009   2.708  14.090  0.4215 -0.6590 -0.8156
    1TMC1    C413868   0.197   2.593  14.255  0.3820 -0.2966  0.3505
    1TMC1    C513869   0.136   2.518  14.154 -0.2338  0.5121 -0.2102
    1TMC1    C613870   0.039   2.576  14.074 -0.1443 -0.4163  0.3194
    1TMC1     C13871   0.233   2.796  14.367 -0.4602  0.1102  0.7184
    1TMC1     O13872   0.303   2.727  14.441  0.0787  0.0887 -0.0633
    1TMC1     H13873   0.051   2.889  14.192 -0.1775 -0.2753  1.2733
    1TMC1    H113874   0.259   2.538  14.324  0.4472 -0.2446  0.3338
    1TMC1    H213875   4.734   2.528  13.986  3.0458 -0.6401 -1.1081
    1TMC1    C713876   0.179   2.377  14.145  0.1945  0.0082  0.5916
    1TMC1    C813877   4.637   2.758  14.023 -0.1578  0.1164  0.0723
    1TMC1    O113878   0.271   2.337  14.212  0.3882 -0.0218  0.0918
    1TMC1    O213879   4.636   2.872  13.976 -0.7317 -0.1231 -0.2323
    1TMC1    O313880   0.066   2.312  14.118 -0.0562  0.3347 -0.2634
    1TMC1    H313881   4.722   2.362  14.095  0.2507  1.0100  0.1526
    1TMC1    O513882   4.530   2.687  14.062 -0.3742 -0.2704 -0.0397
    1TMC1    H513883   4.548   2.600  14.104 -0.3826  0.4866  1.5129
    2MPD2     C13884   0.403   3.227  14.574  0.0501 -0.0332 -0.1930
    2MPD2    C113885   0.362   3.255  14.451  0.0183 -0.4591  0.0022
    2MPD2    C213886   0.299   3.160  14.378  0.3152 -0.8766 -0.4667
    2MPD2    C313887   0.289   3.028  14.430  0.1402  0.1226 -0.0416
    2MPD2    C413888   0.339   2.993  14.556  0.5171 -0.0538  0.2337
    2MPD2    C513889   0.390   3.098  14.627 -0.4029 -0.0434 -0.2893
    2MPD2     H13890   0.252   3.195  14.287 -0.2559 -0.6417 -0.0795
    2MPD2    H113891   0.339   2.892  14.595 -0.3589  1.0302  3.0206
    2MPD2    H213892   0.453   3.301  14.636 -0.3986  0.2823 -0.2049
    2MPD2    H313893   0.428   3.067  14.724  0.3083 -2.0469 -1.1949
    2MPD2     N13894   0.227   2.932  14.351 -0.0236 -0.4189 -0.1847
    2MPD2    H513895   0.194   2.966  14.262  1.9871  0.0463 -0.7568
    2MPD2    N113896   0.374   3.389  14.407 -0.1290  0.2741 -0.6652
    2MPD2    H713897   0.425   3.439  14.479  0.2628 -2.9811  1.3119
    3TMC2    C113898   0.345   3.595  14.292  0.3362 -0.8559  0.8169
    3TMC2    C213899   0.376   3.650  14.410  0.5569  0.7133 -1.4237
    3TMC2    C313900   0.414   3.780  14.399  0.0195  0.5496 -0.5451
    3TMC2    C413901   0.354   3.653  14.169 -0.1365  0.3621 -0.6739
    3TMC2    C513902   0.403   3.778  14.154 -0.0479  0.1351  0.2639
    3TMC2    C613903   0.435   3.842  14.276  0.2482  0.0659 -0.0280
    3TMC2     C13904   0.328   3.448  14.290 -0.1867  0.3279  0.7199
    3TMC2     O13905   0.262   3.404  14.199 -0.2769 -0.7490 -0.3838
    3TMC2     H13906   0.370   3.602  14.508  0.3462  0.5128 -1.5367
    3TMC2    H113907   0.339   3.586  14.085 -1.3682  1.2505 -1.1527
    3TMC2    H213908   0.472   3.944  14.272  0.7487 -0.0768  0.8429
    3TMC2    C713909   0.374   3.848  14.040 -0.3586 -0.2742 -0.1796
    3TMC2    C813910   0.457   3.840  14.526 -0.4303 -0.4617 -0.4701
    3TMC2    O113911   0.294   3.801  13.960  0.2803  0.4133  0.3760
    3TMC2    O213912   0.492   3.779  14.631  0.6574 -0.0321  0.0511
    3TMC2    O513913   0.483   3.973  14.500  0.6947  0.1316  0.2353
    3TMC2    H513914   0.424   4.024  14.440 -2.9188 -0.3335  3.4366
    4TMC2    C113915   4.608   4.430  13.638  0.1096 -0.3332  0.8211
    4TMC2    C213916   4.648   4.524  13.550  0.3232  0.3351  0.0602
    4TMC2    C313917   0.048   4.531  13.528  0.3257 -0.2373  0.4707
    4TMC2    C413918   4.700   4.348  13.693 -0.3307 -0.6761 -0.1875
    4TMC2    C513919   0.102   4.357  13.669  0.2488  0.0820 -0.1711
    4TMC2    C613920   0.146   4.453  13.578  0.0085 -0.2613  0.1151
    4TMC2     C13921   4.480   4.432  13.714 -0.4090  0.0695 -0.2601
    4TMC2     O13922   4.465   4.379  13.826 -0.3078 -0.4596  0.2741
    4TMC2     H13923   4.587   4.597  13.498 -0.3525  0.7938  1.4985
    4TMC2    H113924   4.656   4.275  13.760 -0.3585 -0.4761  0.0109
    4TMC2    H213925   0.244   4.464  13.533  0.3709  0.3143  1.0471
    4TMC2    C713926   0.177   4.258  13.740 -0.7567 -0.4855  0.6235
    4TMC2    C813927   0.086   4.617  13.415 -0.3473 -0.4732  0.0396
    4TMC2    O113928   0.113   4.162  13.789 -0.8404  0.9655 -0.7965
    4TMC2    O213929   0.190   4.683  13.409 -0.9386 -0.2245  0.0695
    4TMC2    O513930   0.007   4.590  13.306 -0.1017 -0.1325 -0.1216
    4TMC2    H513931   4.674   4.522  13.314  1.0969 -1.5984 -2.1817
    5MPD2     C13932   3.964   4.496  13.657 -0.1396  0.1019  0.5013
    5MPD2    C113933   4.024   4.575  13.561  0.7093 -0.1316  0.0423
    5MPD2    C213934   4.167   4.579  13.556 -0.4841  0.2050 -0.3979
    5MPD2    C313935   4.237   4.500  13.647  0.5194  0.3306  0.2870
    5MPD2    C413936   4.171   4.429  13.742 -0.5497 -0.7496  0.2639
    5MPD2    C513937   4.035   4.415  13.742 -0.3062  0.3082 -0.1640
    5MPD2     H13938   4.232   4.646  13.503  0.8945 -0.8711 -0.0692
    5MPD2    H113939   4.223   4.374  13.820  1.7164 -0.9279 -1.3747
    5MPD2    H213940   3.856   4.492  13.659 -0.1122 -0.7339  0.2566
    5MPD2    H313941   3.980   4.359  13.816 -0.2772 -1.2275 -1.2945
    5MPD2     N13942   4.384   4.504  13.639  0.3431  0.2563 -0.3027
    5MPD2    H513943   4.412   4.527  13.544  0.7558 -0.6756 -0.4094
    5MPD2    N113944   3.939   4.655  13.477  0.0075 -0.3150 -0.6880
    5MPD2    H713945   3.841   4.639  13.498  0.0269  0.4189 -0.0357
    6MPD1     C13946   3.273   1.614  12.746 -0.5598  0.0166 -0.0273
    6MPD1    C113947   3.330   1.523  12.659 -0.0020  0.3049 -0.3007
    6MPD1    C213948   3.380   1.412  12.721  0.4550 -0.2419 -0.2625
    6MPD1    C313949   3.373   1.394  12.861  0.7723 -0.4084 -0.2608
    6MPD1    C413950   3.298   1.475  12.943  0.4695  0.0876 -0.3776
    6MPD1    C513951   3.258   1.593  12.881  0.6969  0.2550 -0.0809
    6MPD1     H13952   3.414   1.328  12.661  2.1794 -0.9380  1.7117
    6MPD1    H113953   3.278   1.467  13.050  0.9621 -1.3030 -0.3847
    6MPD1    H213954   3.234   1.706  12.704 -0.2105  0.4625  0.6401
    6MPD1    H313955   3.191   1.662  12.930  0.5147 -1.2453  1.7635
    6MPD1     N13956   3.435   1.284  12.922 -0.7584 -0.0860 -0.2415
    6MPD1    H513957   3.399   1.278  13.017 -2.3905  1.4363 -0.7738
    6MPD1    N113958   3.319   1.534  12.519  0.6002  0.1011 -0.0877
    6MPD1    H613959   3.402   1.496  12.473 -2.1989 -1.1670 -4.1020
    6MPD1    H713960   3.304   1.633  12.501 -1.0307 -0.0051  0.7221
    7MPD2     C13961   3.260   0.656  13.302 -0.3229  0.1215  0.1428
    7MPD2    C113962   3.398   0.657  13.310 -0.9330 -0.1210 -0.0881
    7MPD2    C213963   3.463   0.538  13.330 -0.0046  0.4169  0.4280
    7MPD2    C313964   3.392   0.416  13.358 -0.2016 -0.4037 -0.0067
    7MPD2    C413965   3.254   0.417  13.358  0.7087  0.1319  0.1087
    7MPD2    C513966   3.194   0.537  13.322 -0.6688  0.0725 -0.4982
    7MPD2     H13967   3.571   0.542  13.336 -0.0154  0.8031  0.3657
    7MPD2    H113968   3.191   0.330  13.366 -0.5229  0.8998 -1.1798
    7MPD2    H213969   3.191   0.737  13.279 -0.5970 -0.1282  0.0950
    7MPD2    H313970   3.092   0.527  13.287 -0.8510 -0.4065  0.1656
    7MPD2     N13971   3.459   0.293  13.358 -0.0141  0.3147 -0.5139
    7MPD2    H513972   3.410   0.204  13.360  0.2978  0.1472 -0.3019
    7MPD2    N113973   3.472   0.765  13.268  0.8207 -0.4257  0.7790
    7MPD2    H713974   3.572   0.752  13.272  0.9934  0.9950  1.2057
    8TMC3    C113975   3.644   0.142  13.323 -0.6578 -0.0755 -0.3202
    8TMC3    C213976   3.764   0.103  13.383  0.4157  0.1068 -0.6624
    8TMC3    C313977   3.866   0.060  13.301 -0.6063  0.6625  0.1666
    8TMC3    C413978   3.637   0.140  13.182  0.5586  0.1955 -0.2977
    8TMC3    C513979   3.749   0.108  13.111  0.6306 -0.2587 -0.0843
    8TMC3    C613980   3.869   0.068  13.163 -0.2015 -0.0135  0.3498
    8TMC3     C13981   3.594   0.269  13.371 -0.1322 -0.1338  0.5465
    8TMC3     O13982   3.678   0.349  13.402  0.2503  0.2828  0.3199
    8TMC3     H13983   3.769   0.118  13.490 -0.2007 -0.6454 -0.5349
    8TMC3    H113984   3.553   0.179  13.126 -0.3621 -1.1502  0.1298
    8TMC3    H213985   3.948   0.024  13.105 -0.9342 -3.0459  1.6092
    8TMC3    C713986   3.768   0.211  13.010  0.2720 -0.0407  0.1014
    8TMC3    C813987   3.980   4.735  13.369  0.5786  0.1204 -0.1705
    8TMC3    O113988   3.672   0.271  12.966 -0.2034 -0.0059  0.2305
    8TMC3    O213989   4.094   0.019  13.333  0.1353 -0.1149 -0.0288
    9TMC3    C113990   3.563   1.095  12.966 -0.5028 -0.4446 -1.1131
    9TMC3    C213991   3.668   1.024  12.921 -0.3280 -0.0853  1.2723
    9TMC3    C313992   3.721   0.927  12.997 -0.1640  0.7073  0.7498
    9TMC3    C413993   3.492   1.072  13.080 -0.4090 -0.8262 -0.3715
    9TMC3    C513994   3.538   0.961  13.148 -0.2168 -0.1805  0.2924
    9TMC3    C613995   3.649   0.890  13.108  0.1750 -0.3286  0.2201
    9TMC3     C13996   3.525   1.196  12.871  0.8672 -0.5195  0.2119
    9TMC3     O13997   3.582   1.206  12.762 -0.1268  0.1387 -0.4515
    9TMC3     H13998   3.722   1.049  12.831 -2.3508 -3.1858 -0.7691
    9TMC3    H113999   3.399   1.122  13.102  0.9949  0.9342  1.5756
    9TMC3    H214000   3.685   0.802  13.160  1.0702  0.1268  0.3785
    9TMC3    C714001   3.427   0.884  13.212 -0.6705 -0.5078  0.1749
    9TMC3    C814002   3.826   0.843  12.944  0.1656 -0.3874  0.3951
    9TMC3    O114003   3.312   0.924  13.203 -0.1284 -0.5033 -0.2759
    9TMC3    O214004   3.902   0.891  12.862  0.4254  0.2277  0.3455
   10MPD2     C14005   4.072   0.397  12.916  0.2819 -0.2510 -0.0195
   10MPD2    C114006   3.943   0.372  12.955 -0.3460 -0.0010  1.2571
   10MPD2    C214007   3.854   0.481  12.971 -0.2375 -0.3289 -0.2580
   10MPD2    C314008   3.906   0.607  12.939  0.1804  0.0888 -0.2301
   10MPD2    C414009   4.037   0.632  12.901 -0.3669  1.1187 -0.0023
   10MPD2    C514010   4.117   0.520  12.899 -0.0313  0.2049 -0.3193
   10MPD2     H14011   3.750   0.472  13.001 -0.5451 -0.2016 -1.2998
   10MPD2    H114012   4.072   0.734  12.887  2.1627  0.1356 -0.8531
   10MPD2    H214013   4.146   0.319  12.900 -2.2619 -2.7963  0.6466
   10MPD2    H314014   4.220   0.538  12.870 -0.1223 -1.9066 -1.9746
   10MPD2     N14015   3.814   0.709  12.977  0.4993  0.1789 -0.1283
   10MPD2    H514016   3.725   0.676  13.014  1.0196  0.2500  1.1862
   10MPD2    N114017   3.900   0.242  12.990 -0.1748 -0.3795  0.2553
   10MPD2    H714018   3.970   0.171  13.009 -0.5497 -0.2837  1.9814
   11MPD2     C14019   0.621   4.069  13.892  0.2281 -0.7746 -0.2502
   11MPD2    C114020   0.496   4.033  13.932 -0.3586 -0.5826  0.4912
   11MPD2    C214021   0.383   4.102  13.885 -0.8054 -0.0105 -0.4012
   11MPD2    C314022   0.414   4.208  13.795 -0.2273  0.3100 -0.2021
   11MPD2    C414023   0.543   4.250  13.767 -0.7689 -0.2400  0.2954
   11MPD2    C514024   0.644   4.179  13.815  0.1440  0.5431  0.1588
   11MPD2     H14025   0.286   4.073  13.922 -3.0407  3.9529 -3.1705
   11MPD2    H114026   0.565   4.326  13.694  2.8439  2.1780  3.9101
   11MPD2    H214027   0.707   4.006  13.913 -0.6048 -2.1047 -0.8386
   11MPD2    H314028   0.745   4.212  13.793  0.3087 -2.2438 -3.0628
   11MPD2     N14029   0.310   4.287  13.744 -0.0085 -0.0055  0.3371
   11MPD2    H514030   0.346   4.362  13.685 -0.2715 -1.1885 -1.3316
   11MPD2    N114031   0.487   3.918  14.007 -0.0686  0.7952  0.9717
   11MPD2    H714032   0.572   3.884  14.051  0.3266 -0.5906 -0.8766
    1MPD1     C14033   1.755   0.955  16.877 -0.2240 -0.8108 -0.1946
    1MPD1    C114034   1.774   0.849  16.967 -0.2050  0.6660 -0.6069
    1MPD1    C214035   1.898   0.810  17.003 -0.6223 -0.0475  0.0877
    1MPD1    C314036   2.011   0.872  16.938 -0.1430 -0.6907  0.2752
    1MPD1    C414037   1.991   0.969  16.843 -0.1587  0.1123 -0.0386
    1MPD1    C514038   1.863   1.011  16.816 -0.5659 -0.6825 -0.2814
    1MPD1     H14039   1.923   0.740  17.081 -3.1486 -1.8475 -0.7243
    1MPD1    H114040   2.068   1.009  16.778  1.5545 -0.8675  1.3743
    1MPD1    H214041   1.665   1.002  16.838  0.4630  1.7380  1.3218
    1MPD1    H314042   1.847   1.102  16.759 -1.2508  0.2500  1.4028
    1MPD1     N14043   2.149   0.847  16.969  0.2295  0.2117  0.0248
    1MPD1    H514044   2.215   0.900  16.913 -0.7027  0.0603 -1.2080
    1MPD1    N114045   1.667   0.804  17.052  0.0325 -0.6507 -0.5769
    1MPD1    H614046   1.582   0.815  16.998 -1.3295  0.9874  1.9320
    1MPD1    H714047   1.666   0.706  17.076  2.3714  0.5132  4.2767
    2MPD1     C14048   2.659   4.714  16.926 -0.7679 -0.6225 -0.1701
    2MPD1    C114049   2.527   0.012  16.908 -0.1435 -0.5322 -1.1830
    2MPD1    C214050   2.492   0.141  16.932 -0.2921 -0.0284  0.7923
    2MPD1    C314051   2.577   0.238  16.964 -0.0571  0.1172  0.1253
    2MPD1    C414052   2.710   0.202  16.980  0.4154  0.7155  0.0423
    2MPD1    C514053   2.746   0.071  16.970 -0.9665 -0.6587 -0.0854
    2MPD1     H14054   2.390   0.169  16.906  0.5475  3.0689  0.8190
    2MPD1    H114055   2.786   0.278  16.994  0.1276  0.9930  0.1067
    2MPD1    H214056   2.695   4.612  16.926 -0.0258 -0.3611 -0.1678
    2MPD1    H314057   2.853   0.061  16.981 -0.8248 -0.0103 -0.8655
    2MPD1     N14058   2.525   0.368  16.974  0.0940  0.0532 -0.2826
    2MPD1    H514059   2.426   0.391  16.968  0.1999  0.3796 -0.7925
    2MPD1    N114060   2.426   4.652  16.883 -0.0259 -0.5541  0.8576
    2MPD1    H614061   2.460   4.574  16.826  0.9526  0.8323 -0.4680
    2MPD1    H714062   2.336   4.690  16.856 -0.8531 -1.1972  2.7587
    3TMC3    C114063   2.538   0.598  17.036 -0.7147 -0.4702  0.2435
    3TMC3    C214064   2.618   0.706  17.004 -0.2555  0.0210  0.0530
    3TMC3    C314065   2.555   0.827  16.994  0.3732 -0.1427  0.8873
    3TMC3    C414066   2.403   0.612  17.056  0.0478 -0.7455  0.4159
    3TMC3    C514067   2.339   0.737  17.036 -0.1242  0.1300 -0.6145
    3TMC3    C614068   2.415   0.849  17.006 -0.0335 -0.5034 -0.3837
    3TMC3     C14069   2.605   0.468  17.019  0.0948  0.2315  0.8288
    3TMC3     O14070   2.723   0.474  17.044  0.2252 -0.6727  0.5507
    3TMC3     H14071   2.725   0.703  16.982 -0.0952  2.0620  0.5586
    3TMC3    H114072   2.335   0.532  17.084  0.3441 -0.5303  1.7421
    3TMC3    H214073   2.369   0.947  17.014  0.0972 -0.1444 -3.9102
    3TMC3    C714074   2.193   0.749  17.053 -0.3359 -0.0798 -0.0783
    3TMC3    C814075   2.641   0.944  16.968 -0.2545 -0.3226 -1.1534
    3TMC3    O114076   2.131   0.672  17.130  0.4517 -0.9046  0.5035
    3TMC3    O214077   2.757   0.917  16.982 -0.9575 -0.3948 -0.5293
    4MPD1     C14078   2.712   1.421  16.798 -0.2488  0.1388 -0.0601
    4MPD1    C114079   2.593   1.374  16.743 -0.9157  0.2312 -0.2677
    4MPD1    C214080   2.555   1.245  16.775 -0.1109 -0.5260 -0.0138
    4MPD1    C314081   2.625   1.178  16.874 -0.1947 -0.3718 -0.5398
    4MPD1    C414082   2.750   1.219  16.910  0.0076 -0.2985 -0.4236
    4MPD1    C514083   2.797   1.339  16.865 -0.2606 -0.0523  0.3917
    4MPD1     H14084   2.462   1.209  16.731 -0.0892  2.1861 -2.2476
    4MPD1    H114085   2.809   1.159  16.979  1.2617  0.6585 -0.6649
    4MPD1    H214086   2.749   1.519  16.770 -4.1690  1.6203 -0.0818
    4MPD1    H314087   2.894   1.367  16.903  0.7465 -1.1228 -1.4416
    4MPD1     N14088   2.569   1.057  16.927 -0.0300  0.6569 -0.0792
    4MPD1    H514089   2.475   1.038  16.895 -0.3965  2.5054 -0.0862
    4MPD1    N114090   2.519   1.460  16.658  0.4648 -0.7672  0.1376
    4MPD1    H614091   2.539   1.559  16.671  0.0005 -0.5071 -1.0918
    4MPD1    H714092   2.418   1.443  16.659  0.4729 -0.7522  1.0552
    1TCq1    O114093   4.105   2.873  11.624  0.4693  0.1643 -0.0499
    1TCq1    C114094   4.024   2.975  11.651 -0.5874  0.3151  0.1525
    1TCq1    O214095   3.904   2.978  11.633  0.1523  0.3559 -0.3367
    1TCq1    C214096   4.094   3.079  11.717  0.5281  0.4293  0.2252
    1TCq1    C314097   4.035   3.203  11.709 -0.1538  0.3634 -0.1328
    1TCq1    C414098   4.095   3.311  11.761  0.1226 -0.2516  0.0009
    1TCq1    C514099   4.197   3.301  11.846  0.7638  0.2955  0.5330
    1TCq1    C614100   4.250   3.171  11.859 -0.5835  0.3944  0.1236
    1TCq1    C714101   4.201   3.056  11.798 -0.3172  0.6650  0.2220
    1TCq1    C814102   4.372   3.175  11.936 -0.4560 -0.1095  0.9122
    1TCq1    O414103   4.419   3.287  11.952 -0.7171  0.0227  0.1863
    1TCq1    C914104   4.007   3.428  11.762 -0.4870 -0.2639 -0.5488
    1TCq1    O514105   4.049   3.534  11.815 -0.0522 -0.0674  0.0717
    1TCq1    O614106   3.894   3.415  11.711  0.3805 -0.6775 -0.2800
    1TCq1    H114107   4.200   2.899  11.627 -0.4526  3.5822 -1.1526
    1TCq1    H214108   3.955   3.209  11.635 -0.4389 -1.5043  0.0018
    1TCq1    H314109   4.223   3.385  11.909  0.7232  0.0522  0.8801
    1TCq1    H414110   4.239   2.956  11.815 -0.2880  0.0169 -3.7593
    2MPD1     C14111   0.007   2.966  12.206 -0.3599 -0.0513  0.2354
    2MPD1    C114112   4.641   2.876  12.206  0.9343 -0.1182 -0.5463
    2MPD1    C214113   4.532   2.908  12.125 -0.3531  0.1450  0.0700
    2MPD1    C314114   4.518   3.029  12.061  0.7324 -0.1324  0.3321
    2MPD1    C414115   4.627   3.120  12.066 -0.4288  0.3449  0.1448
    2MPD1    C514116   0.003   3.088  12.138  0.6904  0.2420 -0.2137
    2MPD1     H14117   4.453   2.834  12.120  0.3144 -0.4787 -1.1716
    2MPD1    H114118   4.639   3.208  12.003 -1.3439  0.7275  0.5031
    2MPD1    H214119   0.088   2.942  12.274 -0.0542 -0.0667 -0.1362
    2MPD1    H314120   0.089   3.155  12.141  0.8593 -0.1516  3.0858
    2MPD1     N14121   4.398   3.055  11.992 -0.0962 -0.1635 -0.2967
    2MPD1    H514122   4.326   2.982  11.988  1.2325 -1.4812 -0.2481
    2MPD1    N114123   4.646   2.750  12.266 -0.3627 -0.3629  0.3537
    2MPD1    H614124   4.677   2.755  12.363 -0.0837 -1.1417  0.3015
    2MPD1    H714125   4.559   2.697  12.260 -0.2476 -0.4859 -0.1894
    1TMC1    C114126   1.510   0.808   0.440 -0.6151  0.0827 -0.0392
    1TMC1    C214127   1.488   0.934   0.385  0.3722  0.2581  0.2290
    1TMC1    C314128   1.358   0.973   0.390 -0.0076  0.8349  0.2701
    1TMC1    C414129   1.406   0.737   0.495 -0.7328 -0.2447  0.1606
    1TMC1    C514130   1.279   0.784   0.492 -0.2471 -0.3110  0.1658
    1TMC1    C614131   1.248   0.905   0.433 -0.7523  0.2630  0.4929
    1TMC1     C14132   1.635   0.741   0.420 -0.5370 -0.7335  0.3100
    1TMC1     O14133   1.642   0.620   0.435 -0.1283  0.3532  0.4538
    1TMC1     H14134   1.559   0.992   0.327 -0.2271 -1.2077 -1.9986
    1TMC1    H114135   1.415   0.642   0.546 -0.8715 -1.6792 -2.4817
    1TMC1    H214136   1.150   0.949   0.419 -0.6197 -0.1980 -1.8399
    1TMC1    C714137   1.172   0.687   0.511  0.9394  0.1743 -0.1460
    1TMC1    C814138   1.342   1.109   0.358  0.1415  0.1552  1.0717
    1TMC1    O114139   1.178   0.576   0.466 -0.3544  0.2159  0.6699
    1TMC1    O214140   1.400   1.166   0.269 -0.2575  0.5304 -0.0046
    1TMC1    O314141   1.057   0.754   0.527 -0.0144  0.2006 -0.1924
    1TMC1    H314142   1.073   0.846   0.556  0.5600 -0.4770  1.6455
    1TMC1    O514143   1.303   1.164   0.477 -0.2341  0.2771  0.5526
    1TMC1    H514144   1.308   1.105   0.555  1.6022  2.3654  2.0202
    2MPD1     C14145   2.112   0.686   0.286 -0.9232 -0.1932 -0.3327
    2MPD1    C114146   2.097   0.817   0.320  0.1730 -0.2027  0.0551
    2MPD1    C214147   1.971   0.867   0.350  1.2225 -0.6457 -0.4289
    2MPD1    C314148   1.864   0.782   0.334 -0.8170 -0.1128  0.1996
    2MPD1    C414149   1.881   0.651   0.289 -0.0166  0.6088 -0.4130
    2MPD1    C514150   2.004   0.614   0.250  0.6959  0.1914 -1.0734
    2MPD1     H14151   1.961   0.969   0.385 -0.5379 -0.4021 -1.6592
    2MPD1    H114152   1.797   0.583   0.285  0.7730 -0.3123 -1.0788
    2MPD1    H214153   2.208   0.637   0.274  1.0562  3.1474  1.9803
    2MPD1    H314154   2.011   0.518   0.200  2.2900 -1.0482  1.5439
    2MPD1     N14155   1.740   0.827   0.378  0.1245  0.1283 -0.5096
    2MPD1    H514156   1.732   0.921   0.415  1.6855  0.7617 -1.7858
    2MPD1    N114157   2.213   0.886   0.359  0.3401  0.7815 -0.3554
    2MPD1    H614158   2.182   0.983   0.353 -0.6044  0.4676 -0.4788
    2MPD1    H714159   2.295   0.864   0.302 -0.1445  0.2608 -0.8533
    1MPD1     C14160   0.268   0.787  12.034 -0.7232  1.0709  0.3310
    1MPD1    C114161   0.391   0.805  12.091  0.1906  0.1377  0.7381
    1MPD1    C214162   0.507   0.775  12.010 -1.1019  0.3737 -0.5584
    1MPD1    C314163   0.487   0.740  11.878 -0.1100 -0.8027  0.4861
    1MPD1    C414164   0.366   0.711  11.830 -0.3659  0.2723 -0.0025
    1MPD1    C514165   0.261   0.748  11.902  0.1715  0.3860  0.2868
    1MPD1     H14166   0.603   0.796  12.054 -1.5962  0.9511  0.2401
    1MPD1    H114167   0.343   0.702  11.724  0.0656 -0.1854 -0.0557
    1MPD1    H214168   0.174   0.804  12.084 -1.5114  1.2696 -1.2267
    1MPD1    H314169   0.162   0.739  11.858  0.5764 -0.6522 -0.4118
    1MPD1     N14170   0.601   0.741  11.795 -0.0517 -0.4014  0.1956
    1MPD1    H514171   0.685   0.785  11.831  0.5338 -0.5481 -0.9975
    1MPD1    N114172   0.397   0.824  12.225  0.5784  0.1027 -0.2245
    1MPD1    H614173   0.329   0.888  12.266 -2.4619 -1.9994 -1.9496
    1MPD1    H714174   0.489   0.853  12.257  0.4393  0.9720 -0.6164
    2MPD1     C14175   0.206   1.165  11.233  1.0300 -0.3502 -0.0246
    2MPD1    C114176   0.117   1.086  11.159 -0.3139 -0.6010  0.7057
    2MPD1    C214177   0.161   1.039  11.031 -0.3822 -0.4137 -0.3300
    2MPD1    C314178   0.294   1.034  11.000 -0.0488 -0.1297 -0.2985
    2MPD1    C414179   0.383   1.098  11.082  0.4923  0.3728 -0.0098
    2MPD1    C514180   0.341   1.158  11.199 -0.4924  0.0593  0.2119
    2MPD1     H14181   0.082   1.004  10.966 -0.6651  0.6890 -0.5669
    2MPD1    H114182   0.491   1.095  11.067  0.4219  0.3197 -0.5161
    2MPD1    H214183   0.165   1.203  11.325 -2.6230  0.3505 -1.9510
    2MPD1    H314184   0.412   1.202  11.268 -0.0720 -1.4719  0.7692
    2MPD1     N14185   0.346   0.968  10.878  0.0984  0.4098  0.3175
    2MPD1    H514186   0.446   0.974  10.861  0.1122  1.4652  0.7574
    2MPD1    N114187   4.715   1.086  11.186  0.1988 -0.5487  0.1104
    2MPD1    H614188   4.658   1.010  11.149  0.1728 -0.4943  0.0399
    2MPD1    H714189   4.699   1.098  11.285  0.0937  2.6198 -0.3035
    3MPD1     C14190   0.150   1.182   9.858 -0.4312 -0.2129 -0.5096
    3MPD1    C114191   0.279   1.125   9.857  0.2207 -0.1105 -0.8640
    3MPD1    C214192   0.326   1.058   9.965 -0.5348  0.0931 -0.1663
    3MPD1    C314193   0.256   1.061  10.078  0.3517  0.4332  0.7112
    3MPD1    C414194   0.130   1.123  10.089  0.4318  0.5542 -0.3235
    3MPD1    C514195   0.084   1.186   9.976 -0.4924  0.0710 -0.0798
    3MPD1     H14196   0.420   1.006   9.961 -1.8850 -2.2640 -1.3366
    3MPD1    H114197   0.079   1.135  10.184  0.2471  1.3363 -0.5186
    3MPD1    H214198   0.109   1.249   9.783  0.6572  0.0083 -0.9102
    3MPD1    H314199   4.735   1.250   9.987 -0.3485 -0.1674  2.3246
    3MPD1     N14200   0.306   0.988  10.191 -1.3527  0.2041  0.3253
    3MPD1    H514201   0.401   0.956  10.175 -0.7450  2.0607  0.2228
    3MPD1    N114202   0.338   1.102   9.732  0.3705  0.3849  0.6237
    3MPD1    H614203   0.313   1.185   9.680 -1.9792 -0.3447  0.5645
    3MPD1    H714204   0.439   1.096   9.731  0.2287 -2.3909  1.3254
    4MPD2     C14205   1.105   1.240  11.477  0.3183 -0.2654 -0.4822
    4MPD2    C114206   1.106   1.106  11.436  0.6425  0.1428  0.5988
    4MPD2    C214207   1.174   1.072  11.324  0.7257 -0.5938 -0.1797
    4MPD2    C314208   1.232   1.155  11.238  0.6345  0.2334  0.0268
    4MPD2    C414209   1.228   1.286  11.276  0.2291 -0.7934 -0.0754
    4MPD2    C514210   1.162   1.324  11.391  0.4061 -0.1580  0.6911
    4MPD2     H14211   1.162   0.966  11.304  2.1701 -0.4609 -1.7395
    4MPD2    H114212   1.277   1.366  11.222 -0.6812 -0.7929 -0.9111
    4MPD2    H214213   1.062   1.274  11.571 -1.0326  0.1328 -1.2533
    4MPD2    H314214   1.159   1.429  11.418  0.8668  0.7370 -2.7236
    4MPD2     N14215   1.303   1.098  11.132  0.1859 -0.0817  0.2285
    4MPD2    H514216   1.302   0.997  11.124  0.7238 -0.2004  1.6677
    4MPD2    N114217   1.050   1.005  11.512  0.1058 -0.1307 -0.3115
    4MPD2    H714218   1.078   0.914  11.477  1.4204 -0.3219  1.2587
    5TMC3    C114219   0.952   0.854  11.649  0.0331 -0.9566  0.1788
    5TMC3    C214220   0.828   0.835  11.685  0.1205  0.3741  0.5047
    5TMC3    C314221   0.748   0.738  11.618 -0.9175  0.2816 -0.4582
    5TMC3    C414222   0.997   0.777  11.548 -0.2978 -0.6277 -0.3052
    5TMC3    C514223   0.928   0.683  11.481  0.6263 -0.7817  0.0555
    5TMC3    C614224   0.793   0.673  11.506 -0.1692 -0.0533  0.1326
    5TMC3     C14225   0.981   0.997  11.624 -0.6265  0.4929  0.5964
    5TMC3     O14226   0.910   1.081  11.682 -1.0868  0.5193 -0.0582
    5TMC3     H14227   0.778   0.899  11.756  1.2089  1.1669  0.5489
    5TMC3    H114228   1.105   0.771  11.545 -0.3284 -1.1787 -0.2206
    5TMC3    H214229   0.724   0.602  11.460 -0.3438  0.4247 -0.3460
    5TMC3    C714230   0.968   0.678  11.345  0.0089  0.4706 -0.3347
    5TMC3    C814231   0.612   0.713  11.661 -0.4075 -0.7981  0.0021
    5TMC3    O114232   1.029   0.784  11.319  0.2711  0.1904 -0.5901
    5TMC3    O214233   0.527   0.672  11.581  0.3249  0.2163 -0.0139
    6TMC3    C114234   0.332   0.896  10.645 -0.1545  0.4175  0.7281
    6TMC3    C214235   0.260   0.888  10.528 -0.1222  0.6136 -0.0459
    6TMC3    C314236   0.326   0.925  10.413 -0.3418 -0.0909 -0.0023
    6TMC3    C414237   0.465   0.929  10.647  0.1342  0.3996  0.0962
    6TMC3    C514238   0.529   0.943  10.527 -0.6668  0.3503  0.5136
    6TMC3    C614239   0.461   0.970  10.411  0.5985  0.0246 -0.1749
    6TMC3     C14240   0.263   0.935  10.770 -0.0945 -0.5830  0.1121
    6TMC3     O14241   0.145   0.928  10.768  0.4516 -0.2102 -0.3753
    6TMC3     H14242   0.153   0.869  10.526 -0.1428  0.9270 -1.3601
    6TMC3    H114243   0.518   0.897  10.736 -0.3011  2.5833  1.1478
    6TMC3    H214244   0.515   1.019  10.331  3.2793 -2.2217  0.2584
    6TMC3    C714245   0.677   0.946  10.530 -0.3707 -0.7160  0.1712
    6TMC3    C814246   0.238   0.975  10.311 -0.3154  0.2517  0.0890
    6TMC3    O114247   0.720   0.924  10.640  0.4820  0.6375  0.1617
    6TMC3    O214248   0.117   0.964  10.331 -0.0969  0.1988  0.0189
    7MPD2     C14249   1.100   0.482  10.886 -0.1841 -0.2973 -0.3668
    7MPD2    C114250   1.151   0.586  10.963 -0.2947  0.3383 -0.0940
    7MPD2    C214251   1.092   0.609  11.088 -0.5188  0.0059  0.0082
    7MPD2    C314252   0.988   0.532  11.139 -0.5594 -0.0367 -0.5593
    7MPD2    C414253   0.944   0.419  11.069  0.0985 -0.2496  0.0774
    7MPD2    C514254   0.998   0.404  10.942 -0.1287  0.9500  0.5922
    7MPD2     H14255   1.133   0.686  11.153  0.6176  1.8523 -2.8731
    7MPD2    H114256   0.868   0.350  11.103 -0.5956  0.2882 -0.3747
    7MPD2    H214257   1.133   0.464  10.784 -0.8674 -1.7255 -0.3336
    7MPD2    H314258   0.947   0.324  10.890  0.0634  1.0502  0.2507
    7MPD2     N14259   0.940   0.559  11.274  0.3179 -0.1279  0.4761
    7MPD2    H514260   0.880   0.488  11.315  0.5208 -0.4756  0.1607
    7MPD2    N114261   1.251   0.665  10.901 -0.1946 -0.3368 -0.0450
    7MPD2    H714262   1.272   0.640  10.805 -0.7868 -2.1739  0.3025
    8TMC3    C114263   1.397   0.858  10.897 -0.9131 -0.3053  0.0803
    8TMC3    C214264   1.360   0.892  10.770 -0.0084 -0.0373  1.1115
    8TMC3    C314265   1.365   1.020  10.729 -0.4685 -0.5401 -0.9178
    8TMC3    C414266   1.434   0.955  10.985 -0.2748 -0.7462  0.9491
    8TMC3    C514267   1.435   1.087  10.945  0.5829 -0.0376  0.5470
    8TMC3    C614268   1.409   1.119  10.811 -0.1809  0.2975 -0.1370
    8TMC3     C14269   1.296   0.779  10.967  0.4860  0.2776  0.2618
    8TMC3     O14270   1.270   0.827  11.077 -0.1848  0.1140  0.4708
    8TMC3     H14271   1.331   0.813  10.701 -0.0913  0.9764 -0.0097
    8TMC3    H114272   1.471   0.930  11.084 -0.3803 -0.4300  1.0668
    8TMC3    H214273   1.416   1.220  10.773 -1.2445 -0.1643 -1.5531
    8TMC3    C714274   1.368   1.178  11.030  0.0114  0.4459  0.4604
    8TMC3    C814275   1.317   1.062  10.603  0.6902  0.0723 -0.0647
    8TMC3    O114276   1.371   1.301  11.010  0.0956 -0.1901 -0.5257
    8TMC3    O214277   1.375   1.153  10.544  0.0142 -0.2765 -0.9661
    9MPD2     C14278   1.144   1.095  10.363  0.4369 -0.2312 -0.7642
    9MPD2    C114279   1.108   1.026  10.480 -0.3429  0.8917  0.0193
    9MPD2    C214280   0.977   0.994  10.500  0.1747 -0.1849  0.2221
    9MPD2    C314281   0.881   1.009  10.397  0.2285  0.1691 -0.0210
    9MPD2    C414282   0.928   1.066  10.276 -0.4000  0.0886  0.4352
    9MPD2    C514283   1.052   1.117  10.263 -0.0093  1.1055  0.4787
    9MPD2     H14284   0.957   0.958  10.600  0.2897  1.1061  0.6998
    9MPD2    H114285   0.858   1.094  10.198  0.1789 -0.5847 -0.3158
    9MPD2    H214286   1.246   1.129  10.352  0.1651  0.1018 -2.3668
    9MPD2    H314287   1.084   1.157  10.167  1.3664  0.7863  0.7992
    9MPD2     N14288   0.745   0.971  10.412 -0.2530 -0.2634  0.2471
    9MPD2    H514289   0.689   0.982  10.327 -0.1378  0.7381  0.3051
    9MPD2    N114290   1.199   0.996  10.585 -0.1974 -0.0808  0.2157
    9MPD2    H714291   1.166   0.926  10.652  0.0243  0.5929  1.0247
    1MPD1     C14292   4.573   3.435  15.980 -1.2612  0.1021  0.4116
    1MPD1    C114293   4.542   3.359  15.867 -0.5468 -0.0695 -0.1107
    1MPD1    C214294   4.568   3.411  15.741  1.1248 -0.3784  0.6792
    1MPD1    C314295   4.638   3.529  15.728 -0.2126 -0.5371  0.3164
    1MPD1    C414296   4.679   3.596  15.847  0.8184  0.0075 -0.3671
    1MPD1    C514297   4.646   3.556  15.971  0.1047  0.6098 -0.4698
    1MPD1     H14298   4.529   3.358  15.655  1.5328 -0.0945  0.3223
    1MPD1    H114299   0.008   3.681  15.848 -1.2504  1.5963  0.1792
    1MPD1    H214300   4.533   3.408  16.077  0.2194 -0.4579  0.8649
    1MPD1    H314301   4.664   3.622  16.055  1.8121 -1.0504  0.4616
    1MPD1     N14302   4.685   3.580  15.605 -0.0439  0.1827  0.7151
    1MPD1    H514303   4.719   3.676  15.609  4.0910 -1.2838  0.9551
    1MPD1    N114304   4.457   3.245  15.875 -0.0782 -0.1666  0.2229
    1MPD1    H614305   4.458   3.205  15.968 -1.6613  2.1596  1.2322
    1MPD1    H714306   4.496   3.180  15.807 -0.0652 -0.3272  0.3860
    2TMC2    C114307   0.082   3.795  15.258 -0.2454 -0.4030 -0.6767
    2TMC2    C214308   0.090   3.723  15.139 -0.0026 -0.4265  0.1106
    2TMC2    C314309   0.073   3.589  15.143 -0.4231 -0.0076 -0.2245
    2TMC2    C414310   0.039   3.732  15.372 -0.5777 -0.1649 -0.0162
    2TMC2    C514311   0.006   3.597  15.367  0.3264  0.4237 -0.1254
    2TMC2    C614312   0.031   3.527  15.259 -0.2213 -0.1790  0.2975
    2TMC2     C14313   0.111   3.942  15.250 -0.8335 -0.0715  0.1415
    2TMC2     O14314   0.131   3.991  15.139  0.0032 -0.1181 -0.1762
    2TMC2     H14315   0.133   3.771  15.052  0.4682  0.5299  0.8758
    2TMC2    H114316   0.014   3.788  15.461  0.9763  2.1528 -1.0520
    2TMC2    H214317   0.019   3.419  15.257 -0.3184 -0.1410 -1.5644
    2TMC2    C714318   4.684   3.525  15.476  0.6416  0.6248  0.3285
    2TMC2    C814319   0.081   3.520  15.020 -0.4931 -0.6132  0.5984
    2TMC2    O114320   4.632   3.420  15.445 -0.3422  0.1322 -0.1084
    2TMC2    O214321   0.063   3.560  14.904 -0.2302 -0.8699 -0.5149
    2TMC2    O514322   0.146   3.405  15.044 -1.2160 -0.0929 -0.1724
    2TMC2    H514323   0.168   3.385  15.138 -0.7069  4.2547  0.6155
    3MPD1     C14324   0.176   4.417  15.449 -0.0310  0.0792  0.1388
    3MPD1    C114325   0.192   4.325  15.551 -0.8097 -0.0112 -0.5670
    3MPD1    C214326   0.159   4.191  15.525 -0.4018 -0.2926  0.2203
    3MPD1    C314327   0.157   4.140  15.392 -0.3516 -0.4101 -0.5983
    3MPD1    C414328   0.159   4.243  15.292  0.1081  0.1287 -0.1436
    3MPD1    C514329   0.166   4.377  15.323 -0.1225 -0.0114  0.1665
    3MPD1     H14330   0.144   4.126  15.610  0.8098  1.3969  1.7093
    3MPD1    H114331   0.161   4.211  15.188  0.0744 -3.4473  0.9633
    3MPD1    H214332   0.193   4.523  15.464 -0.9381  0.3681 -0.8366
    3MPD1    H314333   0.167   4.452  15.244 -1.8869  0.7023  0.8221
    3MPD1     N14334   0.116   4.002  15.378  0.3860  0.0725 -0.0140
    3MPD1    H514335   0.097   3.956  15.466 -0.9285 -0.2777 -0.4805
    3MPD1    N114336   0.206   4.374  15.679 -0.3185  0.2902  1.2386
    3MPD1    H614337   0.270   4.453  15.679  1.0862 -0.8412  0.5431
    3MPD1    H714338   0.229   4.301  15.746  0.2684 -0.7876 -0.1217
    1TMC1    C114339   3.909   4.114  12.887 -0.3933 -0.1746  0.4534
    1TMC1    C214340   3.947   4.146  12.759  0.1887  0.7530  0.7276
    1TMC1    C314341   3.865   4.226  12.684 -0.4462 -0.1063  0.3503
    1TMC1    C414342   3.777   4.136  12.924  0.7172 -0.3661  0.5727
    1TMC1    C514343   3.696   4.203  12.842  0.7402 -0.2484 -0.3565
    1TMC1    C614344   3.735   4.254  12.721  0.3396  0.6342  0.3318
    1TMC1     C14345   4.007   4.059  12.980  0.3037 -0.2193  0.0181
    1TMC1     O14346   4.121   4.075  12.931 -0.4152  0.7577 -0.1098
    1TMC1     H14347   4.046   4.114  12.729 -0.3591 -0.0721 -0.1952
    1TMC1    H114348   3.736   4.111  13.021 -0.2680 -0.4318  0.1328
    1TMC1    H214349   3.673   4.314  12.656 -1.1588  0.1751  1.3585
    1TMC1    C714350   3.565   4.248  12.893 -0.0785 -0.5843  0.1112
    1TMC1    C814351   3.896   4.246  12.542  0.7511 -1.2166 -0.7494
    1TMC1    O114352   3.511   4.350  12.860 -0.1325  0.0490  0.6029
    1TMC1    O214353   3.877   4.349  12.477  0.3358 -0.3661  0.4114
    1TMC1    O314354   3.506   4.137  12.931 -0.4661 -0.1422 -0.2636
    1TMC1    H314355   3.562   4.071  12.884 -0.5356 -0.5420  0.2058
    1TMC1    O514356   3.973   4.149  12.493  0.6603  0.2048 -0.1784
    1TMC1    H514357   3.964   4.070  12.551 -2.2314  0.6767  0.0026
    2MPD2     C14358   4.182   3.944  13.179  0.4074 -0.0963  0.5732
    2MPD2    C114359   4.047   3.954  13.200 -0.1535 -0.2415  0.1407
    2MPD2    C214360   3.985   3.922  13.322  0.3493  0.2724  0.1822
    2MPD2    C314361   4.069   3.865  13.424 -0.7040 -0.1357 -0.1182
    2MPD2    C414362   4.204   3.853  13.398  0.6814  0.7999  0.2791
    2MPD2    C514363   4.261   3.897  13.278 -0.2499  0.1178  0.0605
    2MPD2     H14364   3.877   3.921  13.330  0.3854 -0.6082  0.5422
    2MPD2    H114365   4.280   3.811  13.463  1.9458  0.1819 -1.6082
    2MPD2    H214366   4.225   3.965  13.082 -1.5520  0.0554 -0.2749
    2MPD2    H314367   4.368   3.895  13.262 -0.3027  0.9437 -0.4361
    2MPD2     N14368   4.012   3.817  13.539  0.3121 -0.0794  0.4291
    2MPD2    H514369   3.911   3.829  13.540  0.3571  0.2029  1.4471
    2MPD2    N114370   3.956   3.997  13.091  0.2628 -0.3332 -0.5716
    2MPD2    H714371   3.858   3.971  13.101  0.1258  0.2805 -0.3501
    3TCq1    O114372   3.991   3.459  14.138 -0.2352 -0.0599 -0.1816
    3TCq1    C114373   4.062   3.548  14.063 -0.4398  0.0769 -0.1817
    3TCq1    O214374   4.185   3.556  14.075 -0.2403  0.0661  0.6467
    3TCq1    C214375   3.975   3.579  13.945  0.9191  0.4323  0.0302
    3TCq1    C314376   3.853   3.548  13.917  0.0198  0.2968 -0.3517
    3TCq1    C414377   3.797   3.581  13.796 -0.4694 -0.4908 -0.1187
    3TCq1    C514378   3.868   3.649  13.704  0.1018  0.3904 -0.1465
    3TCq1    C614379   3.991   3.689  13.737 -0.1728  1.0812 -0.0373
    3TCq1    C714380   4.049   3.639  13.847 -0.2865  0.1304  0.4969
    3TCq1    C814381   4.073   3.751  13.641 -0.3335 -0.0672  0.5052
    3TCq1    O414382   4.195   3.736  13.663  0.4955  0.1695  0.1551
    3TCq1    C914383   3.663   3.548  13.768 -0.0189  0.6396  0.0223
    3TCq1    O514384   3.602   3.477  13.857  0.3160  0.4833 -0.3503
    3TCq1    O614385   3.632   3.543  13.650  0.4973  0.0668  0.1123
    3TCq1    H114386   3.901   3.497  14.128 -0.4477 -0.2130  1.1389
    3TCq1    H214387   3.790   3.515  13.998 -2.0846  0.4552 -1.9457
    3TCq1    H314388   3.832   3.649  13.602  0.7027 -0.0280 -0.3521
    3TCq1    H414389   4.151   3.668  13.870  0.6449  0.4330 -3.9329
    1MPD2     C14390   3.154   4.726  14.684 -0.0731 -0.2527  0.5253
    1MPD2    C114391   3.044   4.653  14.711  0.0999  0.4148  0.4644
    1MPD2    C214392   3.058   4.512  14.712  0.7570  0.3354  0.0377
    1MPD2    C314393   3.180   4.453  14.679 -0.4903  0.0552  0.0008
    1MPD2    C414394   3.290   4.533  14.649 -0.4622  0.8782 -0.1001
    1MPD2    C514395   3.277   4.670  14.667 -0.5944  0.6704  0.3228
    1MPD2     H14396   2.984   4.443  14.752  0.6457 -0.0060 -0.7596
    1MPD2    H114397   3.390   4.500  14.625 -0.9782 -0.1205 -0.8677
    1MPD2    H214398   3.141   0.097  14.678  0.3026 -0.3506 -2.1520
    1MPD2    H314399   3.367   4.728  14.654 -0.4140  0.4824  0.7450
    1MPD2     N14400   3.185   4.311  14.688 -0.2426 -0.3204 -0.3230
    1MPD2    H514401   3.095   4.268  14.710 -0.2908 -0.5341 -0.9522
    1MPD2    N114402   2.918   4.714  14.737 -0.0521  0.2840  0.2345
    1MPD2    H714403   2.909   0.078  14.739  0.0132  0.2562  2.4220
    2TMC3    C114404   2.694   4.720  14.800  0.4750  0.2066 -0.3081
    2TMC3    C214405   2.646   4.664  14.914 -0.0750  0.1498  0.0086
    2TMC3    C314406   2.506   4.655  14.933 -0.2058  0.3783  0.0213
    2TMC3    C414407   2.618   0.042  14.707 -0.9263 -0.6117  0.1851
    2TMC3    C514408   2.484   0.061  14.740  0.2468  0.1487  0.0120
    2TMC3    C614409   2.430   4.732  14.846  0.4388  0.0353  0.4644
    2TMC3     C14410   2.804   4.638  14.760 -0.3273 -0.2826 -0.2207
    2TMC3     O14411   2.789   4.519  14.779 -0.3586 -0.1104 -0.1013
    2TMC3     H14412   2.707   4.623  14.993 -0.8249  0.0516  0.5327
    2TMC3    H114413   2.660   0.087  14.618 -1.6029 -1.3664 -0.5206
    2TMC3    H214414   2.323   4.735  14.866  0.3447 -1.1747  0.1454
    2TMC3    C714415   2.381   0.117  14.643 -0.0362  0.2322 -0.3638
    2TMC3    C814416   2.458   4.518  14.958 -0.8982 -1.1726  0.1733
    2TMC3    O114417   2.273   0.058  14.656  0.5917  0.7087  0.7629
    2TMC3    O214418   2.340   4.493  14.976  0.6633 -0.4498  0.3967
    3TCq1    O114419   2.628   0.832  13.627 -0.1420  0.1629  1.0016
    3TCq1    C114420   2.562   0.731  13.675  0.4789 -0.6151  0.7401
    3TCq1    O214421   2.487   0.657  13.611  0.3094  0.2988  0.2377
    3TCq1    C214422   2.555   0.759  13.815  0.3427 -0.1244 -0.1372
    3TCq1    C314423   2.626   0.850  13.888  0.7862 -0.2766 -0.0154
    3TCq1    C414424   2.594   0.851  14.023  0.1215 -0.9662 -0.6384
    3TCq1    C514425   2.516   0.757  14.080  0.0172 -0.0486  1.2396
    3TCq1    C614426   2.448   0.672  14.000 -0.4643  0.4860 -0.2876
    3TCq1    C714427   2.455   0.682  13.866  0.0540 -0.6661 -0.5262
    3TCq1    C814428   2.374   0.559  14.056  0.7983  0.0172 -0.5876
    3TCq1    O414429   2.290   0.518  13.976 -0.4681  0.4383  0.1195
    3TCq1    C914430   2.644   0.953  14.103 -0.3042 -0.1233 -0.6773
    3TCq1    O514431   2.624   0.943  14.228 -0.3496 -0.1498 -0.0292
    3TCq1    O614432   2.690   1.058  14.050  0.7315  0.0008  0.0189
    3TCq1    H114433   2.712   0.851  13.673  0.6271 -1.7644  0.4214
    3TCq1    H214434   2.696   0.919  13.842 -1.2960  1.1486 -1.0396
    3TCq1    H314435   2.487   0.770  14.184 -2.3807 -1.2496  0.7232
    3TCq1    H414436   2.389   0.619  13.807  0.3679  0.3600 -1.9608
    4MPD2     C14437   2.224   0.369  14.230 -0.3635 -0.0835 -0.0976
    4MPD2    C114438   2.356   0.411  14.256 -0.2326  0.3977  0.0606
    4MPD2    C214439   2.422   0.355  14.371  0.4373 -0.4766 -0.4644
    4MPD2    C314440   2.355   0.269  14.454  0.3747 -0.3755 -0.3317
    4MPD2    C414441   2.232   0.220  14.418  0.5328 -0.6488 -0.3117
    4MPD2    C514442   2.160   0.276  14.311  1.2173  0.2579 -1.0056
    4MPD2     H14443   2.525   0.383  14.390  0.6776 -0.5612 -1.5991
    4MPD2    H114444   2.180   0.151  14.483 -1.7897  0.8073 -0.6033
    4MPD2    H214445   2.165   0.410  14.148 -0.9739  0.9280  0.8480
    4MPD2    H314446   2.057   0.249  14.291  1.2842 -1.5527  1.0907
    4MPD2     N14447   2.424   0.221  14.568 -0.2227 -0.1243 -0.2699
    4MPD2    H514448   2.515   0.259  14.589  0.0217 -0.1285 -1.3291
    4MPD2    N114449   2.415   0.515  14.180 -0.3236 -0.5778  0.3441
    4MPD2    H714450   2.500   0.558  14.215 -0.6075  0.2446  0.0212
    5TMC2    C114451   3.043   4.014  14.822 -0.0849  0.3225  0.1058
    5TMC2    C214452   3.082   3.997  14.954  0.3344 -0.1744 -0.2637
    5TMC2    C314453   3.220   4.018  14.974  0.4864 -0.3787 -0.5792
    5TMC2    C414454   3.130   4.050  14.720 -0.1159  0.4161 -0.1545
    5TMC2    C514455   3.256   4.101  14.756 -0.0999 -0.1737  0.3545
    5TMC2    C614456   3.305   4.073  14.879  0.9511 -0.2398  0.3192
    5TMC2     C14457   2.922   4.087  14.824  0.4166 -0.4783 -0.0092
    5TMC2     O14458   2.926   4.186  14.760 -0.3825  0.0727  0.2768
    5TMC2     H14459   3.017   3.968  15.035 -1.0919  3.1853 -0.2024
    5TMC2    H114460   3.093   4.069  14.620  0.6815  0.5558 -0.4287
    5TMC2    H214461   3.401   4.111  14.912  0.5755 -0.9315  2.1946
    5TMC2    C714462   3.298   4.232  14.692  0.2132 -1.2791 -0.0277
    5TMC2    C814463   3.288   3.978  15.100  0.1299 -0.1275  0.2454
    5TMC2    O114464   3.415   4.258  14.690 -0.5019 -0.1172 -0.1084
    5TMC2    O214465   3.399   4.010  15.130  0.8488  0.4079 -0.0765
    5TMC2    O514466   3.253   3.850  15.116 -1.0820 -0.1354  0.4754
    5TMC2    H514467   3.169   3.828  15.071 -1.0954  1.5389 -0.2911
    6MPD2     C14468   2.455   4.209  14.983 -0.9069 -0.1818 -0.9731
    6MPD2    C114469   2.562   4.284  14.945  0.2600  0.1640  0.3111
    6MPD2    C214470   2.679   4.225  14.913 -0.6496 -0.2585  0.4601
    6MPD2    C314471   2.696   4.089  14.930 -0.3650  0.2141  0.2187
    6MPD2    C414472   2.595   4.017  14.984  0.3183  0.0038  0.9697
    6MPD2    C514473   2.474   4.073  15.004  0.8394  0.8776 -0.3250
    6MPD2     H14474   2.758   4.290  14.874 -1.2274  0.3996  0.3850
    6MPD2    H114475   2.607   3.909  14.989 -0.4019 -0.1200  0.0230
    6MPD2    H214476   2.357   4.249  15.005 -1.0407 -0.7517 -0.5257
    6MPD2    H314477   2.389   4.012  15.033  0.1429  2.1236  0.2414
    6MPD2     N14478   2.820   4.026  14.894 -0.3111  0.2115  0.0463
    6MPD2    H514479   2.829   3.931  14.930 -2.1127  0.1435  0.2969
    6MPD2    N114480   2.560   4.427  14.932 -0.0633 -0.2861 -0.2911
    6MPD2    H714481   2.642   4.463  14.884 -0.4487 -0.2491 -0.9324
  945NH4     N114482   3.834   2.448   8.643  0.6730 -0.3509  0.4800
  945NH4     H214483   3.751   2.395   8.678 -0.8506  0.7803 -1.4301
  945NH4     H314484   3.883   2.491   8.723  1.2172  0.0354 -0.0633
  945NH4     H414485   3.798   2.516   8.573  0.2061  0.3685  1.4381
  945NH4     H514486   3.902   2.388   8.592 -0.4272 -1.4873  0.3499
  946SOD     NA14487   2.898   3.785  11.040 -0.3329  0.2263 -0.2515
  947SOD     NA14488   1.902   3.735  14.606  0.4204  0.2109  0.5837
  948SOD     NA14489   3.529   4.159  15.315  0.2061  0.3033  0.2502
  949SOD     NA14490   4.513   2.684   1.793  0.2375 -0.2189  0.0920
  950SOD     NA14491   2.656   2.186   8.580  0.1905  0.1939 -0.3341
  951SOD     NA14492   3.403   3.702   9.509 -0.0166  0.0789 -0.0682
  952SOD     NA14493   3.472   0.267  12.602  0.2625  0.1218  0.0952
  953SOL     OW14494   3.963   2.977  16.126  0.1368  0.0175 -0.0075
  953SOL    HW114495   3.920   2.952  16.045  0.1597 -4.4308  1.3768
  953SOL    HW214496   3.895   2.991  16.193 -0.8329  2.7124 -1.5689
  954SOL     OW14497   2.472   2.079   6.265 -0.4149  0.2313  0.4652
  954SOL    HW114498   2.538   2.015   6.237 -0.5709  0.6898 -0.9480
  954SOL    HW214499   2.455   2.122   6.181 -2.4504  1.8478  1.6776
  955SOL     OW14500   3.287   4.565  15.304  0.2890  0.0214 -0.4173
  955SOL    HW114501   3.325   4.545  15.389 -0.5892 -2.3459 -0.5891
  955SOL    HW214502   3.287   4.480  15.259  1.0339  0.5164 -1.3459
  956SOL     OW14503   1.760   1.968  15.517  0.1480 -0.2608  0.0084
  956SOL    HW114504   1.721   1.937  15.435  1.1666 -0.6652 -0.3184
  956SOL    HW214505   1.685   2.002  15.566  1.9520  0.3659  2.3329
  957SOL     OW14506   3.157   1.268   7.702  0.0745 -0.6237 -0.1806
  957SOL    HW114507   3.132   1.176   7.701 -2.1658 -0.0275  0.3056
  957SOL    HW214508   3.127   1.293   7.790 -1.3993  0.7994 -1.0933
  958SOL     OW14509   2.130   0.417   4.077 -0.1506  0.1022 -0.3739
  958SOL    HW114510   2.182   0.462   4.143 -0.6660 -0.2622  0.2858
  958SOL    HW214511   2.108   0.334   4.120 -0.0261 -1.1717 -2.7358
  959SOL     OW14512   1.305   0.298   9.811  0.3468 -0.0320 -0.5133
  959SOL    HW114513   1.375   0.360   9.831 -0.0701  0.8661 -1.8178
  959SOL    HW214514   1.286   0.316   9.719 -0.1642  2.7921  0.1415
  960SOL     OW14515   4.061   3.294  11.141 -0.4511  0.4191 -0.2231
  960SOL    HW114516   4.136   3.354  11.136 -0.3113  0.3848  1.4314
  960SOL    HW214517   3.983   3.339  11.172  0.5958  1.3057  1.1801
  961SOL     OW14518   2.189   2.003   7.222 -0.3883 -0.1731  0.0535
  961SOL    HW114519   2.204   2.066   7.292  2.4415 -0.7510 -0.0550
  961SOL    HW214520   2.208   1.923   7.271 -2.4998 -0.5645  0.2692
  962SOL     OW14521   3.987   1.451  14.736  0.3670 -0.0489  0.4530
  962SOL    HW114522   3.954   1.525  14.786  2.5519  1.6002 -0.5026
  962SOL    HW214523   4.076   1.485  14.744 -0.5042  1.5931  3.0960
  963SOL     OW14524   1.205   4.279  12.552 -0.1045  0.2741  0.5404
  963SOL    HW114525   1.225   4.227  12.475 -0.2591 -1.2480  1.5211
  963SOL    HW214526   1.151   4.216  12.601 -0.1894  1.5052  2.0386
  964SOL     OW14527   2.839   3.002  15.873 -0.1402 -0.0273  0.2055
  964SOL    HW114528   2.763   3.010  15.815 -1.2428 -0.6685  1.5551
  964SOL    HW214529   2.799   2.974  15.955  2.0579  1.0149  1.6306
  965SOL     OW14530   1.605   0.367   4.308  0.5440 -0.2450 -0.0120
  965SOL    HW114531   1.578   0.286   4.351 -0.4422 -0.8492 -1.7648
  965SOL    HW214532   1.653   0.331   4.233  1.7086  0.4738  0.3953
  966SOL     OW14533   2.247   3.393   8.668 -0.6914 -0.1770 -0.0675
  966SOL    HW114534   2.343   3.386   8.667 -0.7279 -0.8954  1.5739
  966SOL    HW214535   2.242   3.424   8.758  0.1980 -0.5977  0.1275
  967SOL     OW14536   4.235   1.398   4.455 -0.0985  0.0736  0.4832
  967SOL    HW114537   4.256   1.488   4.482  2.3069 -0.4940  0.5305
  967SOL    HW214538   4.233   1.345   4.535  0.3312 -0.2898  0.2514
  968SOL     OW14539   1.620   0.521   2.644  0.1923  0.4378  0.3063
  968SOL    HW114540   1.677   0.445   2.647  1.8850  1.6899 -0.1824
  968SOL    HW214541   1.560   0.506   2.717 -0.0689  0.3042  0.0609
  969SOL     OW14542   3.713   0.523   2.578 -0.6391 -0.1457  0.0347
  969SOL    HW114543   3.701   0.591   2.645 -0.7078  0.3566 -0.4902
  969SOL    HW214544   3.687   0.445   2.627  0.7345 -0.2963  0.5350
  970SOL     OW14545   3.939   1.237  10.533  0.2029  0.1635  0.4057
  970SOL    HW114546   4.030   1.213  10.549  0.1165 -0.6186 -0.2039
  970SOL    HW214547   3.919   1.175  10.462 -0.7610  0.6095  0.2907
  971SOL     OW14548   1.045   1.145  10.885 -0.2320 -0.7258  0.7725
  971SOL    HW114549   1.042   1.192  10.968 -2.4683 -1.4056  1.0897
  971SOL    HW214550   0.974   1.082  10.900 -0.1510 -1.6719 -2.6845
  972SOL     OW14551   0.155   3.727   6.684 -0.3062  0.2866  0.5283
  972SOL    HW114552   0.068   3.711   6.719 -1.1502  4.1821  0.1739
  972SOL    HW214553   0.177   3.637   6.658 -0.5572  0.0177  1.2325
  973SOL     OW14554   3.037   3.594   7.825 -0.6354  0.2483 -0.0003
  973SOL    HW114555   2.984   3.523   7.862  0.4614 -1.1730 -1.1480
  973SOL    HW214556   3.072   3.557   7.744 -0.0493 -3.0993  1.7838
  974SOL     OW14557   4.270   1.452   7.945 -0.0377  0.1434  0.1851
  974SOL    HW114558   4.260   1.383   7.880  0.9738 -0.0680  0.2616
  974SOL    HW214559   4.283   1.530   7.891 -2.2705  0.2356 -0.2317
  975SOL     OW14560   3.293   2.065   1.481 -0.1459  0.1227  0.2644
  975SOL    HW114561   3.305   2.092   1.572  0.1282 -0.3007  0.3524
  975SOL    HW214562   3.359   2.111   1.428 -0.1248 -0.1422  0.0565
  976SOL     OW14563   1.750   0.061  13.935  0.1526 -0.0227 -0.0827
  976SOL    HW114564   1.684   0.126  13.912 -2.8913 -3.1981 -0.2498
  976SOL    HW214565   1.829   0.113  13.918  1.9424 -2.1700  1.7599
  977SOL     OW14566   0.864   2.221   6.660  0.1604  0.1764 -0.2408
  977SOL    HW114567   0.889   2.131   6.683 -2.3393 -0.8209 -1.4798
  977SOL    HW214568   0.938   2.233   6.600 -1.2604  1.0758 -1.7994
  978SOL     OW14569   2.118   3.791  16.050 -0.6731  0.1198  0.3232
  978SOL    HW114570   2.091   3.883  16.044 -1.0412 -0.0414 -0.4642
  978SOL    HW214571   2.195   3.813  16.103  0.3775  0.0074 -1.1403
  979SOL     OW14572   3.328   4.279  10.989  0.0497 -0.1632 -0.2559
  979SOL    HW114573   3.262   4.270  10.920  0.8726  1.2952 -1.2457
  979SOL    HW214574   3.395   4.335  10.950  0.1305  0.5122  0.8766
  980SOL     OW14575   1.451   3.450   6.565 -0.5035 -0.0127  0.1804
  980SOL    HW114576   1.383   3.419   6.505 -2.3194  0.1995  2.1328
  980SOL    HW214577   1.408   3.525   6.606  1.8063 -0.2807  3.0433
  981SOL     OW14578   1.138   2.979   4.883  0.4298 -0.2350 -0.1175
  981SOL    HW114579   1.173   3.048   4.940  3.7331 -2.1595  0.1872
  981SOL    HW214580   1.139   3.022   4.798 -0.6379 -0.1405 -0.0817
  982SOL     OW14581   1.444   1.609  17.489  0.3710 -0.0827  0.1857
  982SOL    HW114582   1.428   1.536  17.429 -2.0864  0.8458 -0.2867
  982SOL    HW214583   1.455   1.567  17.575 -0.1580 -1.7900 -0.5716
  983SOL     OW14584   2.125   1.047   3.363 -0.0169 -0.2534  0.1151
  983SOL    HW114585   2.116   0.972   3.421 -0.1462  0.2788  0.7830
  983SOL    HW214586   2.161   0.999   3.288 -1.5248 -1.5020  0.1961
  984SOL     OW14587   4.452   0.104   7.949  0.2343 -0.4393 -0.6716
  984SOL    HW114588   4.462   0.193   7.915 -0.3299 -0.2739 -0.4040
  984SOL    HW214589   4.391   0.122   8.020  2.2755  0.6628  0.7738
  985SOL     OW14590   1.832   0.381   5.182 -0.0632 -0.1363 -0.4263
  985SOL    HW114591   1.816   0.458   5.235  0.2860 -0.5176  0.2343
  985SOL    HW214592   1.772   0.393   5.108 -0.9636 -0.2004  0.2954
  986SOL     OW14593   1.398   0.335  17.065  0.7006 -0.1184 -0.2324
  986SOL    HW114594   1.464   0.268  17.044  0.3282 -1.1433  1.9191
  986SOL    HW214595   1.409   0.361  17.156 -0.6500  0.7745 -0.3344
  987SOL     OW14596   0.066   1.238   3.356  0.1855 -0.5517 -0.3877
  987SOL    HW114597   0.015   1.285   3.290  0.2793  0.3312  0.1663
  987SOL    HW214598   0.123   1.184   3.301  0.8069 -0.6635  0.3684
  988SOL     OW14599   2.144   1.168   5.922 -0.6653  0.2660 -0.0128
  988SOL    HW114600   2.133   1.210   6.007  1.3579 -0.5431  0.6473
  988SOL    HW214601   2.226   1.119   5.926 -0.4321  0.5958 -0.7605
  989SOL     OW14602   3.061   2.738   1.961 -0.0120 -0.4001 -0.0841
  989SOL    HW114603   3.139   2.737   1.906 -0.3351 -2.0129 -0.5191
  989SOL    HW214604   3.014   2.819   1.942  0.8484  0.6277  2.1856
  990SOL     OW14605   1.213   2.669  16.742  0.1055  0.5464  0.2477
  990SOL    HW114606   1.234   2.747  16.692  2.1047 -0.5919 -0.6851
  990SOL    HW214607   1.249   2.607  16.679 -2.3992 -0.7136  0.0820
  991SOL     OW14608   3.375   2.549   2.535 -0.4559  0.0083 -0.4238
  991SOL    HW114609   3.346   2.519   2.449 -0.1156 -1.5332 -0.0022
  991SOL    HW214610   3.448   2.605   2.507  0.0768 -0.6801 -0.3872
  992SOL     OW14611   4.680   2.369   6.717 -0.1323 -0.1421 -0.1393
  992SOL    HW114612   4.661   2.397   6.628  0.1833 -0.9675 -0.4607
  992SOL    HW214613   4.724   2.443   6.761  0.3630 -1.5506  1.7452
  993SOL     OW14614   0.586   0.314  10.360 -0.5957  0.2435 -0.0425
  993SOL    HW114615   0.645   0.365  10.305  1.4739 -0.4477  1.5327
  993SOL    HW214616   0.545   0.370  10.425 -1.4389 -0.3569 -0.0536
  994SOL     OW14617   0.172   3.466   8.780  0.3553  0.3213 -0.0002
  994SOL    HW114618   0.144   3.557   8.779 -0.1295  0.1870  1.0823
  994SOL    HW214619   0.098   3.411   8.752  1.1882 -0.3163 -0.9429
  995SOL     OW14620   0.150   3.290   0.190 -0.5124 -0.6015 -0.9174
  995SOL    HW114621   0.057   3.268   0.194  0.3237 -3.9164 -0.1439
  995SOL    HW214622   0.153   3.338   0.273  0.5391 -0.1289 -1.2318
  996SOL     OW14623   0.453   1.698  10.007 -0.1354  0.2354  0.0000
  996SOL    HW114624   0.515   1.700  10.080  0.8353 -0.6050 -0.8091
  996SOL    HW214625   0.430   1.605  10.006  1.6215 -0.1983 -1.4157
  997SOL     OW14626   2.242   1.827   0.500  0.1427 -0.1385  0.1220
  997SOL    HW114627   2.187   1.845   0.577  0.2783  1.0187 -0.0507
  997SOL    HW214628   2.329   1.847   0.534  0.6664 -0.3941 -1.0831
  998SOL     OW14629   2.650   4.252  16.265  0.0845  0.3648  0.4160
  998SOL    HW114630   2.720   4.289  16.212 -0.5084  0.3907 -0.3608
  998SOL    HW214631   2.578   4.315  16.253  1.6731  2.0422 -0.2182
  999SOL     OW14632   2.365   1.596   1.766  0.2861 -0.1458  0.3356
  999SOL    HW114633   2.402   1.564   1.848  2.7685 -1.0304 -1.1243
  999SOL    HW214634   2.440   1.634   1.720  0.1649 -2.0370 -1.3957
 1000SOL     OW14635   0.261   1.029  12.563 -0.5148 -0.5443 -0.1152
 1000SOL    HW114636   0.349   0.992  12.557 -0.0839 -0.1328  3.6325
 1000SOL    HW214637   0.251   1.029  12.468 -3.1560 -1.4858  0.1786
 1001SOL     OW14638   3.546   3.609  16.027 -0.5696  0.2175  0.4119
 1001SOL    HW114639   3.599   3.655  16.092 -0.0753  1.1920 -0.6839
 1001SOL    HW214640   3.590   3.524  16.028  2.3314  1.7055  0.3775
 1002SOL     OW14641   4.540   1.305   1.518 -0.0446  0.7206 -0.8001
 1002SOL    HW114642   4.610   1.308   1.453  0.6252  2.3044 -0.0311
 1002SOL    HW214643   4.459   1.269   1.483  1.0853 -1.0854 -1.5609
 1003SOL     OW14644   0.798   2.446  15.197 -0.4855 -0.0772  0.6455
 1003SOL    HW114645   0.833   2.519  15.146 -0.9335 -1.4158 -1.5822
 1003SOL    HW214646   0.704   2.466  15.190 -0.3100 -0.4888 -2.8175
 1004SOL     OW14647   0.170   1.025   5.123  0.6713 -0.0135 -0.3630
 1004SOL    HW114648   0.091   1.079   5.112 -0.3885 -1.4598  0.1694
 1004SOL    HW214649   0.136   0.963   5.187 -0.5746  1.3385  0.2964
 1005SOL     OW14650   1.386   2.973   6.452 -0.6412  0.1428 -0.0231
 1005SOL    HW114651   1.351   3.009   6.533  1.6907  2.6461 -0.1435
 1005SOL    HW214652   1.471   3.015   6.444 -0.7296  0.5087  1.0075
 1006SOL     OW14653   4.177   2.469   5.421  0.2367  0.0449 -0.0346
 1006SOL    HW114654   4.194   2.388   5.374  1.2486 -0.6562  1.5371
 1006SOL    HW214655   4.082   2.469   5.419  0.2420  2.0553 -0.3205
 1007SOL     OW14656   2.214   4.642   3.192  0.2390 -0.3031  0.2783
 1007SOL    HW114657   2.141   4.694   3.156  1.5332  1.9896  0.9582
 1007SOL    HW214658   2.164   4.581   3.247  0.4156 -0.3138  0.4252
 1008SOL     OW14659   2.791   1.455   1.033 -0.0681  0.0267  0.0630
 1008SOL    HW114660   2.843   1.433   1.110  2.0485  1.1855 -1.0528
 1008SOL    HW214661   2.857   1.511   0.992 -0.6801  1.2681  0.7862
 1009SOL     OW14662   0.033   2.160   9.224 -0.1575  0.5461 -0.2001
 1009SOL    HW114663   0.094   2.231   9.244 -0.2485  0.0187  1.9658
 1009SOL    HW214664   0.056   2.112   9.304 -0.4174  1.7026  0.5782
 1010SOL     OW14665   1.449   0.242   4.047 -0.7378  0.1843  0.0871
 1010SOL    HW114666   1.372   0.231   4.104 -0.0579  1.8239  1.3160
 1010SOL    HW214667   1.520   0.272   4.104 -0.9810  3.2957 -1.2185
 1011SOL     OW14668   0.549   4.422   4.675 -0.3241  0.1832  0.0329
 1011SOL    HW114669   0.609   4.452   4.744  1.5135 -2.8609 -0.2324
 1011SOL    HW214670   0.603   4.457   4.605  0.1707 -0.8627 -0.1132
 1012SOL     OW14671   3.250   4.012   5.055 -0.0786 -0.0682  0.5254
 1012SOL    HW114672   3.308   4.061   5.114  0.4956 -1.8916  1.5012
 1012SOL    HW214673   3.318   3.992   4.991 -1.6633 -1.1033 -0.8107
 1013SOL     OW14674   3.912   3.777   6.106  0.0806  0.2729  0.6664
 1013SOL    HW114675   3.819   3.762   6.123  0.9522 -2.7074  2.6998
 1013SOL    HW214676   3.907   3.800   6.013  2.8088 -2.0639 -0.0270
 1014SOL     OW14677   0.308   3.540   8.271  0.5001  0.1069 -0.3309
 1014SOL    HW114678   0.271   3.472   8.327  2.6065 -0.5413  0.2611
 1014SOL    HW214679   0.333   3.604   8.338 -0.8594  0.1854  0.1164
 1015SOL     OW14680   1.570   0.090   7.633 -0.1641  0.3271 -0.6073
 1015SOL    HW114681   1.559   4.737   7.661 -0.1129  0.6464  0.4416
 1015SOL    HW214682   1.624   0.095   7.554 -0.3662 -0.1741 -0.7748
 1016SOL     OW14683   2.212   0.690   9.739 -0.7174  0.0947 -0.1026
 1016SOL    HW114684   2.273   0.764   9.749 -0.1391 -0.3446 -0.3945
 1016SOL    HW214685   2.144   0.715   9.676 -0.4319 -1.7261 -1.1197
 1017SOL     OW14686   4.670   3.501   8.189  0.2433  0.1464  0.1228
 1017SOL    HW114687   4.731   3.465   8.254  2.1370  2.4649 -0.3702
 1017SOL    HW214688   4.712   3.586   8.182 -0.2467  0.5045  1.6018
 1018SOL     OW14689   4.255   4.180   7.486  0.3892  0.4166 -0.3625
 1018SOL    HW114690   4.336   4.138   7.456 -0.4084 -2.4175  1.5034
 1018SOL    HW214691   4.266   4.150   7.576 -0.1309  0.0230 -0.4337
 1019SOL     OW14692   3.717   4.657   7.916  0.1073  0.6542  0.2015
 1019SOL    HW114693   3.738   4.678   7.825 -2.9059 -1.2989 -0.9648
 1019SOL    HW214694   3.795   4.680   7.966  1.3371 -1.7150 -0.6456
 1020SOL     OW14695   1.757   2.656   4.122  0.3798 -0.0052 -0.4879
 1020SOL    HW114696   1.702   2.709   4.065 -1.1718 -1.2243 -0.1259
 1020SOL    HW214697   1.680   2.610   4.155  1.0309 -0.1960  0.7757
 1021SOL     OW14698   1.469   4.401  16.571 -0.1239  0.4721  0.2702
 1021SOL    HW114699   1.397   4.350  16.608  1.2165 -1.1759  0.5672
 1021SOL    HW214700   1.466   4.370  16.481  0.6487  0.0112  0.4081
 1022SOL     OW14701   2.307   4.584   8.486  0.0671  0.6559  0.0336
 1022SOL    HW114702   2.288   4.665   8.438 -0.3698  0.5283 -0.0144
 1022SOL    HW214703   2.383   4.553   8.437  1.3210  1.1837  1.6663
 1023SOL     OW14704   1.668   3.712   0.915 -0.1483 -0.2498  0.1768
 1023SOL    HW114705   1.683   3.797   0.874 -1.4788 -0.6824 -1.2344
 1023SOL    HW214706   1.736   3.669   0.863 -0.6966  1.2221 -1.7727
 1024SOL     OW14707   0.035   3.515   5.810  1.2285  0.7181  0.0422
 1024SOL    HW114708   0.059   3.439   5.757 -2.1327  0.0148 -0.4261
 1024SOL    HW214709   0.028   3.576   5.737  0.2209 -0.6102 -0.9765
 1025SOL     OW14710   4.621   0.806  11.751 -0.4136  0.4560 -0.5207
 1025SOL    HW114711   4.583   0.786  11.665  2.2205 -0.1937 -1.5423
 1025SOL    HW214712   4.695   0.863  11.729  0.9529 -0.9333  0.4025
 1026SOL     OW14713   4.022   2.550   8.842  0.5108 -0.8831 -0.0100
 1026SOL    HW114714   3.977   2.608   8.904 -0.3452  0.0550 -1.5070
 1026SOL    HW214715   4.086   2.514   8.904  1.6415  1.6788  0.3039
 1027SOL     OW14716   0.829   4.060   3.299  0.1874 -0.3745 -0.0889
 1027SOL    HW114717   0.880   4.040   3.377  1.1154  2.0960 -0.0525
 1027SOL    HW214718   0.862   4.001   3.231 -0.3660 -0.3481 -0.3865
 1028SOL     OW14719   2.513   2.428   1.910  0.2363  0.3766  0.9975
 1028SOL    HW114720   2.524   2.399   1.819  2.5961 -0.5002  1.5682
 1028SOL    HW214721   2.418   2.415   1.915  0.4687 -1.8845 -0.1920
 1029SOL     OW14722   3.885   3.036   5.644 -0.1070 -0.4694  0.0748
 1029SOL    HW114723   3.940   3.085   5.583 -2.0320  0.9694 -0.5040
 1029SOL    HW214724   3.817   3.102   5.655  0.5388  0.1539  0.2871
 1030SOL     OW14725   4.528   3.818  10.280 -0.2278 -0.5994  0.3639
 1030SOL    HW114726   4.467   3.764  10.331 -1.8544  0.5886 -0.3022
 1030SOL    HW214727   4.581   3.843  10.356  0.3751 -2.6299  0.6105
 1031SOL     OW14728   1.115   3.785   8.536 -0.0278 -0.2587 -0.1025
 1031SOL    HW114729   1.179   3.732   8.584 -0.9609 -1.3873 -0.1053
 1031SOL    HW214730   1.167   3.859   8.504  0.9976 -0.2532  1.5952
 1032SOL     OW14731   0.029   4.018   9.577  0.3483  0.2508 -0.1931
 1032SOL    HW114732   0.088   4.092   9.596 -0.9518  0.7095  2.0022
 1032SOL    HW214733   0.067   3.958   9.642  0.8879  0.8597  0.0631
 1033SOL     OW14734   2.907   2.487   8.977  0.1180 -0.4677 -0.6946
 1033SOL    HW114735   2.989   2.441   8.957  0.8727  0.3369  0.6019
 1033SOL    HW214736   2.867   2.426   9.039  1.2326 -0.3077  0.1950
 1034SOL     OW14737   2.624   2.357  10.317  0.7540  0.2513 -0.0661
 1034SOL    HW114738   2.585   2.334  10.401 -0.2446  0.1357 -0.5647
 1034SOL    HW214739   2.719   2.358  10.330  0.9649 -0.7077 -1.5669
 1035SOL     OW14740   3.000   3.953   6.077  0.0654  0.4194  0.2091
 1035SOL    HW114741   2.920   3.977   6.032 -0.7768 -1.4202  0.7343
 1035SOL    HW214742   3.042   4.038   6.092 -0.9708  0.8774  0.5350
 1036SOL     OW14743   0.952   1.342   7.006  0.1177 -0.3442  0.0819
 1036SOL    HW114744   1.013   1.270   7.023  0.5448  0.3956  1.7073
 1036SOL    HW214745   0.869   1.306   7.037  0.9274 -2.2579 -0.0074
 1037SOL     OW14746   4.126   1.459   5.838 -0.2054 -0.2030  0.2454
 1037SOL    HW114747   4.110   1.552   5.825 -3.1256 -0.7887 -0.3192
 1037SOL    HW214748   4.065   1.428   5.771 -1.1211  1.3869  0.3456
 1038SOL     OW14749   2.265   1.683  11.154  0.0181 -0.1217 -0.0021
 1038SOL    HW114750   2.354   1.715  11.168  0.5016 -1.5766  0.2744
 1038SOL    HW214751   2.229   1.695  11.242 -0.0686  2.0430 -0.3368
 1039SOL     OW14752   4.608   2.560  14.465  0.0185 -0.1842  0.0542
 1039SOL    HW114753   4.550   2.620  14.512  2.7859  1.9325  0.7089
 1039SOL    HW214754   4.668   2.526  14.530  0.7286 -0.7622 -0.9026
 1040SOL     OW14755   0.790   3.953   1.997 -0.2492  0.5002 -0.3090
 1040SOL    HW114756   0.780   3.973   1.904  0.1281 -0.8003 -0.6359
 1040SOL    HW214757   0.733   3.877   2.007  1.2457 -0.4152  1.3555
 1041SOL     OW14758   1.675   3.609  10.613  0.0417  0.1134 -0.8005
 1041SOL    HW114759   1.619   3.560  10.673  0.3926 -1.6028 -1.8934
 1041SOL    HW214760   1.623   3.611  10.533 -0.3581  1.9555 -0.5100
 1042SOL     OW14761   3.861   1.291   8.107 -0.7453  0.0256  0.5056
 1042SOL    HW114762   3.940   1.249   8.139 -1.5924  0.7153  3.5502
 1042SOL    HW214763   3.892   1.382   8.105 -0.7067  0.0103  0.4381
 1043SOL     OW14764   3.267   1.987   7.084  0.4209 -0.1401 -0.7116
 1043SOL    HW114765   3.211   1.974   7.007  0.8766 -0.1427 -1.0437
 1043SOL    HW214766   3.312   2.070   7.070  0.1621  0.1701  0.3301
 1044SOL     OW14767   3.951   0.397   2.680  0.4227 -0.1210 -0.1128
 1044SOL    HW114768   4.025   0.458   2.684 -0.2664  0.7882 -1.0671
 1044SOL    HW214769   3.892   0.436   2.615  0.3331  0.0738  0.0859
 1045SOL     OW14770   0.427   4.451  12.093  0.8450 -0.0642  0.1056
 1045SOL    HW114771   0.355   4.444  12.155  1.3083 -0.2428  0.6215
 1045SOL    HW214772   0.502   4.411  12.138 -0.2847 -1.7264  0.5008
 1046SOL     OW14773   2.498   4.124   4.608 -0.3908  0.2105  0.0541
 1046SOL    HW114774   2.441   4.153   4.680 -1.9937 -0.4860 -0.9417
 1046SOL    HW214775   2.520   4.203   4.558  0.2652  0.0971  0.1620
 1047SOL     OW14776   0.585   4.733  14.938 -0.2495  0.2588 -0.2789
 1047SOL    HW114777   0.640   4.663  14.972 -0.5011 -0.2871 -1.0183
 1047SOL    HW214778   0.519   4.735  15.007 -0.5774 -0.2462 -0.5846
 1048SOL     OW14779   2.874   4.184   5.575  0.4964  0.3858 -0.1170
 1048SOL    HW114780   2.916   4.270   5.579  1.0027  0.0780  1.1012
 1048SOL    HW214781   2.896   4.136   5.655  0.6448 -2.9343 -2.1883
 1049SOL     OW14782   0.786   2.534   7.912  0.1723  0.7329  0.1600
 1049SOL    HW114783   0.787   2.443   7.944  0.1818  1.3123  1.7889
 1049SOL    HW214784   0.699   2.539   7.872  0.3534  0.5671 -0.2498
 1050SOL     OW14785   1.944   1.841   8.846  0.1670  0.2216 -0.1042
 1050SOL    HW114786   2.000   1.794   8.784 -2.3548 -0.1025 -2.1387
 1050SOL    HW214787   1.861   1.845   8.799  0.9677  0.0650 -1.5609
 1051SOL     OW14788   2.317   4.017   1.747 -0.1301 -0.7198 -0.0576
 1051SOL    HW114789   2.402   3.996   1.709  0.4160  1.4582 -0.0203
 1051SOL    HW214790   2.254   3.960   1.703  2.2279 -1.4097 -2.4609
 1052SOL     OW14791   2.785   1.034  14.440 -0.2820  0.0079 -0.2056
 1052SOL    HW114792   2.719   1.009  14.375  0.7876 -0.0336 -1.2861
 1052SOL    HW214793   2.832   1.100  14.388  0.3782  0.9980  1.6719
 1053SOL     OW14794   0.125   3.960  16.155  0.1499  0.0764 -0.1437
 1053SOL    HW114795   0.098   4.049  16.130  1.0241  0.7706  1.3971
 1053SOL    HW214796   0.197   3.981  16.215  0.2525 -0.6227 -0.0206
 1054SOL     OW14797   1.080   4.360   1.900  0.2767  0.2065  0.1956
 1054SOL    HW114798   0.989   4.334   1.893  0.3376  0.4942 -1.6225
 1054SOL    HW214799   1.120   4.340   1.815  2.0963  0.2332  1.0454
 1055SOL     OW14800   1.348   0.695   3.206  0.8531  0.4793 -0.0262
 1055SOL    HW114801   1.441   0.676   3.194  0.1708 -0.6263 -3.4689
 1055SOL    HW214802   1.355   0.713   3.300  0.7524 -1.4981  0.3732
 1056SOL     OW14803   1.257   4.442   4.855  0.3045  0.7289  0.4338
 1056SOL    HW114804   1.190   4.504   4.826 -1.4975 -0.4842  1.9509
 1056SOL    HW214805   1.203   4.363   4.859  1.2363  0.1111  0.6527
 1057SOL     OW14806   1.951   0.230  15.490  0.2343 -0.1503 -0.3182
 1057SOL    HW114807   1.928   0.154  15.437  0.6028  0.0941 -0.8245
 1057SOL    HW214808   1.969   0.293  15.420 -1.2635  1.1839  0.4973
 1058SOL     OW14809   1.958   3.920  14.460 -0.4782 -0.2025 -0.0854
 1058SOL    HW114810   1.895   3.928  14.389 -0.1611 -2.0651 -0.5916
 1058SOL    HW214811   1.996   4.008  14.465 -2.5048  0.6336  0.4775
 1059SOL     OW14812   0.459   3.849   0.176 -0.2536  0.0056 -0.3031
 1059SOL    HW114813   0.438   3.890   0.092 -0.4213 -1.1961 -0.8402
 1059SOL    HW214814   0.525   3.905   0.217 -1.3478  0.8381  0.3086
 1060SOL     OW14815   3.352   1.690   8.052  0.2396 -0.2571  0.2339
 1060SOL    HW114816   3.332   1.758   7.987 -2.5272 -0.1286  1.2373
 1060SOL    HW214817   3.317   1.618   7.999 -0.7161 -0.8820  1.7284
 1061SOL     OW14818   2.376   3.559   7.122 -0.7784  0.0562  0.5690
 1061SOL    HW114819   2.437   3.497   7.161  0.5937  0.9585 -0.1495
 1061SOL    HW214820   2.376   3.632   7.184  1.6377  1.2980 -0.8757
 1062SOL     OW14821   3.020   0.002  13.879 -0.2592  0.0206 -0.2991
 1062SOL    HW114822   3.066   4.661  13.849  1.5303  1.3841 -1.1119
 1062SOL    HW214823   2.961   4.703  13.945 -0.1246 -0.6019 -0.5125
 1063SOL     OW14824   0.337   0.432   5.277  0.5836 -0.0929 -0.0025
 1063SOL    HW114825   0.430   0.452   5.265  0.6990 -0.0611  0.9363
 1063SOL    HW214826   0.303   0.519   5.259 -0.6453 -0.4696  0.4999
 1064SOL     OW14827   0.261   3.309   1.629  0.1339 -0.6572 -0.1788
 1064SOL    HW114828   0.201   3.316   1.555  1.7485 -1.4026 -1.5300
 1064SOL    HW214829   0.198   3.329   1.699  0.9863  0.7223  0.2017
 1065SOL     OW14830   4.149   0.144  16.739 -0.0052  0.5081 -0.4380
 1065SOL    HW114831   4.219   0.180  16.683  0.9585 -0.6448  0.0242
 1065SOL    HW214832   4.118   0.083  16.672 -1.7233 -0.8530  1.6249
 1066SOL     OW14833   3.598   2.833  10.599 -0.0491 -0.3916  0.3870
 1066SOL    HW114834   3.590   2.774  10.674 -1.5252 -1.2398 -0.4477
 1066SOL    HW214835   3.556   2.914  10.630 -1.1341  0.0865 -2.3658
 1067SOL     OW14836   2.529   4.481   4.717  0.2265  0.5038 -0.1724
 1067SOL    HW114837   2.594   4.551   4.710 -0.3149  1.1507  1.2580
 1067SOL    HW214838   2.502   4.490   4.625 -0.3381  2.6677  0.1939
 1068SOL     OW14839   4.464   4.004  14.314 -0.2883  0.4360 -0.0546
 1068SOL    HW114840   4.437   3.924  14.268  1.4198  0.6933 -1.5151
 1068SOL    HW214841   4.559   3.994  14.306 -0.3080 -0.0192  0.2954
 1069SOL     OW14842   4.698   1.851   8.798  0.0297  0.4351 -0.2577
 1069SOL    HW114843   4.733   1.884   8.881 -0.6631  0.7087 -0.0698
 1069SOL    HW214844   4.606   1.830   8.811  0.5126 -1.6039 -0.2205
 1070SOL     OW14845   0.285   1.607  10.988 -0.2089 -0.5756 -0.0722
 1070SOL    HW114846   0.350   1.583  11.054  0.4123  0.3811 -0.3206
 1070SOL    HW214847   0.205   1.609  11.040  0.1300  1.8951  0.3728
 1071SOL     OW14848   1.315   3.119  15.866  0.0412  0.2459 -0.6975
 1071SOL    HW114849   1.338   3.208  15.839  0.3455  1.0656  2.3512
 1071SOL    HW214850   1.371   3.107  15.942 -1.4168 -1.0917  0.1729
 1072SOL     OW14851   0.539   2.218   3.083  0.4153  0.2433  0.3734
 1072SOL    HW114852   0.503   2.167   3.010  0.0158  3.9114 -2.0024
 1072SOL    HW214853   0.453   2.248   3.114  0.5030  0.7644  0.1228
 1073SOL     OW14854   0.130   4.263   7.910  0.8127 -0.5426  0.5688
 1073SOL    HW114855   0.221   4.292   7.900  0.0170  1.6872 -0.1527
 1073SOL    HW214856   0.125   4.203   7.836 -0.6266  0.3822 -0.0851
 1074SOL     OW14857   1.603   3.516   7.640 -0.1441  0.0241  0.4908
 1074SOL    HW114858   1.539   3.467   7.588  0.7142 -1.7361  1.0870
 1074SOL    HW214859   1.629   3.452   7.707 -0.0008  0.0122  0.4234
 1075SOL     OW14860   1.339   0.516   6.431  0.4513  0.6843  0.1208
 1075SOL    HW114861   1.249   0.485   6.449  0.6613  0.0815  0.1513
 1075SOL    HW214862   1.340   0.531   6.337 -1.0519 -0.6079 -0.1207
 1076SOL     OW14863   2.384   1.965   9.424  0.4219  0.2292  0.4889
 1076SOL    HW114864   2.464   1.939   9.379 -0.2883 -0.8525 -0.1667
 1076SOL    HW214865   2.390   2.060   9.416 -1.5962  0.1541 -2.2468
 1077SOL     OW14866   0.269   2.115   8.364 -0.2006 -0.0414 -0.3529
 1077SOL    HW114867   0.326   2.164   8.423 -1.8775  0.5026  0.8270
 1077SOL    HW214868   0.255   2.173   8.289 -1.7112  0.4564  0.3083
 1078SOL     OW14869   2.771   3.613  11.390  0.6892 -0.1541  0.6072
 1078SOL    HW114870   2.783   3.528  11.432  0.9364 -0.9332 -1.0223
 1078SOL    HW214871   2.724   3.669  11.452  1.0336  3.8910 -2.7903
 1079SOL     OW14872   1.542   0.296   7.796  0.3891  0.7856 -0.2611
 1079SOL    HW114873   1.579   0.261   7.714 -0.7057 -1.5609  0.2402
 1079SOL    HW214874   1.449   0.275   7.793  0.8537 -1.6118  2.2904
 1080SOL     OW14875   2.503   1.972  16.220  0.3990  0.9655 -0.2292
 1080SOL    HW114876   2.542   1.994  16.135  1.7075  0.1943  0.1605
 1080SOL    HW214877   2.585   1.958  16.269  0.9046  1.5097 -0.9252
 1081SOL     OW14878   3.737   1.072   7.953 -0.1563  0.0031  0.2594
 1081SOL    HW114879   3.788   1.122   8.017 -0.3464  0.1566  0.2901
 1081SOL    HW214880   3.654   1.082   8.000 -0.4495  0.2203 -0.3014
 1082SOL     OW14881   0.735   0.689   9.681 -0.5591 -0.0946  0.2055
 1082SOL    HW114882   0.726   0.681   9.586  0.9272  0.7008  0.0023
 1082SOL    HW214883   0.812   0.745   9.690 -1.6355  1.3655  0.3633
 1083SOL     OW14884   3.958   1.789   4.097 -0.3229  0.1615 -0.2817
 1083SOL    HW114885   3.999   1.712   4.059 -1.0495  0.3969 -1.5353
 1083SOL    HW214886   3.990   1.859   4.040 -1.4926  0.2578 -0.8001
 1084SOL     OW14887   1.918   1.622   3.085  0.3467 -0.4702  0.0081
 1084SOL    HW114888   1.917   1.632   3.180 -0.0348  1.9526 -0.2488
 1084SOL    HW214889   1.917   1.526   3.082  0.8830 -0.5221  1.5785
 1085SOL     OW14890   2.527   2.932  11.441 -0.4358 -0.0486 -0.4345
 1085SOL    HW114891   2.447   2.933  11.389  0.0651 -0.7171 -1.2242
 1085SOL    HW214892   2.567   3.013  11.412  0.5298  0.5665  2.6220
 1086SOL     OW14893   0.194   2.972   9.199  0.3439  0.0817 -0.0830
 1086SOL    HW114894   0.130   2.915   9.157 -0.9876  2.9454 -1.9502
 1086SOL    HW214895   0.130   3.011   9.258 -0.8687  1.0363 -2.0157
 1087SOL     OW14896   1.767   1.046   1.217  0.0577 -0.1883 -0.0203
 1087SOL    HW114897   1.812   0.983   1.273  0.1968  1.3026  1.5378
 1087SOL    HW214898   1.822   1.123   1.228 -0.6000  0.4113 -0.9112
 1088SOL     OW14899   1.629   1.093   3.153  0.4663  0.4280  0.0054
 1088SOL    HW114900   1.648   1.027   3.087  2.5022 -0.4150  1.4514
 1088SOL    HW214901   1.659   1.047   3.232  2.1197  0.7365 -0.4550
 1089SOL     OW14902   4.266   0.062   4.921  0.2891  0.2683  0.0710
 1089SOL    HW114903   4.318   0.037   4.845  2.9105  1.7455  1.3588
 1089SOL    HW214904   4.318   0.032   4.996 -0.2422  0.3022  0.4535
 1090SOL     OW14905   4.167   2.031   8.206  0.0515  0.0703  0.1755
 1090SOL    HW114906   4.101   2.060   8.143 -1.9496  1.1742  2.7377
 1090SOL    HW214907   4.245   2.054   8.156  0.0508  0.4832  0.3651
 1091SOL     OW14908   0.671   3.137   3.100  0.2757  0.1981 -0.6904
 1091SOL    HW114909   0.641   3.049   3.125  0.1719  0.2914 -0.4872
 1091SOL    HW214910   0.719   3.122   3.019  0.0757  0.2548 -0.8201
 1092SOL     OW14911   0.310   2.314   3.183 -0.0769  0.0713 -0.2337
 1092SOL    HW114912   0.256   2.244   3.219 -1.0555 -1.0020 -3.8055
 1092SOL    HW214913   0.331   2.351   3.268 -0.8791  1.8355 -0.7935
 1093SOL     OW14914   0.951   4.037   3.534 -0.1827 -0.1343 -0.8635
 1093SOL    HW114915   1.037   3.996   3.532  0.5537  1.1874  2.3874
 1093SOL    HW214916   0.940   4.052   3.628  0.4145 -0.3388 -0.7586
 1094SOL     OW14917   3.053   1.457  13.564 -0.3032  0.4957  0.1985
 1094SOL    HW114918   3.014   1.442  13.478 -0.4302  0.8329  0.1990
 1094SOL    HW214919   3.010   1.386  13.612 -0.5509 -0.9452 -2.1649
 1095SOL     OW14920   1.139   0.876  16.022  0.3871 -0.2546  0.8523
 1095SOL    HW114921   1.150   0.960  16.067  1.1770  1.3691 -2.4210
 1095SOL    HW214922   1.050   0.861  16.053 -0.4073  3.1410  0.2043
 1096SOL     OW14923   1.407   3.296   1.643 -0.1895 -0.1769 -0.3404
 1096SOL    HW114924   1.395   3.374   1.696 -0.6723  1.6922 -3.1936
 1096SOL    HW214925   1.322   3.254   1.658 -0.4877 -0.2798 -2.2757
 1097SOL     OW14926   2.964   1.560  10.237  0.3225 -0.1312  0.3622
 1097SOL    HW114927   2.880   1.535  10.275  0.6851 -1.6284  0.2066
 1097SOL    HW214928   2.987   1.637  10.288 -1.8687 -0.3467  1.6708
 1098SOL     OW14929   4.166   2.328   7.928 -0.2629 -0.4220 -0.3986
 1098SOL    HW114930   4.259   2.307   7.923  0.3449  2.1687  0.0456
 1098SOL    HW214931   4.160   2.408   7.875  1.4273 -0.3478 -0.4916
 1099SOL     OW14932   0.409   4.661   8.719 -0.3887 -0.3121 -0.5119
 1099SOL    HW114933   0.395   0.006   8.766 -0.0337 -0.1779 -0.6459
 1099SOL    HW214934   0.404   4.707   8.635  0.4778  1.3677  0.3598
 1100SOL     OW14935   2.019   4.268   4.732  0.9633 -0.5546  0.3633
 1100SOL    HW114936   1.933   4.264   4.775  0.6811 -0.6069 -0.2179
 1100SOL    HW214937   2.009   4.274   4.638 -1.3576 -0.8671  0.5993
 1101SOL     OW14938   4.693   1.273   1.787  0.3637  0.6393 -0.2749
 1101SOL    HW114939   4.643   1.302   1.711  0.6530  0.8671 -0.3816
 1101SOL    HW214940   4.628   1.224   1.836  1.0647  0.4174  0.4363
 1102SOL     OW14941   4.497   4.192   2.759 -0.0615  0.0318  0.0930
 1102SOL    HW114942   4.536   4.104   2.755  0.3916  0.1300  2.5608
 1102SOL    HW214943   4.505   4.211   2.852 -0.8618  4.7610 -0.8092
 1103SOL     OW14944   4.611   2.546   7.842 -0.0085 -0.7765  0.4224
 1103SOL    HW114945   4.624   2.462   7.886 -0.8984 -1.0063  0.2590
 1103SOL    HW214946   4.656   2.610   7.897 -0.7735 -0.7045  0.9638
 1104SOL     OW14947   3.447   4.363   0.406 -0.4569 -0.5013 -0.3292
 1104SOL    HW114948   3.450   4.434   0.342 -0.5953  0.9621  1.2597
 1104SOL    HW214949   3.512   4.299   0.377 -0.9915 -1.2684  0.2056
 1105SOL     OW14950   2.862   0.035   3.449  0.8124 -0.1818  0.3812
 1105SOL    HW114951   2.776   0.023   3.491 -0.0466 -0.1750 -1.3737
 1105SOL    HW214952   2.879   0.127   3.469 -3.3841  0.2149  2.3235
 1106SOL     OW14953   2.709   4.438  11.767 -0.0818  0.0427  0.1123
 1106SOL    HW114954   2.616   4.454  11.776 -0.0588  0.1407  0.1786
 1106SOL    HW214955   2.742   4.525  11.743 -0.3078  0.5463  1.6499
 1107SOL     OW14956   0.325   1.449   7.198 -0.3144  0.4331 -0.6084
 1107SOL    HW114957   0.409   1.468   7.241 -1.1693 -0.6037  1.5366
 1107SOL    HW214958   0.348   1.437   7.106  0.1242  1.7216 -0.6772
 1108SOL     OW14959   3.782   2.875   4.881  0.1181  0.2494 -0.1155
 1108SOL    HW114960   3.835   2.888   4.802  0.5469  0.0312  0.1311
 1108SOL    HW214961   3.705   2.830   4.846 -1.0221  1.7480  0.4603
 1109SOL     OW14962   2.457   1.721  16.326  0.6721 -0.2363 -0.1697
 1109SOL    HW114963   2.517   1.653  16.296 -1.5065 -1.2265 -2.2452
 1109SOL    HW214964   2.478   1.800  16.276  1.9148 -0.9160 -0.6993
 1110SOL     OW14965   4.608   0.032   2.778 -0.0765 -0.0183  0.1163
 1110SOL    HW114966   4.592   0.062   2.867  1.3859 -0.8502  0.6558
 1110SOL    HW214967   4.533   0.064   2.728  1.1683  2.4907 -0.1081
 1111SOL     OW14968   0.803   3.468   7.125 -0.4772 -0.4884 -0.1927
 1111SOL    HW114969   0.849   3.411   7.188  2.9028  0.4659 -1.7950
 1111SOL    HW214970   0.876   3.484   7.064 -0.0099  0.3309  0.5752
 1112SOL     OW14971   2.250   1.111  15.670 -0.1030 -0.1392 -0.0220
 1112SOL    HW114972   2.285   1.198  15.653  1.6420 -0.8437  0.0294
 1112SOL    HW214973   2.178   1.142  15.726 -0.5639 -0.3259 -0.5047
 1113SOL     OW14974   3.968   0.035   3.192  0.5287  0.3866  0.5898
 1113SOL    HW114975   3.935   4.721   3.266  2.2377 -2.1392 -0.3897
 1113SOL    HW214976   3.886   0.025   3.143  0.2514  0.4418  1.0432
 1114SOL     OW14977   1.702   4.283   4.153  0.2071  0.2014  0.1449
 1114SOL    HW114978   1.760   4.349   4.116 -0.5297  0.6140 -0.2717
 1114SOL    HW214979   1.768   4.221   4.186  1.7001  0.6984 -1.9196
 1115SOL     OW14980   1.377   3.765   8.193 -0.3602 -0.3871  0.0066
 1115SOL    HW114981   1.364   3.823   8.118  0.0809  1.3479  1.2758
 1115SOL    HW214982   1.433   3.818   8.251  2.2307 -0.4402 -2.4286
 1116SOL     OW14983   2.781   2.002   2.295 -0.1849  0.5418  0.0913
 1116SOL    HW114984   2.708   2.025   2.353  0.1098 -1.0726  1.1193
 1116SOL    HW214985   2.767   2.055   2.217  1.4670 -2.3008 -2.1420
 1117SOL     OW14986   0.004   4.565   1.747  0.3820 -0.6105 -0.2184
 1117SOL    HW114987   0.043   4.528   1.827 -2.2248 -0.2802  1.1888
 1117SOL    HW214988   0.034   4.656   1.739 -0.7206 -0.3452 -1.3223
 1118SOL     OW14989   2.853   2.909   7.118 -0.4195 -0.0986 -0.1694
 1118SOL    HW114990   2.942   2.937   7.138 -0.7616  0.0865  1.1011
 1118SOL    HW214991   2.845   2.966   7.041  0.7931  0.7508  0.3358
 1119SOL     OW14992   4.428   1.478   6.045 -0.3845  0.0540  0.2906
 1119SOL    HW114993   4.432   1.553   5.985 -1.8032 -1.9362 -2.3007
 1119SOL    HW214994   4.508   1.487   6.097 -1.1879  2.2383  1.1427
 1120SOL     OW14995   0.151   2.773   5.995  0.0790  0.1709  0.4677
 1120SOL    HW114996   0.099   2.805   5.922  0.3807  2.2757  1.1788
 1120SOL    HW214997   0.094   2.717   6.048  0.4206  0.5491  1.2448
 1121SOL     OW14998   0.250   1.976   4.834 -0.2497 -0.5820  0.6350
 1121SOL    HW114999   0.313   2.043   4.860 -0.3439 -0.0069 -0.6435
 1121SOL    HW215000   0.297   1.910   4.783 -0.0392  0.4719 -0.5275
 1122SOL     OW15001   1.423   0.411   3.511 -0.1338  0.2635  0.0346
 1122SOL    HW115002   1.476   0.374   3.582 -0.3086  2.7429  1.4544
 1122SOL    HW215003   1.484   0.471   3.468 -1.3172 -0.3485 -2.5048
 1123SOL     OW15004   2.911   3.826   3.570  0.1260  0.1223 -0.1167
 1123SOL    HW115005   2.989   3.853   3.521 -0.9841 -0.8540 -2.4478
 1123SOL    HW215006   2.869   3.910   3.587  0.6856  0.9066 -2.5340
 1124SOL     OW15007   3.390   4.728   6.103  0.6828  0.7357  0.8129
 1124SOL    HW115008   3.444   0.070   6.097  1.7492  0.0110  0.8373
 1124SOL    HW215009   3.318   0.025   6.156  0.0853 -0.0459  0.5071
 1125SOL     OW15010   0.969   3.350   9.007  0.2497 -0.4308  0.3639
 1125SOL    HW115011   0.987   3.441   9.028 -1.6548 -0.0015  0.1608
 1125SOL    HW215012   0.929   3.347   8.920 -0.2163  1.5142  0.5045
 1126SOL     OW15013   0.507   1.355   2.245  0.6112  0.5004 -0.3594
 1126SOL    HW115014   0.435   1.299   2.219  0.5043 -0.9376  3.0488
 1126SOL    HW215015   0.548   1.296   2.308 -0.1392  1.1382  0.7229
 1127SOL     OW15016   2.157   2.504  12.630  0.4684 -0.3147 -0.3572
 1127SOL    HW115017   2.164   2.410  12.614 -0.6949 -0.3301 -0.7705
 1127SOL    HW215018   2.101   2.528  12.556  1.6424  1.2189 -0.7397
 1128SOL     OW15019   1.955   2.417  11.908  0.0362 -0.5032 -0.3958
 1128SOL    HW115020   1.968   2.324  11.887 -0.1399 -1.0316  1.8817
 1128SOL    HW215021   1.910   2.453  11.831 -0.1325 -1.9103 -0.9654
 1129SOL     OW15022   1.263   2.128   6.777 -0.2058  0.1461 -0.0399
 1129SOL    HW115023   1.171   2.138   6.751  0.5238  0.3295 -2.5922
 1129SOL    HW215024   1.291   2.067   6.708  2.4216  2.0271 -0.6537
 1130SOL     OW15025   0.543   2.987   9.392  0.3217  0.2441 -0.6267
 1130SOL    HW115026   0.625   2.941   9.408  0.6144  0.9756  0.0385
 1130SOL    HW215027   0.565   3.040   9.469 -1.5589  0.1534 -0.0264
 1131SOL     OW15028   4.239   3.596  16.686  0.7054  0.4040 -0.0868
 1131SOL    HW115029   4.281   3.568  16.768  0.4582  1.8082  0.5095
 1131SOL    HW215030   4.174   3.530  16.663  1.5872  0.0744 -1.6226
 1132SOL     OW15031   2.226   2.994  14.370 -0.3910  0.1957 -0.0306
 1132SOL    HW115032   2.320   2.975  14.370 -0.3913  0.2191 -1.0134
 1132SOL    HW215033   2.216   3.039  14.286  1.0703 -0.4622 -0.5690
 1133SOL     OW15034   2.215   4.536  10.198 -0.3697 -0.5682 -0.1858
 1133SOL    HW115035   2.131   4.582  10.187  0.9183  1.5054 -1.2077
 1133SOL    HW215036   2.264   4.597  10.253 -1.6879 -0.3781  0.7818
 1134SOL     OW15037   0.490   3.208   3.532 -0.2573  0.1288 -0.5735
 1134SOL    HW115038   0.473   3.217   3.439 -0.0903 -3.0983 -0.8985
 1134SOL    HW215039   0.415   3.155   3.560  0.1616  0.0435  0.4110
 1135SOL     OW15040   4.659   1.454   5.758  0.1323 -0.3811  0.2653
 1135SOL    HW115041   4.661   1.402   5.838  3.2765  0.6545  0.8677
 1135SOL    HW215042   4.687   1.386   5.696 -0.3098  1.4986 -2.0049
 1136SOL     OW15043   0.392   3.894   3.853 -0.2026  0.1586  0.2819
 1136SOL    HW115044   0.460   3.936   3.906 -0.7632  2.6950 -1.0222
 1136SOL    HW215045   0.424   3.921   3.767 -0.7711  0.7940  0.2714
 1137SOL     OW15046   0.111   0.373   2.624  0.0428  0.5673 -0.1558
 1137SOL    HW115047   0.173   0.356   2.553  1.4248 -2.6279  1.8405
 1137SOL    HW215048   0.121   0.293   2.675 -1.2974 -1.3652 -2.9756
 1138SOL     OW15049   2.722   2.629  11.413  0.1669 -0.2532 -0.1570
 1138SOL    HW115050   2.755   2.544  11.440 -2.3078 -1.4854 -1.0433
 1138SOL    HW215051   2.804   2.671  11.384 -0.5643  1.8836  0.8375
 1139SOL     OW15052   1.231   4.449   3.536  0.5899 -0.4859  0.3584
 1139SOL    HW115053   1.225   4.543   3.553 -2.8153  0.1532 -4.2325
 1139SOL    HW215054   1.149   4.429   3.491 -0.1573 -1.7195  2.3011
 1140SOL     OW15055   1.391   1.775  12.433  0.2580 -0.1283  0.5156
 1140SOL    HW115056   1.444   1.791  12.511  0.3598  2.8916 -0.2008
 1140SOL    HW215057   1.314   1.734  12.473 -0.6073  0.9530 -0.0287
 1141SOL     OW15058   0.524   0.893   7.896 -0.0246 -0.1956  0.1910
 1141SOL    HW115059   0.598   0.901   7.834  1.4014 -1.2011  1.7655
 1141SOL    HW215060   0.485   0.812   7.864 -1.9075  1.5641 -2.0291
 1142SOL     OW15061   0.157   3.933   9.193 -0.3648 -0.7489 -0.9472
 1142SOL    HW115062   0.205   3.870   9.247 -1.9214 -1.6816 -0.6424
 1142SOL    HW215063   0.068   3.899   9.192 -1.1970  1.3940  0.5254
 1143SOL     OW15064   0.999   0.686   3.688  0.1185  0.0024 -0.4555
 1143SOL    HW115065   1.067   0.619   3.694 -0.0352 -0.3020 -2.1121
 1143SOL    HW215066   0.927   0.624   3.699 -1.6399  2.0341 -0.6413
 1144SOL     OW15067   0.315   3.756   8.455  0.1802 -0.0081  0.1728
 1144SOL    HW115068   0.401   3.745   8.415  0.5009  2.6964  0.1435
 1144SOL    HW215069   0.339   3.738   8.546 -1.5011  0.7896  0.7703
 1145SOL     OW15070   3.696   0.796   5.378  0.1029  0.1905  0.2826
 1145SOL    HW115071   3.654   0.868   5.426  0.7220  0.1657  0.8565
 1145SOL    HW215072   3.686   0.828   5.289 -0.6497  0.3031  0.4024
 1146SOL     OW15073   1.746   1.252   8.093 -0.1300  0.1028  0.0798
 1146SOL    HW115074   1.686   1.215   8.158  0.9168 -0.8445  0.4895
 1146SOL    HW215075   1.766   1.329   8.146 -1.4027  0.9997 -0.7363
 1147SOL     OW15076   0.806   3.410   3.288 -0.1819  0.5279 -0.3335
 1147SOL    HW115077   0.842   3.336   3.336 -1.2007  0.0021 -0.3897
 1147SOL    HW215078   0.836   3.387   3.200 -2.0632 -0.5031 -0.7016
 1148SOL     OW15079   0.277   2.641   5.005 -0.0485 -0.0829  0.3472
 1148SOL    HW115080   0.202   2.582   5.017  0.8630 -0.6829  2.9015
 1148SOL    HW215081   0.326   2.586   4.943  0.7859  1.5508 -0.4390
 1149SOL     OW15082   1.957   4.102   0.314 -0.5465  0.3209  0.2098
 1149SOL    HW115083   1.898   4.080   0.242  0.0938 -3.1490  0.7653
 1149SOL    HW215084   2.041   4.075   0.278 -0.8828 -0.0657 -0.2842
 1150SOL     OW15085   2.387   4.184   7.499  0.0107  0.0631  0.9448
 1150SOL    HW115086   2.307   4.225   7.466 -0.1269 -0.4827  0.5997
 1150SOL    HW215087   2.442   4.261   7.485  0.3693  0.4397  4.4008
 1151SOL     OW15088   1.471   1.788   1.148  0.0026 -0.2133 -0.5281
 1151SOL    HW115089   1.558   1.781   1.107  0.1719 -2.0938  0.1606
 1151SOL    HW215090   1.440   1.711   1.101  1.0567 -1.4483  0.8406
 1152SOL     OW15091   0.630   3.415  16.017 -0.2305  0.0662  0.4534
 1152SOL    HW115092   0.664   3.462  15.941  0.6151 -1.3410 -0.0350
 1152SOL    HW215093   0.537   3.438  16.008 -0.1647  0.4322  0.7179
 1153SOL     OW15094   4.239   1.285   6.322 -0.0785  0.0339  0.2157
 1153SOL    HW115095   4.252   1.379   6.316 -1.6128  0.0722 -2.2387
 1153SOL    HW215096   4.192   1.258   6.244  1.2947 -0.3979 -0.4587
 1154SOL     OW15097   1.815   2.480   9.303  0.2539  0.1993 -0.5504
 1154SOL    HW115098   1.763   2.445   9.231 -0.9876 -0.4061  0.6231
 1154SOL    HW215099   1.888   2.518   9.256  0.6929  0.7678  0.6122
 1155SOL     OW15100   1.992   4.644   3.702 -0.2758 -0.2154 -0.3332
 1155SOL    HW115101   1.908   4.688   3.717  0.6427  0.3313  3.2122
 1155SOL    HW215102   1.967   4.551   3.705 -0.2441 -0.1634  1.9926
 1156SOL     OW15103   2.741   2.100   3.853 -0.5439 -0.2271  0.2650
 1156SOL    HW115104   2.702   2.186   3.838 -0.9358 -1.0010 -3.0206
 1156SOL    HW215105   2.751   2.062   3.766  0.5664  0.3331  0.1467
 1157SOL     OW15106   2.274   2.563   2.906 -0.5085 -0.0538 -0.4390
 1157SOL    HW115107   2.271   2.546   3.000 -1.0346 -0.7590 -0.5793
 1157SOL    HW215108   2.256   2.657   2.913 -0.3658  0.1166 -2.4085
 1158SOL     OW15109   4.717   3.808  10.490 -0.3741 -0.4801  0.3389
 1158SOL    HW115110   0.055   3.749  10.495  0.6751  0.7772 -0.9276
 1158SOL    HW215111   0.014   3.897  10.484  0.7828 -0.9532  0.0007
 1159SOL     OW15112   2.418   2.609   4.329  0.3655  0.4039  0.0624
 1159SOL    HW115113   2.368   2.583   4.406  0.6770  0.9078  0.4381
 1159SOL    HW215114   2.505   2.575   4.348  1.2295  3.3021  1.2436
 1160SOL     OW15115   2.132   2.435   2.697  0.1630 -0.0792 -0.2193
 1160SOL    HW115116   2.166   2.447   2.786 -0.1965 -0.7189  0.0039
 1160SOL    HW215117   2.173   2.353   2.670  1.4997  0.3230  0.5714
 1161SOL     OW15118   2.716   1.966   6.462  0.0344  0.4361 -0.4935
 1161SOL    HW115119   2.792   1.984   6.407 -1.5356 -0.2094 -2.8524
 1161SOL    HW215120   2.755   1.961   6.549 -1.5803  0.8582  0.2544
 1162SOL     OW15121   4.514   0.906   0.002  0.1899 -0.0959 -0.9293
 1162SOL    HW115122   4.432   0.935  17.708  0.0083  3.0798  1.5774
 1162SOL    HW215123   4.550   0.842  17.688  0.1582 -1.2104  0.2182
 1163SOL     OW15124   4.502   0.941   5.171 -0.0375 -0.0302  0.0171
 1163SOL    HW115125   4.512   1.005   5.242  0.8100  1.5571 -1.5202
 1163SOL    HW215126   4.518   0.856   5.212 -0.2119 -0.3432 -0.5609
 1164SOL     OW15127   1.136   1.478   2.914  0.2507  0.3222  0.1745
 1164SOL    HW115128   1.142   1.530   2.994 -0.3631  0.4787  0.1147
 1164SOL    HW215129   1.128   1.388   2.946  0.6214 -0.3088 -1.4884
 1165SOL     OW15130   2.765   3.539   7.988 -0.3521 -0.3029 -0.1307
 1165SOL    HW115131   2.683   3.577   7.954  0.4945  1.5186 -0.1352
 1165SOL    HW215132   2.790   3.471   7.926  1.4141  0.2925 -0.0584
 1166SOL     OW15133   1.209   2.423   3.094  0.0690  0.0830 -0.5619
 1166SOL    HW115134   1.174   2.488   3.155  0.1278  0.0820 -0.5273
 1166SOL    HW215135   1.135   2.372   3.061 -0.1032  0.2038 -0.3708
 1167SOL     OW15136   1.772   2.870  12.549  0.2332  0.4180  0.3525
 1167SOL    HW115137   1.733   2.784  12.561 -0.5747  1.0929  2.6318
 1167SOL    HW215138   1.835   2.857  12.619  0.4514 -1.2292 -0.1522
 1168SOL     OW15139   1.593   1.746   3.290  0.5738 -0.8441 -0.2615
 1168SOL    HW115140   1.685   1.759   3.267  0.8340 -0.8954  0.7654
 1168SOL    HW215141   1.596   1.713   3.380 -2.9118 -0.0915  0.1023
 1169SOL     OW15142   2.698   4.557   7.512  0.2024 -0.0204  0.6250
 1169SOL    HW115143   2.762   4.627   7.526 -1.9741  1.9047  0.7648
 1169SOL    HW215144   2.749   4.482   7.479  1.4340  1.5594 -1.0650
 1170SOL     OW15145   0.626   0.259   7.622 -0.0505  0.3962  0.0255
 1170SOL    HW115146   0.707   0.229   7.663 -0.3874 -1.5353 -0.7555
 1170SOL    HW215147   0.655   0.324   7.558  3.5259 -1.4404 -0.2042
 1171SOL     OW15148   2.706   0.376   3.452 -0.6472  0.0148 -0.2816
 1171SOL    HW115149   2.613   0.384   3.477 -0.5131  0.8498 -0.0725
 1171SOL    HW215150   2.753   0.370   3.535  0.6030  0.7340 -0.9517
 1172SOL     OW15151   1.541   2.235   6.632  0.0521 -0.0040 -0.3391
 1172SOL    HW115152   1.520   2.233   6.725 -1.2771 -0.6659 -0.6475
 1172SOL    HW215153   1.565   2.327   6.622  0.0705 -0.1264 -1.4291
 1173SOL     OW15154   2.936   4.442   4.368 -0.3210 -0.2065 -0.1343
 1173SOL    HW115155   3.022   4.481   4.384 -1.1373  1.6105 -0.2407
 1173SOL    HW215156   2.936   4.377   4.439  3.5462 -0.8116 -0.6905
 1174SOL     OW15157   2.668   2.370   4.060 -0.3971  0.0107 -0.4785
 1174SOL    HW115158   2.578   2.338   4.071 -0.5105 -1.1278 -4.7314
 1174SOL    HW215159   2.672   2.389   3.967 -0.8859 -2.5139 -1.0320
 1175SOL     OW15160   2.869   0.653  10.965  0.0313 -0.0824  0.2044
 1175SOL    HW115161   2.962   0.667  10.984  0.5578 -2.4495 -0.7106
 1175SOL    HW215162   2.860   0.592  10.892 -0.3130  1.6610 -1.2238
 1176SOL     OW15163   3.201   3.070   1.479 -0.2934 -0.1658  0.0075
 1176SOL    HW115164   3.245   2.985   1.477  0.7965  0.3529  2.5348
 1176SOL    HW215165   3.274   3.124   1.448  1.1205  0.0628  3.6896
 1177SOL     OW15166   3.441   0.645  14.069 -0.2510  0.4854  0.7819
 1177SOL    HW115167   3.444   0.691  14.153  0.7100  1.6367  0.1177
 1177SOL    HW215168   3.355   0.606  14.084 -0.2566  0.0288 -0.4515
 1178SOL     OW15169   1.156   2.139   4.517  0.9497 -0.1705  0.6488
 1178SOL    HW115170   1.252   2.148   4.519  0.9472  0.1221 -1.2950
 1178SOL    HW215171   1.131   2.223   4.477  3.0260  0.5965  0.9410
 1179SOL     OW15172   2.155   2.051   4.603 -0.0238  0.2811  0.3711
 1179SOL    HW115173   2.204   2.130   4.578  0.5901 -0.4520 -0.6939
 1179SOL    HW215174   2.201   2.012   4.677 -1.5266  0.8398  1.6139
 1180SOL     OW15175   3.140   0.249   0.819  0.2611 -0.3169  0.1121
 1180SOL    HW115176   3.158   0.320   0.757 -3.6097 -0.8920 -1.7195
 1180SOL    HW215177   3.219   0.198   0.803  1.3922  1.5523 -0.2826
 1181SOL     OW15178   3.195   0.548   5.991  0.5222 -0.1183  0.4028
 1181SOL    HW115179   3.286   0.579   5.989  0.1246  1.1056  1.3233
 1181SOL    HW215180   3.150   0.632   5.985  1.4345  0.3934  0.6117
 1182SOL     OW15181   1.072   0.692   5.178 -0.1659 -0.4909  0.1230
 1182SOL    HW115182   1.073   0.727   5.268  0.4415 -1.1456  0.3746
 1182SOL    HW215183   1.111   0.606   5.193 -0.2484 -0.3694  1.0862
 1183SOL     OW15184   4.336   4.577   4.367 -0.7375 -0.1685 -0.1592
 1183SOL    HW115185   4.343   4.659   4.318 -0.5595 -0.6099 -0.8711
 1183SOL    HW215186   4.331   4.620   4.452 -0.0785  2.1206 -1.2767
 1184SOL     OW15187   1.902   2.156   7.504  0.0654  0.0521  0.7952
 1184SOL    HW115188   1.877   2.226   7.564 -0.0748 -0.2008  1.0291
 1184SOL    HW215189   1.927   2.092   7.571 -1.0911 -2.2199 -0.9432
 1185SOL     OW15190   2.539   3.279   2.454  0.6635  0.5700  0.8422
 1185SOL    HW115191   2.586   3.358   2.482  6.6515 -2.3023 -1.1255
 1185SOL    HW215192   2.473   3.316   2.395 -2.1201 -2.5761  1.9835
 1186SOL     OW15193   2.261   0.527   4.292  0.3884  0.0174  0.1167
 1186SOL    HW115194   2.345   0.547   4.334 -0.6704 -1.6884  3.0304
 1186SOL    HW215195   2.206   0.531   4.370 -0.3702 -0.9300 -0.3752
 1187SOL     OW15196   3.668   3.207   4.687  0.3422 -0.0603 -0.1283
 1187SOL    HW115197   3.729   3.213   4.613  1.8508  1.3288  1.2359
 1187SOL    HW215198   3.721   3.178   4.761 -0.3364 -2.3868 -0.5286
 1188SOL     OW15199   0.381   0.560   7.958 -0.1236 -0.1707  0.1912
 1188SOL    HW115200   0.470   0.594   7.957  0.4372 -1.6377  0.7630
 1188SOL    HW215201   0.341   0.624   7.899  1.4216  0.0501 -0.6192
 1189SOL     OW15202   1.725   1.318   4.605 -0.1708  0.0925  0.3810
 1189SOL    HW115203   1.785   1.387   4.634  1.4928 -0.8788 -0.7270
 1189SOL    HW215204   1.720   1.249   4.671  0.5296 -0.6308 -0.3236
 1190SOL     OW15205   0.058   2.737   3.481 -0.1097 -0.7055  0.5322
 1190SOL    HW115206   0.082   2.677   3.551 -3.2409  0.8575  2.9058
 1190SOL    HW215207   0.058   2.821   3.526  0.7462 -0.8006  0.7053
 1191SOL     OW15208   2.037   3.942  12.060  0.1127 -0.7473 -0.1813
 1191SOL    HW115209   2.019   3.933  11.967  0.6214  0.0198 -0.3588
 1191SOL    HW215210   1.958   3.964  12.110  0.3788  1.5486 -0.7526
 1192SOL     OW15211   3.782   4.346   6.474 -0.2767  0.0141  0.6584
 1192SOL    HW115212   3.772   4.326   6.381  0.3580  2.0706  0.1474
 1192SOL    HW215213   3.732   4.276   6.516  1.1366 -1.8170 -0.7244
 1193SOL     OW15214   1.564   4.284  16.335  0.4647 -0.0849 -0.6209
 1193SOL    HW115215   1.529   4.203  16.374 -0.9289  1.2259  0.8314
 1193SOL    HW215216   1.592   4.258  16.247 -0.3492 -0.7684 -0.6821
 1194SOL     OW15217   3.285   2.138   4.374  0.4145  0.1543 -0.5451
 1194SOL    HW115218   3.353   2.072   4.384 -0.8035 -1.1894 -1.1356
 1194SOL    HW215219   3.315   2.177   4.292  2.0396 -0.8958 -0.4449
 1195SOL     OW15220   2.090   4.418   6.167 -0.1955  0.0233 -0.4659
 1195SOL    HW115221   2.154   4.346   6.165 -1.9575 -1.5261 -2.0342
 1195SOL    HW215222   2.019   4.376   6.214  0.8338 -2.6275 -1.2444
 1196SOL     OW15223   2.218   3.797   8.498 -0.2261 -0.0721 -0.0017
 1196SOL    HW115224   2.305   3.785   8.458 -0.3301 -0.4039 -0.1294
 1196SOL    HW215225   2.180   3.710   8.509  1.6282 -0.7913  0.8224
 1197SOL     OW15226   1.051   1.843   2.123 -0.1614 -0.3236 -0.2370
 1197SOL    HW115227   0.998   1.769   2.091 -0.7957  0.4116 -0.8940
 1197SOL    HW215228   1.075   1.884   2.040  2.2084  0.6176  0.9138
 1198SOL     OW15229   2.652   0.875   4.227 -0.2087  0.0787  0.2159
 1198SOL    HW115230   2.608   0.960   4.234  0.8368  0.4582  2.1969
 1198SOL    HW215231   2.588   0.826   4.175 -1.4067  1.6254  0.2404
 1199SOL     OW15232   2.059   3.113  11.999  0.3480 -0.1745 -0.0776
 1199SOL    HW115233   2.155   3.109  12.005  0.2897 -0.3901  0.7101
 1199SOL    HW215234   2.039   3.024  12.025 -1.2514 -0.6916 -3.1452
 1200SOL     OW15235   3.165   1.855   4.617  0.0848 -0.1683  0.2042
 1200SOL    HW115236   3.244   1.806   4.595 -1.2565 -2.1757 -0.1644
 1200SOL    HW215237   3.178   1.885   4.707  0.2648 -0.2642  0.2101
 1201SOL     OW15238   3.805   1.259  17.638 -0.0049  0.5134  0.0928
 1201SOL    HW115239   3.813   1.341  17.686  0.6881  0.3452  0.2563
 1201SOL    HW215240   3.794   1.303  17.553 -1.8978  2.4588  1.3196
 1202SOL     OW15241   4.291   3.586   4.296 -0.4277  0.1667 -0.2868
 1202SOL    HW115242   4.364   3.643   4.320 -0.4654 -1.6541  4.1790
 1202SOL    HW215243   4.297   3.514   4.358 -1.1140  0.7496  0.4688
 1203SOL     OW15244   4.346   1.331   9.137  0.2986  0.0958 -0.4632
 1203SOL    HW115245   4.307   1.255   9.180 -2.5902  1.9048  0.0751
 1203SOL    HW215246   4.436   1.300   9.126  0.7472  0.4001  2.2390
 1204SOL     OW15247   1.362   3.303   5.964 -0.3430 -0.2035 -0.0427
 1204SOL    HW115248   1.413   3.304   5.882  0.8281  0.6500  0.6968
 1204SOL    HW215249   1.403   3.366   6.022  0.4964 -2.0812  1.4094
 1205SOL     OW15250   1.867   0.825   4.804 -0.1950 -0.1060  0.1881
 1205SOL    HW115251   1.957   0.808   4.833 -0.2254 -3.0320 -1.3956
 1205SOL    HW215252   1.864   0.920   4.793  0.8538  0.2343  2.7626
 1206SOL     OW15253   0.380   1.510   4.610 -0.2075  0.3136 -0.2109
 1206SOL    HW115254   0.292   1.484   4.583  0.5876 -1.1958 -1.3258
 1206SOL    HW215255   0.390   1.475   4.699  0.9447  1.4154  0.0769
 1207SOL     OW15256   4.043   0.109  12.187 -0.1767  0.0950  0.2136
 1207SOL    HW115257   4.044   0.192  12.139  0.7357  0.4567  0.8409
 1207SOL    HW215258   4.133   0.077  12.180 -0.0320  1.5717 -4.2788
 1208SOL     OW15259   3.365   1.246  16.193  0.4225 -0.0997  0.1092
 1208SOL    HW115260   3.353   1.161  16.236 -1.0255  1.2837  2.4149
 1208SOL    HW215261   3.459   1.250  16.209  0.6584 -2.5817 -0.6672
 1209SOL     OW15262   0.015   3.620   4.297  0.4037 -0.5331  0.3834
 1209SOL    HW115263   4.728   3.681   4.228 -0.4724  0.0072  1.1655
 1209SOL    HW215264   4.678   3.636   4.355  0.3022  1.2386 -0.2208
 1210SOL     OW15265   2.962   3.398   2.730 -0.0439 -0.7089  0.4638
 1210SOL    HW115266   3.046   3.419   2.690 -0.0168 -1.9630 -0.1526
 1210SOL    HW215267   2.979   3.311   2.768  2.1923 -0.0821  0.8494
 1211SOL     OW15268   4.145   3.911   8.332  0.1896 -0.0834 -0.1389
 1211SOL    HW115269   4.194   3.946   8.407  0.0839 -0.2005 -0.0139
 1211SOL    HW215270   4.109   3.997   8.313  0.2635 -0.0730 -0.2283
 1212SOL     OW15271   0.279   2.003   8.924 -0.0066 -0.1406  0.5067
 1212SOL    HW115272   0.364   1.994   8.965  0.2750  0.6116  0.0878
 1212SOL    HW215273   0.248   2.093   8.931 -1.6901 -0.6599 -0.1721
 1213SOL     OW15274   0.229   2.279  14.472  0.4113  0.2139 -0.1355
 1213SOL    HW115275   0.135   2.280  14.454  0.5786 -1.8840 -1.1212
 1213SOL    HW215276   0.253   2.257  14.382 -1.2203  0.2545 -0.5782
 1214SOL     OW15277   0.582   0.319   6.548  0.4935  0.1830 -0.3803
 1214SOL    HW115278   0.521   0.298   6.476 -2.0991 -1.1489  2.2070
 1214SOL    HW215279   0.524   0.372   6.603  0.5426 -2.1554  1.8665
 1215SOL     OW15280   3.308   1.242   2.321 -0.5764 -0.3790  0.0143
 1215SOL    HW115281   3.384   1.195   2.285  1.7037  2.3186  1.3723
 1215SOL    HW215282   3.243   1.235   2.251  1.5449 -2.3581 -1.7769
 1216SOL     OW15283   4.520   3.300   5.458 -0.6206  0.1130  0.2976
 1216SOL    HW115284   4.453   3.278   5.393  0.3501 -2.2864  0.0972
 1216SOL    HW215285   4.469   3.352   5.519 -1.0126  1.5972 -1.2820
 1217SOL     OW15286   4.007   1.700   3.740  0.1914  0.1212  0.0353
 1217SOL    HW115287   4.036   1.671   3.827 -0.7680  1.3975  0.7839
 1217SOL    HW215288   3.945   1.629   3.726 -0.4493  0.9744 -1.4347
 1218SOL     OW15289   4.571   1.075   4.309 -0.4279 -0.2061 -0.2058
 1218SOL    HW115290   4.538   1.028   4.386  0.5353  0.7423  0.7717
 1218SOL    HW215291   4.641   1.127   4.348 -0.9397 -0.2123  0.7282
 1219SOL     OW15292   0.569   0.486  17.024  0.0837  0.1337 -0.7634
 1219SOL    HW115293   0.645   0.475  16.968  0.9336  2.3015 -0.0199
 1219SOL    HW215294   0.544   0.575  16.999  0.3948  0.1649 -0.9570
 1220SOL     OW15295   2.811   1.970   2.607 -0.1926 -0.2359  0.7396
 1220SOL    HW115296   2.866   1.940   2.535 -0.7500 -1.5858  0.8796
 1220SOL    HW215297   2.877   2.006   2.667 -0.6064  2.1559 -0.2405
 1221SOL     OW15298   2.405   1.711   3.847 -0.4571 -0.1867 -0.3114
 1221SOL    HW115299   2.396   1.629   3.896 -0.2896 -0.5895 -0.9524
 1221SOL    HW215300   2.363   1.762   3.916  2.6409  1.0475  0.6649
 1222SOL     OW15301   2.813   1.235   7.014 -0.3764  0.0586 -0.7836
 1222SOL    HW115302   2.849   1.308   6.964 -1.6898  1.1331 -0.1625
 1222SOL    HW215303   2.849   1.263   7.097  0.5816 -1.4602 -0.6807
 1223SOL     OW15304   4.174   0.436  14.395  0.4952 -0.6355  0.1110
 1223SOL    HW115305   4.146   0.368  14.457 -0.1406 -0.6432 -0.1789
 1223SOL    HW215306   4.155   0.513  14.448  2.2592  0.1057 -0.3367
 1224SOL     OW15307   4.361   3.229   3.438 -0.0207 -0.0379 -0.4121
 1224SOL    HW115308   4.416   3.283   3.494  0.7818 -0.3769 -0.8713
 1224SOL    HW215309   4.319   3.300   3.391  1.7715 -0.8528 -3.2606
 1225SOL     OW15310   0.050   3.955   0.770  0.3133 -0.0790  0.1571
 1225SOL    HW115311   0.129   3.916   0.807  0.3749  1.3064  1.4760
 1225SOL    HW215312   0.090   4.014   0.706  1.8835 -0.7068  0.5523
 1226SOL     OW15313   0.773   0.204   8.089  0.0721  0.1023 -0.0195
 1226SOL    HW115314   0.791   0.265   8.161  2.1982  3.4414 -3.3886
 1226SOL    HW215315   0.759   0.273   8.025 -0.5507 -1.5830 -1.6786
 1227SOL     OW15316   3.841   2.319   9.342  0.0219 -0.2500 -0.3120
 1227SOL    HW115317   3.791   2.372   9.280  2.6018 -1.7447 -3.6676
 1227SOL    HW215318   3.779   2.310   9.414  0.1124  1.1429 -0.0762
 1228SOL     OW15319   0.434   4.185   4.282  0.4348 -0.1462 -0.0110
 1228SOL    HW115320   0.427   4.199   4.188  1.0911 -2.2727 -0.3737
 1228SOL    HW215321   0.363   4.242   4.311 -0.3185 -0.1500 -1.8883
 1229SOL     OW15322   4.099   2.370  15.233 -0.0324 -0.6528  0.5050
 1229SOL    HW115323   4.089   2.330  15.319  0.5883 -2.2329 -0.1586
 1229SOL    HW215324   4.050   2.302  15.186 -0.9013 -0.6328  1.3908
 1230SOL     OW15325   2.791   1.544   4.374 -0.7673 -0.3593  0.4375
 1230SOL    HW115326   2.814   1.603   4.302  2.2149  1.2365  2.6700
 1230SOL    HW215327   2.697   1.555   4.390 -1.3621 -3.7163 -0.8016
 1231SOL     OW15328   2.569   3.706   9.092  0.1084  0.7291  0.3777
 1231SOL    HW115329   2.572   3.802   9.092  0.7007  0.7088  0.2463
 1231SOL    HW215330   2.504   3.694   9.022  0.4796 -0.0202  0.1598
 1232SOL     OW15331   2.685   1.257   7.771 -0.7155 -0.4597 -0.2041
 1232SOL    HW115332   2.676   1.233   7.679  0.2443  0.2529 -0.4794
 1232SOL    HW215333   2.625   1.200   7.819 -0.2874 -0.2016  0.6499
 1233SOL     OW15334   3.803   3.834   0.460 -0.3187 -0.1941 -0.4650
 1233SOL    HW115335   3.713   3.868   0.453  0.2775  1.6067  0.5211
 1233SOL    HW215336   3.847   3.900   0.408  1.3624 -0.3970  0.7048
 1234SOL     OW15337   3.406   3.807   0.451 -0.0169  0.0188 -0.0107
 1234SOL    HW115338   3.363   3.732   0.410  1.2497  0.1613 -1.5721
 1234SOL    HW215339   3.416   3.881   0.392  0.5019 -2.2618 -2.7651
 1235SOL     OW15340   0.698   0.211   8.779 -0.7042  0.0581  0.0142
 1235SOL    HW115341   0.671   0.154   8.851 -0.3787 -0.4654 -0.2824
 1235SOL    HW215342   0.607   0.240   8.771 -0.4778  0.6229 -0.4450
 1236SOL     OW15343   3.367   4.081   3.709  0.2188  0.0715 -0.0238
 1236SOL    HW115344   3.455   4.075   3.672  0.9584 -1.6373  1.9980
 1236SOL    HW215345   3.357   4.176   3.707 -0.4751 -0.0647 -2.7137
 1237SOL     OW15346   0.522   0.007   6.023 -0.6812 -0.1572 -0.1181
 1237SOL    HW115347   0.437   4.706   6.003 -1.1316  0.4722  0.5873
 1237SOL    HW215348   0.579   4.669   6.005  0.4737  0.1829  2.1557
 1238SOL     OW15349   2.508   1.774  15.422  0.6963 -0.5396  0.5563
 1238SOL    HW115350   2.437   1.769  15.358  0.1209 -1.1964  1.2480
 1238SOL    HW215351   2.448   1.789  15.495  0.9396  1.0186  0.4399
 1239SOL     OW15352   0.007   3.305   1.760 -0.3667  0.1732  0.0212
 1239SOL    HW115353   0.014   3.215   1.789 -1.0063  0.1893  0.2241
 1239SOL    HW215354   4.657   3.311   1.723 -0.9835 -0.5734  1.3525
 1240SOL     OW15355   3.671   0.173  11.568 -0.0494  0.1478 -0.3490
 1240SOL    HW115356   3.759   0.208  11.583  0.9700 -1.5508 -2.3345
 1240SOL    HW215357   3.667   0.116  11.645  3.3964 -1.9237 -1.7000
 1241SOL     OW15358   1.223   0.878   2.662 -0.7372  0.3686  0.2320
 1241SOL    HW115359   1.217   0.782   2.670 -2.9416  0.5070  0.3156
 1241SOL    HW215360   1.156   0.904   2.725 -1.6253  3.0236 -1.8096
 1242SOL     OW15361   3.631   0.124   2.216 -0.6271 -0.6589 -1.0993
 1242SOL    HW115362   3.680   0.124   2.134  3.4129 -0.7368  1.3166
 1242SOL    HW215363   3.574   0.047   2.206 -1.6680  0.0249 -0.4838
 1243SOL     OW15364   0.966   1.747   6.043 -0.0586 -0.2722  0.1831
 1243SOL    HW115365   0.897   1.793   6.089  0.1393  1.5870 -1.3715
 1243SOL    HW215366   0.988   1.812   5.976  0.6529 -0.9143 -0.2125
 1244SOL     OW15367   1.828   3.725   2.575  0.5532  0.0606  0.5329
 1244SOL    HW115368   1.866   3.801   2.531 -1.1452  1.2609  1.1330
 1244SOL    HW215369   1.768   3.763   2.639 -1.0476 -0.7829 -0.4671
 1245SOL     OW15370   3.602   1.028   4.140 -0.2532  0.9148 -0.1387
 1245SOL    HW115371   3.540   1.093   4.107  1.7044  2.4155 -0.9420
 1245SOL    HW215372   3.691   1.062   4.127  0.3301 -1.2980 -1.8809
 1246SOL     OW15373   1.212   2.196   8.118 -0.1634 -0.6419  0.0390
 1246SOL    HW115374   1.152   2.132   8.156 -1.2563 -0.5107 -1.4431
 1246SOL    HW215375   1.151   2.265   8.092 -1.8534 -2.1457  0.0157
 1247SOL     OW15376   4.374   3.762  14.975 -0.2159 -0.2538  0.0182
 1247SOL    HW115377   4.287   3.726  14.962 -0.1799  0.4365 -2.1406
 1247SOL    HW215378   4.363   3.837  14.916  0.8899 -1.0535 -1.1860
 1248SOL     OW15379   0.608   0.013   4.617 -0.3036  0.4126  0.1074
 1248SOL    HW115380   0.643   4.669   4.580 -0.9370  0.2412 -0.1018
 1248SOL    HW215381   0.684   0.046   4.667 -0.8471  1.7807  0.0278
 1249SOL     OW15382   3.963   0.576   7.853  0.7806 -0.2260 -0.5606
 1249SOL    HW115383   3.957   0.667   7.824  1.0675  0.1511  0.5600
 1249SOL    HW215384   3.873   0.556   7.880  0.7816  0.1211 -0.3117
 1250SOL     OW15385   0.841   0.070  14.518 -0.6364  0.5816  0.1725
 1250SOL    HW115386   0.765   0.011  14.518 -2.1011  2.4581  1.2857
 1250SOL    HW215387   0.835   0.085  14.612 -3.5795  1.4779 -0.1665
 1251SOL     OW15388   2.069   0.203   7.489  0.2463 -0.3815 -0.0275
 1251SOL    HW115389   1.984   0.183   7.450  0.3573  1.4110 -1.1655
 1251SOL    HW215390   2.053   0.218   7.582  0.5266 -0.6001  0.0558
 1252SOL     OW15391   3.898   4.087   7.921 -0.4583  0.3065 -0.4779
 1252SOL    HW115392   3.990   4.111   7.914 -1.0592  1.9428 -2.5247
 1252SOL    HW215393   3.863   4.168   7.957 -1.9769 -1.3063  1.7213
 1253SOL     OW15394   0.744   4.019   4.551  0.3374 -0.5213  0.1078
 1253SOL    HW115395   0.758   3.935   4.506  0.6919 -0.3993 -0.0057
 1253SOL    HW215396   0.680   3.983   4.613  1.6726 -0.9215  1.2674
 1254SOL     OW15397   1.393   3.733   0.874  0.1858 -0.3410  0.1045
 1254SOL    HW115398   1.411   3.778   0.957  1.4121  1.3412 -1.0773
 1254SOL    HW215399   1.481   3.698   0.858  0.3084 -0.8120  1.8454
 1255SOL     OW15400   4.247   4.186   5.994 -0.4737  0.3524  0.0546
 1255SOL    HW115401   4.316   4.227   5.942 -0.9424  2.0087  0.7495
 1255SOL    HW215402   4.253   4.095   5.965  0.9191  0.3539  0.3401
 1256SOL     OW15403   4.516   1.273  11.347 -0.1539 -0.2322  0.0474
 1256SOL    HW115404   4.474   1.252  11.263  2.2195  1.1272 -1.4664
 1256SOL    HW215405   4.447   1.249  11.410 -0.1439 -2.1093 -0.6671
 1257SOL     OW15406   1.224   0.215   3.455  0.3723 -0.7784  0.4639
 1257SOL    HW115407   1.244   0.297   3.501  2.1518 -1.0395  0.1499
 1257SOL    HW215408   1.250   0.239   3.367  0.7637  0.2554  0.8644
 1258SOL     OW15409   3.696   1.479   5.861 -0.6786 -0.1745  0.4032
 1258SOL    HW115410   3.729   1.560   5.900 -1.3843  1.2531 -1.9982
 1258SOL    HW215411   3.779   1.458   5.818 -1.1218 -0.9442 -0.0729
 1259SOL     OW15412   3.446   4.358   6.580 -1.0102 -0.2302 -1.0733
 1259SOL    HW115413   3.509   4.427   6.602 -0.7726 -0.9468  0.5609
 1259SOL    HW215414   3.506   4.284   6.574 -0.1563  0.3332  0.4739
 1260SOL     OW15415   2.984   1.017  12.274  0.2222  0.1047 -0.1222
 1260SOL    HW115416   2.903   0.975  12.304  0.7588  0.0331  1.2335
 1260SOL    HW215417   3.012   1.070  12.349 -1.6336  0.4561  0.3336
 1261SOL     OW15418   0.342   2.313   4.246  0.4671  0.2154  0.5116
 1261SOL    HW115419   0.377   2.355   4.167  1.4364 -1.2045  0.1863
 1261SOL    HW215420   0.420   2.314   4.303  0.4296 -0.1896  0.5714
 1262SOL     OW15421   1.550   3.440   3.258 -0.0669 -0.5208  0.3776
 1262SOL    HW115422   1.516   3.521   3.298  0.8862  0.6390 -1.1502
 1262SOL    HW215423   1.505   3.374   3.311  0.1245 -0.4415  0.6418
 1263SOL     OW15424   2.215   0.850   5.535  0.1533 -0.3584 -1.0531
 1263SOL    HW115425   2.144   0.879   5.477 -1.3511 -0.6176  0.6525
 1263SOL    HW215426   2.293   0.884   5.491 -0.8476  1.3803 -1.5130
 1264SOL     OW15427   1.625   1.215  15.728  0.5850 -0.3819  0.3299
 1264SOL    HW115428   1.651   1.307  15.723 -0.7398  0.0946  2.2859
 1264SOL    HW215429   1.552   1.215  15.789  1.9460 -1.7080  1.9839
 1265SOL     OW15430   4.661   2.017   8.417  0.1433 -0.3920 -0.3335
 1265SOL    HW115431   4.722   1.946   8.401  1.7340  1.3143 -1.8795
 1265SOL    HW215432   4.657   2.057   8.330  2.2840  0.1418 -0.1726
 1266SOL     OW15433   2.444   1.862   6.521 -0.6066 -0.1089 -0.3773
 1266SOL    HW115434   2.444   1.923   6.594 -0.6139 -0.2288 -0.2763
 1266SOL    HW215435   2.524   1.900   6.484  0.0312 -2.6850 -1.6596
 1267SOL     OW15436   0.021   2.538   8.221  0.1475  0.7384 -0.0741
 1267SOL    HW115437   0.032   2.449   8.255 -0.1291  0.6080 -0.3280
 1267SOL    HW215438   0.102   2.581   8.250 -1.0282  3.3891 -0.7212
 1268SOL     OW15439   0.560   1.793   3.819 -0.1290  0.3145 -0.0792
 1268SOL    HW115440   0.514   1.711   3.833  0.8049 -0.4430 -1.4924
 1268SOL    HW215441   0.496   1.864   3.818 -0.2520  0.2144  0.5010
 1269SOL     OW15442   3.953   4.724  10.009 -0.0846  0.1132 -0.1971
 1269SOL    HW115443   3.928   4.643   9.965  0.2533 -0.1649  0.1264
 1269SOL    HW215444   3.975   4.698  10.098  1.5389 -1.5139 -1.0799
 1270SOL     OW15445   1.542   3.733   6.935 -0.3029  0.0274  0.1228
 1270SOL    HW115446   1.515   3.818   6.899  1.8652  0.5246 -0.3171
 1270SOL    HW215447   1.461   3.691   6.965 -0.8832  0.4415 -0.8400
 1271SOL     OW15448   3.952   1.472   5.131 -0.1723 -0.1502 -0.1327
 1271SOL    HW115449   3.992   1.547   5.176  0.2461 -0.6384  0.3159
 1271SOL    HW215450   3.861   1.479   5.157  0.0786  2.5367  0.0503
 1272SOL     OW15451   0.547   2.642   9.101  0.2819  0.2115  0.4121
 1272SOL    HW115452   0.624   2.624   9.048  0.6980 -0.8250  1.3771
 1272SOL    HW215453   0.516   2.555   9.125  1.9633 -0.8472 -1.2575
 1273SOL     OW15454   2.360   3.941   7.724 -0.1894  0.7726 -0.9315
 1273SOL    HW115455   2.288   3.932   7.662 -0.5267 -1.4247 -0.2180
 1273SOL    HW215456   2.323   3.916   7.809  1.7938  0.1855 -0.2234
 1274SOL     OW15457   3.419   0.607  17.256 -0.3209 -0.2575  0.1875
 1274SOL    HW115458   3.353   0.676  17.248 -1.9317 -1.5121  2.7097
 1274SOL    HW215459   3.404   0.558  17.175 -1.4419 -1.0121  0.8577
 1275SOL     OW15460   2.933   1.520   1.255  0.5449  0.0489  0.0376
 1275SOL    HW115461   2.993   1.528   1.330  0.2170  0.2060  0.2811
 1275SOL    HW215462   2.856   1.475   1.290 -0.6695 -0.5848 -3.4845
 1276SOL     OW15463   4.181   1.059   5.355  0.7847  0.1038 -0.1515
 1276SOL    HW115464   4.198   1.001   5.280  2.1465 -0.0084  0.2473
 1276SOL    HW215465   4.165   1.002   5.431  2.3163  1.5303  1.2415
 1277SOL     OW15466   4.639   3.807   9.058 -0.5319  0.0859 -0.7762
 1277SOL    HW115467   4.652   3.897   9.029  2.0301 -0.9479 -2.8405
 1277SOL    HW215468   4.549   3.826   9.082  0.1149  1.3211  0.6430
 1278SOL     OW15469   2.767   2.867   0.840  0.5083 -0.2203  0.4489
 1278SOL    HW115470   2.765   2.885   0.934 -0.7122  1.0790  0.1716
 1278SOL    HW215471   2.718   2.944   0.810  0.5721  0.2707  1.5933
 1279SOL     OW15472   0.136   4.602   8.207  0.5079 -0.1890  0.0473
 1279SOL    HW115473   0.045   4.627   8.188  0.4770  2.7036  3.9118
 1279SOL    HW215474   0.119   4.510   8.229 -1.2348  0.1908  0.3029
 1280SOL     OW15475   4.140   4.320   6.933 -0.2675 -0.2831  0.1393
 1280SOL    HW115476   4.090   4.366   6.864  0.4432  0.0319 -0.1648
 1280SOL    HW215477   4.137   4.386   7.002  0.3640 -0.5745  0.4382
 1281SOL     OW15478   4.069   3.975   2.534  0.6602  0.2158 -0.8454
 1281SOL    HW115479   4.007   3.964   2.462  1.3684  0.1172 -1.4490
 1281SOL    HW215480   4.144   4.013   2.487  2.0406  0.4181  1.5146
 1282SOL     OW15481   1.474   1.808   4.104 -0.0421 -0.5027 -0.7415
 1282SOL    HW115482   1.389   1.778   4.136  1.2452 -1.1472  2.0854
 1282SOL    HW215483   1.520   1.838   4.182 -0.1461  1.5670 -1.4860
 1283SOL     OW15484   3.440   3.009  10.342 -0.0660 -0.3653 -0.2517
 1283SOL    HW115485   3.496   2.934  10.321 -1.0440 -1.0341 -0.4376
 1283SOL    HW215486   3.395   2.998  10.259 -1.3393 -1.8931  0.6529
 1284SOL     OW15487   0.914   3.100   2.874 -0.5425  0.2818  0.3907
 1284SOL    HW115488   0.930   3.195   2.871 -0.5983  0.2936  0.4531
 1284SOL    HW215489   0.947   3.073   2.788  0.1016  1.6815  0.1874
 1285SOL     OW15490   3.213   2.544   2.827  0.2836  0.6462 -0.0883
 1285SOL    HW115491   3.230   2.451   2.845  1.5158  0.9611  0.3926
 1285SOL    HW215492   3.259   2.553   2.743  1.0246 -0.9131  0.1419
 1286SOL     OW15493   2.930   1.909   6.123 -0.7156 -0.5067 -0.0405
 1286SOL    HW115494   3.009   1.962   6.118  0.2271 -1.8209  1.1862
 1286SOL    HW215495   2.956   1.846   6.189  0.3526  0.4857  0.4768
 1287SOL     OW15496   0.435   1.586   4.250 -0.2169 -0.0744  0.4785
 1287SOL    HW115497   0.426   1.601   4.156  0.9967  0.3879  0.4385
 1287SOL    HW215498   0.349   1.553   4.277 -1.3768  1.6830 -1.0547
 1288SOL     OW15499   3.107   4.732   8.407 -0.6883 -0.3232  0.6249
 1288SOL    HW115500   3.052   0.046   8.348  1.2422  1.8506  0.7405
 1288SOL    HW215501   3.074   4.642   8.397  0.7269 -0.6888 -0.6856
 1289SOL     OW15502   3.637   1.883   3.657 -0.5593  0.4863  0.5730
 1289SOL    HW115503   3.650   1.791   3.679 -2.3559 -0.3458 -1.8116
 1289SOL    HW215504   3.679   1.920   3.734  0.9089 -0.0204  0.0204
 1290SOL     OW15505   4.383   1.363  16.728  0.1931  0.7471 -0.0843
 1290SOL    HW115506   4.289   1.366  16.708 -0.1751 -0.3146  1.5572
 1290SOL    HW215507   4.423   1.407  16.652 -0.4341 -1.4621 -1.6953
 1291SOL     OW15508   3.403   1.792   2.401 -0.0605  0.2396  0.0083
 1291SOL    HW115509   3.379   1.854   2.332 -1.9942 -1.3288 -0.7187
 1291SOL    HW215510   3.341   1.720   2.389  1.3921 -1.5742  3.4519
 1292SOL     OW15511   0.636   3.374   6.889  0.6363  0.1302 -0.1322
 1292SOL    HW115512   0.697   3.383   6.962 -0.0717 -0.9441  0.5983
 1292SOL    HW215513   0.669   3.448   6.839  3.2598 -0.2102  1.1042
 1293SOL     OW15514   2.207   2.359  10.907  0.0506  0.0002  0.2189
 1293SOL    HW115515   2.180   2.320  10.991  3.5904 -0.8819  0.9481
 1293SOL    HW215516   2.281   2.408  10.943 -0.2005  0.4698  0.0882
 1294SOL     OW15517   0.292   0.622   4.243  0.6506 -0.1138 -0.6468
 1294SOL    HW115518   0.372   0.627   4.296  1.2022  1.1244 -1.6027
 1294SOL    HW215519   0.258   0.537   4.272  0.1643  0.0580 -0.7202
 1295SOL     OW15520   1.845   4.382  16.418 -0.2079 -0.1855 -0.0620
 1295SOL    HW115521   1.777   4.449  16.413  0.8799  0.9001 -0.3118
 1295SOL    HW215522   1.831   4.358  16.510  1.2136  0.1935  0.2632
 1296SOL     OW15523   0.154   4.166  11.937 -0.1811  0.0774  0.8298
 1296SOL    HW115524   0.178   4.165  12.030  2.5147 -0.6762  0.1160
 1296SOL    HW215525   0.070   4.120  11.941  0.0123 -0.2707  0.9584
 1297SOL     OW15526   4.085   1.689  14.915 -0.0695 -0.1776  0.5722
 1297SOL    HW115527   4.130   1.772  14.901  0.0244 -0.0303  1.8024
 1297SOL    HW215528   4.155   1.634  14.880 -0.3420  0.4676 -0.9800
 1298SOL     OW15529   3.990   0.677   8.181  0.0169  0.7034 -0.3825
 1298SOL    HW115530   3.997   0.647   8.090  0.3642 -0.2190 -0.0546
 1298SOL    HW215531   3.923   0.745   8.169  0.2816  0.4278 -3.4908
 1299SOL     OW15532   3.504   1.355   9.432 -0.7246  0.4126  0.5084
 1299SOL    HW115533   3.519   1.260   9.428  0.1286  0.5026  1.6174
 1299SOL    HW215534   3.581   1.389   9.386 -0.4898 -0.2534  0.3996
 1300SOL     OW15535   3.927   4.678  16.210 -0.0358 -0.0859 -0.1642
 1300SOL    HW115536   3.960   4.610  16.151  1.2412 -0.0845  0.5424
 1300SOL    HW215537   3.960   0.017  16.162 -1.9448  1.4528  0.9789
 1301SOL     OW15538   0.077   0.079   7.485 -0.1831 -0.8701 -0.4887
 1301SOL    HW115539   0.165   0.081   7.448  0.0474 -1.4752  0.0257
 1301SOL    HW215540   0.032   0.010   7.438 -0.9342 -0.7764  0.0889
 1302SOL     OW15541   3.612   4.312  13.984  0.1135  0.2206  0.0444
 1302SOL    HW115542   3.701   4.314  14.019 -1.3285 -2.5997  3.9069
 1302SOL    HW215543   3.556   4.275  14.052 -1.1043 -0.4490 -1.3297
 1303SOL     OW15544   0.645   2.902   6.356 -0.3572 -0.1342 -0.0666
 1303SOL    HW115545   0.580   2.892   6.426 -0.1674 -1.3621 -0.0656
 1303SOL    HW215546   0.603   2.860   6.281  1.1224  1.8333 -1.9911
 1304SOL     OW15547   3.752   0.230  14.204 -0.6184  0.0793 -0.1807
 1304SOL    HW115548   3.688   0.264  14.141 -0.4996  0.2263 -0.2235
 1304SOL    HW215549   3.830   0.268  14.163 -0.0129  1.0542  1.8364
 1305SOL     OW15550   0.601   1.850  12.055  0.3642 -0.0644  0.6125
 1305SOL    HW115551   0.637   1.761  12.064  1.6021  0.4578  0.8110
 1305SOL    HW215552   0.666   1.892  11.999  1.0152 -2.6235 -0.5647
 1306SOL     OW15553   3.282   1.109   9.304 -0.2770 -0.4363 -0.2531
 1306SOL    HW115554   3.325   1.039   9.354 -1.3445 -1.5365 -0.8867
 1306SOL    HW215555   3.270   1.174   9.373 -0.9961 -1.2770  0.4124
 1307SOL     OW15556   0.751   1.053  13.143 -0.0061 -0.3998 -0.5400
 1307SOL    HW115557   0.833   1.064  13.191 -1.2045 -0.4041  1.5348
 1307SOL    HW215558   0.742   0.957  13.143  2.2244 -0.6083  3.3220
 1308SOL     OW15559   1.165   1.476   6.937  0.6863 -0.1981 -0.8927
 1308SOL    HW115560   1.084   1.436   6.969  1.0288 -0.1400  0.0404
 1308SOL    HW215561   1.162   1.544   7.004  0.4107  0.3354 -1.4495
 1309SOL     OW15562   0.630   2.961   4.095 -0.4533  0.2603 -0.1371
 1309SOL    HW115563   0.665   2.873   4.084 -0.1902  0.5106 -1.3888
 1309SOL    HW215564   0.626   2.966   4.190 -1.0988  2.7855 -0.3007
 1310SOL     OW15565   3.349   0.853   4.836  0.1770 -0.4944  0.2519
 1310SOL    HW115566   3.278   0.823   4.779 -0.2327  0.3545  0.3200
 1310SOL    HW215567   3.423   0.870   4.777  0.3634 -1.5644  0.1642
 1311SOL     OW15568   3.090   3.189   8.425  0.3135  0.3160  0.3700
 1311SOL    HW115569   3.032   3.258   8.459  0.2668  0.2404  0.4444
 1311SOL    HW215570   3.021   3.125   8.415  0.1924  0.7516 -1.6112
 1312SOL     OW15571   3.056   0.700   1.503  0.0777 -0.3640 -0.2596
 1312SOL    HW115572   3.128   0.643   1.530  0.8735  0.8001  0.0680
 1312SOL    HW215573   3.055   0.753   1.582  2.4749 -0.7535  0.0457
 1313SOL     OW15574   0.487   0.732  16.944 -0.2961  0.1807  0.1613
 1313SOL    HW115575   0.540   0.811  16.955  0.5015 -0.1656 -1.0588
 1313SOL    HW215576   0.446   0.758  16.862  2.3662  0.9999 -0.9320
 1314SOL     OW15577   0.099   1.194   6.226 -0.0320  0.5997  0.2921
 1314SOL    HW115578   0.088   1.104   6.256 -0.4182  0.3624 -0.5567
 1314SOL    HW215579   0.075   1.241   6.306 -1.4799 -1.0685  0.8137
 1315SOL     OW15580   1.900   0.584   1.858 -0.2729 -0.1925 -0.9572
 1315SOL    HW115581   1.809   0.594   1.833 -1.1812  0.3524  2.5918
 1315SOL    HW215582   1.931   0.674   1.854  0.4362 -0.4215 -0.6311
 1316SOL     OW15583   4.047   0.676   5.157  0.1286  0.3518 -0.0661
 1316SOL    HW115584   3.984   0.747   5.144 -0.8738 -0.6375 -0.6319
 1316SOL    HW215585   4.128   0.706   5.116  1.0356  1.9266  2.9038
 1317SOL     OW15586   2.026   3.681  16.369  0.0308  0.1618 -0.0472
 1317SOL    HW115587   1.966   3.687  16.294 -0.5699 -2.9490  0.1972
 1317SOL    HW215588   2.071   3.766  16.367  0.6183 -0.1743 -1.0946
 1318SOL     OW15589   2.310   1.114   3.818 -0.0928  0.2014 -0.2698
 1318SOL    HW115590   2.348   1.039   3.772  1.4532  1.0038 -0.2948
 1318SOL    HW215591   2.223   1.077   3.833  0.3299 -0.3743  0.7277
 1319SOL     OW15592   1.655   1.671  15.501 -0.7245 -0.0391 -0.1918
 1319SOL    HW115593   1.719   1.736  15.530  0.1177 -1.5518  1.2619
 1319SOL    HW215594   1.588   1.728  15.462 -0.8895 -0.3771 -0.4032
 1320SOL     OW15595   0.007   1.606  10.022 -0.4096  0.5841  0.1513
 1320SOL    HW115596   0.079   1.588  10.081 -3.4185 -0.0263  3.6462
 1320SOL    HW215597   4.669   1.603  10.081 -0.3617 -1.5630  0.1188
 1321SOL     OW15598   0.251   1.430  16.400  0.0231  0.2733  0.3556
 1321SOL    HW115599   0.317   1.497  16.387  0.2943  0.2512  1.6345
 1321SOL    HW215600   0.259   1.413  16.494 -0.9339  0.8691  0.5478
 1322SOL     OW15601   2.733   4.533   3.145 -0.7623  0.1631  0.4012
 1322SOL    HW115602   2.752   4.612   3.095  2.3217 -0.0836  1.1447
 1322SOL    HW215603   2.671   4.487   3.088  1.6752 -1.3152 -1.0597
 1323SOL     OW15604   1.350   4.667  16.080 -0.0916  0.0472 -0.2350
 1323SOL    HW115605   1.371   4.593  16.137 -1.3886  0.6179  0.9926
 1323SOL    HW215606   1.289   4.616  16.027 -0.2079  0.3352 -0.3790
 1324SOL     OW15607   2.449   0.276  10.958  0.2455  0.2133 -0.2272
 1324SOL    HW115608   2.423   0.200  10.907  1.0882 -0.0549 -0.2660
 1324SOL    HW215609   2.442   0.244  11.048  0.5554  2.8553  0.7506
 1325SOL     OW15610   0.343   2.879   7.520  0.5500  0.1099  0.2681
 1325SOL    HW115611   0.419   2.937   7.518 -0.8409  1.9278  0.1648
 1325SOL    HW215612   0.309   2.887   7.609 -1.9875 -0.8467 -0.6242
 1326SOL     OW15613   0.181   3.939   7.908 -0.3298  0.0393  0.4990
 1326SOL    HW115614   0.184   3.983   7.823  0.3357  2.6741  1.9129
 1326SOL    HW215615   0.270   3.971   7.926 -0.1951  0.0858 -0.2261
 1327SOL     OW15616   1.722   0.080   8.842  0.2747  0.2921 -0.0720
 1327SOL    HW115617   1.741   0.148   8.776  1.0565  0.8298  0.6978
 1327SOL    HW215618   1.808   0.037   8.841 -0.5917 -1.4267  1.9440
 1328SOL     OW15619   2.368   4.137  13.322  0.7617  0.5600  0.3373
 1328SOL    HW115620   2.348   4.231  13.325  0.2922  0.3862  2.7550
 1328SOL    HW215621   2.410   4.143  13.236  2.6501  2.4067  1.3964
 1329SOL     OW15622   2.624   3.181   8.985 -0.4265  0.0677 -0.2099
 1329SOL    HW115623   2.547   3.125   8.972 -0.6052  0.0244  1.0797
 1329SOL    HW215624   2.598   3.261   9.031  0.2357 -1.3644  2.6308
 1330SOL     OW15625   2.935   3.398  11.076 -0.8191  0.1442 -0.5933
 1330SOL    HW115626   2.994   3.466  11.111  0.9731 -1.4640 -0.4864
 1330SOL    HW215627   2.937   3.422  10.984 -3.2663  0.8707 -0.4464
 1331SOL     OW15628   3.444   2.559   8.481  0.4026 -0.0670 -0.6373
 1331SOL    HW115629   3.355   2.525   8.487 -0.5212  2.2899 -1.0426
 1331SOL    HW215630   3.473   2.542   8.571 -0.0694  2.2447 -0.0343
 1332SOL     OW15631   0.965   4.147  12.607 -0.1566  0.0135 -0.1581
 1332SOL    HW115632   0.887   4.132  12.553 -0.6768 -0.3870  0.7035
 1332SOL    HW215633   0.955   4.068  12.660  1.5532  0.3863  0.7271
 1333SOL     OW15634   2.508   2.651   1.255 -0.2534 -0.4753 -0.2749
 1333SOL    HW115635   2.441   2.667   1.321 -0.5861  0.5293 -0.8626
 1333SOL    HW215636   2.585   2.632   1.309 -0.0992  0.0041 -0.3278
 1334SOL     OW15637   2.902   4.411   5.352  0.8697  0.3095  0.9397
 1334SOL    HW115638   2.958   4.382   5.424  1.4113  1.0137  0.7970
 1334SOL    HW215639   2.946   4.360   5.284  0.0449 -2.7832  2.6721
 1335SOL     OW15640   0.280   1.920   2.744  0.1409 -0.4460  0.1326
 1335SOL    HW115641   0.313   1.867   2.672 -0.4013 -1.3610  0.5620
 1335SOL    HW215642   0.234   1.851   2.791 -1.7025 -0.2465 -1.4231
 1336SOL     OW15643   1.273   3.391   4.036  0.1892  0.1834 -0.1804
 1336SOL    HW115644   1.307   3.443   3.963 -1.1260  0.4881 -0.5871
 1336SOL    HW215645   1.254   3.302   4.007 -1.1661  0.1918  0.7013
 1337SOL     OW15646   1.941   2.778   9.366  0.2001  0.1539 -0.3640
 1337SOL    HW115647   1.908   2.800   9.454 -0.7899  0.9979 -0.9464
 1337SOL    HW215648   1.976   2.691   9.386 -0.6630 -0.6251 -2.2705
 1338SOL     OW15649   1.421   1.140   7.878 -0.0127  0.3981 -0.0303
 1338SOL    HW115650   1.495   1.196   7.856 -1.1561  2.2662  0.9267
 1338SOL    HW215651   1.453   1.051   7.863  0.0018  0.2917  0.6162
 1339SOL     OW15652   0.394   1.417   6.949  0.4362  0.1209  0.3943
 1339SOL    HW115653   0.377   1.325   6.925 -0.9859  0.0384  1.7090
 1339SOL    HW215654   0.323   1.452   6.896  1.5849  2.1865  0.2608
 1340SOL     OW15655   0.565   4.172  12.998 -0.7337 -0.5749 -0.5143
 1340SOL    HW115656   0.647   4.156  13.044 -0.2954  0.7919 -0.8258
 1340SOL    HW215657   0.595   4.199  12.911 -1.6190 -0.5033 -0.7949
 1341SOL     OW15658   3.715   1.396   2.622  0.1419  0.1028 -0.5445
 1341SOL    HW115659   3.642   1.457   2.623 -0.4515 -0.6711  1.5738
 1341SOL    HW215660   3.774   1.447   2.677 -0.9641 -0.4707  1.1384
 1342SOL     OW15661   1.486   3.681   5.014  0.2870  0.7542  0.1165
 1342SOL    HW115662   1.564   3.660   5.067 -1.1026  0.9571  2.2289
 1342SOL    HW215663   1.504   3.634   4.933 -0.0643 -0.4060  0.7156
 1343SOL     OW15664   0.136   2.112  13.210  0.0190 -0.4963  0.1409
 1343SOL    HW115665   0.103   2.136  13.296 -2.2323 -0.0511 -0.8380
 1343SOL    HW215666   0.057   2.124  13.157  1.6534  0.7064 -2.0631
 1344SOL     OW15667   2.566   4.154   1.944  0.3288 -0.6161 -0.6419
 1344SOL    HW115668   2.612   4.216   1.887  0.4593  0.7448  0.9418
 1344SOL    HW215669   2.602   4.197   2.022 -2.0118 -0.3632  0.2961
 1345SOL     OW15670   3.262   1.274   9.620  0.0266  0.0085  0.7289
 1345SOL    HW115671   3.356   1.282   9.639  0.3485  1.5602 -1.5775
 1345SOL    HW215672   3.250   1.179   9.620  1.8551 -0.2227  1.5424
 1346SOL     OW15673   2.591   0.686  11.549 -0.1099  0.2304  0.2446
 1346SOL    HW115674   2.609   0.666  11.641  1.7584 -1.8616 -0.5701
 1346SOL    HW215675   2.565   0.777  11.559  4.2337  1.4704  0.3810
 1347SOL     OW15676   1.057   3.309   2.557 -0.3474 -0.6550  0.4797
 1347SOL    HW115677   1.100   3.375   2.612  0.6548 -0.8054 -0.1204
 1347SOL    HW215678   1.097   3.225   2.578 -0.1244 -1.0295 -1.4527
 1348SOL     OW15679   1.951   4.595   4.124 -0.1946  0.4811  0.7032
 1348SOL    HW115680   1.919   4.547   4.047  0.8903  1.3388 -0.2882
 1348SOL    HW215681   1.866   4.621   4.160 -0.3571 -1.1375  1.4583
 1349SOL     OW15682   4.197   2.623   4.343  0.5815 -0.2343 -0.2721
 1349SOL    HW115683   4.286   2.591   4.361 -0.1936 -1.0992  2.0330
 1349SOL    HW215684   4.149   2.613   4.425 -0.2530 -1.8988 -0.9627
 1350SOL     OW15685   3.990   3.491   1.984  0.1174  0.1606  0.7769
 1350SOL    HW115686   4.078   3.507   1.951  0.3513 -2.1896  0.2330
 1350SOL    HW215687   3.943   3.479   1.902  0.1379  0.4014  0.7310
 1351SOL     OW15688   3.508   0.091   3.268  0.5161  0.0310 -0.2921
 1351SOL    HW115689   3.592   0.126   3.299  2.7766 -4.4732 -1.3251
 1351SOL    HW215690   3.519   0.108   3.175 -1.4299  1.9527 -0.1691
 1352SOL     OW15691   0.593   2.812  10.947 -0.2335  0.9388 -0.0690
 1352SOL    HW115692   0.646   2.737  10.972 -0.3819  0.3612 -1.4844
 1352SOL    HW215693   0.531   2.771  10.887  0.0565  0.2791  0.0804
 1353SOL     OW15694   3.092   1.942   1.317  0.4048  0.0795  0.6227
 1353SOL    HW115695   3.011   1.989   1.334  0.9345  1.2647 -0.1455
 1353SOL    HW215696   3.147   1.980   1.386 -0.1881  2.6729 -0.3341
 1354SOL     OW15697   0.186   1.132   4.870 -0.0686 -0.1055 -0.4090
 1354SOL    HW115698   0.173   1.086   4.954 -1.3803  1.3187  0.1622
 1354SOL    HW215699   0.102   1.176   4.860  1.3852  2.9748  1.1823
 1355SOL     OW15700   3.654   3.836   5.285  0.2840  0.1387 -0.2078
 1355SOL    HW115701   3.730   3.791   5.322 -0.5818 -0.2484  1.1086
 1355SOL    HW215702   3.684   3.927   5.282 -0.8417  0.5162  0.0334
 1356SOL     OW15703   4.224   3.947   4.441 -0.1147  0.2104  0.0144
 1356SOL    HW115704   4.130   3.940   4.455 -0.2255 -0.3966 -1.0281
 1356SOL    HW215705   4.240   3.941   4.347 -0.1074 -0.8160  0.0784
 1357SOL     OW15706   2.976   2.173   1.560 -0.6964 -0.3943  0.3238
 1357SOL    HW115707   2.976   2.189   1.466 -2.2121 -0.3913  0.3198
 1357SOL    HW215708   2.926   2.092   1.569  0.9053 -1.3624  0.3274
 1358SOL     OW15709   3.276   0.937   5.559 -0.2968  0.5930  0.3578
 1358SOL    HW115710   3.272   0.842   5.569  1.3798  0.5274  0.3085
 1358SOL    HW215711   3.185   0.966   5.561 -0.8886 -1.0180 -3.2312
 1359SOL     OW15712   1.275   0.332   3.225 -0.6081  0.2329 -0.0964
 1359SOL    HW115713   1.366   0.348   3.201 -0.6196 -1.2510 -1.0798
 1359SOL    HW215714   1.239   0.339   3.136 -0.6567  1.5011  0.0227
 1360SOL     OW15715   2.746   2.890   4.701  0.0094  0.3200 -0.1876
 1360SOL    HW115716   2.700   2.912   4.620  0.3787  0.8504 -0.2559
 1360SOL    HW215717   2.749   2.795   4.687  0.4788  0.1068  1.3379
 1361SOL     OW15718   1.976   1.231   4.064 -0.8006 -0.2387 -0.3512
 1361SOL    HW115719   1.953   1.158   4.007  1.1855 -1.1599  0.0091
 1361SOL    HW215720   2.010   1.180   4.138 -1.2750 -1.7278 -1.1720
 1362SOL     OW15721   4.449   2.748   5.048 -0.2729  0.5547  0.2629
 1362SOL    HW115722   4.535   2.789   5.040  0.3605 -1.0257 -1.0344
 1362SOL    HW215723   4.415   2.759   4.959  1.6192 -0.7947 -0.6134
 1363SOL     OW15724   1.671   4.710  11.996  1.0923  0.4139 -0.1581
 1363SOL    HW115725   1.674   0.062  12.030 -1.0659  0.5798 -0.3952
 1363SOL    HW215726   1.579   4.682  12.002  1.4088  0.1116  3.5518
 1364SOL     OW15727   3.700   1.789   4.274 -0.0722  0.1611  0.0249
 1364SOL    HW115728   3.701   1.693   4.266 -1.5107  0.1343  0.2218
 1364SOL    HW215729   3.775   1.814   4.221  1.9262 -1.7765  1.9050
 1365SOL     OW15730   0.975   1.447   4.170  0.3198 -0.0320  0.2804
 1365SOL    HW115731   0.942   1.476   4.255 -3.3190 -1.7683 -0.5524
 1365SOL    HW215732   1.061   1.415   4.198 -0.2873 -0.6843  1.4044
 1366SOL     OW15733   1.607   2.750   6.032  0.0255 -0.4656 -0.1744
 1366SOL    HW115734   1.688   2.800   6.040 -0.4868  0.5626 -1.4814
 1366SOL    HW215735   1.635   2.669   5.988 -0.5573 -0.3730 -0.7226
 1367SOL     OW15736   0.405   4.660   9.741 -0.2275 -0.1108 -0.0077
 1367SOL    HW115737   0.384   4.736   9.687 -0.1403  0.6376  1.0097
 1367SOL    HW215738   0.499   4.661   9.721 -0.7836  0.5572 -2.4752
 1368SOL     OW15739   2.925   2.005   7.416 -0.3913 -0.2611  0.3134
 1368SOL    HW115740   2.959   2.042   7.335  1.1884 -0.9272  0.6845
 1368SOL    HW215741   2.863   2.076   7.432 -1.0069 -1.0323  1.3348
 1369SOL     OW15742   3.691   3.136   8.773  0.3155 -0.0001  0.6137
 1369SOL    HW115743   3.661   3.223   8.749 -2.0604 -0.9490  0.1390
 1369SOL    HW215744   3.625   3.074   8.742  1.7803 -1.2256 -0.0618
 1370SOL     OW15745   2.661   2.050   4.661  0.2605 -0.0972  0.1059
 1370SOL    HW115746   2.704   2.076   4.580 -1.2344 -0.6418 -0.8537
 1370SOL    HW215747   2.722   1.983   4.695  0.4986  0.1421  0.1491
 1371SOL     OW15748   2.967   1.209   3.935  0.5514  0.6432  0.0094
 1371SOL    HW115749   2.991   1.168   4.018 -0.9371 -0.0520  0.0855
 1371SOL    HW215750   2.914   1.277   3.976  1.7241  0.6092  1.5841
 1372SOL     OW15751   0.616   2.890   7.812 -0.1099 -0.4826 -0.7413
 1372SOL    HW115752   0.605   2.836   7.734  2.0645  1.1504 -2.2016
 1372SOL    HW215753   0.645   2.975   7.778 -0.6835 -0.3376 -0.8654
 1373SOL     OW15754   0.739   3.883   2.532 -0.1651 -0.0488  0.2843
 1373SOL    HW115755   0.681   3.895   2.457  0.7429 -2.1248 -0.7526
 1373SOL    HW215756   0.822   3.891   2.485 -0.4347  1.1807  0.0046
 1374SOL     OW15757   2.895   3.364  14.237 -0.2872 -0.2719 -0.2492
 1374SOL    HW115758   2.969   3.421  14.259  0.7096 -0.9397 -1.8815
 1374SOL    HW215759   2.895   3.350  14.142  5.0183 -0.2702 -0.2604
 1375SOL     OW15760   2.138   0.133   8.998  0.2229 -0.5337 -0.6595
 1375SOL    HW115761   2.100   0.217   8.971 -0.3176 -0.2811  0.8817
 1375SOL    HW215762   2.221   0.175   9.024 -0.1258  0.0586 -0.4973
 1376SOL     OW15763   2.870   3.946   1.939  0.1198  0.5740  0.0382
 1376SOL    HW115764   2.840   3.855   1.950 -0.3214  0.4729 -1.8868
 1376SOL    HW215765   2.822   3.970   1.860 -2.5858 -0.4283  1.3671
 1377SOL     OW15766   1.406   1.250   2.307 -0.4107 -0.7663 -0.4762
 1377SOL    HW115767   1.323   1.296   2.295 -0.7437 -1.0146  0.9212
 1377SOL    HW215768   1.388   1.177   2.366 -0.7293 -2.0417 -2.1585
 1378SOL     OW15769   1.096   0.625   8.941 -0.4181 -0.2657  0.0448
 1378SOL    HW115770   1.027   0.691   8.936 -0.5905 -0.4319  0.2136
 1378SOL    HW215771   1.053   0.560   8.996 -0.8453 -0.1478 -0.1555
 1379SOL     OW15772   3.834   2.896   6.292 -0.0697 -0.2021 -0.6157
 1379SOL    HW115773   3.852   2.967   6.229 -0.7126 -0.8246 -1.5020
 1379SOL    HW215774   3.770   2.929   6.355  1.5417  2.4684 -0.3692
 1380SOL     OW15775   2.100   4.398   7.614 -0.3085  0.1334  0.0352
 1380SOL    HW115776   2.051   4.328   7.570 -0.7390  0.1858  0.4335
 1380SOL    HW215777   2.095   4.370   7.705  0.0445 -1.0180 -0.3080
 1381SOL     OW15778   3.205   4.183   9.789 -0.3049 -0.0211 -0.4296
 1381SOL    HW115779   3.123   4.192   9.838 -1.4760 -0.2647 -2.3621
 1381SOL    HW215780   3.270   4.226   9.845 -0.1684 -1.6093  0.6329
 1382SOL     OW15781   3.512   0.200   2.993 -0.4110  0.7092 -0.3087
 1382SOL    HW115782   3.430   0.247   3.004 -1.2052 -0.2154 -2.1897
 1382SOL    HW215783   3.527   0.197   2.898 -2.4370  2.0217 -0.6618
 1383SOL     OW15784   4.346   4.188   3.694 -0.3341  0.2238 -0.2804
 1383SOL    HW115785   4.269   4.232   3.731 -0.8164 -2.0276  1.4125
 1383SOL    HW215786   4.411   4.219   3.757 -1.2924 -0.0754  0.8774
 1384SOL     OW15787   1.394   0.771   6.596  0.1685 -0.3168  0.5230
 1384SOL    HW115788   1.332   0.820   6.541 -0.6598 -0.2980  1.4768
 1384SOL    HW215789   1.463   0.755   6.532  0.7541 -0.7276  1.2689
 1385SOL     OW15790   4.087   3.003  13.675  0.9805 -0.0292  0.1664
 1385SOL    HW115791   4.157   2.997  13.610 -1.4831 -0.8645 -2.4147
 1385SOL    HW215792   4.008   3.028  13.626  0.9644 -1.5476 -0.6007
 1386SOL     OW15793   3.762   2.752   1.003 -0.4147 -0.2067 -0.0695
 1386SOL    HW115794   3.795   2.842   1.001  0.6313 -0.5854  0.3570
 1386SOL    HW215795   3.790   2.721   1.089  0.4866 -0.9806 -0.6462
 1387SOL     OW15796   1.165   3.335   3.045 -0.4000 -0.2688 -0.7142
 1387SOL    HW115797   1.213   3.274   2.988 -0.6953 -1.5318  0.3773
 1387SOL    HW215798   1.115   3.268   3.092  0.4645  0.6114  1.4584
 1388SOL     OW15799   4.341   0.288   4.102  0.0616  0.5079  0.6297
 1388SOL    HW115800   4.355   0.296   4.007  1.0170 -0.0641  0.7232
 1388SOL    HW215801   4.276   0.353   4.127 -1.4974 -1.7473  2.4527
 1389SOL     OW15802   3.695   3.287  14.000 -0.4043  0.2179  0.1189
 1389SOL    HW115803   3.609   3.259  14.032  0.7009  1.4881  4.2025
 1389SOL    HW215804   3.663   3.342  13.929  0.7269 -0.0812 -0.6238
 1390SOL     OW15805   4.639   2.427   4.808  0.0072  0.2649  0.2884
 1390SOL    HW115806   4.648   2.338   4.773 -0.0360 -0.3031  1.7099
 1390SOL    HW215807   4.545   2.440   4.808 -0.0703 -0.3024  1.3382
 1391SOL     OW15808   0.888   1.722  15.467 -0.3951 -0.1936 -0.0224
 1391SOL    HW115809   0.935   1.685  15.392  4.3604 -0.0066  2.8601
 1391SOL    HW215810   0.842   1.797  15.429  0.3263  0.5744  0.6497
 1392SOL     OW15811   4.623   2.135  14.680 -0.6179 -0.1222 -0.3645
 1392SOL    HW115812   4.706   2.178  14.700  0.9262 -2.7223 -1.1424
 1392SOL    HW215813   4.609   2.152  14.586 -2.9128  1.0175  0.1867
 1393SOL     OW15814   0.786   4.284  12.789  0.6036 -0.3223 -0.2432
 1393SOL    HW115815   0.838   4.224  12.734  1.7654 -0.6295  1.1841
 1393SOL    HW215816   0.856   4.329  12.836 -1.0186  1.4872  0.4524
 1394SOL     OW15817   2.388   0.187   5.437  0.6173 -0.1737  0.4339
 1394SOL    HW115818   2.360   0.185   5.529  1.0293  2.0213  0.6037
 1394SOL    HW215819   2.302   0.188   5.395  2.2247 -1.3722 -2.8369
 1395SOL     OW15820   0.381   4.169   3.826  0.6079  0.4605  0.0772
 1395SOL    HW115821   0.418   4.220   3.898  0.5207  2.8860 -1.6000
 1395SOL    HW215822   0.349   4.089   3.869  1.8108 -0.3253 -0.4636
 1396SOL     OW15823   0.503   0.054   2.318 -0.6346 -0.0608  0.0564
 1396SOL    HW115824   0.532   0.016   2.400 -0.8398  3.0348  1.5377
 1396SOL    HW215825   0.409   0.049   2.338  0.0824 -2.8985  2.5223
 1397SOL     OW15826   2.899   0.762   0.185  0.3772 -0.1945 -0.0034
 1397SOL    HW115827   2.976   0.793   0.137  0.0861  0.2687 -0.1628
 1397SOL    HW215828   2.885   0.683   0.133 -3.1958  0.8707 -0.6199
 1398SOL     OW15829   1.122   1.185   6.584 -0.4477  0.1122  0.0273
 1398SOL    HW115830   1.069   1.263   6.570  0.0754  0.1105 -1.9711
 1398SOL    HW215831   1.192   1.212   6.644  0.8638 -2.1325 -0.4742
 1399SOL     OW15832   4.221   0.294  14.147  0.7749  0.2017  0.0228
 1399SOL    HW115833   4.194   0.343  14.225  4.4328 -0.8972  1.9685
 1399SOL    HW215834   4.131   0.286  14.115  0.8915  0.0710 -0.2700
 1400SOL     OW15835   3.765   1.275  12.400  0.1956 -0.0451 -0.1601
 1400SOL    HW115836   3.826   1.203  12.418  0.9309  1.4208  3.2595
 1400SOL    HW215837   3.758   1.280  12.305  0.2910  0.9110 -0.1162
 1401SOL     OW15838   0.280   4.353   5.682 -0.0804 -0.6023  0.5392
 1401SOL    HW115839   0.347   4.331   5.748  1.0476 -0.7345 -0.6436
 1401SOL    HW215840   0.344   4.349   5.611  0.5968 -2.0589  1.2176
 1402SOL     OW15841   2.950   3.896   7.538 -0.1638 -0.0853 -0.0156
 1402SOL    HW115842   2.884   3.876   7.604  0.1231  1.1821  0.6542
 1402SOL    HW215843   3.022   3.911   7.599  0.4064 -0.7529 -0.5276
 1403SOL     OW15844   2.055   4.550   8.344  0.5109  0.3496  0.4690
 1403SOL    HW115845   2.116   4.553   8.417 -0.9387 -1.2666  1.7463
 1403SOL    HW215846   2.085   4.624   8.292 -0.5689  1.0075  0.7770
 1404SOL     OW15847   0.014   1.493   4.964 -0.3201 -0.7240  0.2947
 1404SOL    HW115848   0.073   1.439   5.019 -0.3231  0.5705  1.5599
 1404SOL    HW215849   4.673   1.438   4.967 -0.2311 -0.8049  1.3033
 1405SOL     OW15850   1.007   2.870   3.905  0.3224  0.8478 -0.0948
 1405SOL    HW115851   0.940   2.809   3.874  1.5613  0.2128 -1.5605
 1405SOL    HW215852   1.051   2.894   3.823 -0.6650  0.3259 -0.7800
 1406SOL     OW15853   1.695   2.229   8.419  0.0637 -0.1948  1.3391
 1406SOL    HW115854   1.781   2.245   8.459  1.6539 -2.9529 -0.9230
 1406SOL    HW215855   1.639   2.259   8.490 -2.1966 -0.6961 -0.2309
 1407SOL     OW15856   1.823   1.407   9.037 -0.3201 -0.2359  0.2675
 1407SOL    HW115857   1.819   1.473   8.968 -1.8687 -1.1542 -0.5234
 1407SOL    HW215858   1.908   1.421   9.079 -0.6808 -0.8700  1.2044
 1408SOL     OW15859   3.464   1.110   5.634  0.3020  0.4950 -0.1582
 1408SOL    HW115860   3.419   1.136   5.714 -0.4671 -2.8040  0.5110
 1408SOL    HW215861   3.397   1.046   5.609  0.3016 -0.4159  2.2035
 1409SOL     OW15862   1.683   0.346   6.541 -0.2447  0.0099  0.1936
 1409SOL    HW115863   1.663   0.405   6.468  1.0226  0.2482  0.0279
 1409SOL    HW215864   1.645   0.392   6.616  1.7785 -0.1176  1.3049
 1410SOL     OW15865   3.588   0.471   8.074  0.0722 -0.3821  0.2224
 1410SOL    HW115866   3.537   0.511   8.145  0.7738  0.9242 -0.0040
 1410SOL    HW215867   3.676   0.460   8.111 -0.7654 -0.3908  2.2066
 1411SOL     OW15868   0.877   2.249   3.421  0.1988 -0.2853  0.4417
 1411SOL    HW115869   0.807   2.296   3.375 -0.0174 -2.6632 -1.6816
 1411SOL    HW215870   0.948   2.253   3.357  1.7789 -0.1595  2.2275
 1412SOL     OW15871   0.239   3.150   3.755 -0.1370  0.3342  0.8682
 1412SOL    HW115872   0.186   3.202   3.815  2.7615  2.4891  1.6108
 1412SOL    HW215873   0.311   3.131   3.816 -0.7198 -1.3473  1.0380
 1413SOL     OW15874   1.115   4.718   7.120  0.0801  0.6798  0.1417
 1413SOL    HW115875   1.207   0.007   7.123  0.5939 -0.9349 -1.2208
 1413SOL    HW215876   1.086   0.051   7.062 -0.3977  0.0153 -0.4221
 1414SOL     OW15877   2.465   3.033   1.858 -0.7313  0.7409  0.5073
 1414SOL    HW115878   2.497   3.098   1.921  0.0498 -0.4383  1.3231
 1414SOL    HW215879   2.471   2.947   1.899 -1.2264 -0.2238 -1.4387
 1415SOL     OW15880   3.712   1.826   5.138 -0.5240 -0.1516  0.3007
 1415SOL    HW115881   3.641   1.887   5.117 -1.4921 -1.1483  0.6935
 1415SOL    HW215882   3.735   1.860   5.225 -1.4717  1.0471  0.0861
 1416SOL     OW15883   4.661   2.003   5.225 -0.0128  0.0854 -0.1481
 1416SOL    HW115884   4.728   1.969   5.284 -0.3627  1.4035  0.9994
 1416SOL    HW215885   4.626   1.927   5.179  3.9101 -2.9457  1.8126
 1417SOL     OW15886   4.458   1.755   8.798 -0.2822  0.3725 -0.1993
 1417SOL    HW115887   4.403   1.733   8.722  2.2020  0.1227 -1.9424
 1417SOL    HW215888   4.389   1.795   8.850 -0.7953 -0.5221 -0.1963
 1418SOL     OW15889   3.673   3.622   4.014 -0.4029 -0.1695 -0.4462
 1418SOL    HW115890   3.681   3.569   3.935 -0.3680  0.0461 -0.5891
 1418SOL    HW215891   3.588   3.665   4.007 -1.1278 -1.4834  0.2996
 1419SOL     OW15892   2.929   4.500   2.426  0.2598 -0.0456  0.1554
 1419SOL    HW115893   2.953   4.472   2.514 -2.0675 -0.5082  0.6355
 1419SOL    HW215894   2.848   4.545   2.449  0.7443  0.8948  0.0402
 1420SOL     OW15895   0.738   4.696   5.239  0.0210 -0.6797 -0.7763
 1420SOL    HW115896   0.654   4.729   5.271  0.4637  0.7530 -1.0968
 1420SOL    HW215897   0.702   4.654   5.160  0.7472 -4.1493  0.7428
 1421SOL     OW15898   3.161   0.834   0.651  0.3036 -0.5185  0.5133
 1421SOL    HW115899   3.247   0.866   0.625  1.1022 -1.5984  1.7861
 1421SOL    HW215900   3.126   0.901   0.710  1.9536  0.0246  0.8922
 1422SOL     OW15901   1.912   0.040   4.704 -0.7700  0.0575  0.5098
 1422SOL    HW115902   1.954   4.692   4.717  0.0958  0.6351  1.6109
 1422SOL    HW215903   1.955   0.089   4.774  1.7853 -2.1014  0.4671
 1423SOL     OW15904   4.561   4.321  11.932 -0.1098  0.2326  0.0300
 1423SOL    HW115905   4.581   4.289  11.844 -0.8680 -2.4524  0.8204
 1423SOL    HW215906   4.487   4.381  11.923  0.2309  0.3547 -1.8402
 1424SOL     OW15907   2.446   1.877   0.676 -0.4802  0.2587  0.3665
 1424SOL    HW115908   2.392   1.846   0.749  0.3191 -1.2114  0.3500
 1424SOL    HW215909   2.490   1.957   0.703  0.3392  0.1756 -0.7404
 1425SOL     OW15910   2.506   1.375   5.024  0.7998  0.2602 -0.1096
 1425SOL    HW115911   2.526   1.449   4.967  1.3452  0.4503  0.3298
 1425SOL    HW215912   2.429   1.351   4.972 -0.2660 -0.4153  1.7896
 1426SOL     OW15913   2.584   2.578   9.185  0.2771  0.0931 -0.0136
 1426SOL    HW115914   2.593   2.483   9.188 -0.7148 -0.1517 -4.3500
 1426SOL    HW215915   2.673   2.609   9.164 -0.2428  1.9668  0.5471
 1427SOL     OW15916   3.185   2.947   4.548 -0.9650 -0.0920 -0.0518
 1427SOL    HW115917   3.252   3.010   4.574  0.4043 -1.2852 -0.6278
 1427SOL    HW215918   3.159   2.909   4.632  0.7526 -1.2626 -0.0258
 1428SOL     OW15919   1.673   3.607   4.378 -0.1803 -0.0771  0.0497
 1428SOL    HW115920   1.654   3.553   4.455 -1.2717  0.6367  0.2860
 1428SOL    HW215921   1.591   3.611   4.327  0.6582  0.9337 -1.2042
 1429SOL     OW15922   3.115   3.649   6.537  0.1127 -0.1626 -0.3362
 1429SOL    HW115923   3.198   3.635   6.493  0.5037  0.8231  0.0903
 1429SOL    HW215924   3.059   3.671   6.462  0.8364  0.2070 -0.7647
 1430SOL     OW15925   0.681   4.281   6.062 -0.2946  0.1115 -0.6044
 1430SOL    HW115926   0.658   4.189   6.048 -0.0287 -0.3381  2.0480
 1430SOL    HW215927   0.628   4.296   6.140  2.8961  0.2527  1.5285
 1431SOL     OW15928   2.809   1.397   6.325 -0.7032 -0.0369  0.9978
 1431SOL    HW115929   2.714   1.389   6.320 -0.7567  1.0055  0.5332
 1431SOL    HW215930   2.833   1.452   6.251  0.1577 -0.6470  0.8197
 1432SOL     OW15931   2.190   2.698   3.652  0.0288  0.3237 -0.3607
 1432SOL    HW115932   2.097   2.678   3.650  0.3309 -1.0041 -1.0094
 1432SOL    HW215933   2.187   2.729   3.743  3.6383 -0.1650 -0.0504
 1433SOL     OW15934   1.912   1.396   1.103  0.4391 -0.3162 -0.6871
 1433SOL    HW115935   1.953   1.313   1.127  1.8503  0.2156 -1.2776
 1433SOL    HW215936   1.848   1.370   1.036 -0.3281  0.1005 -0.1190
 1434SOL     OW15937   1.152   3.785  12.917  0.0551 -0.1079  0.0019
 1434SOL    HW115938   1.177   3.774  12.825 -1.1737  1.3496 -0.5007
 1434SOL    HW215939   1.079   3.845  12.907 -1.5304 -1.9206  0.6001
 1435SOL     OW15940   3.262   2.114   7.557 -0.3974 -0.3294 -0.5085
 1435SOL    HW115941   3.169   2.093   7.560 -0.1768 -1.3703 -0.8910
 1435SOL    HW215942   3.284   2.054   7.486  1.1450  1.5181 -1.6040
 1436SOL     OW15943   0.984   3.755  11.908  0.5044  0.1861  0.2829
 1436SOL    HW115944   1.048   3.742  11.838  0.2365  0.5076 -0.0273
 1436SOL    HW215945   1.009   3.846  11.927  0.3386  0.6573 -1.7453
 1437SOL     OW15946   0.290   0.077   9.529 -0.0832 -0.1234  0.1194
 1437SOL    HW115947   0.219   0.101   9.469 -0.6776 -1.3542  0.3339
 1437SOL    HW215948   0.350   0.152   9.524  1.7386 -1.6437 -0.5158
 1438SOL     OW15949   4.081   3.558   1.232  0.1509 -0.3117  0.2011
 1438SOL    HW115950   3.993   3.529   1.257  0.3492 -1.4314 -0.4473
 1438SOL    HW215951   4.129   3.520   1.305 -1.0299  3.3925  2.9138
 1439SOL     OW15952   1.483   3.766  15.836 -0.2512  0.9817  0.5577
 1439SOL    HW115953   1.401   3.810  15.815  0.0602  1.9028  1.2813
 1439SOL    HW215954   1.543   3.828  15.796  2.1114 -2.0769 -0.6613
 1440SOL     OW15955   2.290   2.059   1.719  0.1557 -0.1133 -0.5013
 1440SOL    HW115956   2.268   2.151   1.732  3.2668  0.5933 -0.2534
 1440SOL    HW215957   2.241   2.011   1.786  1.6520 -0.6280  0.2092
 1441SOL     OW15958   0.723   1.134   6.161 -0.2003 -0.4630 -0.0948
 1441SOL    HW115959   0.803   1.185   6.148  0.2076 -1.2599 -0.7023
 1441SOL    HW215960   0.694   1.142   6.070 -2.9143 -0.3933  0.7626
 1442SOL     OW15961   1.184   0.358   7.492 -0.2553  0.5393  0.4467
 1442SOL    HW115962   1.234   0.345   7.411 -2.8795 -2.4144 -0.6953
 1442SOL    HW215963   1.095   0.358   7.455  0.2073 -0.3805 -0.6606
 1443SOL     OW15964   4.236   0.763  12.423 -0.1603  0.4381 -0.3313
 1443SOL    HW115965   4.221   0.786  12.515 -2.4579  0.2082 -0.6472
 1443SOL    HW215966   4.230   0.851  12.384  0.4943  1.3082  1.5258
 1444SOL     OW15967   3.901   3.884   7.324  0.4173  0.1775 -0.1902
 1444SOL    HW115968   3.835   3.818   7.303 -0.3259  1.1586 -0.9413
 1444SOL    HW215969   3.905   3.873   7.419 -2.9372 -1.1436 -0.2108
 1445SOL     OW15970   2.788   2.102   4.406 -0.2002 -0.3093  0.0823
 1445SOL    HW115971   2.875   2.080   4.439  0.0365  1.1631  0.4371
 1445SOL    HW215972   2.787   2.071   4.316 -1.0992  1.5014 -0.5276
 1446SOL     OW15973   2.754   1.312   4.502  0.4262  0.2433  0.2094
 1446SOL    HW115974   2.773   1.386   4.444  0.3431  2.5651  3.1292
 1446SOL    HW215975   2.690   1.259   4.454  0.0461 -0.3909  1.4359
 1447SOL     OW15976   4.103   4.401   2.544  0.6124  0.2377 -0.2475
 1447SOL    HW115977   4.089   4.351   2.625 -3.5235  0.3702 -0.8465
 1447SOL    HW215978   4.039   4.361   2.484 -0.1594 -1.6605  1.8076
 1448SOL     OW15979   0.913   0.068  14.041  0.1627 -0.2267  0.5232
 1448SOL    HW115980   0.963   4.726  14.061 -1.5198 -2.0449 -2.5631
 1448SOL    HW215981   0.916   0.110  14.127 -0.0387 -0.6938  0.7577
 1449SOL     OW15982   4.706   4.463  15.762 -0.4157 -0.1483  0.0162
 1449SOL    HW115983   0.048   4.429  15.721 -0.8145 -1.4770  0.3581
 1449SOL    HW215984   4.645   4.459  15.688 -0.8796 -1.2104  0.4619
 1450SOL     OW15985   2.283   0.009   8.086 -0.1326 -0.1623  0.0575
 1450SOL    HW115986   2.229   4.701   8.021 -1.2753  2.9173 -1.1059
 1450SOL    HW215987   2.359   0.031   8.032  0.8116  0.3375  1.5782
 1451SOL     OW15988   1.708   0.588   5.425  0.2670  0.2504  0.1989
 1451SOL    HW115989   1.711   0.503   5.470 -0.8640  0.0504 -0.0999
 1451SOL    HW215990   1.801   0.601   5.406  0.5171 -0.6328  0.7968
 1452SOL     OW15991   4.056   4.722   3.749  0.0268  0.1886 -0.7284
 1452SOL    HW115992   4.109   4.654   3.709  0.0736 -0.5699  0.6277
 1452SOL    HW215993   3.981   4.670   3.779 -0.1998  1.1802  0.4143
 1453SOL     OW15994   2.242   1.165   7.028  0.6177 -0.9572 -0.0158
 1453SOL    HW115995   2.203   1.243   6.988  0.8492  0.0802  1.7664
 1453SOL    HW215996   2.303   1.210   7.087  1.4847 -1.4592 -0.5360
 1454SOL     OW15997   1.781   3.777   6.807  0.1208 -0.4233  1.0363
 1454SOL    HW115998   1.751   3.866   6.825  0.9186 -0.1529  1.0318
 1454SOL    HW215999   1.715   3.728   6.855  0.0073 -0.5291  0.7709
 1455SOL     OW16000   1.742   2.993   1.250  0.3018  0.3306  0.0606
 1455SOL    HW116001   1.713   3.008   1.160  0.2889  0.5095  0.0941
 1455SOL    HW216002   1.758   3.084   1.276 -3.0727  0.7942  0.5356
 1456SOL     OW16003   0.936   3.804   5.560  0.4920 -0.2005 -0.7461
 1456SOL    HW116004   0.898   3.861   5.626 -1.7704 -1.7395 -0.7318
 1456SOL    HW216005   0.856   3.756   5.536 -0.5767  0.0637  2.3435
 1457SOL     OW16006   0.805   0.462  11.999  0.1778  0.3948  0.1005
 1457SOL    HW116007   0.790   0.503  11.914 -1.9857  0.4752  0.5154
 1457SOL    HW216008   0.712   0.453  12.017 -0.1387  1.0289 -1.2114
 1458SOL     OW16009   0.791   0.227   2.403  0.3281  0.4735 -0.4827
 1458SOL    HW116010   0.758   0.255   2.317 -0.1731 -1.0551 -0.8001
 1458SOL    HW216011   0.819   0.137   2.383 -1.0254 -0.2197  0.7617
 1459SOL     OW16012   2.246   2.855  12.162 -0.7089 -0.0368  0.4382
 1459SOL    HW116013   2.263   2.945  12.136 -2.9419  0.7061  1.6138
 1459SOL    HW216014   2.245   2.809  12.078 -1.2776  1.4231 -0.3420
 1460SOL     OW16015   2.368   3.148   9.509 -0.3720 -0.0716 -0.2780
 1460SOL    HW116016   2.347   3.219   9.570  0.2432 -0.2401  0.1246
 1460SOL    HW216017   2.334   3.071   9.556  0.7719 -0.4233 -0.0330
 1461SOL     OW16018   3.397   2.528   1.964  0.2213 -0.1168  0.2265
 1461SOL    HW116019   3.422   2.438   1.944 -1.6525 -1.0002  1.8503
 1461SOL    HW216020   3.302   2.518   1.956  0.4404 -0.7763 -1.5319
 1462SOL     OW16021   4.431   3.125   4.686 -0.1128  0.0342 -0.2781
 1462SOL    HW116022   4.466   3.131   4.597  0.2256 -0.4430 -0.1773
 1462SOL    HW216023   4.431   3.030   4.678 -1.2087 -0.1304  1.8322
 1463SOL     OW16024   1.725   1.609   5.940 -0.1255  0.0834  0.2226
 1463SOL    HW116025   1.661   1.571   6.000 -1.4393  2.0246  0.0351
 1463SOL    HW216026   1.681   1.625   5.857  0.4391  0.0386 -0.0842
 1464SOL     OW16027   4.277   4.331   2.806 -0.5022  0.3806  0.8900
 1464SOL    HW116028   4.328   4.405   2.838  0.1076  0.1389  0.4935
 1464SOL    HW216029   4.352   4.272   2.796 -0.7265  0.2894 -0.2455
 1465SOL     OW16030   2.647   3.455  15.060 -0.4337  0.1620  0.2507
 1465SOL    HW116031   2.739   3.444  15.038 -0.3546  2.0843 -0.3838
 1465SOL    HW216032   2.646   3.475  15.154  0.5863  0.3112  0.2226
 1466SOL     OW16033   0.361   0.446   5.548 -0.5112 -0.1367 -0.2165
 1466SOL    HW116034   0.372   0.438   5.453  0.4982 -0.5718 -0.0619
 1466SOL    HW216035   0.448   0.459   5.585 -0.1028  2.1122 -1.9440
 1467SOL     OW16036   4.215   4.039  11.733  0.1304 -0.0762  0.3838
 1467SOL    HW116037   4.238   4.114  11.678  0.0001  0.3687  0.9425
 1467SOL    HW216038   4.175   4.080  11.809 -0.1836  0.3357 -0.0072
 1468SOL     OW16039   4.267   3.528   1.892  0.4464  0.0792 -0.1879
 1468SOL    HW116040   4.349   3.518   1.940  0.8345  0.6784 -0.7228
 1468SOL    HW216041   4.282   3.608   1.842 -0.1385 -0.2524 -0.8948
 1469SOL     OW16042   3.983   3.645  12.046 -0.0187 -0.5905  0.2915
 1469SOL    HW116043   4.001   3.581  11.977 -1.1148 -0.6778  0.0828
 1469SOL    HW216044   4.059   3.703  12.058  1.4048 -2.4843  0.4252
 1470SOL     OW16045   0.504   3.807   6.859  0.2495  0.5405  0.1931
 1470SOL    HW116046   0.591   3.770   6.874 -0.5538 -0.9820  1.0750
 1470SOL    HW216047   0.500   3.806   6.763 -2.5627 -0.5555  0.3173
 1471SOL     OW16048   2.135   2.281  13.408 -0.5623 -0.3200 -0.3364
 1471SOL    HW116049   2.072   2.340  13.448  0.5355  0.1900  0.6596
 1471SOL    HW216050   2.202   2.267  13.476 -1.0557 -0.2445  0.1644
 1472SOL     OW16051   3.729   2.657   8.474 -0.4003  0.2579  0.0949
 1472SOL    HW116052   3.660   2.665   8.409 -0.3361  0.0861  0.0032
 1472SOL    HW216053   3.749   2.746   8.503 -1.5780  0.4137  0.3979
 1473SOL     OW16054   3.851   0.411   8.203 -0.1752  0.2069 -0.1198
 1473SOL    HW116055   3.872   0.326   8.242  0.6442  0.7197  0.5731
 1473SOL    HW216056   3.934   0.454   8.226 -0.4111  0.3646  0.4291
 1474SOL     OW16057   3.855   3.141   3.616  0.1891  0.1600 -0.3379
 1474SOL    HW116058   3.854   3.046   3.611  1.6544  0.2545 -2.6520
 1474SOL    HW216059   3.785   3.167   3.676  2.2294 -1.3984  2.7347
 1475SOL     OW16060   3.252   2.135   6.574 -0.0939 -0.3967 -0.3600
 1475SOL    HW116061   3.162   2.137   6.607  1.3668 -0.8701  3.6623
 1475SOL    HW216062   3.287   2.171   6.656  2.0028 -0.2341 -1.3186
 1476SOL     OW16063   3.957   1.714  13.593  0.0590 -0.6257 -0.2575
 1476SOL    HW116064   4.011   1.695  13.517 -0.2459 -0.6541 -0.4697
 1476SOL    HW216065   4.014   1.674  13.657 -1.7635 -0.1336  1.6768
 1477SOL     OW16066   2.559   1.168   2.527  0.8609 -0.8853  0.3800
 1477SOL    HW116067   2.569   1.244   2.469  0.6326 -1.7292 -0.7613
 1477SOL    HW216068   2.469   1.182   2.557  0.1810 -0.8789 -1.6202
 1478SOL     OW16069   2.145   0.582  16.417 -0.0270 -0.1573 -0.2140
 1478SOL    HW116070   2.110   0.635  16.489 -0.3415 -2.6532  1.4733
 1478SOL    HW216071   2.196   0.649  16.371 -0.5719  0.8499  0.6488
 1479SOL     OW16072   1.858   2.672   3.096  0.4236 -0.0884 -0.0534
 1479SOL    HW116073   1.875   2.615   3.021  0.6235  1.6874 -1.3523
 1479SOL    HW216074   1.929   2.639   3.151 -0.8223 -0.4154  1.3398
 1480SOL     OW16075   1.649   4.259  11.551  0.1931 -1.2023  0.5695
 1480SOL    HW116076   1.712   4.313  11.504 -1.6809  0.6927  0.2311
 1480SOL    HW216077   1.621   4.205  11.477  1.2030 -0.4379 -0.3585
 1481SOL     OW16078   3.416   4.600   6.793  0.8613  0.0885 -0.5314
 1481SOL    HW116079   3.441   4.676   6.845 -0.9759  0.9396 -0.8970
 1481SOL    HW216080   3.325   4.590   6.819  1.7920  1.1705  3.0493
 1482SOL     OW16081   0.522   2.968   8.320  1.0673 -0.0188  0.1930
 1482SOL    HW116082   0.603   2.919   8.335  1.1806 -0.8541 -2.9945
 1482SOL    HW216083   0.502   2.999   8.408  0.6594  1.0300 -0.2704
 1483SOL     OW16084   3.684   1.480   3.367  0.5144  0.3178  0.7463
 1483SOL    HW116085   3.736   1.402   3.389  0.4357 -0.0070 -0.2313
 1483SOL    HW216086   3.760   1.538   3.367 -0.1305  1.1759 -1.5407
 1484SOL     OW16087   0.089   4.717  14.816 -0.1499 -0.2404  0.4279
 1484SOL    HW116088   0.045   0.027  14.745  0.1178 -1.1524 -0.3546
 1484SOL    HW216089   0.142   4.656  14.764  0.2205  0.1948  0.3030
 1485SOL     OW16090   2.591   3.198   4.886 -0.0406  0.8499  0.1168
 1485SOL    HW116091   2.684   3.183   4.867 -0.5449 -0.1236 -1.5624
 1485SOL    HW216092   2.598   3.241   4.971 -1.3519 -1.3151  1.3163
 1486SOL     OW16093   2.164   0.577   8.438  0.2935 -0.2267 -0.2589
 1486SOL    HW116094   2.222   0.653   8.446 -2.0362  1.4518  0.3895
 1486SOL    HW216095   2.092   0.597   8.497 -0.5706  3.7637 -2.6772
 1487SOL     OW16096   3.358   2.779  16.946  0.4478 -0.4938  0.0301
 1487SOL    HW116097   3.283   2.751  16.893 -0.2240 -1.5171  1.5347
 1487SOL    HW216098   3.379   2.865  16.908 -1.0031  1.3773  3.4391
 1488SOL     OW16099   0.129   0.728   3.129 -0.0739  0.3769  0.6455
 1488SOL    HW116100   0.213   0.767   3.151 -1.1890  2.6345  0.8807
 1488SOL    HW216101   0.095   0.807   3.088 -1.9549 -0.2316  1.0329
 1489SOL     OW16102   2.972   1.741   0.109  0.0314 -0.2365  0.6212
 1489SOL    HW116103   2.917   1.677   0.064 -1.0940 -0.0911  1.8112
 1489SOL    HW216104   3.043   1.751   0.045 -0.8358 -0.0703 -0.2978
 1490SOL     OW16105   3.598   3.386   2.473 -0.3056  0.6128  0.0182
 1490SOL    HW116106   3.601   3.342   2.388 -0.2633  2.2627 -0.8416
 1490SOL    HW216107   3.570   3.313   2.528  2.4677  1.2145  2.1980
 1491SOL     OW16108   0.578   1.690   7.710  0.8588  0.0241 -0.5283
 1491SOL    HW116109   0.636   1.751   7.756  2.5256 -2.5869  0.8434
 1491SOL    HW216110   0.542   1.745   7.641  0.2199  0.2715  0.0014
 1492SOL     OW16111   2.127   3.893   7.578 -0.2050  0.1214 -0.5923
 1492SOL    HW116112   2.041   3.861   7.551  0.3935 -1.1688 -0.9535
 1492SOL    HW216113   2.164   3.924   7.495  1.4931  1.2933  0.5952
 1493SOL     OW16114   1.217   1.745   4.390 -0.7699 -0.2248  0.4267
 1493SOL    HW116115   1.271   1.667   4.381  0.7603  0.7349  1.3757
 1493SOL    HW216116   1.193   1.741   4.482  0.1658  1.2988  0.7413
 1494SOL     OW16117   0.958   1.852   6.489  0.3517 -0.0286 -0.5840
 1494SOL    HW116118   0.962   1.769   6.441  1.4389  0.8243 -2.0016
 1494SOL    HW216119   0.868   1.852   6.520  0.8667 -3.1896  0.8326
 1495SOL     OW16120   1.045   4.662   2.512 -1.0844 -0.3872 -0.6264
 1495SOL    HW116121   1.131   4.680   2.548  0.0800 -4.0386 -1.6006
 1495SOL    HW216122   1.041   4.569   2.488  1.7567 -0.8276  0.6945
 1496SOL     OW16123   3.497   0.113  17.466  0.2070 -0.4055  0.4425
 1496SOL    HW116124   3.437   0.065  17.410 -0.9988  0.7468  0.7441
 1496SOL    HW216125   3.494   0.205  17.439 -2.0324 -0.1467  1.5952
 1497SOL     OW16126   1.341   4.208   3.508 -0.2135 -0.3541  0.0408
 1497SOL    HW116127   1.314   4.297   3.528 -1.5633 -0.8407  0.3723
 1497SOL    HW216128   1.313   4.213   3.416 -0.0656 -0.4332 -0.0088
 1498SOL     OW16129   1.183   3.248   0.059  0.0478  0.4365  0.3400
 1498SOL    HW116130   1.163   3.187  17.735 -0.7792  1.8689 -0.6591
 1498SOL    HW216131   1.265   3.208   0.088  0.4721  1.6216  0.7656
 1499SOL     OW16132   4.257   2.739  12.964 -0.0892 -0.7517 -0.2007
 1499SOL    HW116133   4.258   2.814  12.904 -0.6320 -1.4845 -1.1384
 1499SOL    HW216134   4.285   2.787  13.042 -0.6512 -1.2858  0.3261
 1500SOL     OW16135   4.623   0.187   1.629  0.3358  0.3233  0.4636
 1500SOL    HW116136   4.711   0.152   1.616 -0.1985 -0.7641 -0.1734
 1500SOL    HW216137   4.608   0.174   1.722 -0.9403 -1.5304 -0.0150
 1501SOL     OW16138   2.552   1.094   9.005  0.7176  0.3430 -0.4799
 1501SOL    HW116139   2.472   1.075   9.054 -0.3726  2.7991 -1.3470
 1501SOL    HW216140   2.550   1.185   8.974  1.2838  0.4310 -0.2704
 1502SOL     OW16141   1.480   2.456   3.012  0.1508  0.5141 -0.1595
 1502SOL    HW116142   1.392   2.418   3.018  0.9042 -1.1639  0.0986
 1502SOL    HW216143   1.486   2.500   3.097  3.7310  0.1472 -0.2260
 1503SOL     OW16144   1.050   1.595   5.732  0.2367  0.0977 -0.5307
 1503SOL    HW116145   1.065   1.681   5.770  1.0255 -0.6999  0.9703
 1503SOL    HW216146   0.977   1.554   5.779 -1.4621  3.1768 -0.4750
 1504SOL     OW16147   1.994   3.494  14.208 -0.5768 -0.0624 -0.0356
 1504SOL    HW116148   1.951   3.453  14.134  0.1220  1.2710 -1.1750
 1504SOL    HW216149   1.999   3.581  14.169 -0.4488 -0.5228 -1.0241
 1505SOL     OW16150   1.642   3.283   2.234  0.4644 -0.7541 -0.2992
 1505SOL    HW116151   1.694   3.314   2.307  0.4093 -1.4172  0.0219
 1505SOL    HW216152   1.623   3.194   2.265 -0.0776 -0.4489  0.2503
 1506SOL     OW16153   4.550   0.008   3.947 -0.2139 -1.1378  0.5215
 1506SOL    HW116154   4.593   0.080   3.900  1.1672 -0.8282  2.2490
 1506SOL    HW216155   4.508   4.695   3.878  0.1827 -2.1669  1.0354
 1507SOL     OW16156   0.203   2.648   8.368  0.1105  0.3196  0.5555
 1507SOL    HW116157   0.244   2.733   8.383 -0.5291  0.4145  1.7547
 1507SOL    HW216158   0.283   2.600   8.346 -1.0699 -1.2203 -0.3581
 1508SOL     OW16159   2.573   2.851   5.227  0.3263 -0.4339  0.3808
 1508SOL    HW116160   2.627   2.898   5.164 -0.2943 -0.2878 -0.0503
 1508SOL    HW216161   2.515   2.800   5.170 -0.3480  2.1377 -1.2518
 1509SOL     OW16162   2.713   3.490   4.783 -0.3023 -0.6959  0.3677
 1509SOL    HW116163   2.699   3.534   4.866  0.4622  0.9937 -0.3977
 1509SOL    HW216164   2.706   3.400   4.814 -0.3420 -0.0762  2.1442
 1510SOL     OW16165   0.353   1.105  14.803  0.5354 -0.0029 -0.4864
 1510SOL    HW116166   0.328   1.126  14.713 -1.0391 -1.2679 -0.3557
 1510SOL    HW216167   0.426   1.163  14.823 -0.2490  1.3193 -1.4322
 1511SOL     OW16168   3.138   1.340   2.846  0.1582 -0.1581  0.2773
 1511SOL    HW116169   3.159   1.248   2.863 -0.1031 -0.6530 -2.0396
 1511SOL    HW216170   3.188   1.386   2.913 -0.8524 -0.0486  0.9627
 1512SOL     OW16171   4.362   0.315  17.284  0.0564 -0.2683 -0.5606
 1512SOL    HW116172   4.455   0.337  17.288 -0.1712  0.4913  0.3791
 1512SOL    HW216173   4.319   0.377  17.342  0.0762 -2.8124  2.1252
 1513SOL     OW16174   3.764   2.975  12.176  0.8403 -0.2151  0.1864
 1513SOL    HW116175   3.833   2.997  12.113 -0.2884  0.4004 -0.8399
 1513SOL    HW216176   3.691   3.005  12.122 -0.0000 -0.8978  0.9534
 1514SOL     OW16177   3.002   2.243  15.832  0.2179 -0.2781  0.0584
 1514SOL    HW116178   3.054   2.307  15.881  0.0210 -0.4398  0.4838
 1514SOL    HW216179   2.921   2.245  15.883 -0.6681 -1.7774 -1.2819
 1515SOL     OW16180   1.541   4.723   8.651  0.0421 -0.1877  0.1190
 1515SOL    HW116181   1.477   0.053   8.628 -0.3866 -0.1793  1.3221
 1515SOL    HW216182   1.606   0.025   8.709 -1.4182  2.3804 -0.0091
 1516SOL     OW16183   3.258   1.068   1.171 -0.3438 -0.2511 -0.3150
 1516SOL    HW116184   3.305   1.121   1.106  0.3177 -2.3453 -1.5548
 1516SOL    HW216185   3.313   0.990   1.169 -0.5746 -0.4067 -0.5721
 1517SOL     OW16186   1.133   4.295  10.965 -0.1672 -0.4271 -0.3170
 1517SOL    HW116187   1.173   4.364  11.018  1.4836 -2.0557  0.5629
 1517SOL    HW216188   1.074   4.341  10.905  0.1733  0.6790  0.1902
 1518SOL     OW16189   4.601   0.417  17.357  0.2511 -0.1859  0.4835
 1518SOL    HW116190   4.605   0.512  17.359 -0.1572 -0.1642  0.4416
 1518SOL    HW216191   4.682   0.390  17.398 -0.0457  1.4060  2.0759
 1519SOL     OW16192   4.298   2.120   4.019  0.2243 -0.1551  0.3568
 1519SOL    HW116193   4.264   2.210   4.014 -1.3106 -0.6952  1.1212
 1519SOL    HW216194   4.371   2.137   4.078  0.6388 -1.1178  0.1138
 1520SOL     OW16195   1.050   1.422   3.743  0.4037 -0.1574 -0.4550
 1520SOL    HW116196   1.016   1.359   3.806  1.3624 -0.6977 -0.4669
 1520SOL    HW216197   1.006   1.500   3.774  2.6349  0.8256  0.2661
 1521SOL     OW16198   2.532   0.787   6.794  0.0470  0.3676  0.0040
 1521SOL    HW116199   2.591   0.770   6.867  2.3315 -0.2605 -1.9972
 1521SOL    HW216200   2.474   0.712   6.804  0.2478 -0.1865 -3.1037
 1522SOL     OW16201   2.383   1.363   0.561 -0.3694 -0.3114 -0.3985
 1522SOL    HW116202   2.358   1.360   0.653  2.9759  0.3517  0.5336
 1522SOL    HW216203   2.457   1.423   0.572 -0.3237 -0.2744 -0.9097
 1523SOL     OW16204   1.237   1.123   9.560 -0.5415 -0.7199 -0.3846
 1523SOL    HW116205   1.314   1.173   9.588 -1.3394  0.0295  0.4616
 1523SOL    HW216206   1.166   1.183   9.582 -0.0769  0.3231 -1.7409
 1524SOL     OW16207   3.051   1.044   6.983 -0.8391  0.1523  0.0840
 1524SOL    HW116208   3.068   0.980   6.914  1.5503 -0.0381  0.8373
 1524SOL    HW216209   2.977   1.089   6.943 -0.8015 -0.0472 -0.2021
 1525SOL     OW16210   2.617   0.783  10.907  0.2952 -0.4095  0.1245
 1525SOL    HW116211   2.618   0.696  10.868  2.0678 -0.0854 -0.5172
 1525SOL    HW216212   2.698   0.781  10.958  0.2211  1.9972  0.3398
 1526SOL     OW16213   1.528   0.540   5.771  0.3025  0.0153  0.9261
 1526SOL    HW116214   1.487   0.487   5.839  1.4103 -2.5029 -0.3999
 1526SOL    HW216215   1.562   0.478   5.707 -0.6716 -0.6448  1.0396
 1527SOL     OW16216   2.132   2.542   8.299 -0.4570 -0.0133 -0.3029
 1527SOL    HW116217   2.203   2.560   8.237  0.8532 -0.7197  0.9914
 1527SOL    HW216218   2.169   2.563   8.385  0.9786  0.7266 -1.1058
 1528SOL     OW16219   0.703   1.203   7.167 -0.0606  0.2687  0.1440
 1528SOL    HW116220   0.754   1.220   7.246 -1.6282 -0.4772  1.2955
 1528SOL    HW216221   0.649   1.282   7.158  0.3323  0.5178 -0.0631
 1529SOL     OW16222   3.139   2.848   5.826  1.0282 -0.1017 -0.2167
 1529SOL    HW116223   3.103   2.759   5.822  1.8044 -0.4007 -0.6097
 1529SOL    HW216224   3.108   2.873   5.739  1.6618  3.3393  0.5289
 1530SOL     OW16225   3.512   3.038  12.101 -0.5040 -0.0278 -0.4029
 1530SOL    HW116226   3.498   2.948  12.070 -3.7256 -0.1446  1.2945
 1530SOL    HW216227   3.458   3.088  12.040 -1.9251 -0.9542  0.0792
 1531SOL     OW16228   0.841   0.119   7.845 -0.8114  0.0362 -0.5900
 1531SOL    HW116229   0.877   0.208   7.847  1.2526 -0.8381  0.6520
 1531SOL    HW216230   0.816   0.114   7.938  2.8863  0.2885  0.4045
 1532SOL     OW16231   2.723   3.658  11.127  0.0574  0.2747  0.3870
 1532SOL    HW116232   2.683   3.579  11.163 -0.4482  2.4065  4.4908
 1532SOL    HW216233   2.736   3.702  11.211  1.4287  0.2066  0.2009
 1533SOL     OW16234   4.398   1.782   1.335  0.3576  0.0513 -0.7576
 1533SOL    HW116235   4.481   1.741   1.312  1.6262  1.3511  1.5309
 1533SOL    HW216236   4.347   1.781   1.254 -0.9706  0.0624  0.0747
 1534SOL     OW16237   3.020   3.455   4.140 -0.1479 -0.4272 -0.6522
 1534SOL    HW116238   2.963   3.497   4.076 -0.3017  0.1060 -0.1685
 1534SOL    HW216239   3.102   3.453   4.091 -0.2099  0.4599 -0.7847
 1535SOL     OW16240   0.863   2.256   8.012 -0.1510 -0.7287  0.4243
 1535SOL    HW116241   0.788   2.199   7.996 -0.7662 -0.4555  2.3468
 1535SOL    HW216242   0.917   2.197   8.065  2.6354  1.0110 -0.4923
 1536SOL     OW16243   0.828   0.646  16.341 -0.1841  0.4056  0.1041
 1536SOL    HW116244   0.815   0.556  16.371 -0.7022  1.0756  1.8794
 1536SOL    HW216245   0.924   0.641  16.333 -0.2754 -0.6211 -0.3619
 1537SOL     OW16246   1.271   3.536   5.120  0.1033 -0.0539 -0.3202
 1537SOL    HW116247   1.344   3.586   5.082  0.3106 -0.6920 -0.7730
 1537SOL    HW216248   1.203   3.557   5.056 -0.3860  0.5345  0.3938
 1538SOL     OW16249   3.147   2.358   1.672  0.1223  0.2497 -0.3306
 1538SOL    HW116250   3.075   2.307   1.636  1.1225 -0.8509 -0.7751
 1538SOL    HW216251   3.199   2.292   1.717 -0.0176  1.9116  2.2867
 1539SOL     OW16252   2.080   0.379   0.687 -0.4453  0.0190 -0.4280
 1539SOL    HW116253   2.100   0.418   0.772  0.1526  0.3523 -0.7249
 1539SOL    HW216254   2.037   0.296   0.708 -0.5178  0.0325 -0.5246
 1540SOL     OW16255   2.247   1.710  11.448 -0.1954  0.1397 -0.0259
 1540SOL    HW116256   2.294   1.793  11.455  0.7280 -0.4382  0.6171
 1540SOL    HW216257   2.218   1.707  11.539  0.2331 -0.1468  0.1039
 1541SOL     OW16258   2.601   1.127   4.364  0.6166 -0.3038  0.5729
 1541SOL    HW116259   2.561   1.063   4.423  0.5141 -0.8743 -0.1150
 1541SOL    HW216260   2.528   1.164   4.313  0.8779 -0.9630 -0.2691
 1542SOL     OW16261   3.736   2.350   6.081  0.0900 -0.6372  0.1960
 1542SOL    HW116262   3.752   2.255   6.075  0.3905 -0.5007 -1.2001
 1542SOL    HW216263   3.674   2.374   6.012  3.0777  1.5207 -1.7150
 1543SOL     OW16264   2.293   0.543   5.138  0.6722  0.2382 -0.3976
 1543SOL    HW116265   2.382   0.532   5.172  0.0870 -0.4311  0.9068
 1543SOL    HW216266   2.247   0.461   5.154  1.9740 -0.8859 -2.4951
 1544SOL     OW16267   3.776   3.979   1.682 -0.0052 -0.0377 -0.3382
 1544SOL    HW116268   3.827   4.055   1.654  0.1521 -0.2367 -0.5937
 1544SOL    HW216269   3.813   3.925   1.612 -0.5024 -0.4911 -0.2565
 1545SOL     OW16270   0.333   0.318   6.383 -0.3996  0.9421  0.3733
 1545SOL    HW116271   0.245   0.347   6.409 -1.4287  0.8983 -3.1066
 1545SOL    HW216272   0.351   0.369   6.304  1.1195 -1.7577 -1.0130
 1546SOL     OW16273   0.066   2.309   5.788  0.2606  0.0361 -0.3231
 1546SOL    HW116274   0.117   2.337   5.864 -0.8678  0.1342  0.4087
 1546SOL    HW216275   0.106   2.229   5.754  1.0995  0.5965 -0.6315
 1547SOL     OW16276   0.387   3.953  16.252 -0.5215  0.1496  0.3374
 1547SOL    HW116277   0.460   3.891  16.255  0.7902  1.7291  1.0686
 1547SOL    HW216278   0.422   4.017  16.191 -1.1797  0.0890 -0.0966
 1548SOL     OW16279   2.089   1.875   6.730  0.0763  0.0077 -0.1046
 1548SOL    HW116280   2.073   1.814   6.658  1.6962  0.3992 -0.7993
 1548SOL    HW216281   2.134   1.946   6.684  0.0799  1.2040  1.7562
 1549SOL     OW16282   3.515   0.188   8.331  0.0167  0.5210 -0.2230
 1549SOL    HW116283   3.422   0.209   8.321 -0.2019 -0.2404  0.2156
 1549SOL    HW216284   3.543   0.162   8.243  2.8758 -0.6236  1.0470
 1550SOL     OW16285   2.517   2.966   5.662 -0.3532  0.4770  0.2315
 1550SOL    HW116286   2.597   2.915   5.672  0.4839  1.4181 -1.6522
 1550SOL    HW216287   2.547   3.056   5.671 -1.4853  1.0277 -1.4014
 1551SOL     OW16288   0.092   3.317  11.101  0.2066  0.5344 -0.1289
 1551SOL    HW116289   0.070   3.228  11.072 -0.3275  1.0617 -1.3128
 1551SOL    HW216290   0.049   3.319  11.186  0.5027 -0.4823  0.0453
 1552SOL     OW16291   1.059   1.081   3.366  1.0507  0.2380 -0.1906
 1552SOL    HW116292   1.085   1.007   3.420 -1.9735  0.0307  1.0197
 1552SOL    HW216293   1.102   1.153   3.413 -0.6893  0.9941  0.2568
 1553SOL     OW16294   3.737   0.168   2.470 -0.2398 -0.2545  0.2591
 1553SOL    HW116295   3.688   0.090   2.495 -0.7739  0.7777  2.3932
 1553SOL    HW216296   3.734   0.161   2.374  0.6915  1.7032  0.0814
 1554SOL     OW16297   1.843   4.584   8.533 -0.0938 -0.0577 -0.2293
 1554SOL    HW116298   1.848   4.577   8.628  0.9523 -0.9701 -0.3432
 1554SOL    HW216299   1.917   4.531   8.502 -0.4385  0.0895 -1.3153
 1555SOL     OW16300   2.502   1.657   5.623  0.2716  0.5822  0.2901
 1555SOL    HW116301   2.443   1.635   5.695 -2.4485  1.2640 -1.7311
 1555SOL    HW216302   2.554   1.728   5.660  1.9121 -0.7604  0.5434
 1556SOL     OW16303   1.259   1.121   2.523 -0.2772  0.3970 -0.5300
 1556SOL    HW116304   1.173   1.119   2.481 -0.1169  0.4395 -0.8653
 1556SOL    HW216305   1.257   1.034   2.561  2.5148 -0.8610 -3.2376
 1557SOL     OW16306   0.971   4.269  12.007 -0.9191  0.0279  0.2170
 1557SOL    HW116307   0.938   4.293  12.094  1.7845  2.2389  0.6411
 1557SOL    HW216308   0.991   4.179  12.032 -0.5084 -0.6050 -2.3710
 1558SOL     OW16309   0.804   2.700   6.914 -0.6789 -0.3965  0.2172
 1558SOL    HW116310   0.900   2.700   6.920 -0.8115  2.0447  2.5307
 1558SOL    HW216311   0.795   2.677   6.821 -0.7825  1.8920 -0.3512
 1559SOL     OW16312   1.166   4.022   5.098 -0.7824  0.4238 -0.0003
 1559SOL    HW116313   1.221   4.003   5.022  0.4523 -0.9814  1.2440
 1559SOL    HW216314   1.089   3.974   5.065  0.5441 -1.2754 -0.6309
 1560SOL     OW16315   2.771   0.905   3.702 -0.7420 -0.4452 -0.0797
 1560SOL    HW116316   2.818   0.906   3.786  0.1672 -1.0419 -0.5881
 1560SOL    HW216317   2.783   0.812   3.688  0.7463 -0.0126 -1.5595
 1561SOL     OW16318   2.074   3.943   2.743 -0.3624 -0.1447 -0.4198
 1561SOL    HW116319   2.003   3.927   2.805 -0.7214  1.4378 -0.4070
 1561SOL    HW216320   2.134   3.870   2.760  1.1884  0.3318 -3.9833
 1562SOL     OW16321   2.023   2.541   2.255  0.0538  0.3460  0.5192
 1562SOL    HW116322   2.017   2.556   2.349 -0.8721  2.4725  0.1325
 1562SOL    HW216323   2.014   2.629   2.217 -2.1029  0.2949  0.9202
 1563SOL     OW16324   1.527   0.780   5.350 -0.6260 -0.2060  0.2374
 1563SOL    HW116325   1.489   0.725   5.282  0.4890 -1.9408  1.0358
 1563SOL    HW216326   1.587   0.714   5.384 -0.4653 -0.1758  0.0149
 1564SOL     OW16327   2.050   1.093   9.315  0.2490  0.1597  0.0555
 1564SOL    HW116328   2.080   1.051   9.395 -0.1650  1.2649  0.7848
 1564SOL    HW216329   1.955   1.087   9.320  0.2628 -0.8883 -0.8771
 1565SOL     OW16330   4.182   1.230   5.135  0.1497 -0.0615  0.2269
 1565SOL    HW116331   4.188   1.137   5.155 -0.0887 -0.2006 -0.3495
 1565SOL    HW216332   4.201   1.271   5.220 -1.0022  0.8379  0.0530
 1566SOL     OW16333   4.336   3.095   2.909 -0.6899 -0.2174  0.2468
 1566SOL    HW116334   4.319   3.188   2.897 -0.4861 -0.1465  0.5299
 1566SOL    HW216335   4.431   3.097   2.895 -0.5860  0.5261  1.1074
 1567SOL     OW16336   3.039   4.175   5.224  0.2943 -0.3489 -0.1664
 1567SOL    HW116337   3.066   4.123   5.300  0.0042 -1.7784 -1.0307
 1567SOL    HW216338   3.105   4.161   5.155  1.1994 -3.5605  1.3255
 1568SOL     OW16339   3.963   1.565   7.120  0.5559  0.2890  0.3815
 1568SOL    HW116340   4.048   1.528   7.144 -0.1431 -1.6123 -0.0967
 1568SOL    HW216341   3.910   1.548   7.198 -0.3148 -0.8301 -0.4442
 1569SOL     OW16342   0.880   4.239   0.228 -0.4022 -0.7330 -0.1414
 1569SOL    HW116343   0.955   4.222   0.171 -0.6349 -1.3515 -0.2603
 1569SOL    HW216344   0.824   4.302   0.183  1.2895  0.9096  0.0548
 1570SOL     OW16345   1.419   3.920   3.883  0.1031  0.1544 -0.0354
 1570SOL    HW116346   1.397   3.827   3.884  0.5721  0.0506  0.6984
 1570SOL    HW216347   1.457   3.924   3.971 -0.1678 -1.9678  0.1685
 1571SOL     OW16348   1.009   1.104   9.779  0.1013  0.1546  0.4427
 1571SOL    HW116349   0.967   1.190   9.779  2.3962  1.2666 -1.7621
 1571SOL    HW216350   1.100   1.134   9.788  0.1418  0.4275 -0.9329
 1572SOL     OW16351   4.699   3.519  11.781 -0.5429  0.3838  0.3936
 1572SOL    HW116352   0.041   3.555  11.821 -0.4222 -0.7101  1.1416
 1572SOL    HW216353   4.632   3.532  11.848 -1.1275 -1.1614  0.1136
 1573SOL     OW16354   2.589   1.342   8.888  0.4951 -0.2661  1.0314
 1573SOL    HW116355   2.683   1.327   8.899  0.3931 -0.1236  2.1065
 1573SOL    HW216356   2.580   1.358   8.794  0.1790 -0.5092  1.0198
 1574SOL     OW16357   3.525   1.891   6.026  0.1353 -0.6300 -0.2892
 1574SOL    HW116358   3.533   1.977   6.067  0.0500 -1.1066  0.7076
 1574SOL    HW216359   3.457   1.848   6.078  1.0691 -0.2903  1.2194
 1575SOL     OW16360   3.687   2.991   1.407 -0.1856 -0.3780 -0.4558
 1575SOL    HW116361   3.675   2.941   1.488 -0.7737  0.9915  0.3023
 1575SOL    HW216362   3.708   2.921   1.345  2.1609  0.7855 -0.9496
 1576SOL     OW16363   2.528   2.284  10.609 -0.5415  0.1015 -0.2655
 1576SOL    HW116364   2.606   2.228  10.611  0.5485  1.5883 -1.7296
 1576SOL    HW216365   2.565   2.370  10.624 -0.5127  0.2113 -0.9576
 1577SOL     OW16366   3.009   2.730   1.290  0.5500 -0.1120 -0.6351
 1577SOL    HW116367   3.084   2.673   1.278  0.2276 -0.6450 -0.0981
 1577SOL    HW216368   3.050   2.798   1.343  0.4655  0.1291 -0.8755
 1578SOL     OW16369   1.192   2.751   5.740 -0.7003  0.6909 -0.1367
 1578SOL    HW116370   1.166   2.734   5.650  2.9159 -0.6983 -0.9062
 1578SOL    HW216371   1.108   2.783   5.772 -0.0786  1.8064  0.3953
 1579SOL     OW16372   3.449   1.930   1.005  0.1343 -0.1017  0.0232
 1579SOL    HW116373   3.370   1.981   0.987  0.9013  0.4182 -1.8276
 1579SOL    HW216374   3.503   2.007   1.019 -0.5007  0.8172 -2.5680
 1580SOL     OW16375   0.331   2.227   3.911 -0.1464 -0.4075 -0.3176
 1580SOL    HW116376   0.400   2.279   3.952 -0.4602 -0.2423  0.0022
 1580SOL    HW216377   0.264   2.296   3.911  0.5064  0.2311  1.5665
 1581SOL     OW16378   1.682   0.410   8.492 -0.6294 -0.9550 -0.6503
 1581SOL    HW116379   1.613   0.425   8.427 -1.3388  0.2254  0.3922
 1581SOL    HW216380   1.741   0.474   8.453 -0.4657 -2.0857 -2.2824
 1582SOL     OW16381   1.671   0.734  13.505 -0.2114 -0.3087  0.1719
 1582SOL    HW116382   1.601   0.679  13.470 -0.5249  0.1964 -0.0002
 1582SOL    HW216383   1.684   0.796  13.434  2.5427 -1.1618 -0.0752
 1583SOL     OW16384   4.200   3.416  16.122 -1.0327 -0.2057  0.4728
 1583SOL    HW116385   4.181   3.325  16.100 -2.7845  1.0100 -3.0056
 1583SOL    HW216386   4.293   3.413  16.102 -1.6340 -1.0571 -2.1658
 1584SOL     OW16387   3.091   4.272   6.128  0.1777 -0.8418 -0.1436
 1584SOL    HW116388   2.995   4.267   6.130  0.2376 -2.4514 -1.3854
 1584SOL    HW216389   3.096   4.356   6.173  1.9755 -0.4374 -1.1130
 1585SOL     OW16390   0.885   1.775  14.982 -0.2055 -0.4331 -0.4528
 1585SOL    HW116391   0.910   1.717  15.054 -0.1555  0.4324  0.2310
 1585SOL    HW216392   0.890   1.863  15.020 -1.2101 -0.2770 -0.6730
 1586SOL     OW16393   4.618   0.473   0.529  0.2176  0.3905  0.4417
 1586SOL    HW116394   4.600   0.555   0.484  2.8409  0.9818  0.4898
 1586SOL    HW216395   4.535   0.451   0.572  1.7221  0.2312  3.2785
 1587SOL     OW16396   2.221   0.407   2.143  0.4266  0.5687  0.3793
 1587SOL    HW116397   2.316   0.395   2.141  0.3512 -0.1604  0.7452
 1587SOL    HW216398   2.216   0.490   2.096 -3.2641  0.8209  1.2378
 1588SOL     OW16399   1.702   0.394   3.830  0.6220  0.2045  0.0821
 1588SOL    HW116400   1.663   0.474   3.862 -0.1256  0.0343 -0.3989
 1588SOL    HW216401   1.784   0.436   3.857 -0.1305  0.6154  1.7127
 1589SOL     OW16402   2.510   1.094   0.264 -0.0608 -0.6282  0.0997
 1589SOL    HW116403   2.556   1.010   0.269  0.6403 -0.4163 -2.8971
 1589SOL    HW216404   2.550   1.116   0.180  1.1579  0.8667  1.0785
 1590SOL     OW16405   4.511   3.917   7.839  1.1841  0.2977  0.3378
 1590SOL    HW116406   4.532   3.823   7.844 -0.1458 -0.0929 -1.5227
 1590SOL    HW216407   4.470   3.919   7.925 -0.3645 -0.3189 -0.3901
 1591SOL     OW16408   1.184   4.123  10.029 -0.1156  0.3307  0.1904
 1591SOL    HW116409   1.149   4.040  10.063 -0.9491 -0.5182 -2.8025
 1591SOL    HW216410   1.213   4.170  10.108 -2.3974  0.3108  1.0384
 1592SOL     OW16411   2.683   1.905  14.214  0.2266  0.2035 -0.0852
 1592SOL    HW116412   2.631   1.897  14.294  1.0623  0.3924  0.4655
 1592SOL    HW216413   2.770   1.872  14.237  0.5577  1.1001 -0.0445
 1593SOL     OW16414   2.765   0.505   7.428 -0.0952  0.7846  0.3347
 1593SOL    HW116415   2.844   0.495   7.376  1.2979 -1.8643  2.9000
 1593SOL    HW216416   2.789   0.572   7.492 -1.6581  0.3020  1.4315
 1594SOL     OW16417   4.002   2.991  16.835 -0.1538 -0.5501  0.2961
 1594SOL    HW116418   4.069   2.958  16.776 -1.3636 -1.6592 -0.4273
 1594SOL    HW216419   3.996   2.915  16.893 -0.2192 -0.6614  0.1418
 1595SOL     OW16420   3.820   2.096  16.600 -0.0448 -0.1231 -0.4866
 1595SOL    HW116421   3.885   2.026  16.602 -1.0252 -0.9937  0.8382
 1595SOL    HW216422   3.878   2.167  16.571 -1.8429  0.5552 -2.3788
 1596SOL     OW16423   1.394   2.085   1.833  0.3679 -0.2834 -0.5709
 1596SOL    HW116424   1.381   2.037   1.915 -0.6133  2.7788  1.0766
 1596SOL    HW216425   1.404   2.007   1.779  0.1456 -0.1877 -0.7460
 1597SOL     OW16426   1.591   2.941   4.239 -0.3428  0.3937 -0.2707
 1597SOL    HW116427   1.642   2.959   4.160  0.8490  2.3120  0.9533
 1597SOL    HW216428   1.515   2.999   4.235 -0.3629  0.3890  0.0169
 1598SOL     OW16429   3.760   0.579   2.199  0.0553 -0.4938  0.0190
 1598SOL    HW116430   3.832   0.604   2.257 -0.2101 -0.2682  0.2493
 1598SOL    HW216431   3.802   0.610   2.119 -1.2908 -2.5726 -1.4828
 1599SOL     OW16432   3.715   1.477   9.639  0.2664  0.3807  0.2859
 1599SOL    HW116433   3.646   1.425   9.596 -0.8344  1.3209  0.9047
 1599SOL    HW216434   3.784   1.411   9.647 -0.6738 -0.5072  1.2107
 1600SOL     OW16435   3.359   0.115   0.779  0.0079  0.1205  0.1816
 1600SOL    HW116436   3.446   0.102   0.818 -0.7069 -0.2215  1.6649
 1600SOL    HW216437   3.325   0.030   0.808 -0.8294  0.6675  0.7968
 1601SOL     OW16438   0.545   0.097   5.372  0.7323  0.5763  0.2719
 1601SOL    HW116439   0.482   0.130   5.308  0.8370  0.3709  0.0628
 1601SOL    HW216440   0.496   0.100   5.454 -1.2045  0.6302 -0.8809
 1602SOL     OW16441   1.118   3.663   4.836 -0.3528 -0.7015 -0.6620
 1602SOL    HW116442   1.040   3.654   4.781  0.2615  0.2379 -1.6988
 1602SOL    HW216443   1.179   3.601   4.794 -1.7579 -2.3533 -0.2491
 1603SOL     OW16444   2.515   2.837   2.888 -0.0361 -0.0839 -0.0172
 1603SOL    HW116445   2.539   2.920   2.929  4.2342 -1.2976 -0.0283
 1603SOL    HW216446   2.598   2.788   2.892  0.6439  0.9550 -1.4800
 1604SOL     OW16447   4.725   0.033  17.679 -0.8313  0.4308 -0.0263
 1604SOL    HW116448   4.636   0.056  17.653 -0.7458 -2.0661 -2.5007
 1604SOL    HW216449   0.021   0.117  17.712 -0.2604  0.2702 -0.1994
 1605SOL     OW16450   0.131   4.162   6.213  0.2231  0.0168  0.0118
 1605SOL    HW116451   0.133   4.205   6.298 -1.2204 -0.2057  0.1597
 1605SOL    HW216452   0.067   4.092   6.226  0.5702 -1.4313 -5.8030
 1606SOL     OW16453   0.516   2.660   5.217  0.1679  0.5245  1.1390
 1606SOL    HW116454   0.498   2.614   5.299 -0.1698 -1.0473  0.1743
 1606SOL    HW216455   0.580   2.599   5.181  1.2160  1.6387  1.1142
 1607SOL     OW16456   2.248   0.836   8.969  0.2399 -0.2582 -0.5381
 1607SOL    HW116457   2.271   0.917   9.015  0.8594 -0.2425 -0.8749
 1607SOL    HW216458   2.178   0.860   8.908  0.5377  1.0676 -0.3724
 1608SOL     OW16459   3.570   0.619   5.175  0.0814  0.6598 -0.0320
 1608SOL    HW116460   3.515   0.669   5.234  0.5616  0.8149  0.2891
 1608SOL    HW216461   3.653   0.663   5.193  0.2602  0.4024 -0.2180
 1609SOL     OW16462   3.896   4.007   0.296  0.1547 -0.0780  0.2892
 1609SOL    HW116463   3.970   3.948   0.286  1.2324  1.2655  0.3953
 1609SOL    HW216464   3.954   4.081   0.309 -0.7643  0.4202  1.5060
 1610SOL     OW16465   0.219   2.374  16.402 -0.0398 -0.4484 -0.3500
 1610SOL    HW116466   0.170   2.303  16.445  0.3256  0.7239  2.0118
 1610SOL    HW216467   0.277   2.407  16.470  1.2669  1.1425 -2.2282
 1611SOL     OW16468   1.170   1.689   9.354 -0.3038 -0.0022 -0.3771
 1611SOL    HW116469   1.150   1.735   9.272 -0.2226 -0.6067 -0.7285
 1611SOL    HW216470   1.085   1.648   9.368  0.5934 -1.6617  0.1424
 1612SOL     OW16471   2.551   0.313   9.199 -0.3344  0.3162  0.4589
 1612SOL    HW116472   2.575   0.230   9.241 -0.5198  0.7212  1.3739
 1612SOL    HW216473   2.542   0.362   9.281 -0.3750  2.1774 -0.6672
 1613SOL     OW16474   3.847   2.837   2.882  0.0163  0.0961 -0.3626
 1613SOL    HW116475   3.880   2.920   2.849  0.2879  0.4857  0.8903
 1613SOL    HW216476   3.884   2.829   2.970  0.7947 -1.4624 -0.8337
 1614SOL     OW16477   2.303   3.289   4.958 -0.6582  0.1381 -0.5304
 1614SOL    HW116478   2.294   3.256   5.047 -0.8312  0.7906 -0.3041
 1614SOL    HW216479   2.340   3.214   4.912 -0.4438  0.0164 -0.1554
 1615SOL     OW16480   3.454   2.614   1.439 -0.2894  0.0950 -0.0772
 1615SOL    HW116481   3.519   2.633   1.371  0.8304  1.3233  1.3337
 1615SOL    HW216482   3.503   2.579   1.514 -1.9567 -0.1763  0.8789
 1616SOL     OW16483   2.325   4.013   6.577 -0.2533 -0.6386  0.0770
 1616SOL    HW116484   2.287   3.942   6.629 -1.6271  1.1629  1.5168
 1616SOL    HW216485   2.411   4.027   6.614  0.0303 -0.6165 -0.5866
 1617SOL     OW16486   3.894   3.818   7.982  0.5149  0.2135  0.5363
 1617SOL    HW116487   3.857   3.903   7.957  1.0934  0.4246  0.4084
 1617SOL    HW216488   3.988   3.838   7.986  0.9575 -1.9428  0.9011
 1618SOL     OW16489   3.503   1.421  14.192  1.2077  0.0802  0.3261
 1618SOL    HW116490   3.493   1.514  14.209  1.8792  0.0446  0.9132
 1618SOL    HW216491   3.594   1.397  14.209  0.9898  0.8974  2.5665
 1619SOL     OW16492   2.444   0.240  10.352  0.1848  0.7226 -0.2096
 1619SOL    HW116493   2.419   0.329  10.326  2.8695  1.9710  1.4581
 1619SOL    HW216494   2.462   0.257  10.444 -3.6221  1.6934  0.3894
 1620SOL     OW16495   4.401   2.516   9.184 -0.3936 -0.5444 -0.1141
 1620SOL    HW116496   4.395   2.596   9.236 -2.4022 -1.1159  0.5241
 1620SOL    HW216497   4.492   2.517   9.155 -0.3793  0.2937 -0.0462
 1621SOL     OW16498   3.148   2.816   4.828  0.4511  0.7531 -0.4790
 1621SOL    HW116499   3.092   2.796   4.903 -0.3690  1.0899 -0.9926
 1621SOL    HW216500   3.102   2.752   4.773  1.8241 -0.3645 -0.3151
 1622SOL     OW16501   2.268   3.100   2.259  0.0922  0.3368  0.5746
 1622SOL    HW116502   2.237   3.034   2.197 -1.0277 -1.6633  3.2834
 1622SOL    HW216503   2.361   3.076   2.267  0.7262  2.5313 -0.1681
 1623SOL     OW16504   0.674   2.497   7.025  0.0808  0.0795  0.0743
 1623SOL    HW116505   0.717   2.579   6.998  0.5223 -0.9249 -2.2407
 1623SOL    HW216506   0.743   2.431   7.021  0.8059  0.9130 -1.3876
 1624SOL     OW16507   0.992   3.551   2.154 -0.4341  0.2688 -0.2065
 1624SOL    HW116508   0.981   3.475   2.213 -2.5767 -0.3113 -1.3767
 1624SOL    HW216509   0.931   3.534   2.083 -0.6410  3.8053 -0.8647
 1625SOL     OW16510   2.759   2.604   1.359 -0.4471  0.2498  0.3471
 1625SOL    HW116511   2.791   2.573   1.444 -0.7971 -1.5484 -0.1761
 1625SOL    HW216512   2.831   2.660   1.327  0.8733 -1.0862  0.9640
 1626SOL     OW16513   2.556   0.077   7.985  0.1302 -0.2776 -0.1937
 1626SOL    HW116514   2.648   0.056   7.966  0.0886  0.1018 -0.8266
 1626SOL    HW216515   2.552   0.172   7.980  0.0281 -0.4069 -2.5492
 1627SOL     OW16516   3.113   4.070   8.100 -0.4343  0.3255 -0.0277
 1627SOL    HW116517   3.115   3.998   8.037 -1.4665  0.2807  0.0041
 1627SOL    HW216518   3.112   4.139   8.033 -0.7377  0.5752  0.2369
 1628SOL     OW16519   2.670   4.709   1.362 -0.1873 -0.0066 -0.0557
 1628SOL    HW116520   2.609   4.649   1.404  1.6736 -0.6483  1.7153
 1628SOL    HW216521   2.619   0.013   1.292  0.3534 -2.7814 -2.0585
 1629SOL     OW16522   2.499   3.218   4.362  0.0178 -0.0928  0.5934
 1629SOL    HW116523   2.428   3.259   4.312  0.3970 -0.2700 -0.1013
 1629SOL    HW216524   2.570   3.249   4.305 -0.0428 -0.5065  0.2903
 1630SOL     OW16525   2.432   0.921   6.362 -0.6256  0.1067  0.3273
 1630SOL    HW116526   2.524   0.903   6.383  0.0978  1.8023 -1.3947
 1630SOL    HW216527   2.423   0.921   6.267  0.8547  0.2817  0.1775
 1631SOL     OW16528   0.163   1.590   8.703  0.1437 -0.4439  0.5811
 1631SOL    HW116529   0.106   1.667   8.695 -0.1866 -0.6733  0.7337
 1631SOL    HW216530   0.187   1.591   8.610 -0.8971 -0.5413  0.3071
 1632SOL     OW16531   3.156   3.833   7.945 -0.5833 -0.1024  0.3118
 1632SOL    HW116532   3.245   3.799   7.942 -1.0912 -1.4042 -0.2263
 1632SOL    HW216533   3.104   3.753   7.939  1.1166 -1.2706  1.2690
 1633SOL     OW16534   0.877   2.971   9.127 -0.3045 -0.3372  0.3190
 1633SOL    HW116535   0.816   3.042   9.147  0.9809  1.4688 -2.1891
 1633SOL    HW216536   0.933   2.968   9.204 -0.0794  4.9701  0.3443
 1634SOL     OW16537   2.487   2.762   7.939 -0.5865 -0.0378  0.1923
 1634SOL    HW116538   2.428   2.818   7.888 -3.0794 -1.1965  1.8175
 1634SOL    HW216539   2.525   2.697   7.880 -1.6883  0.1954 -0.7616
 1635SOL     OW16540   0.866   0.140   8.544 -0.0168  0.8206 -0.4309
 1635SOL    HW116541   0.837   0.196   8.616 -3.4546 -1.9540  0.3376
 1635SOL    HW216542   0.938   0.090   8.583 -1.1523 -0.0798  0.5465
 1636SOL     OW16543   4.448   2.833   4.163 -0.1432  0.4357 -0.0145
 1636SOL    HW116544   4.396   2.771   4.214  0.8809 -1.1403 -0.9134
 1636SOL    HW216545   4.385   2.868   4.100  0.8451  1.5447 -0.3973
 1637SOL     OW16546   3.858   4.207   2.066  0.2316 -0.6487 -0.1177
 1637SOL    HW116547   3.924   4.276   2.069 -1.0997  0.5549  1.6325
 1637SOL    HW216548   3.792   4.253   2.015  0.7298 -0.1012 -0.2658
 1638SOL     OW16549   4.074   4.155   8.303 -0.0975  0.2617  0.5592
 1638SOL    HW116550   4.130   4.215   8.254 -0.7849 -1.7057 -2.6252
 1638SOL    HW216551   3.985   4.172   8.272 -0.1698 -0.4878  0.3539
 1639SOL     OW16552   0.368   3.960   7.040 -0.3837 -0.0020  0.4203
 1639SOL    HW116553   0.422   3.918   6.973  2.4137  0.8765  2.1329
 1639SOL    HW216554   0.401   3.911   7.115 -1.6740  0.0929  1.0616
 1640SOL     OW16555   0.014   1.182   9.562 -0.3780  0.0150  0.1560
 1640SOL    HW116556   0.058   1.267   9.565 -0.0218 -0.0672 -2.3291
 1640SOL    HW216557   0.082   1.130   9.519 -0.6773  1.2553 -1.8272
 1641SOL     OW16558   2.436   1.966   7.435  0.3424 -0.4784  0.2843
 1641SOL    HW116559   2.460   1.874   7.426 -1.0232 -0.8963  0.9875
 1641SOL    HW216560   2.346   1.962   7.465 -0.0709  3.1741 -0.4172
 1642SOL     OW16561   2.497   1.027  10.877  0.6927  0.0062 -0.0669
 1642SOL    HW116562   2.540   1.079  10.945 -1.4139 -0.1252  1.3609
 1642SOL    HW216563   2.536   0.940  10.887  2.3802  0.4810 -2.4032
 1643SOL     OW16564   3.188   3.706   5.489 -0.6156 -0.5729  0.2005
 1643SOL    HW116565   3.264   3.660   5.524 -0.7443 -0.5873  0.4677
 1643SOL    HW216566   3.239   3.765   5.434 -0.1307  1.2508  2.6135
 1644SOL     OW16567   2.914   2.628   4.401 -0.3736 -0.8461 -0.1721
 1644SOL    HW116568   2.930   2.554   4.343 -0.8254 -1.6854  0.7759
 1644SOL    HW216569   2.844   2.593   4.456 -1.3065 -0.2014 -0.9637
 1645SOL     OW16570   2.073   2.684   5.607  0.6161  0.1375  0.1073
 1645SOL    HW116571   2.143   2.750   5.612 -1.1765  2.1466 -0.9536
 1645SOL    HW216572   1.992   2.723   5.641  1.7950  2.0664  0.7241
 1646SOL     OW16573   0.825   0.719   5.936 -0.1720  0.1553 -0.7782
 1646SOL    HW116574   0.811   0.811   5.914 -2.8117 -0.6880 -2.6079
 1646SOL    HW216575   0.783   0.713   6.022  1.7277  0.8467  0.1943
 1647SOL     OW16576   1.787   3.684   7.956  0.7200  0.5030 -1.0752
 1647SOL    HW116577   1.879   3.671   7.979  0.7016 -1.1133 -1.9616
 1647SOL    HW216578   1.765   3.602   7.912 -0.8285 -0.0381  0.7326
 1648SOL     OW16579   3.795   0.569  13.316  0.2436 -0.1829 -0.1509
 1648SOL    HW116580   3.759   0.485  13.343  0.7118 -0.2328  0.3287
 1648SOL    HW216581   3.755   0.623  13.384  0.8855  0.0815  0.0184
 1649SOL     OW16582   0.483   4.684   4.849  0.3743 -0.6870  0.0346
 1649SOL    HW116583   0.501   4.723   4.763  0.4969 -1.3154 -0.2297
 1649SOL    HW216584   0.400   4.639   4.832 -0.6285  0.3191  2.2876
 1650SOL     OW16585   3.936   1.068  10.284  0.3135  0.5806  0.3054
 1650SOL    HW116586   3.899   1.059  10.196  2.9286  1.9769 -0.9403
 1650SOL    HW216587   3.892   0.996  10.329 -0.8314  0.1486 -1.4794
 1651SOL     OW16588   4.589   4.616   4.560 -0.1724  0.5186 -0.0236
 1651SOL    HW116589   4.684   4.608   4.554 -0.0321  0.9808  1.6314
 1651SOL    HW216590   4.565   4.562   4.485  0.9741 -0.0191  0.0026
 1652SOL     OW16591   1.341   3.988  12.582  0.6176 -0.4280 -0.1087
 1652SOL    HW116592   1.268   3.929  12.602 -1.3489  2.1547  0.2619
 1652SOL    HW216593   1.377   4.013  12.667 -3.2346  0.4547  1.2679
 1653SOL     OW16594   0.802   4.150   8.434 -0.2520 -0.0773 -0.4305
 1653SOL    HW116595   0.761   4.237   8.439  0.8214  0.3303  1.3110
 1653SOL    HW216596   0.870   4.183   8.493  0.0928  0.5008 -1.1363
 1654SOL     OW16597   2.253   3.084  16.978  0.2569 -0.7060  0.0171
 1654SOL    HW116598   2.276   3.022  17.048 -1.7070 -0.0791  1.1959
 1654SOL    HW216599   2.158   3.091  16.986  0.1572 -0.4265 -1.5273
 1655SOL     OW16600   4.567   0.932  16.942  0.1826 -0.1812 -0.2951
 1655SOL    HW116601   4.528   0.954  17.026  2.4334  1.0749  0.4296
 1655SOL    HW216602   4.636   0.869  16.962  1.2170  0.7185 -1.0223
 1656SOL     OW16603   0.908   1.706   5.067  0.0152  0.8118 -0.4748
 1656SOL    HW116604   0.829   1.653   5.055 -0.5428  1.4685  0.2930
 1656SOL    HW216605   0.882   1.785   5.115  1.1453  0.4993  0.6437
 1657SOL     OW16606   2.910   2.256   9.158  0.0964  0.5914  0.2094
 1657SOL    HW116607   2.828   2.266   9.205  0.4296 -1.4089  1.2188
 1657SOL    HW216608   2.980   2.241   9.222 -0.1931 -0.6431  0.2330
 1658SOL     OW16609   0.571   1.699  10.248 -0.3299 -0.3135 -0.3572
 1658SOL    HW116610   0.645   1.730  10.300 -0.7575  0.4013 -0.1828
 1658SOL    HW216611   0.514   1.662  10.316  0.6904 -0.5017  0.3947
 1659SOL     OW16612   3.892   0.688   7.310 -0.3802 -0.1353 -0.2155
 1659SOL    HW116613   3.867   0.712   7.220 -1.7215  0.0451  0.2110
 1659SOL    HW216614   3.931   0.601   7.302  1.5356  0.7901 -1.2344
 1660SOL     OW16615   2.273   1.155  16.898 -0.5091  0.1833 -0.0190
 1660SOL    HW116616   2.303   1.232  16.946 -0.3765  0.3049 -0.2910
 1660SOL    HW216617   2.184   1.188  16.889  0.6684  3.3677 -0.0479
 1661SOL     OW16618   0.250   3.646  16.384 -0.4436  0.7744  0.3867
 1661SOL    HW116619   0.239   3.719  16.322  0.7609  1.3187  0.8160
 1661SOL    HW216620   0.212   3.576  16.330 -0.3707 -0.2118  1.6305
 1662SOL     OW16621   2.468   0.288  11.813  0.6060  0.0798 -0.5475
 1662SOL    HW116622   2.425   0.325  11.890  0.6485 -0.3655 -0.3096
 1662SOL    HW216623   2.402   0.230  11.778  0.7256  0.4024 -1.3018
 1663SOL     OW16624   3.781   3.534   1.783  0.2381  0.7363  0.0805
 1663SOL    HW116625   3.814   3.451   1.748 -1.8222  0.7687 -1.8916
 1663SOL    HW216626   3.707   3.510   1.838  1.1526  0.8024  1.3478
 1664SOL     OW16627   2.631   1.587  14.920  0.1294  0.2623 -0.8472
 1664SOL    HW116628   2.725   1.576  14.909 -0.0500 -0.2930 -1.8687
 1664SOL    HW216629   2.623   1.575  15.015  2.7585  0.3187 -0.6220
 1665SOL     OW16630   0.516   0.741   6.568  0.3111  0.2418 -0.2297
 1665SOL    HW116631   0.443   0.679   6.562  0.6096  0.1210 -2.7105
 1665SOL    HW216632   0.483   0.819   6.523  0.3417 -0.3364 -1.2640
 1666SOL     OW16633   3.585   1.214   5.402  0.1150  0.1470  0.4098
 1666SOL    HW116634   3.546   1.191   5.486 -0.4168 -0.4572  0.0010
 1666SOL    HW216635   3.676   1.188   5.415  0.0344 -1.2541 -1.7284
 1667SOL     OW16636   4.200   0.644   6.681 -0.2590 -0.0369 -0.1114
 1667SOL    HW116637   4.188   0.580   6.752 -0.9114 -3.1964 -3.0933
 1667SOL    HW216638   4.206   0.588   6.604  1.9645 -2.2859  1.7090
 1668SOL     OW16639   1.736   3.567   5.022  0.4080 -0.0743 -0.1721
 1668SOL    HW116640   1.791   3.544   5.096 -0.8525 -0.3047  0.6898
 1668SOL    HW216641   1.795   3.550   4.948 -0.8563 -0.9250 -0.9744
 1669SOL     OW16642   4.027   0.992   8.059  0.0195 -0.2417  0.0978
 1669SOL    HW116643   3.996   0.982   8.149  2.4547 -2.3232  0.6899
 1669SOL    HW216644   4.115   1.023   8.079  0.5294 -2.3512  1.0898
 1670SOL     OW16645   4.204   1.660  12.635 -0.1709  0.3851 -0.2322
 1670SOL    HW116646   4.229   1.602  12.707  1.6455 -0.5030 -1.5757
 1670SOL    HW216647   4.288   1.703  12.617  0.6100 -1.4350 -0.9663
 1671SOL     OW16648   3.884   3.996   5.913 -0.5305 -0.4081 -0.6007
 1671SOL    HW116649   3.794   4.025   5.898 -0.4918  0.0381  0.0533
 1671SOL    HW216650   3.907   4.018   6.004 -0.8429  0.7991 -0.8162
 1672SOL     OW16651   1.410   1.200  17.543 -0.2246 -0.1892  0.4251
 1672SOL    HW116652   1.390   1.142  17.617  0.7613  0.9476  1.5715
 1672SOL    HW216653   1.338   1.263  17.545  0.6353  0.8123 -0.1486
 1673SOL     OW16654   2.848   2.650   7.886  0.5822 -0.4743 -0.0296
 1673SOL    HW116655   2.897   2.732   7.895  2.5891 -1.5799 -1.1865
 1673SOL    HW216656   2.881   2.626   7.800 -0.4927 -2.4244  0.1029
 1674SOL     OW16657   2.610   2.958  17.727 -0.1201 -0.6604  0.3135
 1674SOL    HW116658   2.641   2.869  17.739  0.3293 -0.4247  0.8867
 1674SOL    HW216659   2.687   3.007   0.011 -1.9970  1.0465  2.2790
 1675SOL     OW16660   2.989   2.433   7.207 -0.0591  0.2468 -0.2185
 1675SOL    HW116661   2.962   2.454   7.118  0.5433 -0.0014 -0.4618
 1675SOL    HW216662   3.012   2.342   7.191 -2.1680 -0.1556 -0.9639
 1676SOL     OW16663   2.962   1.058   0.324  0.7858  0.1646  0.0955
 1676SOL    HW116664   3.043   1.025   0.284 -0.3790 -3.1013  0.4708
 1676SOL    HW216665   2.989   1.150   0.316 -0.4924  0.6796  1.8247
 1677SOL     OW16666   0.513   3.106  15.745  0.2956  0.2756  0.6641
 1677SOL    HW116667   0.420   3.094  15.762  0.3665 -1.9908 -0.5338
 1677SOL    HW216668   0.508   3.140  15.656 -1.0577  2.5646  1.6383
 1678SOL     OW16669   1.561   1.888  15.339 -0.0271  0.1692  0.1624
 1678SOL    HW116670   1.491   1.940  15.379 -1.8114 -1.8419 -0.2975
 1678SOL    HW216671   1.584   1.936  15.259  0.2261  0.6011  0.4967
 1679SOL     OW16672   2.968   4.069  16.841  0.0454 -0.6658  0.1915
 1679SOL    HW116673   3.052   4.111  16.820 -0.9208 -1.0281 -4.4159
 1679SOL    HW216674   2.994   3.980  16.820 -3.3319 -2.0044  1.7256
 1680SOL     OW16675   4.484   4.255   9.426  0.2215  0.3890 -0.6238
 1680SOL    HW116676   4.577   4.236   9.408 -0.0936  0.0736 -1.9251
 1680SOL    HW216677   4.451   4.274   9.338  1.1999  0.3641 -0.9973
 1681SOL     OW16678   0.428   2.153  14.575  0.7446 -0.4037  0.1192
 1681SOL    HW116679   0.471   2.128  14.493  0.2236  0.2922 -0.3611
 1681SOL    HW216680   0.347   2.192  14.544 -0.3139 -2.1085  0.7755
 1682SOL     OW16681   4.007   1.942   4.602 -0.3636  0.4061 -0.2261
 1682SOL    HW116682   4.026   1.946   4.508  0.9882 -1.0399 -0.0200
 1682SOL    HW216683   3.970   1.854   4.610  0.3251  0.0064 -1.4146
 1683SOL     OW16684   3.082   4.544  13.567  0.5778  0.4085 -0.3375
 1683SOL    HW116685   3.140   4.501  13.504  0.4198 -1.1620  0.5937
 1683SOL    HW216686   3.144   4.550  13.640 -0.4768 -3.0131  0.8164
 1684SOL     OW16687   4.498   0.399   6.549 -0.6098  0.5579 -0.2492
 1684SOL    HW116688   4.457   0.313   6.542  0.7475 -0.1789  0.8098
 1684SOL    HW216689   4.560   0.384   6.621  0.7459 -0.1217 -1.5531
 1685SOL     OW16690   1.425   1.114   5.160  0.0292 -0.0915  0.2310
 1685SOL    HW116691   1.428   1.176   5.233 -0.0389  1.2308 -0.8918
 1685SOL    HW216692   1.392   1.034   5.202 -0.0291 -0.5058 -0.5913
 1686SOL     OW16693   0.827   0.273  13.288 -0.0849 -0.1455 -0.7127
 1686SOL    HW116694   0.781   0.199  13.327  1.2523 -0.8859 -0.5526
 1686SOL    HW216695   0.783   0.347  13.330  0.3538 -0.1622 -0.2250
 1687SOL     OW16696   2.152   2.969   4.287 -0.2168  0.2842 -0.4624
 1687SOL    HW116697   2.074   2.935   4.242  1.3752 -0.9787 -2.3035
 1687SOL    HW216698   2.133   2.948   4.378 -1.5097  0.7235 -0.6329
 1688SOL     OW16699   1.417   3.767   1.459  0.5232  0.0074 -0.0257
 1688SOL    HW116700   1.467   3.689   1.484  0.5255 -0.9707 -3.1384
 1688SOL    HW216701   1.406   3.805   1.546 -1.2222  2.7478 -1.4530
 1689SOL     OW16702   4.366   4.365   0.402  0.1696 -0.6831 -0.3359
 1689SOL    HW116703   4.401   4.440   0.449 -1.0849 -0.7808  0.7260
 1689SOL    HW216704   4.323   4.400   0.324 -0.7748 -1.6525 -0.2507
 1690SOL     OW16705   4.076   0.789   3.081 -0.3430 -0.2383 -0.3009
 1690SOL    HW116706   4.020   0.713   3.098 -0.5507  0.1196  0.5949
 1690SOL    HW216707   4.027   0.860   3.123 -0.0078  1.6065 -3.0689
 1691SOL     OW16708   1.019   4.361   1.401  0.6337 -0.0398  0.7460
 1691SOL    HW116709   0.975   4.281   1.428  0.7250 -0.0121  0.9756
 1691SOL    HW216710   0.947   4.396   1.349  0.1393  0.4502  1.7404
 1692SOL     OW16711   2.623   0.222   3.240 -0.2574  0.0891 -0.4561
 1692SOL    HW116712   2.627   0.130   3.267  0.6226  0.4287  0.5557
 1692SOL    HW216713   2.663   0.266   3.315  1.1104  1.4496 -1.9945
 1693SOL     OW16714   2.540   1.737  12.558  0.1336 -0.2846  0.3908
 1693SOL    HW116715   2.488   1.692  12.491  2.9580 -3.3766  0.2733
 1693SOL    HW216716   2.482   1.765  12.628 -0.3577 -0.7634  0.1712
 1694SOL     OW16717   1.974   2.790   1.602 -0.5052  0.0380 -0.7568
 1694SOL    HW116718   2.057   2.837   1.610  0.5510 -1.9427 -0.1834
 1694SOL    HW216719   1.915   2.849   1.651 -0.9676 -1.4066  0.4318
 1695SOL     OW16720   2.931   1.800   1.134  0.0321 -0.1035 -0.5568
 1695SOL    HW116721   2.948   1.711   1.166 -3.1411 -0.3893  0.3562
 1695SOL    HW216722   2.980   1.837   1.207 -1.1896  0.9174 -0.2616
 1696SOL     OW16723   1.517   4.641   5.573  0.4634  0.4745 -0.4415
 1696SOL    HW116724   1.497   4.553   5.540  0.1506  1.7190 -3.4987
 1696SOL    HW216725   1.485   4.635   5.663  3.7733  1.4850  0.8069
 1697SOL     OW16726   4.078   2.727  14.663 -0.5700 -0.0950 -0.2573
 1697SOL    HW116727   4.029   2.809  14.657  1.7898  1.3413  0.2707
 1697SOL    HW216728   4.160   2.761  14.628 -1.0160 -0.7039 -1.9328
 1698SOL     OW16729   1.426   1.547   3.573 -0.6266  0.3675  0.4157
 1698SOL    HW116730   1.369   1.623   3.589 -0.5067  0.5467 -0.0249
 1698SOL    HW216731   1.380   1.510   3.498 -2.4448  0.5468  1.4255
 1699SOL     OW16732   2.864   1.775   2.396  0.1822  0.7435  0.2046
 1699SOL    HW116733   2.950   1.811   2.418  1.2412 -2.0439  0.5701
 1699SOL    HW216734   2.828   1.851   2.350 -1.1064 -1.1317 -1.8492
 1700SOL     OW16735   0.363   0.288   7.136  0.1873 -0.2630 -0.3162
 1700SOL    HW116736   0.359   0.349   7.063  1.9031  1.3453  0.9378
 1700SOL    HW216737   0.312   0.335   7.203  1.7905  3.8295 -1.9733
 1701SOL     OW16738   3.950   2.298   4.076 -0.4095  0.4451  0.1182
 1701SOL    HW116739   3.966   2.378   4.126 -0.4629 -0.1118  1.0287
 1701SOL    HW216740   3.989   2.328   3.994 -1.3102  0.3927 -0.3335
 1702SOL     OW16741   4.157   4.225   5.230 -0.3151 -0.1836  0.3981
 1702SOL    HW116742   4.205   4.284   5.172 -0.4515  0.5745  1.0683
 1702SOL    HW216743   4.216   4.217   5.305 -0.8485 -0.7291  0.7655
 1703SOL     OW16744   3.933   0.172   7.348 -0.0434 -0.2144  0.3284
 1703SOL    HW116745   3.891   0.157   7.433  1.5042 -0.3110  1.0670
 1703SOL    HW216746   3.996   0.102   7.338  0.2590  0.4567 -2.4573
 1704SOL     OW16747   0.756   4.543  13.528  0.3894  0.0739 -0.1816
 1704SOL    HW116748   0.805   4.505  13.601 -0.7609 -1.9253 -0.4378
 1704SOL    HW216749   0.771   4.482  13.456 -2.3181  1.8873 -2.2850
 1705SOL     OW16750   0.078   1.672   9.758  0.3703 -0.0440  0.0152
 1705SOL    HW116751   0.002   1.730   9.751  1.4907  1.2349 -1.5932
 1705SOL    HW216752   0.060   1.635   9.845 -1.3618 -1.8791 -1.1359
 1706SOL     OW16753   0.089   4.654   3.723  0.7546  0.6251 -0.0317
 1706SOL    HW116754   0.166   4.705   3.748  1.1552  0.1516 -0.2915
 1706SOL    HW216755   0.035   4.667   3.801  0.2601  0.7130 -0.3900
 1707SOL     OW16756   2.493   0.853   7.747 -0.5661 -0.0038 -0.2920
 1707SOL    HW116757   2.556   0.833   7.815 -1.4987 -0.4469  0.4469
 1707SOL    HW216758   2.534   0.833   7.662  0.4362 -0.2325  0.2470
 1708SOL     OW16759   2.352   4.018   4.161  0.0217 -0.2853 -0.7162
 1708SOL    HW116760   2.393   4.104   4.148 -3.1408  1.0744 -1.7108
 1708SOL    HW216761   2.358   4.003   4.255 -0.5004 -1.1748 -0.8226
 1709SOL     OW16762   0.712   3.349   3.926  0.2273  0.5155  0.0897
 1709SOL    HW116763   0.728   3.323   3.835  1.8032 -2.3920  1.2293
 1709SOL    HW216764   0.774   3.296   3.974 -1.6567 -0.3088  1.6267
 1710SOL     OW16765   2.257   4.406   4.319  0.1537  0.7503 -0.0019
 1710SOL    HW116766   2.250   4.481   4.379 -1.1446  1.6110 -1.2544
 1710SOL    HW216767   2.178   4.357   4.343  0.0734  2.1105  2.5661
 1711SOL     OW16768   1.861   2.715   6.497 -0.2026  0.3622  0.1684
 1711SOL    HW116769   1.806   2.790   6.472  1.4023  1.2372 -0.7194
 1711SOL    HW216770   1.791   2.658   6.529  1.2405 -2.2366 -1.3021
 1712SOL     OW16771   0.342   0.935   6.812  0.6241 -0.1201 -0.2625
 1712SOL    HW116772   0.412   1.000   6.812 -0.0252  0.6089 -1.5061
 1712SOL    HW216773   0.381   0.855   6.845 -0.4719 -0.1924  0.8348
 1713SOL     OW16774   3.014   4.031   4.817  0.3628  0.0116 -0.6818
 1713SOL    HW116775   3.054   4.115   4.843  2.3574 -0.9827 -0.5608
 1713SOL    HW216776   2.922   4.055   4.809  0.3529  0.0355 -0.5056
 1714SOL     OW16777   1.536   0.081   6.148 -0.4041 -0.0246  0.0628
 1714SOL    HW116778   1.629   0.098   6.162 -0.5879  0.1757  1.0443
 1714SOL    HW216779   1.538   0.023   6.072  1.9038 -1.0048  0.8743
 1715SOL     OW16780   1.900   1.776  16.424  0.1139  0.5135  0.6785
 1715SOL    HW116781   1.887   1.798  16.516 -2.9158 -0.7493  0.5566
 1715SOL    HW216782   1.973   1.836  16.410 -0.4938  0.8628 -0.9622
 1716SOL     OW16783   0.037   0.196   5.109 -0.3104 -0.2674  0.1841
 1716SOL    HW116784   0.042   0.292   5.113  0.0102 -0.2002 -1.8871
 1716SOL    HW216785   4.719   0.187   5.032 -3.8058 -0.4158  2.6845
 1717SOL     OW16786   1.045   3.019   7.914 -0.3182  0.1582 -0.2437
 1717SOL    HW116787   1.112   2.957   7.885  1.0988  1.1679  0.8948
 1717SOL    HW216788   1.103   3.095   7.918 -0.2876  0.2000 -1.4298
 1718SOL     OW16789   1.061   0.536   5.754 -0.1370  0.2729  0.4443
 1718SOL    HW116790   0.968   0.544   5.732  0.5502 -1.2340 -3.0845
 1718SOL    HW216791   1.100   0.600   5.695 -1.2108  1.0831  0.6037
 1719SOL     OW16792   1.581   2.562   8.841  0.7031  0.7704 -0.2262
 1719SOL    HW116793   1.541   2.644   8.813  1.2368  0.7658 -1.0180
 1719SOL    HW216794   1.648   2.586   8.906 -1.1130 -2.1138  2.6705
 1720SOL     OW16795   0.471   0.423  10.607 -0.0560 -0.0015 -0.4353
 1720SOL    HW116796   0.556   0.423  10.651  0.4991  0.2638 -1.5209
 1720SOL    HW216797   0.410   0.383  10.668  0.9098  0.2862  0.7258
 1721SOL     OW16798   1.633   0.496   6.311  0.2074  0.8204  0.2758
 1721SOL    HW116799   1.689   0.502   6.233  1.7185 -0.7911  1.2352
 1721SOL    HW216800   1.608   0.586   6.333 -1.6782  0.3734 -0.0445
 1722SOL     OW16801   2.155   3.152   2.516 -0.5292 -0.0424  0.3929
 1722SOL    HW116802   2.155   3.159   2.421 -2.2911 -1.4206  0.2794
 1722SOL    HW216803   2.157   3.056   2.515  0.3881 -0.0510  2.1743
 1723SOL     OW16804   0.035   0.245  11.886  0.4260 -0.3802 -0.0154
 1723SOL    HW116805   4.721   0.216  11.811 -0.2987  0.0807  0.2913
 1723SOL    HW216806   0.072   0.159  11.902  1.8751  0.3795  0.7080
 1724SOL     OW16807   1.271   1.934   6.586 -0.3104 -0.8144  0.5506
 1724SOL    HW116808   1.321   1.880   6.648  0.7301  1.4061  1.6336
 1724SOL    HW216809   1.231   1.861   6.538  2.0378 -2.0085  0.4363
 1725SOL     OW16810   3.955   4.163   4.618  0.1636 -0.2190 -0.4196
 1725SOL    HW116811   3.972   4.083   4.568 -0.2201  0.9742 -2.4908
 1725SOL    HW216812   3.962   4.231   4.550 -2.2323 -1.2403 -1.7142
 1726SOL     OW16813   3.372   3.477  11.089  0.1859 -0.2639 -0.5412
 1726SOL    HW116814   3.417   3.435  11.015 -0.9336 -0.1563 -1.2902
 1726SOL    HW216815   3.391   3.404  11.147 -1.6074  0.9969  1.6331
 1727SOL     OW16816   3.489   3.871   5.638 -0.3299  0.0463 -0.4647
 1727SOL    HW116817   3.427   3.943   5.649 -0.6613 -0.3922  0.5343
 1727SOL    HW216818   3.471   3.840   5.549 -1.5471 -0.0214 -0.1876
 1728SOL     OW16819   1.310   3.810   5.280  0.4224 -0.1204 -0.3422
 1728SOL    HW116820   1.246   3.881   5.285  1.9378  0.9747  3.4505
 1728SOL    HW216821   1.250   3.749   5.237  0.6720  0.3050 -1.3168
 1729SOL     OW16822   0.894   4.661   3.678 -0.2605 -0.0231  0.1390
 1729SOL    HW116823   0.829   4.696   3.617  0.8771 -0.1692 -1.1540
 1729SOL    HW216824   0.927   0.011   3.701 -1.3497  0.4598 -0.0999
 1730SOL     OW16825   3.166   3.731   6.225  0.0505 -0.1869  0.3669
 1730SOL    HW116826   3.241   3.776   6.265 -0.3056 -1.3775  2.3444
 1730SOL    HW216827   3.123   3.806   6.184 -1.3249 -0.2957  1.6249
 1731SOL     OW16828   4.336   1.079   4.468 -0.4762  0.2793  0.4866
 1731SOL    HW116829   4.243   1.095   4.485 -0.9448  0.6376 -2.3273
 1731SOL    HW216830   4.370   1.169   4.467 -0.4393  0.2697  0.8059
 1732SOL     OW16831   1.265   1.949  16.996 -0.0868 -0.3046 -0.2173
 1732SOL    HW116832   1.201   1.878  17.001 -1.5502  1.1449  1.5635
 1732SOL    HW216833   1.234   2.005  17.068  0.4023 -0.1176 -0.1566
 1733SOL     OW16834   3.182   3.310   5.878  0.4010 -0.2385 -0.1146
 1733SOL    HW116835   3.161   3.230   5.926  2.6936  0.0726  1.3940
 1733SOL    HW216836   3.271   3.327   5.909  0.1696  0.7954 -0.0030
 1734SOL     OW16837   0.471   0.064  10.347  0.1952 -0.2049  0.3054
 1734SOL    HW116838   0.545   0.124  10.357 -0.0893  0.0230  1.0863
 1734SOL    HW216839   0.426   0.074  10.431 -2.0392  3.1855 -1.2772
 1735SOL     OW16840   1.257   4.149   4.022  0.3552 -0.5430  0.3617
 1735SOL    HW116841   1.201   4.071   4.021 -0.0074 -0.2940  1.1084
 1735SOL    HW216842   1.337   4.107   3.991  0.6448  0.2259  0.0727
 1736SOL     OW16843   1.060   0.301   5.512 -0.0990  0.1572 -0.0784
 1736SOL    HW116844   1.082   0.250   5.591  1.0689  4.5188  2.3951
 1736SOL    HW216845   1.033   0.234   5.449  2.0728 -1.4426  0.6942
 1737SOL     OW16846   0.368   3.574   6.998 -0.1301 -0.0748  0.2579
 1737SOL    HW116847   0.383   3.662   6.965  0.7024 -0.2110  0.2798
 1737SOL    HW216848   0.441   3.554   7.057  1.5649  2.4506 -0.9797
 1738SOL     OW16849   1.882   4.099   8.024  0.3150  0.1259  0.1056
 1738SOL    HW116850   1.845   4.071   7.940  1.5698 -0.0460 -0.4028
 1738SOL    HW216851   1.802   4.090   8.075 -0.5610 -0.2572 -1.3231
 1739SOL     OW16852   1.547   3.914   5.982 -0.2424  0.1641 -0.0424
 1739SOL    HW116853   1.459   3.910   5.946 -0.4428 -2.7505  0.7685
 1739SOL    HW216854   1.595   3.870   5.911  0.2699 -2.5399  1.9828
 1740SOL     OW16855   1.104   4.311  16.287  0.0643 -0.0330 -0.0724
 1740SOL    HW116856   1.023   4.265  16.263 -0.8431  0.6575  1.7017
 1740SOL    HW216857   1.138   4.258  16.358 -1.2271  0.2876  0.7747
 1741SOL     OW16858   0.726   0.834   8.719 -0.2754 -0.1330  0.7675
 1741SOL    HW116859   0.706   0.741   8.730 -0.4103 -0.0250  1.4333
 1741SOL    HW216860   0.652   0.876   8.761 -1.8253 -2.7271  0.6207
 1742SOL     OW16861   4.019   0.160   3.974 -0.3474  0.3115  0.1583
 1742SOL    HW116862   4.033   0.079   3.924 -1.0791  0.5903 -0.4757
 1742SOL    HW216863   4.001   0.118   4.059 -0.5822  0.2558  0.0804
 1743SOL     OW16864   2.680   2.770  12.121 -0.0350  0.0308 -0.3639
 1743SOL    HW116865   2.697   2.864  12.120  0.3809 -0.0443 -0.5067
 1743SOL    HW216866   2.593   2.756  12.159  0.4391 -0.8115  0.4180
 1744SOL     OW16867   3.912   0.116   4.753  0.1074 -0.4660  0.2712
 1744SOL    HW116868   3.821   0.114   4.723 -0.0868 -0.1649  0.8458
 1744SOL    HW216869   3.949   0.032   4.726  0.5503  0.5036 -2.2057
 1745SOL     OW16870   1.766   3.302  10.267  0.1059 -0.5614 -0.1224
 1745SOL    HW116871   1.723   3.234  10.318 -2.7845 -0.1673 -2.0514
 1745SOL    HW216872   1.707   3.296  10.192  0.8186 -1.8573 -0.5804
 1746SOL     OW16873   4.717   3.299   4.482  0.0411 -0.2199 -0.4288
 1746SOL    HW116874   4.670   3.219   4.460 -0.0500 -0.8077  1.9132
 1746SOL    HW216875   0.050   3.305   4.417 -2.6354 -1.5605 -3.4139
 1747SOL     OW16876   3.891   1.057   4.110  0.0445 -0.1071  0.1349
 1747SOL    HW116877   3.964   1.065   4.048  1.7058 -0.4217  2.0341
 1747SOL    HW216878   3.906   0.966   4.139  1.1789  0.3481  1.0104
 1748SOL     OW16879   3.212   0.540  15.499 -0.1577  0.3161 -0.1093
 1748SOL    HW116880   3.235   0.614  15.443 -2.1703  2.1810  1.4975
 1748SOL    HW216881   3.141   0.511  15.443 -0.0964  1.2128 -0.6521
 1749SOL     OW16882   2.784   2.945   9.812 -0.0704  0.8626 -0.1609
 1749SOL    HW116883   2.830   2.994   9.881  0.2065  1.4805 -0.7889
 1749SOL    HW216884   2.792   2.858   9.851  0.2033  0.8483 -0.2539
 1750SOL     OW16885   3.205   2.067   3.626  0.3781 -0.2951  0.2513
 1750SOL    HW116886   3.181   2.150   3.667 -0.0012 -0.3860  0.2136
 1750SOL    HW216887   3.196   2.009   3.702 -1.4143 -2.3055 -1.4792
 1751SOL     OW16888   0.206   0.035   8.423  0.2175 -0.1033  0.3740
 1751SOL    HW116889   0.297   0.040   8.393 -0.8558 -2.5103 -3.2548
 1751SOL    HW216890   0.174   4.727   8.345  2.1822  0.7317 -0.9261
 1752SOL     OW16891   4.166   3.181   0.066 -0.1508  0.0980  0.2071
 1752SOL    HW116892   4.215   3.175   0.148  0.6456  0.3613 -0.2470
 1752SOL    HW216893   4.124   3.095   0.076 -1.2190  0.4832 -1.0464
 1753SOL     OW16894   1.750   4.352  11.805 -0.2750  0.3632  0.1148
 1753SOL    HW116895   1.792   4.275  11.845 -0.4058 -0.0312 -0.5136
 1753SOL    HW216896   1.689   4.300  11.753 -2.6557  1.4534  1.8054
 1754SOL     OW16897   2.299   4.073   2.065  0.0507 -0.0171  0.1102
 1754SOL    HW116898   2.342   4.049   1.984 -0.4008  0.4899 -0.2843
 1754SOL    HW216899   2.375   4.115   2.106  1.2281 -2.1127  0.0616
 1755SOL     OW16900   3.250   0.600   1.646  0.0905 -0.0048 -0.2466
 1755SOL    HW116901   3.323   0.634   1.698 -0.1831  1.0833 -0.5705
 1755SOL    HW216902   3.209   0.528   1.694  1.5587 -0.8397 -0.2350
 1756SOL     OW16903   1.119   3.537   1.366  0.0217  0.0296 -0.7245
 1756SOL    HW116904   1.032   3.555   1.402  0.6894 -0.8814  1.3772
 1756SOL    HW216905   1.179   3.554   1.439 -2.0268 -0.4685  1.0796
 1757SOL     OW16906   3.234   3.398   5.101 -0.2531  0.1911 -0.6077
 1757SOL    HW116907   3.302   3.451   5.057 -0.3290  0.6529 -0.1729
 1757SOL    HW216908   3.162   3.414   5.040 -1.9226 -1.1497  1.0254
 1758SOL     OW16909   4.024   4.684   7.980 -0.3111  0.0865 -0.3416
 1758SOL    HW116910   4.044   4.613   7.919 -2.1242  0.7132 -1.6638
 1758SOL    HW216911   4.030   4.645   8.067  4.7064 -3.4574 -2.2876
 1759SOL     OW16912   1.572   1.448  15.343  0.0110  0.4337  0.4534
 1759SOL    HW116913   1.600   1.514  15.407  0.6327 -0.1427  0.7697
 1759SOL    HW216914   1.522   1.502  15.281 -1.0137  0.5368  1.3578
 1760SOL     OW16915   2.576   3.014   7.044 -0.0352 -0.1625  0.3699
 1760SOL    HW116916   2.665   3.005   7.009 -0.2151  0.3260 -0.2060
 1760SOL    HW216917   2.581   3.106   7.070 -1.4738 -0.0488  0.1986
 1761SOL     OW16918   1.279   1.001   5.733 -0.3385 -0.0987  0.4950
 1761SOL    HW116919   1.244   1.083   5.768 -1.8782 -0.8672  0.7853
 1761SOL    HW216920   1.219   0.993   5.659 -1.4914 -2.3176  1.6442
 1762SOL     OW16921   3.990   2.218   4.644 -0.1106  0.1656  0.1971
 1762SOL    HW116922   3.900   2.229   4.612 -0.6931  0.3678  1.9072
 1762SOL    HW216923   3.997   2.123   4.647  0.6763  0.1773 -1.1215
 1763SOL     OW16924   3.683   2.889   3.916  0.3792 -0.5615 -0.6135
 1763SOL    HW116925   3.734   2.970   3.908 -1.6468  0.6683 -1.1715
 1763SOL    HW216926   3.624   2.915   3.987  1.0065  1.7668 -0.9398
 1764SOL     OW16927   4.288   2.241   9.694 -0.4373  0.2031  0.0325
 1764SOL    HW116928   4.282   2.198   9.779  0.1014  1.5815  0.7614
 1764SOL    HW216929   4.259   2.167   9.640 -0.5979  1.0583 -1.0512
 1765SOL     OW16930   1.729   3.431   4.602 -0.5205  0.4121  0.1598
 1765SOL    HW116931   1.765   3.342   4.605  0.4144  0.7418 -1.3930
 1765SOL    HW216932   1.795   3.476   4.653 -1.6221  1.5011  0.6175
 1766SOL     OW16933   2.865   1.163   4.253  0.0068  0.5555  0.2148
 1766SOL    HW116934   2.771   1.161   4.272 -0.0272 -0.5498 -0.1111
 1766SOL    HW216935   2.868   1.258   4.242  2.9709  0.4937  0.6531
 1767SOL     OW16936   0.738   3.751   3.202  0.5129  0.3471 -0.0713
 1767SOL    HW116937   0.676   3.761   3.274  0.5814  0.1168  0.0225
 1767SOL    HW216938   0.695   3.673   3.166 -0.6260  0.1872  1.6284
 1768SOL     OW16939   0.282   3.009   3.361 -0.1431  0.2280  0.8992
 1768SOL    HW116940   0.302   2.952   3.435 -1.1117 -0.1762  0.8518
 1768SOL    HW216941   0.237   2.950   3.301 -2.1919  2.4840  0.2220
 1769SOL     OW16942   0.850   1.730   4.071  0.1229  0.3857  0.2256
 1769SOL    HW116943   0.837   1.781   4.152  0.0795 -1.7473  1.5618
 1769SOL    HW216944   0.887   1.652   4.112 -1.0275  0.3514  1.2305
 1770SOL     OW16945   3.161   2.802   3.524  0.1530  0.8674  0.6864
 1770SOL    HW116946   3.147   2.880   3.578 -0.0568  1.6042 -0.4356
 1770SOL    HW216947   3.085   2.753   3.556  1.3941 -0.7626  1.0867
 1771SOL     OW16948   0.203   2.462   5.969 -0.1517  0.6219  0.4462
 1771SOL    HW116949   0.119   2.502   5.991 -0.2606  2.7072 -3.8042
 1771SOL    HW216950   0.246   2.542   5.997 -0.1769  0.6663  0.3558
 1772SOL     OW16951   0.676   0.622   3.463 -0.4890  0.0505  0.7580
 1772SOL    HW116952   0.631   0.688   3.515 -1.0587 -1.9934  2.8727
 1772SOL    HW216953   0.618   0.597   3.391  1.2657 -0.4350 -0.4871
 1773SOL     OW16954   2.542   2.380   1.633  0.2299 -0.0965 -0.1073
 1773SOL    HW116955   2.500   2.457   1.597  0.0076  0.0762  0.5252
 1773SOL    HW216956   2.524   2.302   1.581 -1.5729  0.3904 -0.1885
 1774SOL     OW16957   3.557   3.023   4.428  0.1336 -0.0229 -0.2696
 1774SOL    HW116958   3.493   3.067   4.483  0.5428  2.3500 -1.6815
 1774SOL    HW216959   3.545   2.934   4.461  0.5169 -0.2959 -0.8621
 1775SOL     OW16960   3.323   0.611   7.553  0.2962 -0.2344 -0.4839
 1775SOL    HW116961   3.262   0.636   7.623  1.6123 -1.3136  1.0386
 1775SOL    HW216962   3.332   0.687   7.495  1.5116  0.6141  0.8296
 1776SOL     OW16963   3.857   3.993   3.374  0.2360  0.7524  0.2749
 1776SOL    HW116964   3.852   3.977   3.469 -0.4557 -0.4867  0.0353
 1776SOL    HW216965   3.842   3.904   3.341 -0.6627  1.4595 -1.2089
 1777SOL     OW16966   1.585   4.631   9.020  0.9677 -0.0803  0.2751
 1777SOL    HW116967   1.633   4.558   9.059  1.7875 -0.5545 -1.6332
 1777SOL    HW216968   1.653   4.684   8.977  0.1376 -1.8052 -3.1372
 1778SOL     OW16969   0.343   2.434  15.532 -0.1651  0.0379  0.2459
 1778SOL    HW116970   0.393   2.354  15.549  1.9483  1.3812  0.3454
 1778SOL    HW216971   0.421   2.484  15.508  0.0084 -0.4858 -0.2862
 1779SOL     OW16972   4.362   1.358   6.572 -0.3586 -0.3265  0.0696
 1779SOL    HW116973   4.316   1.317   6.499  1.5813 -0.2423 -1.2039
 1779SOL    HW216974   4.368   1.279   6.626  2.1509  1.0828  1.9042
 1780SOL     OW16975   1.958   2.412   1.675  0.1011  0.0723 -0.1180
 1780SOL    HW116976   1.924   2.327   1.703 -0.6518  0.1216 -0.8924
 1780SOL    HW216977   1.896   2.472   1.717  0.6175  0.3892  0.1943
 1781SOL     OW16978   2.105   3.412   5.982 -0.4637  0.6408  1.0699
 1781SOL    HW116979   2.133   3.321   5.975 -0.8752  0.7492 -1.8145
 1781SOL    HW216980   2.095   3.423   6.077 -3.3732 -1.6658  1.0017
 1782SOL     OW16981   1.610   2.447   6.402 -0.0914 -0.1452  0.4978
 1782SOL    HW116982   1.590   2.476   6.491  2.2037 -0.1215  1.0291
 1782SOL    HW216983   1.603   2.527   6.351 -0.5321  1.4259  3.0004
 1783SOL     OW16984   0.728   2.468   5.110 -0.3016  0.1865  0.7985
 1783SOL    HW116985   0.730   2.390   5.165 -2.0443 -0.1034  0.4726
 1783SOL    HW216986   0.695   2.431   5.028 -0.3614 -0.0015  0.9077
 1784SOL     OW16987   2.208   3.839   2.379 -0.1208 -0.2079 -0.2798
 1784SOL    HW116988   2.214   3.930   2.408  1.8541 -0.7292  0.9147
 1784SOL    HW216989   2.303   3.834   2.375 -0.0406 -1.4134  2.6010
 1785SOL     OW16990   1.597   1.028   4.104  0.3093  0.0818 -0.1618
 1785SOL    HW116991   1.502   1.018   4.115  0.4628  0.1317  1.2196
 1785SOL    HW216992   1.626   0.969   4.173  1.2850  0.6103 -0.1176
 1786SOL     OW16993   1.223   0.815  15.381  0.2956 -0.3619  0.0485
 1786SOL    HW116994   1.272   0.870  15.442 -2.9571  0.8789  1.5765
 1786SOL    HW216995   1.174   0.766  15.447 -0.1677 -0.9820 -0.7547
 1787SOL     OW16996   0.291   0.752   5.411  0.3911  0.2461 -0.1350
 1787SOL    HW116997   0.266   0.730   5.321 -0.3480  2.0357 -0.3784
 1787SOL    HW216998   0.378   0.790   5.407  1.6385 -2.8756 -2.4362
 1788SOL     OW16999   1.822   0.074   7.379  0.1159  0.1600  0.3648
 1788SOL    HW117000   1.832   4.730   7.429 -1.4143  0.4165  1.1007
 1788SOL    HW217001   1.840   0.034   7.294 -2.2249 -1.3881  0.6087
 1789SOL     OW17002   3.257   3.992   4.115  0.1683 -0.2367  0.2020
 1789SOL    HW117003   3.319   3.992   4.041  0.3493 -0.2723  0.3531
 1789SOL    HW217004   3.216   3.906   4.103 -0.0256 -0.2153  0.7688
 1790SOL     OW17005   3.367   0.791   6.527  0.1451  0.5403  0.0636
 1790SOL    HW117006   3.398   0.721   6.585 -1.4803  0.2022  0.5355
 1790SOL    HW217007   3.279   0.767   6.497  0.0613 -0.2182  0.8947
 1791SOL     OW17008   4.250   0.245   7.358 -0.7706 -0.4333  0.2070
 1791SOL    HW117009   4.225   0.169   7.411 -1.4796 -0.6170 -0.3925
 1791SOL    HW217010   4.328   0.271   7.406 -1.1723 -2.7077  2.1135
 1792SOL     OW17011   3.558   0.240  16.342 -0.6244 -0.3791 -0.3480
 1792SOL    HW117012   3.592   0.154  16.316 -0.7568  0.0813 -2.0363
 1792SOL    HW217013   3.637   0.278  16.381 -0.1672 -2.3511  0.6867
 1793SOL     OW17014   3.836   2.637   7.897  0.2657  0.6443  0.0746
 1793SOL    HW117015   3.817   2.731   7.892 -0.4448  0.5324  0.7828
 1793SOL    HW217016   3.820   2.625   7.990 -1.6076  0.4211 -0.2792
 1794SOL     OW17017   0.201   0.105   3.300  0.2437  0.4564  0.7443
 1794SOL    HW117018   0.227   0.024   3.345  2.1108  1.2149  0.9998
 1794SOL    HW217019   0.287   0.129   3.267 -0.1124 -0.5789 -0.9065
 1795SOL     OW17020   1.472   0.050  12.328 -0.1946 -0.3922  0.0954
 1795SOL    HW117021   1.451   0.025  12.418  0.7352 -0.4198  0.3046
 1795SOL    HW217022   1.567   0.062  12.331 -0.1664 -0.0330 -2.0402
 1796SOL     OW17023   4.073   2.528   3.038  0.0300 -0.4021  0.0317
 1796SOL    HW117024   3.978   2.524   3.042  0.0330  2.0621  2.1149
 1796SOL    HW217025   4.098   2.583   3.111 -1.5856  0.5944 -0.1618
 1797SOL     OW17026   3.585   4.196  11.602 -0.2276  0.1460 -0.0402
 1797SOL    HW117027   3.532   4.261  11.557 -0.6207  0.6023  1.0949
 1797SOL    HW217028   3.586   4.235  11.689  1.5608  2.4593 -1.0693
 1798SOL     OW17029   3.241   1.181   5.786  1.1330 -0.3112  0.0040
 1798SOL    HW117030   3.152   1.153   5.811  0.8079 -0.3741 -1.2367
 1798SOL    HW217031   3.233   1.217   5.698  1.1344  0.4306  0.3049
 1799SOL     OW17032   3.400   0.215  11.490  0.1060  0.2487 -0.3641
 1799SOL    HW117033   3.366   0.180  11.572  0.8188  1.2754  0.3700
 1799SOL    HW217034   3.491   0.188  11.500  0.1390  0.9608  1.2641
 1800SOL     OW17035   4.347   2.965  11.549 -0.4978  0.3572  0.1503
 1800SOL    HW117036   4.341   3.057  11.526  0.8128 -0.1241 -2.0875
 1800SOL    HW217037   4.395   2.936  11.472 -1.1053  0.0482 -0.1089
 1801SOL     OW17038   1.851   3.404   8.272  0.4279  0.3497  0.1171
 1801SOL    HW117039   1.843   3.352   8.192  0.6014  0.8554 -0.2313
 1801SOL    HW217040   1.759   3.414   8.295  0.5235  0.9110  0.2696
 1802SOL     OW17041   2.880   0.858  13.683 -0.0656  0.4072 -0.0115
 1802SOL    HW117042   2.933   0.812  13.618 -2.9931  0.5027 -2.4581
 1802SOL    HW217043   2.943   0.927  13.706  1.7894 -0.7965 -1.4899
 1803SOL     OW17044   2.897   2.753   5.982 -0.2454 -0.1916 -0.0872
 1803SOL    HW117045   2.927   2.716   6.065 -0.2964  1.6088  0.7468
 1803SOL    HW217046   2.929   2.696   5.913 -0.5390 -0.4855  0.0207
 1804SOL     OW17047   0.851   0.877   5.143  0.8484  0.3892 -0.4619
 1804SOL    HW117048   0.899   0.795   5.134  1.1208  0.4746  0.3090
 1804SOL    HW217049   0.777   0.859   5.084  1.4064 -2.3026 -0.3632
 1805SOL     OW17050   1.830   2.858   8.406  0.0567  0.6412  0.1619
 1805SOL    HW117051   1.749   2.885   8.451 -0.2080  2.1040 -1.2161
 1805SOL    HW217052   1.820   2.763   8.416 -1.3276  0.8296  0.6959
 1806SOL     OW17053   3.663   4.718  16.367 -0.2116  0.0395  0.0677
 1806SOL    HW117054   3.734   4.679  16.317  1.0618  1.5038  0.7141
 1806SOL    HW217055   3.708   4.732  16.450 -1.0810  2.9222  0.0622
 1807SOL     OW17056   4.612   1.312   9.074 -0.5186  0.9008  0.0683
 1807SOL    HW117057   4.652   1.396   9.094  0.4493  0.4315  0.1098
 1807SOL    HW217058   4.604   1.319   8.979  0.4160  0.1414 -0.0722
 1808SOL     OW17059   3.099   1.476   1.930  0.4563 -0.7657 -0.0546
 1808SOL    HW117060   3.058   1.544   1.875  0.8713  0.0825  0.6880
 1808SOL    HW217061   3.030   1.416   1.956 -0.6640  0.9730  0.9723
 1809SOL     OW17062   0.858   3.934   7.646 -0.0271 -0.2095 -0.2063
 1809SOL    HW117063   0.939   3.948   7.597  2.0073 -3.0775  2.3235
 1809SOL    HW217064   0.881   3.850   7.686  2.1070  0.6000  0.2633
 1810SOL     OW17065   1.529   3.993  16.059  0.0978 -0.3184  0.4250
 1810SOL    HW117066   1.531   3.899  16.077 -0.3445 -0.6856 -1.4659
 1810SOL    HW217067   1.443   4.008  16.099 -0.2234 -0.3165 -0.2637
 1811SOL     OW17068   3.214   2.076   0.995  0.3669  0.0020  0.0476
 1811SOL    HW117069   3.134   2.078   1.046  1.6862  1.6866  2.0302
 1811SOL    HW217070   3.169   2.080   0.910  1.4605 -1.0220 -0.5813
 1812SOL     OW17071   2.175   1.750   5.581  0.2291  0.4627 -0.2616
 1812SOL    HW117072   2.105   1.719   5.638 -1.1552 -0.2880 -2.3730
 1812SOL    HW217073   2.219   1.666   5.566 -1.1352 -0.4872  1.0396
 1813SOL     OW17074   3.249   0.038   5.393 -0.5828 -0.4614  0.0527
 1813SOL    HW117075   3.304   0.076   5.325  0.4817 -1.8113  0.1585
 1813SOL    HW217076   3.172   0.019   5.339 -1.2987  1.2662  0.4542
 1814SOL     OW17077   3.954   4.691  11.236  0.4548  0.1311  0.4916
 1814SOL    HW117078   3.868   4.717  11.266  0.0578  0.2347 -0.7398
 1814SOL    HW217079   3.948   4.696  11.141  1.4016  0.3211  0.4342
 1815SOL     OW17080   2.674   0.977   1.495 -0.3522  0.8673 -0.0216
 1815SOL    HW117081   2.748   0.961   1.437  0.4033  0.3736  1.0867
 1815SOL    HW217082   2.698   0.929   1.574 -1.1983 -0.2139 -0.4098
 1816SOL     OW17083   3.431   0.345   5.776 -0.1067  0.4400 -0.0188
 1816SOL    HW117084   3.418   0.257   5.741 -2.4524  0.0738  1.7760
 1816SOL    HW217085   3.469   0.329   5.862  2.1342  0.9839 -0.9205
 1817SOL     OW17086   3.214   2.914   8.816 -0.5879 -0.9854 -0.0033
 1817SOL    HW117087   3.309   2.915   8.809 -0.3452 -2.8440  2.7782
 1817SOL    HW217088   3.192   3.006   8.830 -1.2022 -0.9982 -0.8675
 1818SOL     OW17089   1.259   3.347   6.285 -0.0741 -0.1391 -0.2119
 1818SOL    HW117090   1.328   3.359   6.220  0.9685  1.5961  1.1959
 1818SOL    HW217091   1.188   3.343   6.221  0.5816 -2.1422 -0.7939
 1819SOL     OW17092   2.826   2.061   1.369  0.1557  0.0009  0.3341
 1819SOL    HW117093   2.760   2.045   1.302  0.6860 -1.1972  0.0888
 1819SOL    HW217094   2.803   2.154   1.367 -1.9886 -0.5191  0.4902
 1820SOL     OW17095   4.219   2.864   6.587  0.2996  0.0237 -0.8313
 1820SOL    HW117096   4.283   2.801   6.621 -1.5596  0.1484  2.8816
 1820SOL    HW217097   4.267   2.942   6.615  1.3303 -1.2770  1.0369
 1821SOL     OW17098   1.479   0.737   9.811 -0.9005 -0.6319 -0.3717
 1821SOL    HW117099   1.558   0.714   9.762 -1.1766  1.3283 -1.7511
 1821SOL    HW217100   1.462   0.669   9.876 -0.1123  0.2291  0.7325
 1822SOL     OW17101   0.099   0.368  17.468  0.1851 -0.5436  0.6965
 1822SOL    HW117102   0.129   0.323  17.547  0.7398  0.8194  1.2530
 1822SOL    HW217103   0.151   0.447  17.457  0.7052 -0.8571  0.9160
 1823SOL     OW17104   1.985   2.181   2.372 -0.2392 -0.3382 -0.2271
 1823SOL    HW117105   2.000   2.115   2.305  2.3688  0.4070 -0.3576
 1823SOL    HW217106   1.891   2.196   2.360 -0.7172 -2.4845  0.8857
 1824SOL     OW17107   3.928   4.669   2.438 -0.2362  0.4872  0.2368
 1824SOL    HW117108   4.017   4.654   2.407  0.1841 -0.4272  1.8527
 1824SOL    HW217109   3.929   0.015   2.486 -1.8325  1.8705 -2.1703
 1825SOL     OW17110   2.278   4.111   3.846  0.2801  0.3319  0.2420
 1825SOL    HW117111   2.186   4.085   3.834  0.5821 -0.7039  0.1277
 1825SOL    HW217112   2.274   4.153   3.931 -0.4491 -1.2166  0.9770
 1826SOL     OW17113   3.149   2.895  15.518  0.1303  0.1000  0.0383
 1826SOL    HW117114   3.080   2.829  15.521  0.3328 -0.1553 -0.9371
 1826SOL    HW217115   3.082   2.964  15.524 -0.7076 -0.6828 -0.3376
 1827SOL     OW17116   2.529   0.795  12.688 -0.2751  0.5799 -0.2043
 1827SOL    HW117117   2.469   0.734  12.644  0.2567  0.5018 -0.8169
 1827SOL    HW217118   2.478   0.814  12.767 -1.7994 -0.5126 -0.9205
 1828SOL     OW17119   3.911   2.991   0.125 -0.4553 -0.0093 -0.5199
 1828SOL    HW117120   3.817   2.997   0.109 -0.1069  0.1511 -2.4680
 1828SOL    HW217121   3.941   2.962   0.039 -0.8670  0.2336 -0.7458
 1829SOL     OW17122   2.574   3.333   8.124  0.5303 -0.5018 -0.2691
 1829SOL    HW117123   2.655   3.384   8.127 -0.3433  0.8823 -0.7097
 1829SOL    HW217124   2.604   3.243   8.109 -2.0750 -1.6122  1.1460
 1830SOL     OW17125   0.185   2.040   4.570  0.0316  0.7347  0.6492
 1830SOL    HW117126   0.235   2.096   4.629  0.1756 -1.5297  2.6604
 1830SOL    HW217127   0.223   1.954   4.588 -1.9480  0.2224  2.2814
 1831SOL     OW17128   0.760   2.016   1.484 -0.1510  0.1044 -0.2455
 1831SOL    HW117129   0.824   1.946   1.476 -4.1985 -3.7601  1.5339
 1831SOL    HW217130   0.785   2.047   1.571  0.8043  0.0348 -0.4981
 1832SOL     OW17131   2.460   3.912   3.925 -0.0310  0.0877 -0.0843
 1832SOL    HW117132   2.436   3.925   4.017  0.8525  1.8372 -0.1053
 1832SOL    HW217133   2.383   3.952   3.885 -0.0892  2.2732  2.1457
 1833SOL     OW17134   1.155   0.048   6.663 -0.0632  0.6185 -0.5308
 1833SOL    HW117135   1.169   0.140   6.686 -0.7281  0.6910 -0.3990
 1833SOL    HW217136   1.177   0.054   6.570 -0.3536  0.6980 -0.5954
 1834SOL     OW17137   2.643   4.590   6.022  0.2423  0.1486  0.8615
 1834SOL    HW117138   2.620   4.523   5.957  1.3609 -0.6995  1.3402
 1834SOL    HW217139   2.554   4.618   6.044 -1.6014 -3.0818 -2.4293
 1835SOL     OW17140   3.172   2.684   8.716  0.0640 -0.4246  0.2572
 1835SOL    HW117141   3.190   2.766   8.762 -0.6006  0.9446 -1.9173
 1835SOL    HW217142   3.179   2.614   8.781  1.3739 -0.3124  0.2435
 1836SOL     OW17143   2.768   2.234   6.208  0.0159 -0.2706  0.4858
 1836SOL    HW117144   2.742   2.167   6.271 -1.2302  0.9909  1.3060
 1836SOL    HW217145   2.862   2.235   6.226 -0.1827  2.0134  1.3294
 1837SOL     OW17146   4.455   2.411   3.419 -0.5129  0.0453  0.0941
 1837SOL    HW117147   4.493   2.470   3.354 -0.5695  2.2549  2.1065
 1837SOL    HW217148   4.526   2.365   3.464 -0.0173  1.9536  1.2511
 1838SOL     OW17149   3.294   1.035   3.129  0.2440  0.3658  0.0199
 1838SOL    HW117150   3.265   0.946   3.149 -1.0632 -0.0640 -3.6609
 1838SOL    HW217151   3.242   1.057   3.052 -0.1827  3.3275  1.1839
 1839SOL     OW17152   3.739   3.494   6.909 -0.3063 -0.2582  0.1355
 1839SOL    HW117153   3.784   3.421   6.952  0.6955  0.9607  1.1563
 1839SOL    HW217154   3.785   3.504   6.826 -0.2426  2.3050  0.4924
 1840SOL     OW17155   3.085   0.823   5.924 -0.0557 -0.0880 -0.3040
 1840SOL    HW117156   3.000   0.781   5.930  0.1729 -0.5226 -0.1048
 1840SOL    HW217157   3.094   0.853   6.015 -3.8947 -2.3529  0.8072
 1841SOL     OW17158   2.683   0.799   5.818 -0.4401  0.2579 -0.3421
 1841SOL    HW117159   2.589   0.787   5.833 -0.7484 -0.4172 -2.7267
 1841SOL    HW217160   2.710   0.867   5.879  1.5312  1.0632 -2.1254
 1842SOL     OW17161   1.205   4.522   6.747  0.5743 -0.2410 -0.4597
 1842SOL    HW117162   1.151   4.506   6.825 -0.7611 -1.7601 -1.7088
 1842SOL    HW217163   1.185   4.613   6.725 -3.2524 -0.4105  2.1886
 1843SOL     OW17164   1.299   0.155  17.742 -0.8843  0.1339  0.1574
 1843SOL    HW117165   1.297   0.118   0.084  1.2194 -0.9594 -0.2534
 1843SOL    HW217166   1.208   0.185  17.738 -0.0615  2.5870 -0.2164
 1844SOL     OW17167   3.491   4.083  16.973 -0.3921 -0.0408  0.0211
 1844SOL    HW117168   3.432   4.121  17.038 -2.5463 -1.5915 -1.0424
 1844SOL    HW217169   3.439   4.083  16.893  0.6423  0.1707 -0.6612
 1845SOL     OW17170   1.979   2.233   5.264  0.5474 -0.0665 -0.3657
 1845SOL    HW117171   2.065   2.254   5.226  1.5281 -1.7875  0.9521
 1845SOL    HW217172   1.997   2.218   5.357  2.4131 -2.9971 -1.2014
 1846SOL     OW17173   3.763   1.821   8.987  0.3278 -0.3717  0.2602
 1846SOL    HW117174   3.760   1.824   9.083 -0.2712  0.0992  0.2262
 1846SOL    HW217175   3.695   1.758   8.964  2.0225 -2.3251  0.6292
 1847SOL     OW17176   1.295   1.018   4.683  0.6312  0.2589  0.7691
 1847SOL    HW117177   1.381   1.036   4.647 -0.2889 -0.4449 -1.8030
 1847SOL    HW217178   1.310   0.998   4.775  2.1820 -1.0482  0.2114
 1848SOL     OW17179   4.181   3.634   0.999  0.3368  0.2539 -0.0775
 1848SOL    HW117180   4.109   3.697   0.993  0.8462  0.7848 -0.6395
 1848SOL    HW217181   4.160   3.611   1.090  0.6555  0.9724  0.1805
 1849SOL     OW17182   2.755   1.933   0.079 -0.5168  0.1409 -0.0747
 1849SOL    HW117183   2.818   1.861   0.085 -1.3253 -0.7906 -2.5667
 1849SOL    HW217184   2.781   1.976   0.160  0.0498 -0.3387 -0.0057
 1850SOL     OW17185   1.801   4.028  11.678  0.0921 -0.5679 -0.6124
 1850SOL    HW117186   1.801   4.121  11.653  0.2958 -0.7594 -1.3103
 1850SOL    HW217187   1.831   3.985  11.599  0.3264 -2.5231  0.5403
 1851SOL     OW17188   2.520   1.393   2.892 -0.1203  0.4250  0.3132
 1851SOL    HW117189   2.471   1.408   2.974  0.8745  0.1629  0.9563
 1851SOL    HW217190   2.467   1.318   2.865  0.3850  0.1244  0.1559
 1852SOL     OW17191   3.228   0.469  14.110  0.3434  0.0539 -0.3607
 1852SOL    HW117192   3.259   0.421  14.186  1.7921 -1.1757 -1.7148
 1852SOL    HW217193   3.198   0.388  14.068  1.4783 -1.5607  1.9324
 1853SOL     OW17194   0.526   0.079   7.008  0.0324  0.1973 -0.0965
 1853SOL    HW117195   0.613   0.097   7.044 -0.9724  2.5346  1.2063
 1853SOL    HW217196   0.472   0.132   7.067 -0.6657  0.0942 -0.6398
 1854SOL     OW17197   2.432   0.029   1.596  0.1340 -0.4114 -0.0410
 1854SOL    HW117198   2.438   4.687   1.542 -1.4044 -0.6724  0.1594
 1854SOL    HW217199   2.476   0.009   1.679  0.3030 -0.9249 -0.2569
 1855SOL     OW17200   0.021   3.720   0.626 -0.3656 -0.1057 -0.6667
 1855SOL    HW117201   4.692   3.703   0.692 -0.8245 -0.9975 -1.3689
 1855SOL    HW217202   0.083   3.769   0.681 -0.2341  0.8024 -1.6267
 1856SOL     OW17203   4.438   0.240  11.831 -0.0238 -0.1972  0.1410
 1856SOL    HW117204   4.363   0.271  11.882  1.3291  2.6295  0.4128
 1856SOL    HW217205   4.442   0.152  11.870 -0.9052 -0.0503  0.5583
 1857SOL     OW17206   3.329   0.833   4.366 -0.5512 -0.0455  0.0870
 1857SOL    HW117207   3.349   0.833   4.273  2.5414 -0.6946  0.7245
 1857SOL    HW217208   3.361   0.920   4.389 -0.4277  0.0802 -0.5645
 1858SOL     OW17209   3.039   1.015   8.114 -0.0669  0.2256  0.0011
 1858SOL    HW117210   3.046   1.046   8.204  0.5927  0.3716 -0.0953
 1858SOL    HW217211   2.944   1.022   8.120 -0.1326 -0.9820  0.2012
 1859SOL     OW17212   2.465   3.697   5.361 -0.2381  0.0010 -0.6444
 1859SOL    HW117213   2.522   3.624   5.383 -0.6462 -0.3259 -0.6829
 1859SOL    HW217214   2.521   3.769   5.390 -0.5326  0.3021 -0.8201
 1860SOL     OW17215   3.228   4.312  16.559  0.8005 -0.7494  0.0597
 1860SOL    HW117216   3.154   4.265  16.521  0.9050  1.2818 -2.6279
 1860SOL    HW217217   3.214   4.394  16.511 -1.8455 -1.0935  0.2518
 1861SOL     OW17218   2.650   4.549   0.646  0.6122  0.0227  0.6281
 1861SOL    HW117219   2.577   4.526   0.704  1.3238  1.7057  2.2036
 1861SOL    HW217220   2.669   4.640   0.669  1.0198  0.2461 -0.6004
 1862SOL     OW17221   0.303   2.030   4.242 -0.0776 -0.1790  0.4064
 1862SOL    HW117222   0.323   2.123   4.257  1.6190 -0.6050  0.8012
 1862SOL    HW217223   0.252   2.005   4.319 -1.5741  0.9629 -0.2202
 1863SOL     OW17224   1.704   2.650   5.596 -0.5095 -0.5098 -0.7968
 1863SOL    HW117225   1.735   2.619   5.511 -1.1454 -0.7770 -0.9302
 1863SOL    HW217226   1.682   2.565   5.635  0.4907  0.6283  2.2713
 1864SOL     OW17227   4.529   1.146   7.631 -0.4375 -0.5686 -0.2024
 1864SOL    HW117228   4.563   1.063   7.664  0.6580 -0.0382  0.0204
 1864SOL    HW217229   4.603   1.205   7.616  0.5804 -1.0005  3.0640
 1865SOL     OW17230   0.927   4.565  16.439  0.6714  0.7624  0.2517
 1865SOL    HW117231   0.862   4.635  16.442 -1.7408 -1.4158 -1.3434
 1865SOL    HW217232   0.926   4.531  16.528 -1.6493 -0.7586 -0.3434
 1866SOL     OW17233   0.486   1.503   5.672 -0.5717 -0.2809 -0.0665
 1866SOL    HW117234   0.485   1.555   5.753  0.0070 -1.9592  1.0251
 1866SOL    HW217235   0.446   1.563   5.610  1.7595  0.5652 -0.7411
 1867SOL     OW17236   3.432   0.525   8.999  0.3688 -0.3972  0.3999
 1867SOL    HW117237   3.459   0.497   8.911  0.3199  1.8664 -0.3236
 1867SOL    HW217238   3.418   0.444   9.048  0.1269  0.5564  1.8925
 1868SOL     OW17239   2.762   3.785   4.545 -0.8230 -0.1310  0.2937
 1868SOL    HW117240   2.772   3.790   4.640  2.6004 -0.4801 -0.0344
 1868SOL    HW217241   2.701   3.712   4.540 -0.8570  0.0236 -1.7178
 1869SOL     OW17242   0.517   1.684   6.444 -0.1399 -0.1086  0.8615
 1869SOL    HW117243   0.422   1.693   6.442  0.0461  1.7393  0.7659
 1869SOL    HW217244   0.543   1.647   6.529 -0.0693  1.4814  1.5382
 1870SOL     OW17245   3.689   3.068   8.070 -0.0817 -0.4452 -0.1947
 1870SOL    HW117246   3.683   3.136   8.136  0.4738  0.4216 -1.0444
 1870SOL    HW217247   3.617   3.014   8.104  0.5096  0.9252  3.1498
 1871SOL     OW17248   4.552   2.754   8.570  0.1286  0.0828 -0.1755
 1871SOL    HW117249   4.601   2.819   8.520  0.1651  1.2493  1.3627
 1871SOL    HW217250   4.505   2.711   8.498 -1.7811  1.6803  0.0960
 1872SOL     OW17251   2.852   1.426  12.964  0.0004 -0.4955 -0.2409
 1872SOL    HW117252   2.850   1.436  13.060  2.1026  1.7271 -0.4317
 1872SOL    HW217253   2.772   1.374  12.969 -1.0187  1.2106  1.4787
 1873SOL     OW17254   1.431   3.076   3.704 -0.2516  0.3287 -0.2305
 1873SOL    HW117255   1.521   3.108   3.711  0.5607 -1.4418 -2.6069
 1873SOL    HW217256   1.405   3.118   3.622 -3.7611 -1.2686  0.0794
 1874SOL     OW17257   3.945   3.480   2.669 -0.2848  0.4246 -0.1655
 1874SOL    HW117258   3.898   3.541   2.613 -1.1554 -0.6635 -0.6275
 1874SOL    HW217259   3.967   3.419   2.599  0.6605 -0.4666  0.9067
 1875SOL     OW17260   0.876   1.717   4.792  0.3390  0.7887  0.6773
 1875SOL    HW117261   0.834   1.642   4.750  0.8230  0.6229  0.4976
 1875SOL    HW217262   0.886   1.689   4.883 -2.3321 -0.9846  0.4118
 1876SOL     OW17263   3.818   1.651   2.413  0.2812 -0.0851  0.0584
 1876SOL    HW117264   3.907   1.677   2.436  0.8855 -1.7468 -0.4175
 1876SOL    HW217265   3.764   1.687   2.483  1.8372  1.6963  0.3343
 1877SOL     OW17266   2.267   2.798   8.787 -0.0504 -0.4540 -0.1506
 1877SOL    HW117267   2.284   2.745   8.865  0.4669  1.6899  1.1869
 1877SOL    HW217268   2.175   2.779   8.771 -0.3081  0.7048 -0.0086
 1878SOL     OW17269   3.563   4.017   6.297 -0.1457  0.1324  0.4649
 1878SOL    HW117270   3.484   3.996   6.248  0.2751 -1.1557  0.3447
 1878SOL    HW217271   3.613   3.935   6.291 -0.3695  0.1474 -1.4544
 1879SOL     OW17272   3.886   2.474   6.891  0.5984 -1.0548 -0.6300
 1879SOL    HW117273   3.966   2.448   6.845  0.9200 -1.3809  0.1233
 1879SOL    HW217274   3.914   2.525   6.967 -2.0974  0.5697 -0.7545
 1880SOL     OW17275   4.176   2.605   5.049 -0.3768 -0.2384 -0.2650
 1880SOL    HW117276   4.248   2.666   5.030 -0.4831 -0.3690 -1.0624
 1880SOL    HW217277   4.100   2.664   5.048  1.9609  2.7872 -1.4210
 1881SOL     OW17278   3.341   3.473   6.459 -0.7193  0.0758  0.0933
 1881SOL    HW117279   3.408   3.539   6.480  0.1531  0.3424 -3.5375
 1881SOL    HW217280   3.359   3.410   6.528  3.4876  2.7268  1.3961
 1882SOL     OW17281   2.581   4.012   7.590 -0.5713  0.0061 -0.0005
 1882SOL    HW117282   2.517   3.965   7.644  0.9799 -1.6681  0.3810
 1882SOL    HW217283   2.524   4.085   7.567 -1.0466 -0.7472 -1.2587
 1883SOL     OW17284   1.775   3.240   8.930 -0.0036 -0.2717 -0.0826
 1883SOL    HW117285   1.767   3.311   8.994 -2.4698  0.3939 -1.1151
 1883SOL    HW217286   1.862   3.205   8.951  1.3940  3.1956 -0.2099
 1884SOL     OW17287   4.627   4.402   7.904 -0.5611 -0.7840  0.9643
 1884SOL    HW117288   4.708   4.355   7.922 -0.3092 -1.0770 -0.9329
 1884SOL    HW217289   4.664   4.484   7.870  0.4017 -2.1573 -1.2809
 1885SOL     OW17290   1.505   3.979   5.329  0.8150 -0.1612 -0.2682
 1885SOL    HW117291   1.445   3.905   5.320 -0.3397  0.7262  0.1030
 1885SOL    HW217292   1.586   3.949   5.288 -0.0039  0.4292 -2.3347
 1886SOL     OW17293   1.622   0.652   8.903 -0.1126 -0.7942  0.1966
 1886SOL    HW117294   1.665   0.707   8.969  1.6617  0.2292 -1.7763
 1886SOL    HW217295   1.530   0.669   8.922  0.4026  0.4183  1.6373
 1887SOL     OW17296   3.197   2.226   8.310 -0.2628 -0.4979  0.1725
 1887SOL    HW117297   3.216   2.177   8.230 -0.2955  0.7587 -0.5992
 1887SOL    HW217298   3.278   2.206   8.356 -0.3207  0.6688  0.7759
 1888SOL     OW17299   4.303   3.301   2.576  0.1819  0.1423  0.1530
 1888SOL    HW117300   4.396   3.320   2.572  0.7498 -2.5281  0.9825
 1888SOL    HW217301   4.271   3.359   2.507 -2.0569 -0.7999  0.3996
 1889SOL     OW17302   2.372   4.605   6.062  0.3031  0.1638  0.1837
 1889SOL    HW117303   2.287   4.647   6.043 -0.1597 -0.7881  0.1789
 1889SOL    HW217304   2.383   4.572   5.973  0.1559  2.5073 -0.7310
 1890SOL     OW17305   2.359   1.940  14.680 -0.1981 -0.0778  0.3895
 1890SOL    HW117306   2.380   1.861  14.729 -1.1297 -1.2284 -1.0308
 1890SOL    HW217307   2.341   1.906  14.592 -0.9527  2.2040 -0.3407
 1891SOL     OW17308   1.252   4.674   2.310  0.1667  0.1503  0.2116
 1891SOL    HW117309   1.256   4.711   2.222  2.7855  1.1113  0.7287
 1891SOL    HW217310   1.225   4.582   2.309 -1.1371  0.5382  0.0170
 1892SOL     OW17311   1.326   4.614   3.108  0.4543  0.1113 -0.3233
 1892SOL    HW117312   1.406   4.666   3.095 -0.5929  1.4298 -1.4566
 1892SOL    HW217313   1.355   4.556   3.179 -0.8445  0.7356  0.7175
 1893SOL     OW17314   2.688   1.014   6.739  0.3547 -0.3290 -0.5438
 1893SOL    HW117315   2.627   0.952   6.779 -3.4573  3.6882 -0.1453
 1893SOL    HW217316   2.691   1.082   6.806 -0.2164 -0.1684 -0.6750
 1894SOL     OW17317   2.384   2.736   9.314  0.5668  0.7248  0.0683
 1894SOL    HW117318   2.382   2.830   9.297  1.3629  0.5111 -1.2177
 1894SOL    HW217319   2.470   2.722   9.275 -0.5351 -0.8937 -1.8194
 1895SOL     OW17320   1.147   0.520   3.404 -0.2707  0.1552 -0.6412
 1895SOL    HW117321   1.188   0.566   3.478 -1.5309  1.8540 -0.9981
 1895SOL    HW217322   1.222   0.482   3.358  1.6737 -0.2018  2.7548
 1896SOL     OW17323   2.116   4.202   6.485 -0.0245 -0.0069 -0.0979
 1896SOL    HW117324   2.189   4.145   6.508  0.5761 -0.2306 -2.5931
 1896SOL    HW217325   2.139   4.292   6.506 -0.4463 -0.0072  0.3807
 1897SOL     OW17326   3.183   3.323   4.670  0.6344 -0.1446  0.5574
 1897SOL    HW117327   3.230   3.406   4.659  0.9987 -0.5387 -0.9517
 1897SOL    HW217328   3.243   3.267   4.720 -3.8620 -2.3410  3.4730
 1898SOL     OW17329   1.938   3.858   4.625 -0.4146  0.3849 -0.2517
 1898SOL    HW117330   1.916   3.930   4.566 -1.6121 -0.8813 -1.3704
 1898SOL    HW217331   2.033   3.863   4.628 -0.4054  0.4827 -0.7169
 1899SOL     OW17332   0.239   0.015  13.677 -0.3849 -0.0631 -0.3818
 1899SOL    HW117333   0.264   0.005  13.585 -0.6397 -2.0189 -0.2223
 1899SOL    HW217334   0.255   0.110  13.679 -0.9756  0.0219  0.4749
 1900SOL     OW17335   3.784   3.945  11.779  0.3124  0.0507  0.1772
 1900SOL    HW117336   3.795   3.851  11.766  1.6781  0.2548 -0.1189
 1900SOL    HW217337   3.816   3.955  11.868 -0.6934  2.4388  0.2715
 1901SOL     OW17338   3.520   2.455   9.261 -0.1042  0.0289  0.2205
 1901SOL    HW117339   3.609   2.483   9.241  0.2987 -1.3601  0.0387
 1901SOL    HW217340   3.530   2.396   9.335 -0.4917 -1.8369 -1.2054
 1902SOL     OW17341   2.838   1.310   7.971  0.2228 -0.1897 -0.4368
 1902SOL    HW117342   2.792   1.294   7.888  2.1106  1.1667 -1.7336
 1902SOL    HW217343   2.780   1.377   8.007  0.8031 -0.6324  1.3128
 1903SOL     OW17344   3.466   2.911   8.124  0.0885  0.1258  0.1554
 1903SOL    HW117345   3.462   2.836   8.184 -2.5419 -0.8070 -1.1721
 1903SOL    HW217346   3.385   2.957   8.145  0.9406  2.0865 -0.8717
 1904SOL     OW17347   4.255   4.508  16.744  0.3918 -0.0249  0.7142
 1904SOL    HW117348   4.272   4.557  16.825  1.5557 -1.4814  1.3432
 1904SOL    HW217349   4.348   4.501  16.723  0.7403  1.9514  1.5926
 1905SOL     OW17350   4.347   3.025   1.833 -0.1082 -0.1489 -0.2604
 1905SOL    HW117351   4.434   3.048   1.865  0.4661 -1.1609 -1.1229
 1905SOL    HW217352   4.308   3.112   1.822  0.3608  0.0474 -0.3874
 1906SOL     OW17353   0.188   3.247   5.125  0.2856  0.0484  0.1480
 1906SOL    HW117354   0.121   3.179   5.129 -1.0197  1.3377  0.3646
 1906SOL    HW217355   0.263   3.202   5.164  1.9396  0.9273 -1.9798
 1907SOL     OW17356   3.858   2.779   5.622 -0.6145  0.0983 -0.2503
 1907SOL    HW117357   3.884   2.769   5.713  0.0696  0.0498 -0.4512
 1907SOL    HW217358   3.869   2.874   5.618  1.8343 -0.1674  0.0778
 1908SOL     OW17359   1.834   4.508   5.463 -0.6511 -0.3144 -0.0443
 1908SOL    HW117360   1.766   4.463   5.413 -0.7812 -1.0524  0.7969
 1908SOL    HW217361   1.828   4.446   5.535  1.6612 -1.3514 -0.7470
 1909SOL     OW17362   4.510   0.508   5.008 -0.2643 -0.6649 -0.0199
 1909SOL    HW117363   4.465   0.459   4.939  0.9013 -0.5750 -0.8549
 1909SOL    HW217364   4.438   0.508   5.070 -0.3635 -4.6359 -0.1660
 1910SOL     OW17365   1.562   0.047   2.079  0.2724  0.7363  0.1889
 1910SOL    HW117366   1.470   0.055   2.055  0.1274 -1.1577  0.0835
 1910SOL    HW217367   1.595   4.727   2.010 -0.4402  1.2131 -0.5345
 1911SOL     OW17368   1.659   4.391   3.247 -0.0285 -0.6496 -0.4151
 1911SOL    HW117369   1.565   4.406   3.261 -0.5653 -2.0353 -2.4878
 1911SOL    HW217370   1.655   4.403   3.152  2.6727  1.6126 -0.2434
 1912SOL     OW17371   1.424   3.159   2.412 -0.2397 -0.3846  0.1532
 1912SOL    HW117372   1.396   3.142   2.502 -0.6181 -4.1889 -0.6689
 1912SOL    HW217373   1.418   3.254   2.416 -1.8610 -0.3395 -3.2227
 1913SOL     OW17374   4.228   2.821   7.837 -0.0215  0.6941 -0.2846
 1913SOL    HW117375   4.273   2.783   7.913 -1.3242  1.9003  1.0761
 1913SOL    HW217376   4.240   2.912   7.863  1.4537  1.1118 -2.4700
 1914SOL     OW17377   0.475   3.202   4.422  0.1978 -0.0845 -0.8520
 1914SOL    HW117378   0.450   3.287   4.459 -1.3903 -1.0896  0.3602
 1914SOL    HW217379   0.438   3.144   4.488  3.5788  1.0593  2.0568
 1915SOL     OW17380   1.024   2.024   5.043 -0.2298  0.3146  0.1861
 1915SOL    HW117381   1.040   2.057   4.954 -0.4222  1.1978  0.4835
 1915SOL    HW217382   1.108   2.027   5.088 -0.0100 -0.1399 -0.1955
 1916SOL     OW17383   1.677   2.592   9.623 -0.0634 -0.1216 -0.1986
 1916SOL    HW117384   1.746   2.659   9.627  1.5829 -1.8711  0.4167
 1916SOL    HW217385   1.635   2.593   9.709  0.4065 -0.6897  0.0356
 1917SOL     OW17386   1.303   0.205   5.030  0.0044 -0.5573  0.2184
 1917SOL    HW117387   1.340   0.196   4.943 -2.7162 -2.9664 -0.6703
 1917SOL    HW217388   1.370   0.158   5.080  2.0131 -0.4926 -2.4713
 1918SOL     OW17389   2.753   1.972   8.551 -0.6168  0.4151 -0.4444
 1918SOL    HW117390   2.721   1.889   8.587 -0.4014  0.5458  0.0420
 1918SOL    HW217391   2.778   1.942   8.463 -1.6579  1.0517 -0.9683
 1919SOL     OW17392   0.202   3.340   8.473 -0.2123  0.1454  0.2476
 1919SOL    HW117393   0.159   3.304   8.550  1.9088 -0.9160  0.9493
 1919SOL    HW217394   0.292   3.311   8.487 -0.4625  0.3519  2.1892
 1920SOL     OW17395   0.093   0.196   9.361  0.0917 -0.0277 -0.4972
 1920SOL    HW117396   0.037   0.174   9.286  0.4677 -1.1635 -0.4483
 1920SOL    HW217397   0.057   0.282   9.384 -1.7710 -1.0759  0.4602
 1921SOL     OW17398   4.016   4.669   8.734  0.8132 -0.2689 -0.5411
 1921SOL    HW117399   4.101   4.713   8.725  0.5274  0.3254 -0.3812
 1921SOL    HW217400   3.981   4.665   8.645  0.0574  1.1703 -0.3155
 1922SOL     OW17401   2.410   2.840   2.601 -0.3497  0.0095  0.0286
 1922SOL    HW117402   2.447   2.802   2.521  1.2666  1.0828  0.2681
 1922SOL    HW217403   2.440   2.929   2.619 -0.6135 -0.3257  2.1436
 1923SOL     OW17404   4.431   4.456   6.857  0.3094  0.1384  0.0314
 1923SOL    HW117405   4.371   4.411   6.916  2.1281  0.7184  2.3225
 1923SOL    HW217406   4.496   4.386   6.847 -1.8326 -1.5463 -2.0494
 1924SOL     OW17407   0.030   2.818   9.050 -0.2672  0.8434 -0.6281
 1924SOL    HW117408   4.681   2.783   9.027  0.7720 -2.1173 -0.0218
 1924SOL    HW217409   0.079   2.740   9.024 -4.1540 -1.9276  0.3002
 1925SOL     OW17410   4.591   0.559   2.293 -0.2876  0.0154 -0.4751
 1925SOL    HW117411   4.563   0.519   2.375 -1.4305  2.1545  0.1907
 1925SOL    HW217412   4.685   0.544   2.293 -0.5075 -1.3280  0.7534
 1926SOL     OW17413   0.551   4.084   8.375  0.3226  0.0896  0.1152
 1926SOL    HW117414   0.493   4.158   8.360 -0.4373 -0.2489  1.4054
 1926SOL    HW217415   0.638   4.123   8.372  0.3380  0.2223  2.4129
 1927SOL     OW17416   4.092   2.768  17.045 -0.5409 -0.1471 -0.6004
 1927SOL    HW117417   4.140   2.817  17.112 -0.2138 -0.6229 -0.4854
 1927SOL    HW217418   4.004   2.766  17.083 -0.7216  1.2743 -0.9214
 1928SOL     OW17419   2.260   1.796   8.459 -0.3621  0.1219  0.2472
 1928SOL    HW117420   2.214   1.752   8.387 -0.9233  0.8875  0.1233
 1928SOL    HW217421   2.259   1.886   8.424  1.9976 -1.1367 -3.0109
 1929SOL     OW17422   3.703   3.860  13.074  0.0635  0.3941  0.9786
 1929SOL    HW117423   3.629   3.860  13.014  0.5235  2.2315  0.4077
 1929SOL    HW217424   3.689   3.792  13.140  1.1925 -0.5251  0.2727
 1930SOL     OW17425   2.876   3.129   9.998 -0.0333 -1.0757 -0.9772
 1930SOL    HW117426   2.837   3.211  10.029  0.4149 -2.3726  3.0296
 1930SOL    HW217427   2.939   3.102  10.064  1.1079  0.8570 -1.2614
 1931SOL     OW17428   4.438   0.854   3.788  0.1899  0.0397 -0.3642
 1931SOL    HW117429   4.446   0.948   3.801  0.5827 -0.2453  1.3783
 1931SOL    HW217430   4.435   0.830   3.880 -0.0985  0.6622 -0.2110
 1932SOL     OW17431   4.315   0.856  15.732 -1.0203 -0.4351  0.4071
 1932SOL    HW117432   4.244   0.846  15.669 -1.5221  3.1123  0.4320
 1932SOL    HW217433   4.336   0.949  15.729  0.8736 -0.8635  0.0341
 1933SOL     OW17434   0.450   2.633   4.460 -0.4328 -0.5052  0.1921
 1933SOL    HW117435   0.543   2.622   4.479 -0.5158 -1.3938  0.0825
 1933SOL    HW217436   0.421   2.671   4.544 -2.7743 -0.9306 -0.4262
 1934SOL     OW17437   0.717   3.433   0.378 -0.0906  0.3674 -0.2438
 1934SOL    HW117438   0.708   3.526   0.399 -0.9072  0.6810 -2.0410
 1934SOL    HW217439   0.784   3.406   0.441 -1.3568 -1.5439  0.2857
 1935SOL     OW17440   2.842   0.843  17.256  0.0499  0.3869 -0.0994
 1935SOL    HW117441   2.890   0.894  17.321  0.5858  0.1043 -0.2820
 1935SOL    HW217442   2.812   0.910  17.194 -0.6238 -1.3379 -1.6671
 1936SOL     OW17443   3.430   2.582   4.896  0.1927  0.9114  0.4338
 1936SOL    HW117444   3.518   2.549   4.880 -0.3279 -0.5089  0.4840
 1936SOL    HW217445   3.432   2.677   4.900 -0.0236  0.9346 -0.0147
 1937SOL     OW17446   1.943   1.818  12.526 -0.5756  0.5963  0.4081
 1937SOL    HW117447   1.926   1.782  12.439 -2.4842  0.3509  0.8855
 1937SOL    HW217448   2.034   1.846  12.513 -0.4560  0.2515  0.5160
 1938SOL     OW17449   1.108   2.028   0.230  0.2530  0.1320  0.8581
 1938SOL    HW117450   1.168   2.094   0.265 -1.7080  2.0772  0.5712
 1938SOL    HW217451   1.057   2.082   0.169  1.5063 -1.6981 -1.8226
 1939SOL     OW17452   4.388   0.600  14.617 -0.6165  0.1055 -0.0131
 1939SOL    HW117453   4.333   0.656  14.562 -0.7153 -0.8300 -0.8674
 1939SOL    HW217454   4.418   0.535  14.554 -0.8533 -0.4726  0.4734
 1940SOL     OW17455   3.975   4.732  16.913  0.1051 -0.3161 -0.8288
 1940SOL    HW117456   4.054   0.028  16.869  0.2979  1.2941  0.7328
 1940SOL    HW217457   3.963   4.650  16.865 -0.6620 -0.6350 -0.0791
 1941SOL     OW17458   2.029   2.547   9.166 -0.2801  0.1276  0.3313
 1941SOL    HW117459   2.061   2.558   9.256 -0.5874 -1.1452  0.5899
 1941SOL    HW217460   2.071   2.463   9.148 -0.6446  0.9044 -4.0214
 1942SOL     OW17461   1.328   1.647   5.737  0.0423 -0.0845 -0.2519
 1942SOL    HW117462   1.238   1.613   5.737 -0.3730  1.0291  1.5850
 1942SOL    HW217463   1.313   1.740   5.722 -1.8026 -0.2785  0.3419
 1943SOL     OW17464   4.194   3.811  10.665 -0.1472  0.6771  0.2866
 1943SOL    HW117465   4.147   3.727  10.668  1.4578 -0.3129 -2.4737
 1943SOL    HW217466   4.206   3.831  10.758 -3.1769 -0.8791  1.0237
 1944SOL     OW17467   1.029   1.930   1.424 -0.7553  0.2877 -0.1707
 1944SOL    HW117468   1.038   1.835   1.420  4.4539  0.7297  1.3107
 1944SOL    HW217469   1.117   1.962   1.444 -0.6819  2.1481 -3.5544
 1945SOL     OW17470   3.325   1.237   5.306  0.1655  0.1585  0.1271
 1945SOL    HW117471   3.418   1.230   5.327  0.1601 -0.4011 -0.0454
 1945SOL    HW217472   3.320   1.333   5.307 -0.7487  0.1167  0.4127
 1946SOL     OW17473   1.613   4.285   4.543 -0.4556  0.2439 -0.3016
 1946SOL    HW117474   1.582   4.328   4.623 -1.6021  0.5168 -0.8892
 1946SOL    HW217475   1.661   4.210   4.577 -0.0685  0.1498 -1.0474
 1947SOL     OW17476   1.473   1.791   6.723 -0.2227 -0.1934 -0.4815
 1947SOL    HW117477   1.552   1.818   6.678  0.2600 -2.2512 -0.8671
 1947SOL    HW217478   1.472   1.696   6.711 -0.2042 -0.2618  0.0341
 1948SOL     OW17479   0.726   2.493   2.857  0.0358 -0.2569 -0.2775
 1948SOL    HW117480   0.652   2.554   2.862  1.5548  1.7905 -2.8913
 1948SOL    HW217481   0.679   2.421   2.816 -1.0086  0.2719 -0.0085
 1949SOL     OW17482   0.104   1.626   1.517  0.5528 -0.0823  0.2792
 1949SOL    HW117483   0.168   1.562   1.486  2.2450  0.4510  2.6483
 1949SOL    HW217484   0.091   1.600   1.608  0.9621 -1.0061  0.0785
 1950SOL     OW17485   1.912   1.747   0.525  0.4199  0.4507  0.2210
 1950SOL    HW117486   1.930   1.656   0.504  2.1114  0.7222  0.4510
 1950SOL    HW217487   1.955   1.773   0.606  0.9044  0.6805 -0.1051
 1951SOL     OW17488   2.984   0.513   7.287 -0.1019 -0.2121  0.6960
 1951SOL    HW117489   2.974   0.447   7.219 -0.6567 -1.0666  1.6080
 1951SOL    HW217490   3.079   0.519   7.300  0.0618  0.8899 -1.1150
 1952SOL     OW17491   4.456   3.440   8.052 -0.3715  0.8217  0.1975
 1952SOL    HW117492   4.546   3.457   8.083  0.1169 -0.2778 -0.6138
 1952SOL    HW217493   4.479   3.420   7.961 -1.7481 -2.5947  0.5939
 1953SOL     OW17494   2.984   1.760   8.613 -1.2124 -0.2927  0.3145
 1953SOL    HW117495   3.062   1.721   8.652 -2.1360 -1.0555  1.3905
 1953SOL    HW217496   2.911   1.716   8.658  0.5140 -2.9508  0.5136
 1954SOL     OW17497   4.320   1.059  16.076  0.0233  0.4011  0.1950
 1954SOL    HW117498   4.411   1.084  16.061 -0.0443  2.4332  3.1151
 1954SOL    HW217499   4.264   1.132  16.051 -1.0192 -0.8620 -1.1605
 1955SOL     OW17500   2.049   4.324   2.406 -0.2752  0.9731 -0.0271
 1955SOL    HW117501   2.025   4.369   2.488  2.6099  1.4877  0.5138
 1955SOL    HW217502   1.998   4.375   2.343  0.3858  0.4779 -0.9559
 1956SOL     OW17503   0.437   0.314   8.185  0.5311  0.8148 -0.8052
 1956SOL    HW117504   0.364   0.257   8.163  0.8836 -0.3542  1.0432
 1956SOL    HW217505   0.397   0.395   8.215 -3.0555 -0.8815 -1.0330
 1957SOL     OW17506   1.244   3.199   7.887  0.0228  0.6141 -0.5865
 1957SOL    HW117507   1.248   3.243   7.802  0.0709  1.0271 -0.3705
 1957SOL    HW217508   1.296   3.263   7.935 -0.9918  1.1262 -0.1766
 1958SOL     OW17509   1.895   3.700   8.634  0.0494 -0.1007 -0.0651
 1958SOL    HW117510   1.944   3.627   8.596 -1.1003 -0.4018 -0.9804
 1958SOL    HW217511   1.940   3.769   8.586 -2.2265  0.7970 -0.9575
 1959SOL     OW17512   3.956   4.437   4.258 -0.1407  0.0693 -0.6652
 1959SOL    HW117513   4.004   4.366   4.301 -0.6313  1.5462  2.3114
 1959SOL    HW217514   3.903   4.473   4.328  2.5551  0.0800  1.3694
 1960SOL     OW17515   4.596   2.797   6.878 -0.3970  0.1886  0.7684
 1960SOL    HW117516   4.584   2.877   6.930 -1.9740 -0.3504  1.2121
 1960SOL    HW217517   4.690   2.806   6.861 -0.1351  0.6771  2.5588
 1961SOL     OW17518   1.946   0.021   9.174  0.3887  0.0345 -0.4896
 1961SOL    HW117519   1.980   0.105   9.143 -1.3411  0.4935 -1.1319
 1961SOL    HW217520   1.853   0.041   9.182  0.8047  1.0120  1.6670
 1962SOL     OW17521   0.018   0.573   8.814 -0.7146  0.2986  0.0845
 1962SOL    HW117522   4.691   0.541   8.750  1.0055  0.8809 -1.9021
 1962SOL    HW217523   4.697   0.631   8.863 -1.0351  1.3485 -1.5555
 1963SOL     OW17524   2.584   0.175   5.825 -0.1223  0.2173 -0.0507
 1963SOL    HW117525   2.669   0.142   5.856 -0.7963 -1.3628  0.0576
 1963SOL    HW217526   2.528   0.101   5.805  0.9030  0.0403 -2.3016
 1964SOL     OW17527   0.103   2.613   3.234  1.0664  0.7144  0.1214
 1964SOL    HW117528   0.168   2.545   3.218 -0.1442 -0.5460  0.5336
 1964SOL    HW217529   0.102   2.606   3.329  0.5815  1.6956  0.1947
 1965SOL     OW17530   2.853   0.135   0.997 -0.8114 -0.5360  0.0235
 1965SOL    HW117531   2.851   0.212   0.941 -2.2637 -0.6131 -0.0331
 1965SOL    HW217532   2.769   0.145   1.041 -0.8292  0.8988 -0.3458
 1966SOL     OW17533   1.244   4.554   2.002 -0.4013  0.1576 -0.3578
 1966SOL    HW117534   1.305   4.488   2.034  0.8791  0.9540 -1.1526
 1966SOL    HW217535   1.182   4.495   1.959 -0.8013  0.1715  0.2138
 1967SOL     OW17536   4.541   4.693   3.049 -0.4195 -0.1770 -0.2551
 1967SOL    HW117537   4.631   4.720   3.065 -0.5482  0.3805 -0.4673
 1967SOL    HW217538   4.503   0.017   3.112  0.9347  0.5306 -0.1336
 1968SOL     OW17539   0.406   0.057   6.415  0.0496 -0.3128 -0.1429
 1968SOL    HW117540   0.500   0.042   6.426  0.5667  0.5465 -3.5709
 1968SOL    HW217541   0.401   0.151   6.400 -1.2763 -0.2500  0.7433
 1969SOL     OW17542   3.763   0.361  10.947  0.1884  0.0923 -0.5356
 1969SOL    HW117543   3.765   0.453  10.971  2.3441  0.0563 -0.5946
 1969SOL    HW217544   3.841   0.347  10.894  1.0311  0.8869  0.4945
 1970SOL     OW17545   1.391   0.573  10.673  0.3231 -0.1052  0.2854
 1970SOL    HW117546   1.483   0.586  10.697  0.2751 -1.7310  1.3559
 1970SOL    HW217547   1.405   0.582  10.578 -1.4378  3.9226  0.4164
 1971SOL     OW17548   1.514   4.650  16.484 -0.2349  0.0073  0.2650
 1971SOL    HW117549   1.449   4.707  16.526 -1.3974 -0.3654 -1.0269
 1971SOL    HW217550   1.484   4.561  16.500  1.3987 -0.3812  1.1456
 1972SOL     OW17551   1.581   4.379  16.879  0.4872  0.2506  0.0435
 1972SOL    HW117552   1.644   4.393  16.808 -0.8556 -0.3282 -1.2590
 1972SOL    HW217553   1.524   4.455  16.866 -0.7041 -0.5645  0.5196
 1973SOL     OW17554   1.643   3.608  10.319 -0.3532  0.5753 -0.0369
 1973SOL    HW117555   1.597   3.638  10.241  2.2748  0.8917 -1.4889
 1973SOL    HW217556   1.615   3.519  10.339  0.9460 -0.0001 -0.8005
 1974SOL     OW17557   2.089   0.835   1.741  0.3440  0.5286 -0.0070
 1974SOL    HW117558   2.008   0.840   1.689  0.7858 -0.9704 -0.8352
 1974SOL    HW217559   2.095   0.927   1.767  2.3284  0.1606  0.7825
 1975SOL     OW17560   0.633   4.631  14.479  0.2347  0.1665 -0.1816
 1975SOL    HW117561   0.569   4.614  14.548  2.8787 -0.5632  2.0979
 1975SOL    HW217562   0.570   4.638  14.408  1.1984  1.5112 -0.8955
 1976SOL     OW17563   2.989   3.328   6.946 -0.0001 -0.0425  0.2156
 1976SOL    HW117564   2.929   3.401   6.958  1.4050  0.9643  1.2157
 1976SOL    HW217565   3.008   3.342   6.854 -0.7735  1.4967  0.2824
 1977SOL     OW17566   4.013   0.293   5.781 -0.1210  0.1041 -0.5680
 1977SOL    HW117567   3.936   0.319   5.731 -0.0737 -0.9479 -1.1872
 1977SOL    HW217568   3.992   0.202   5.800 -2.1573  0.2069 -2.3450
 1978SOL     OW17569   3.799   2.510   1.750 -0.9458  0.2486  0.4631
 1978SOL    HW117570   3.835   2.436   1.798  0.6012  1.9266  1.8683
 1978SOL    HW217571   3.781   2.577   1.815 -0.0814  0.7873  0.1460
 1979SOL     OW17572   1.199   4.310   6.224 -0.0725  0.1219 -0.3730
 1979SOL    HW117573   1.216   4.234   6.279  1.6425  0.1597 -0.8453
 1979SOL    HW217574   1.104   4.316   6.221  0.1391  2.4782 -2.3263
 1980SOL     OW17575   3.342   0.467  17.032  0.0672 -0.3560 -0.7716
 1980SOL    HW117576   3.273   0.402  17.036  0.8874 -1.1847 -0.0470
 1980SOL    HW217577   3.333   0.515  16.949  3.7532 -0.7499 -1.4358
 1981SOL     OW17578   1.261   3.701   6.377 -0.0464 -0.1241  0.2984
 1981SOL    HW117579   1.192   3.755   6.339 -1.8046 -2.1714  0.5725
 1981SOL    HW217580   1.294   3.661   6.297  0.9253  0.4614  0.4138
 1982SOL     OW17581   1.358   4.117  12.159 -0.1602 -0.8263  0.1433
 1982SOL    HW117582   1.397   4.037  12.194 -2.1892 -0.8755  2.2621
 1982SOL    HW217583   1.430   4.163  12.116  0.4522 -0.6692  1.3264
 1983SOL     OW17584   3.937   1.004  15.014  0.4504  0.0519 -0.2093
 1983SOL    HW117585   3.856   1.041  14.981  0.7106 -0.9087 -1.9144
 1983SOL    HW217586   4.003   1.072  14.998  1.3142 -0.6463  0.3638
 1984SOL     OW17587   2.901   4.030  11.738 -0.7772 -0.0842  0.5835
 1984SOL    HW117588   2.864   3.949  11.772  0.3087 -0.0512  1.8418
 1984SOL    HW217589   2.868   4.089  11.806  1.2602  0.4354  1.1152
 1985SOL     OW17590   3.900   1.434   5.660 -0.0973  0.0482  0.6904
 1985SOL    HW117591   3.823   1.473   5.619 -0.9801  2.4353  4.6134
 1985SOL    HW217592   3.935   1.386   5.585  1.0575  2.0962 -0.0836
 1986SOL     OW17593   3.206   4.481   7.665  0.0051  0.1671 -0.1982
 1986SOL    HW117594   3.184   4.400   7.619  0.8559  0.3956 -1.0079
 1986SOL    HW217595   3.300   4.464   7.670 -0.0120  0.3297  0.6751
 1987SOL     OW17596   4.515   1.175   6.324  0.6618 -0.2480  0.2204
 1987SOL    HW117597   4.458   1.231   6.271  0.5608  0.9744  1.6318
 1987SOL    HW217598   4.524   1.096   6.270 -0.0197  0.5900 -1.1201
 1988SOL     OW17599   0.536   4.236   8.045 -0.0695 -0.0537 -0.4137
 1988SOL    HW117600   0.500   4.232   8.133  0.8681  1.1787  0.0221
 1988SOL    HW217601   0.481   4.311   8.021  0.3838  0.7351  1.0201
 1989SOL     OW17602   3.929   2.664   6.200 -0.2448 -0.8469 -0.9885
 1989SOL    HW117603   3.881   2.747   6.212 -1.5702 -1.5843 -1.1259
 1989SOL    HW217604   4.009   2.684   6.249 -0.4155  1.6483 -1.7054
 1990SOL     OW17605   0.300   3.272  14.855 -0.1954  0.1118  0.5728
 1990SOL    HW117606   0.276   3.268  14.762  0.9845 -1.5993  0.3349
 1990SOL    HW217607   0.239   3.328  14.902  0.1213  0.6164  0.3839
 1991SOL     OW17608   3.920   1.710  17.084  0.4789 -0.4650  0.3706
 1991SOL    HW117609   3.970   1.630  17.065 -0.2340  0.0017 -3.4469
 1991SOL    HW217610   3.835   1.691  17.044 -0.1787  0.6696  1.2303
 1992SOL     OW17611   0.479   2.417  15.229 -0.1129  0.0692  0.0380
 1992SOL    HW117612   0.449   2.326  15.234 -0.5649  0.1568 -1.1063
 1992SOL    HW217613   0.525   2.422  15.312  1.1958 -0.0711 -0.6897
 1993SOL     OW17614   3.123   1.043   2.163 -0.5034  0.1790  0.4848
 1993SOL    HW117615   3.209   1.008   2.186  0.2323  2.2990  0.9361
 1993SOL    HW217616   3.078   1.047   2.248 -3.4367  0.2678 -1.0468
 1994SOL     OW17617   2.460   1.435   5.500 -0.4598 -0.0262  0.1406
 1994SOL    HW117618   2.504   1.450   5.416 -2.0120 -2.1951 -1.0615
 1994SOL    HW217619   2.488   1.514   5.546 -0.6532  0.7121 -1.0162
 1995SOL     OW17620   2.510   1.129   4.800  0.0023  0.1943  0.2590
 1995SOL    HW117621   2.571   1.201   4.816 -0.2580  1.0397 -2.5479
 1995SOL    HW217622   2.553   1.063   4.854  1.6645  1.3668  0.3740
 1996SOL     OW17623   2.782   3.477   8.396 -0.4396 -0.1775  0.0119
 1996SOL    HW117624   2.847   3.543   8.375 -1.9251  1.0418 -0.7571
 1996SOL    HW217625   2.815   3.415   8.331  0.0947  2.0652 -1.8261
 1997SOL     OW17626   0.364   2.453   2.031 -0.6757 -0.3367 -0.2891
 1997SOL    HW117627   0.340   2.423   2.119 -0.5393  1.2457  0.2800
 1997SOL    HW217628   0.357   2.371   1.982 -0.4959 -0.1894 -0.5647
 1998SOL     OW17629   0.487   4.105   2.555  0.8855 -0.0711 -0.2206
 1998SOL    HW117630   0.462   4.084   2.645 -1.4394  2.6033 -0.2418
 1998SOL    HW217631   0.424   4.048   2.510  0.3969  0.1653  0.1532
 1999SOL     OW17632   0.454   1.808   7.499 -0.8365  0.0486 -0.1640
 1999SOL    HW117633   0.441   1.806   7.405  1.4377  1.1770 -0.5089
 1999SOL    HW217634   0.510   1.886   7.500 -0.0248 -0.5597  2.6246
 2000SOL     OW17635   4.206   0.143   7.112 -0.4229  0.6489  0.3115
 2000SOL    HW117636   4.234   0.214   7.170  1.6310  0.4699 -0.4801
 2000SOL    HW217637   4.161   0.082   7.171 -1.3218  0.8992 -0.1188
 2001SOL     OW17638   3.712   2.938   0.587  0.5547  0.0143  0.5312
 2001SOL    HW117639   3.776   2.928   0.657  1.1389  0.1473  0.0120
 2001SOL    HW217640   3.763   2.894   0.519 -0.6008  0.0906 -0.3844
 2002SOL     OW17641   0.437   1.530   3.571  0.3276  0.4628  0.6104
 2002SOL    HW117642   0.518   1.519   3.620  0.8890  0.0263 -0.4270
 2002SOL    HW217643   0.392   1.605   3.609 -1.1316 -1.2024  2.1494
 2003SOL     OW17644   1.817   4.578  13.527  0.4092  0.3108  0.1687
 2003SOL    HW117645   1.878   4.592  13.454  1.4796 -0.2398  0.9714
 2003SOL    HW217646   1.850   4.493  13.554 -0.8570 -0.9545 -2.1713
 2004SOL     OW17647   4.086   2.961   7.094 -0.0914  0.3183  0.5056
 2004SOL    HW117648   4.172   2.935   7.062 -0.0543  1.1071 -0.0237
 2004SOL    HW217649   4.104   2.969   7.188  1.1205  0.6035  0.2462
 2005SOL     OW17650   0.252   4.663  12.554 -0.4757  0.2442 -0.2500
 2005SOL    HW117651   0.279   4.584  12.507 -1.2889  0.1309 -0.5349
 2005SOL    HW217652   0.280   4.635  12.641 -0.3978  1.6017  0.1615
 2006SOL     OW17653   4.188   1.785   3.544  0.2600  0.0129 -0.4524
 2006SOL    HW117654   4.201   1.871   3.584 -1.5047  0.4918 -0.8953
 2006SOL    HW217655   4.141   1.739   3.614 -1.0378  2.3929  0.2574
 2007SOL     OW17656   2.915   1.444   8.711 -0.8074  0.0589 -0.3962
 2007SOL    HW117657   2.887   1.403   8.793  0.9307  1.1761  0.7579
 2007SOL    HW217658   2.840   1.503   8.706 -0.7844  0.1088 -0.1419
 2008SOL     OW17659   3.587   2.412   5.858 -0.0994  0.0037  0.0261
 2008SOL    HW117660   3.573   2.495   5.813  0.7904  0.0412 -0.1882
 2008SOL    HW217661   3.496   2.383   5.855  0.6069 -2.1065 -1.4686
 2009SOL     OW17662   3.308   0.890   6.913  0.4477 -0.2556 -0.3922
 2009SOL    HW117663   3.305   0.808   6.864 -0.7206 -0.0545 -0.6416
 2009SOL    HW217664   3.316   0.847   6.998  2.5083  1.7896  0.4908
 2010SOL     OW17665   2.816   0.503   0.074  0.1624  0.4079 -0.1919
 2010SOL    HW117666   2.847   0.459  17.742 -0.1738 -1.6064  0.7978
 2010SOL    HW217667   2.818   0.426   0.131  0.6369  0.9280  0.4936
 2011SOL     OW17668   0.658   0.267  12.329 -0.4168  0.3871  0.4894
 2011SOL    HW117669   0.705   0.202  12.277 -0.3710 -0.4991  1.6199
 2011SOL    HW217670   0.572   0.267  12.286 -0.3856 -0.2582  0.4210
 2012SOL     OW17671   0.345   2.811   3.577  0.3076  0.5372  1.0082
 2012SOL    HW117672   0.301   2.736   3.619  1.8560 -1.1948 -0.4810
 2012SOL    HW217673   0.290   2.870   3.630 -1.6534 -1.2468  0.9873
 2013SOL     OW17674   2.548   4.135  16.490 -0.2181  0.5042  0.2392
 2013SOL    HW117675   2.575   4.154  16.400  0.7890  2.5504  0.9837
 2013SOL    HW217676   2.467   4.083  16.486  0.3518 -0.3730 -0.0718
 2014SOL     OW17677   3.056   1.900   7.642 -0.0525 -0.1013 -0.5330
 2014SOL    HW117678   3.015   1.891   7.556  0.9342 -2.3136 -0.7715
 2014SOL    HW217679   3.070   1.809   7.666  1.4955  0.1366 -0.5735
 2015SOL     OW17680   2.285   0.875   3.216 -0.1293 -0.1051  0.4229
 2015SOL    HW117681   2.271   0.781   3.212  1.2729 -0.3437  1.4724
 2015SOL    HW217682   2.379   0.888   3.228  0.1228 -0.6653 -0.9839
 2016SOL     OW17683   0.608   3.994   8.632 -0.2071  0.3065 -0.0846
 2016SOL    HW117684   0.554   4.070   8.656  1.8232  2.1441 -1.3409
 2016SOL    HW217685   0.596   4.003   8.538 -0.1348 -0.6471 -0.1759
 2017SOL     OW17686   1.839   0.910   7.455  0.0355  0.9178 -0.6353
 2017SOL    HW117687   1.927   0.890   7.423 -1.4657 -2.2390 -2.8082
 2017SOL    HW217688   1.861   0.997   7.489  0.4301 -0.2797  2.2390
 2018SOL     OW17689   2.643   2.936   2.073  0.0164  0.1933  0.1113
 2018SOL    HW117690   2.701   2.911   2.001  0.3960 -0.0469  0.4976
 2018SOL    HW217691   2.566   2.879   2.063  0.8513 -0.5236 -2.1395
 2019SOL     OW17692   1.429   4.184   8.355  0.0172  0.4775  0.1153
 2019SOL    HW117693   1.401   4.199   8.265  0.8324 -2.0997 -0.5799
 2019SOL    HW217694   1.486   4.261   8.361  1.2214 -0.5190  1.2728
 2020SOL     OW17695   3.766   0.601   4.355  0.3077  0.2096 -0.3314
 2020SOL    HW117696   3.690   0.548   4.332  0.0885  0.0958  0.6357
 2020SOL    HW217697   3.740   0.677   4.304 -1.7573 -0.4921 -0.3310
 2021SOL     OW17698   3.179   2.357   3.720 -0.3666  0.3230  0.2188
 2021SOL    HW117699   3.200   2.365   3.813  5.1298  0.4746 -1.0379
 2021SOL    HW217700   3.266   2.363   3.680  0.4753  4.4464  2.6920
 2022SOL     OW17701   2.337   0.788   2.846  0.5609  0.0675  0.3391
 2022SOL    HW117702   2.369   0.712   2.796  0.6439 -0.1536  0.7253
 2022SOL    HW217703   2.311   0.850   2.779  0.4672  0.6276  0.8951
 2023SOL     OW17704   0.642   3.739   9.097 -0.3883 -0.1578 -0.0314
 2023SOL    HW117705   0.551   3.708   9.103  0.1949 -1.9927 -0.8232
 2023SOL    HW217706   0.638   3.802   9.025 -0.2268  0.7044  0.7170
 2024SOL     OW17707   1.468   3.435   7.406 -0.0084 -0.0057  0.0593
 2024SOL    HW117708   1.471   3.339   7.397 -1.2929 -0.1334  0.9522
 2024SOL    HW217709   1.491   3.464   7.318  0.3646 -1.2127 -0.2361
 2025SOL     OW17710   2.910   2.216  13.183  0.5958 -0.1113  0.2894
 2025SOL    HW117711   2.855   2.193  13.108 -0.1094  0.1017  0.7417
 2025SOL    HW217712   2.997   2.205  13.145  0.0283 -0.7637 -0.8284
 2026SOL     OW17713   2.164   1.363   6.401  0.4083  0.1762  0.5963
 2026SOL    HW117714   2.157   1.390   6.493  0.6446 -2.3068  1.3444
 2026SOL    HW217715   2.181   1.269   6.403  1.3372  0.3195 -0.7656
 2027SOL     OW17716   4.529   3.472   4.890  0.1770 -0.6494 -0.7920
 2027SOL    HW117717   4.566   3.384   4.880  0.2710 -0.3842 -2.8685
 2027SOL    HW217718   4.479   3.497   4.812  1.2998 -0.5095 -1.4695
 2028SOL     OW17719   3.130   3.328  14.052  0.4278  0.6022 -0.2939
 2028SOL    HW117720   3.083   3.316  13.970  0.4674  0.3175 -0.2759
 2028SOL    HW217721   3.207   3.375  14.024  0.9239  0.1303  0.2723
 2029SOL     OW17722   4.555   0.410   1.492  0.4227 -0.5928 -0.0670
 2029SOL    HW117723   4.634   0.462   1.506  0.9458 -1.0713 -1.3284
 2029SOL    HW217724   4.591   0.330   1.529 -0.7133 -0.5359  1.1932
 2030SOL     OW17725   3.643   0.128   4.664  0.1949  0.4255  0.5281
 2030SOL    HW117726   3.589   0.205   4.683 -0.9711 -0.1776 -0.3615
 2030SOL    HW217727   3.576   0.073   4.622  1.6138  0.3810 -1.6707
 2031SOL     OW17728   4.298   3.146   1.204  0.0371 -0.2170 -0.7190
 2031SOL    HW117729   4.363   3.097   1.255 -0.7358  1.3621  1.7405
 2031SOL    HW217730   4.358   3.182   1.139  2.4382 -0.5787  1.2819
 2032SOL     OW17731   4.644   2.323   8.608  0.8146  0.5477 -0.2347
 2032SOL    HW117732   4.665   2.281   8.692  2.6615 -2.4007 -2.1564
 2032SOL    HW217733   4.681   2.409   8.626  0.8724  0.5088 -0.1649
 2033SOL     OW17734   1.713   2.584   2.552 -0.1709 -0.8058 -0.2331
 2033SOL    HW117735   1.801   2.606   2.583 -1.0270  1.2154  0.8046
 2033SOL    HW217736   1.669   2.568   2.635 -1.4932  0.2641 -0.7277
 2034SOL     OW17737   3.558   3.228   3.801  0.9030  0.2755  0.1260
 2034SOL    HW117738   3.638   3.280   3.812  0.9371  0.2071  0.2026
 2034SOL    HW217739   3.545   3.187   3.887  0.3536  0.0993 -0.0423
 2035SOL     OW17740   3.842   4.265   3.779 -0.0769 -0.2216  0.1596
 2035SOL    HW117741   3.867   4.355   3.800 -0.9267 -0.2722  1.3964
 2035SOL    HW217742   3.873   4.249   3.690 -2.5363 -1.3529 -0.5189
 2036SOL     OW17743   3.729   0.275  17.060  0.1345  0.0914 -0.2274
 2036SOL    HW117744   3.776   0.254  17.141  0.5106  0.0204 -0.4646
 2036SOL    HW217745   3.660   0.208  17.056  1.6637 -1.5517  0.5658
 2037SOL     OW17746   0.021   2.130  13.451 -0.0186  0.2703 -0.1734
 2037SOL    HW117747   4.732   2.077  13.527  0.8562 -0.6562 -0.5179
 2037SOL    HW217748   4.729   2.214  13.487  0.4517  0.5364 -0.4130
 2038SOL     OW17749   1.493   3.459   0.742  0.1160 -0.3710 -0.1641
 2038SOL    HW117750   1.559   3.484   0.806 -0.8734 -0.9436  1.0743
 2038SOL    HW217751   1.410   3.479   0.784  0.1018 -3.6683  1.3791
 2039SOL     OW17752   2.216   1.777   3.335 -0.1990  0.4657  0.0070
 2039SOL    HW117753   2.298   1.729   3.319 -1.0477 -1.3810  1.1244
 2039SOL    HW217754   2.160   1.699   3.334  0.9984 -0.4291  1.6104
 2040SOL     OW17755   2.515   2.549   2.397  0.4590  0.3772  0.1403
 2040SOL    HW117756   2.463   2.502   2.461 -1.5873  0.1515 -1.6591
 2040SOL    HW217757   2.453   2.619   2.374 -0.0190  0.2327  0.9902
 2041SOL     OW17758   3.027   3.151   2.202 -0.2667  0.1245 -0.0826
 2041SOL    HW117759   3.065   3.149   2.290  1.8407 -2.5031 -1.0505
 2041SOL    HW217760   2.934   3.155   2.226 -0.1573  2.5836 -0.0684
 2042SOL     OW17761   3.929   2.945   8.876 -0.3439 -0.3173 -0.7589
 2042SOL    HW117762   3.983   3.003   8.930 -1.3704 -0.8232  0.8243
 2042SOL    HW217763   3.928   2.996   8.795 -1.7627  1.9411  0.6686
 2043SOL     OW17764   2.434   3.766   5.637 -0.0464 -0.2879 -0.6986
 2043SOL    HW117765   2.441   3.731   5.548 -0.5653 -0.3515 -0.7152
 2043SOL    HW217766   2.441   3.686   5.690  0.8381  0.2492 -0.0072
 2044SOL     OW17767   1.828   2.231   2.950 -0.1575  0.5682 -0.1845
 2044SOL    HW117768   1.885   2.163   2.914 -0.2466  1.0303 -1.1910
 2044SOL    HW217769   1.805   2.191   3.034  0.4929  1.0434  0.2210
 2045SOL     OW17770   3.490   1.267  14.941  0.5146  0.0500  0.7010
 2045SOL    HW117771   3.509   1.361  14.938  0.6564  0.0756  2.4448
 2045SOL    HW217772   3.421   1.271  15.006 -0.6787  0.5074 -0.6095
 2046SOL     OW17773   3.333   1.543   7.815 -0.1376 -0.2811 -0.7793
 2046SOL    HW117774   3.385   1.502   7.746  2.2795  0.3046  0.6898
 2046SOL    HW217775   3.334   1.480   7.887 -1.3340  2.4875  1.6856
 2047SOL     OW17776   3.343   0.532   2.158  0.3585 -0.5851  0.2975
 2047SOL    HW117777   3.366   0.624   2.170 -1.0723  0.3140 -3.8691
 2047SOL    HW217778   3.425   0.492   2.187  0.2498 -0.0019  1.4095
 2048SOL     OW17779   1.070   2.112   7.018  0.3442  0.4006  0.3440
 2048SOL    HW117780   1.060   2.057   6.940  2.2146  1.5188 -0.6813
 2048SOL    HW217781   1.165   2.112   7.029  0.2826  2.6779  0.7858
 2049SOL     OW17782   3.970   1.233   3.309  0.4072 -0.2220 -0.1710
 2049SOL    HW117783   3.933   1.285   3.381  0.8578 -0.1011 -0.0236
 2049SOL    HW217784   4.065   1.231   3.322  0.1745  1.0894  1.8242
 2050SOL     OW17785   3.164   3.959   8.568  0.3618 -0.5472  0.2416
 2050SOL    HW117786   3.124   3.955   8.655 -0.6553  0.5819 -0.1766
 2050SOL    HW217787   3.095   3.981   8.505  1.6715  0.4414 -0.8563
 2051SOL     OW17788   0.187   0.081   5.765 -0.0762  0.1047  0.3746
 2051SOL    HW117789   0.216   0.028   5.840 -1.7134 -0.6516  0.4758
 2051SOL    HW217790   0.100   0.041   5.757 -0.3312  0.5822  0.7966
 2052SOL     OW17791   1.537   3.548   4.774  0.3945 -0.4377  0.2215
 2052SOL    HW117792   1.457   3.525   4.726  0.4766  0.0860 -0.1716
 2052SOL    HW217793   1.604   3.509   4.718  1.0842 -0.1360  0.8451
 2053SOL     OW17794   3.181   2.627   1.684 -0.4529  0.3267  0.1544
 2053SOL    HW117795   3.172   2.532   1.680 -1.9383  0.3707  2.6055
 2053SOL    HW217796   3.087   2.644   1.691 -0.5924  0.0243 -0.9228
 2054SOL     OW17797   2.629   1.936   7.224  0.5107  0.3924 -0.1418
 2054SOL    HW117798   2.678   1.967   7.300 -0.3899  2.2769 -0.3269
 2054SOL    HW217799   2.594   1.855   7.261 -0.2776  1.2843  1.0641
 2055SOL     OW17800   2.307   4.659   0.962  0.2380  0.6603 -0.2652
 2055SOL    HW117801   2.215   4.683   0.956  0.0657 -0.4702 -2.1853
 2055SOL    HW217802   2.358   4.732   0.927  2.9075 -1.1164 -0.1438
 2056SOL     OW17803   3.299   4.219   1.654 -1.0430  0.3429 -0.4225
 2056SOL    HW117804   3.365   4.156   1.685  0.6228 -0.0082 -4.7669
 2056SOL    HW217805   3.255   4.164   1.590 -2.2992 -0.7082  1.3387
 2057SOL     OW17806   4.538   1.814   7.201 -0.6495  0.0198 -0.6971
 2057SOL    HW117807   4.580   1.753   7.141 -3.5151  0.0250 -2.7217
 2057SOL    HW217808   4.447   1.825   7.173 -0.3486  0.1734 -1.5971
 2058SOL     OW17809   1.840   4.125   2.675 -0.2004  0.1648 -0.0277
 2058SOL    HW117810   1.847   4.190   2.746 -0.4215  0.6038 -0.4101
 2058SOL    HW217811   1.812   4.048   2.724  2.1821 -0.3759  0.4930
 2059SOL     OW17812   2.813   3.505   7.081 -0.1925  0.0102 -0.8936
 2059SOL    HW117813   2.757   3.582   7.089 -0.8111 -0.5167 -0.0975
 2059SOL    HW217814   2.746   3.445   7.046 -0.5327 -0.9655  1.4029
 2060SOL     OW17815   1.211   3.065   1.730  0.3861  0.4393  0.2086
 2060SOL    HW117816   1.225   3.005   1.656  1.0777  0.2267  0.5142
 2060SOL    HW217817   1.244   3.021   1.808  1.2721  1.4352  0.3896
 2061SOL     OW17818   3.318   2.757  11.052 -0.3605  0.6107  0.5793
 2061SOL    HW117819   3.249   2.713  11.101 -0.8138  0.2953 -0.3568
 2061SOL    HW217820   3.298   2.727  10.963 -0.3349  0.5264  0.6017
 2062SOL     OW17821   2.811   4.566   0.958 -0.5382 -0.0024 -0.2786
 2062SOL    HW117822   2.767   4.608   0.883 -1.3107 -0.8334 -0.2872
 2062SOL    HW217823   2.820   4.640   1.018  0.5516  0.8116 -1.4483
 2063SOL     OW17824   3.419   0.832   5.284  0.3175  0.3911  0.2181
 2063SOL    HW117825   3.378   0.798   5.364 -2.7494  0.7035 -1.2287
 2063SOL    HW217826   3.405   0.926   5.275  2.1871  0.9052  2.9074
 2064SOL     OW17827   0.164   4.025   4.127 -0.3522  0.4009 -1.0409
 2064SOL    HW117828   0.166   4.120   4.118 -1.0660  0.4466 -0.7132
 2064SOL    HW217829   0.161   4.019   4.222  0.3917 -1.7635 -1.1598
 2065SOL     OW17830   1.277   1.414  17.611 -0.2087 -0.1545 -0.2639
 2065SOL    HW117831   1.212   1.484  17.602  0.1678  0.7954  4.3051
 2065SOL    HW217832   1.237   1.376  17.689 -0.6722 -1.3433 -1.0857
 2066SOL     OW17833   1.395   1.311   2.660 -0.0191  0.1902 -0.3305
 2066SOL    HW117834   1.360   1.271   2.740 -0.3884  1.7602  0.3037
 2066SOL    HW217835   1.368   1.250   2.592  0.7835  0.0336 -0.5117
 2067SOL     OW17836   1.081   0.107  12.239  0.1315 -0.2692  0.4260
 2067SOL    HW117837   1.011   0.132  12.179 -0.6260  2.4298  2.4173
 2067SOL    HW217838   1.160   0.128  12.188  0.4996  1.2072  1.6056
 2068SOL     OW17839   0.921   0.480   2.656 -0.0177  0.1344  0.7385
 2068SOL    HW117840   0.996   0.513   2.707  0.0519  1.8802 -0.4816
 2068SOL    HW217841   0.853   0.482   2.724  0.3649  0.4994  1.1125
 2069SOL     OW17842   0.434   2.424   5.705 -0.1637  0.5689 -0.1133
 2069SOL    HW117843   0.346   2.392   5.688  0.1216 -0.3568  0.1508
 2069SOL    HW217844   0.486   2.351   5.738  0.6427  1.0190 -0.3780
 2070SOL     OW17845   3.650   4.135   0.353  0.1506  0.3326  0.0147
 2070SOL    HW117846   3.713   4.080   0.307  2.0893  0.6215  2.3677
 2070SOL    HW217847   3.565   4.100   0.325  0.3652  0.3094 -0.6153
 2071SOL     OW17848   4.591   2.462   5.455 -0.1852  0.4438 -0.2781
 2071SOL    HW117849   4.582   2.369   5.434 -0.0299  0.7602 -1.8105
 2071SOL    HW217850   4.559   2.494   5.370  1.0767 -2.7509 -1.9579
 2072SOL     OW17851   4.493   2.271   3.095 -0.1630 -0.3598 -0.4416
 2072SOL    HW117852   4.511   2.362   3.118 -2.7644 -0.2848  1.3533
 2072SOL    HW217853   4.397   2.267   3.090 -0.1545 -2.5099  1.5549
 2073SOL     OW17854   4.302   2.382   2.119 -0.3288 -0.6582  0.5339
 2073SOL    HW117855   4.334   2.300   2.157  0.1556 -0.8154 -0.2093
 2073SOL    HW217856   4.283   2.420   2.205  0.5781 -1.5101  1.1270
 2074SOL     OW17857   1.539   2.950   0.455  0.2910 -0.3388  0.1606
 2074SOL    HW117858   1.478   2.895   0.505 -0.7347  1.0058  0.4010
 2074SOL    HW217859   1.513   2.921   0.368 -0.3216  0.6269  0.0114
 2075SOL     OW17860   0.602   2.812   1.989 -0.3132 -0.2082 -0.1297
 2075SOL    HW117861   0.606   2.904   2.014 -0.0718 -0.3058  0.1953
 2075SOL    HW217862   0.680   2.813   1.933 -0.5590  1.5055 -0.4567
 2076SOL     OW17863   3.640   0.555   8.460 -0.5226  0.3654 -0.0333
 2076SOL    HW117864   3.661   0.462   8.462  0.6056  0.5185 -3.5876
 2076SOL    HW217865   3.567   0.553   8.398 -1.4538  3.2961  0.9777
 2077SOL     OW17866   3.092   1.902   6.882  0.0643  0.2030  0.5796
 2077SOL    HW117867   3.081   1.846   6.805  0.4803  0.9096  0.0135
 2077SOL    HW217868   3.039   1.979   6.864 -0.5872 -0.1681  0.9119
 2078SOL     OW17869   1.177   2.223  10.668 -0.4202  0.1533  0.1646
 2078SOL    HW117870   1.165   2.248  10.576  1.6586  0.2845 -0.0655
 2078SOL    HW217871   1.090   2.182  10.669 -0.1111 -0.4876  1.7340
 2079SOL     OW17872   3.602   4.666   8.589  0.3290  0.2545 -0.6583
 2079SOL    HW117873   3.611   4.604   8.662 -2.8829  2.2125  1.3762
 2079SOL    HW217874   3.599   0.016   8.628 -1.3342 -0.9404  1.8758
 2080SOL     OW17875   4.557   3.461   9.838  0.3524 -0.4386  0.0297
 2080SOL    HW117876   4.565   3.366   9.834 -0.9352 -0.4430 -2.3184
 2080SOL    HW217877   4.583   3.481   9.928 -0.3690 -3.0433  0.8138
 2081SOL     OW17878   0.777   0.831   6.772  0.1491 -0.7078 -0.4434
 2081SOL    HW117879   0.868   0.815   6.747  0.1709 -0.0765 -0.7903
 2081SOL    HW217880   0.753   0.909   6.720  0.2500 -0.4962 -0.1716
 2082SOL     OW17881   0.104   0.883   6.675 -0.1422  0.8227 -0.0994
 2082SOL    HW117882   0.094   0.974   6.645 -0.9403  0.0962 -1.9992
 2082SOL    HW217883   0.182   0.899   6.729  1.6283 -0.0012 -2.4103
 2083SOL     OW17884   0.788   4.419   4.825 -0.1537  0.0750 -0.0075
 2083SOL    HW117885   0.841   4.498   4.832  0.2197 -0.1146 -0.6459
 2083SOL    HW217886   0.855   4.355   4.801  0.1673  0.1906  0.5927
 2084SOL     OW17887   3.351   1.995   2.204  0.0094 -0.4433 -0.0757
 2084SOL    HW117888   3.416   2.063   2.182  0.7500 -1.0640  0.2158
 2084SOL    HW217889   3.268   2.041   2.192  0.0774 -1.0260 -2.7649
 2085SOL     OW17890   3.556   4.334  11.842  0.6380 -0.5994  0.6149
 2085SOL    HW117891   3.523   4.422  11.862 -0.0435 -0.9068  0.8669
 2085SOL    HW217892   3.637   4.335  11.893  1.6127  1.7235 -1.0006
 2086SOL     OW17893   0.112   0.637  17.216 -0.1954  0.4882  0.0671
 2086SOL    HW117894   0.049   0.621  17.287  1.5340 -0.4523  1.4072
 2086SOL    HW217895   0.192   0.599  17.253 -0.5611  1.6216  2.0556
 2087SOL     OW17896   4.509   2.449   6.203  0.1108 -0.1894 -0.0667
 2087SOL    HW117897   4.421   2.486   6.198 -0.0307 -0.4821  0.2085
 2087SOL    HW217898   4.493   2.355   6.192  0.5589 -0.0410 -1.8571
 2088SOL     OW17899   4.162   4.299   8.515 -1.0906  0.1977 -0.1934
 2088SOL    HW117900   4.171   4.230   8.448 -2.3513 -0.7776  0.6393
 2088SOL    HW217901   4.252   4.323   8.536 -1.3160  1.4702 -0.6929
 2089SOL     OW17902   0.738   2.023  10.495 -0.0962  0.0030 -0.6479
 2089SOL    HW117903   0.709   1.945  10.448  0.1305 -1.0852  1.0227
 2089SOL    HW217904   0.815   2.041  10.441 -1.6467 -0.4200 -2.9970
 2090SOL     OW17905   3.410   1.687   3.937  0.5503  0.0809 -0.7229
 2090SOL    HW117906   3.487   1.633   3.951 -0.8305 -2.0507 -1.3067
 2090SOL    HW217907   3.357   1.609   3.921  0.3843 -0.0930  0.7095
 2091SOL     OW17908   2.813   0.515   8.627  0.0345 -0.0429  0.2849
 2091SOL    HW117909   2.809   0.594   8.682  0.4007  0.8841 -1.0175
 2091SOL    HW217910   2.855   0.451   8.685 -2.7085 -0.2742  2.0141
 2092SOL     OW17911   4.032   4.076   6.990  0.0213 -0.2861 -0.2388
 2092SOL    HW117912   4.006   4.102   7.079  1.8025 -2.2202  0.8646
 2092SOL    HW217913   4.059   4.159   6.951 -0.6373  0.2666  0.4882
 2093SOL     OW17914   0.913   3.655   8.400 -0.4167  0.3555 -0.0521
 2093SOL    HW117915   0.985   3.675   8.460 -1.5446  2.9717  0.4043
 2093SOL    HW217916   0.952   3.694   8.321 -0.5061 -1.8405 -1.1775
 2094SOL     OW17917   0.543   2.790   5.600 -0.3723 -0.0381 -0.5037
 2094SOL    HW117918   0.601   2.866   5.612  0.8624 -1.0058 -0.4335
 2094SOL    HW217919   0.494   2.790   5.682  2.1278 -2.2084  0.9743
 2095SOL     OW17920   2.376   1.218   6.177 -0.4436  0.1450  0.2448
 2095SOL    HW117921   2.323   1.196   6.254  0.5401 -0.1347  0.8370
 2095SOL    HW217922   2.337   1.303   6.157 -0.9044 -0.4198 -1.2342
 2096SOL     OW17923   0.309   2.888  14.981 -0.1572 -0.1520  0.0736
 2096SOL    HW117924   0.219   2.867  14.958 -0.2945  3.3162 -2.5992
 2096SOL    HW217925   0.330   2.798  15.004  2.9837  0.9628  1.5591
 2097SOL     OW17926   2.404   0.498  12.273 -0.5487  0.0318 -0.2755
 2097SOL    HW117927   2.416   0.530  12.184 -2.3732  0.7409 -0.2656
 2097SOL    HW217928   2.395   0.405  12.250  0.2841 -0.7547  2.6276
 2098SOL     OW17929   2.325   2.950  16.732  0.1046 -0.4326  0.0976
 2098SOL    HW117930   2.392   3.017  16.721 -1.4273  0.8007 -1.7605
 2098SOL    HW217931   2.295   2.969  16.821 -1.9441 -1.1901 -0.4342
 2099SOL     OW17932   3.098   1.744   7.359  0.4761 -0.0852 -0.1828
 2099SOL    HW117933   3.043   1.676   7.319  0.0607  0.5289 -0.6661
 2099SOL    HW217934   3.046   1.822   7.342 -0.8314 -0.7467  0.7696
 2100SOL     OW17935   2.593   4.006   7.139  0.3359  0.3270 -0.0469
 2100SOL    HW117936   2.631   4.069   7.200 -2.3390  1.4178  0.5241
 2100SOL    HW217937   2.665   3.997   7.077  0.2138  0.3029 -0.1861
 2101SOL     OW17938   0.092   0.999   8.727  0.0617  0.2262 -0.8217
 2101SOL    HW117939   0.001   1.027   8.721  0.2420  0.7874 -0.8921
 2101SOL    HW217940   0.138   1.074   8.764  0.3005  0.6148 -1.8982
 2102SOL     OW17941   3.429   4.538   4.724 -0.2586 -0.9170  0.5184
 2102SOL    HW117942   3.495   4.479   4.760  1.4884  1.0126  0.5030
 2102SOL    HW217943   3.430   4.600   4.797 -0.1189  0.2235 -0.4542
 2103SOL     OW17944   0.214   4.439  10.753  0.3018 -0.1352 -0.0213
 2103SOL    HW117945   0.174   4.522  10.777 -2.5956 -1.5167 -0.0442
 2103SOL    HW217946   0.190   4.435  10.660 -1.2588  0.2702  0.3545
 2104SOL     OW17947   2.282   2.246  17.332 -0.5689  0.2268  0.0900
 2104SOL    HW117948   2.350   2.179  17.338 -1.5310 -0.5179  2.7040
 2104SOL    HW217949   2.309   2.298  17.408 -0.2153 -1.4314  1.0951
 2105SOL     OW17950   0.127   0.208  14.994  0.0309 -0.9008  0.3102
 2105SOL    HW117951   0.056   0.267  14.969  1.6131  0.9004  0.1146
 2105SOL    HW217952   0.106   0.132  14.939  0.2517  0.9133 -2.2718
 2106SOL     OW17953   2.967   2.672   6.234  0.2421  0.1971 -0.4406
 2106SOL    HW117954   3.059   2.673   6.260 -0.2415 -0.5122  1.3238
 2106SOL    HW217955   2.925   2.594   6.272 -1.8625  1.1438 -0.7956
 2107SOL     OW17956   3.327   4.103   5.598  0.1050 -0.2745 -0.0844
 2107SOL    HW117957   3.415   4.141   5.597  1.0664 -2.4559 -0.9467
 2107SOL    HW217958   3.288   4.144   5.521 -1.0030 -1.0651  0.0509
 2108SOL     OW17959   3.539   4.575   3.412  0.2929  0.0669  0.7110
 2108SOL    HW117960   3.514   4.621   3.332  1.2840 -0.2729  0.2084
 2108SOL    HW217961   3.495   4.631   3.476  1.5052  0.1924  1.4300
 2109SOL     OW17962   2.735   2.799  16.322  0.3795 -0.2126  0.1347
 2109SOL    HW117963   2.643   2.805  16.347 -0.4538 -2.7965 -2.1943
 2109SOL    HW217964   2.772   2.849  16.395 -0.9013  1.6109 -0.4832
 2110SOL     OW17965   2.928   0.569   4.733 -0.7327 -0.0639 -0.5153
 2110SOL    HW117966   2.924   0.665   4.742 -1.7538  0.1704 -3.6182
 2110SOL    HW217967   2.891   0.535   4.815 -1.0697 -0.4155 -0.8147
 2111SOL     OW17968   4.702   2.068   8.146  0.0140 -0.0090 -0.4478
 2111SOL    HW117969   4.623   2.020   8.120  2.0925 -3.2968 -0.7239
 2111SOL    HW217970   0.017   2.078   8.066 -0.4681 -0.8424 -0.8703
 2112SOL     OW17971   3.533   2.185  10.562  0.3337  0.3669  0.0057
 2112SOL    HW117972   3.556   2.253  10.499  2.5312 -0.6767 -0.2963
 2112SOL    HW217973   3.612   2.143  10.596 -0.0678 -0.1918  0.2465
 2113SOL     OW17974   2.924   0.888   4.942 -0.7689 -0.2517 -0.2392
 2113SOL    HW117975   2.837   0.849   4.952 -0.2556 -1.1671  0.6643
 2113SOL    HW217976   2.981   0.811   4.945 -0.8243 -0.2700  0.3475
 2114SOL     OW17977   4.278   3.507   5.990 -0.2246 -0.4799 -0.0585
 2114SOL    HW117978   4.354   3.465   5.951 -0.8142 -1.0824 -0.5597
 2114SOL    HW217979   4.261   3.576   5.926 -0.6822  0.1227  0.7090
 2115SOL     OW17980   4.530   3.942  15.371  0.0968 -0.4187  0.4774
 2115SOL    HW117981   4.445   3.921  15.412  0.2739 -0.6997  0.7027
 2115SOL    HW217982   4.550   4.009  15.436  1.2537 -0.0160 -0.3133
 2116SOL     OW17983   2.032   3.007   7.988 -0.1092 -0.1161  0.5277
 2116SOL    HW117984   2.124   3.025   8.004 -0.3462  1.4898  0.1509
 2116SOL    HW217985   2.010   3.018   7.895  2.7589  1.0545  0.0071
 2117SOL     OW17986   1.792   1.907   4.937 -0.2696  0.3020 -0.2430
 2117SOL    HW117987   1.844   1.929   5.014 -1.1060  0.2875  0.3243
 2117SOL    HW217988   1.831   1.958   4.865  2.4017 -0.1530  0.8923
 2118SOL     OW17989   1.250   0.678   7.847 -0.7718 -0.3077 -0.1221
 2118SOL    HW117990   1.233   0.718   7.933  2.3395 -1.7265  1.1623
 2118SOL    HW217991   1.172   0.696   7.795 -1.1079 -1.6647 -0.0857
 2119SOL     OW17992   1.844   3.394  13.976  0.1937  0.1167  0.1527
 2119SOL    HW117993   1.767   3.442  14.006  1.3379  1.8121  0.4075
 2119SOL    HW217994   1.814   3.373  13.887 -0.9963 -2.7017  1.2336
 2120SOL     OW17995   2.331   2.580   8.103 -0.4198 -0.0090 -0.0120
 2120SOL    HW117996   2.308   2.524   8.029  1.2314 -3.0568  1.7429
 2120SOL    HW217997   2.381   2.654   8.068  0.7072 -0.4656  0.6131
 2121SOL     OW17998   3.317   1.932   7.355  0.1839 -0.3275  0.3846
 2121SOL    HW117999   3.276   1.846   7.348  1.6760 -0.8845 -1.3651
 2121SOL    HW218000   3.322   1.956   7.263 -0.9424 -0.3839  0.3059
 2122SOL     OW18001   1.132   3.529  13.708  1.0207  0.1420  0.1755
 2122SOL    HW118002   1.121   3.623  13.696 -4.0089 -0.4135  0.4313
 2122SOL    HW218003   1.043   3.500  13.688  1.9965 -0.8565 -2.6110
 2123SOL     OW18004   0.955   0.853   6.252  0.5853 -0.5550  0.1564
 2123SOL    HW118005   0.946   0.761   6.275  0.1918 -0.2223  1.3236
 2123SOL    HW218006   1.021   0.884   6.314 -0.7694 -0.5316  1.5826
 2124SOL     OW18007   4.305   0.052  12.639  0.2845 -0.2527 -0.6952
 2124SOL    HW118008   4.354   0.104  12.575 -1.1135  0.4058 -1.2148
 2124SOL    HW218009   4.376   0.011  12.689  0.7351  2.6796  1.0488
 2125SOL     OW18010   1.549   3.338   8.538 -0.0423 -0.7776  0.7808
 2125SOL    HW118011   1.598   3.264   8.573  2.4415  0.3943 -0.1356
 2125SOL    HW218012   1.470   3.345   8.590  0.4279  0.6083  1.3112
 2126SOL     OW18013   4.374   1.708   5.152 -0.5345  0.0263  0.5711
 2126SOL    HW118014   4.372   1.647   5.079  0.7881  0.3161  0.2878
 2126SOL    HW218015   4.452   1.755   5.123  0.0629  0.1358  2.3272
 2127SOL     OW18016   1.301   0.918   7.477  0.1201  0.2323  0.0682
 2127SOL    HW118017   1.391   0.945   7.457 -0.3526  2.7201  1.2476
 2127SOL    HW218018   1.293   0.854   7.406  0.1920 -0.4253  0.6538
 2128SOL     OW18019   1.938   1.780  11.155 -0.2655  0.0778  0.1830
 2128SOL    HW118020   1.873   1.805  11.089  0.1656  4.0653  1.3040
 2128SOL    HW218021   2.002   1.845  11.126  0.3034 -0.4233  0.3295
 2129SOL     OW18022   1.196   1.983   3.096  0.4127 -0.2903  1.0416
 2129SOL    HW118023   1.192   2.078   3.089 -0.0488 -0.4403 -0.8065
 2129SOL    HW218024   1.127   1.971   3.031 -0.4908  0.1468  1.9247
 2130SOL     OW18025   2.126   1.908   4.222 -0.5195 -0.4148 -0.3299
 2130SOL    HW118026   2.092   1.901   4.311 -3.6187  0.2430 -1.4673
 2130SOL    HW218027   2.077   1.982   4.185  0.9858  0.8972  0.3076
 2131SOL     OW18028   4.469   4.027   8.446 -0.3970 -0.0038  0.2112
 2131SOL    HW118029   4.459   4.114   8.485  2.2977  0.1139  0.6387
 2131SOL    HW218030   4.395   3.985   8.491  0.2745 -1.9058 -0.4692
 2132SOL     OW18031   2.471   0.103   7.172 -0.0873  0.3829 -0.3318
 2132SOL    HW118032   2.475   0.184   7.223  2.5147  0.8802 -1.2807
 2132SOL    HW218033   2.386   0.070   7.201 -0.8831  0.9777 -1.9574
 2133SOL     OW18034   2.113   0.444   4.619 -0.0291  0.2581 -0.1149
 2133SOL    HW118035   2.032   0.495   4.630 -0.8282 -0.6928 -1.7142
 2133SOL    HW218036   2.075   0.373   4.568  1.0022  0.9206 -1.7876
 2134SOL     OW18037   4.411   2.544   7.655 -0.3874 -0.3463  0.2646
 2134SOL    HW118038   4.327   2.519   7.693 -0.3033 -0.1676  0.5660
 2134SOL    HW218039   4.467   2.544   7.732  0.9025  1.4569 -0.6874
 2135SOL     OW18040   0.143   0.412   7.229  0.2809  0.7185  0.0403
 2135SOL    HW118041   0.063   0.457   7.202 -0.1620 -0.6550 -0.9306
 2135SOL    HW218042   0.122   0.400   7.322 -1.3473 -2.3423 -0.7172
 2136SOL     OW18043   1.052   2.748   8.467  0.4889 -0.2594  0.2191
 2136SOL    HW118044   1.144   2.726   8.485  1.4061  3.0258 -0.6011
 2136SOL    HW218045   1.060   2.793   8.383 -0.0208  0.8597  0.7691
 2137SOL     OW18046   4.275   1.712   6.443  0.1287 -0.0869  0.0516
 2137SOL    HW118047   4.255   1.681   6.355 -1.5352 -0.2794  0.4823
 2137SOL    HW218048   4.193   1.760   6.460  0.2729 -0.2110  1.1195
 2138SOL     OW18049   1.161   3.266   6.521  0.2852 -0.1726  0.0962
 2138SOL    HW118050   1.070   3.257   6.492  0.3890 -0.8641 -0.0143
 2138SOL    HW218051   1.205   3.301   6.443 -0.3241  0.3551 -0.0078
 2139SOL     OW18052   1.748   2.445   3.646 -0.2813  0.0042  0.4446
 2139SOL    HW118053   1.789   2.398   3.573 -1.1847 -1.1249  0.6712
 2139SOL    HW218054   1.777   2.391   3.720  3.2430 -0.7376 -1.4335
 2140SOL     OW18055   2.313   4.545   8.759 -0.1882  0.5926  0.6834
 2140SOL    HW118056   2.380   4.607   8.789 -0.3114 -0.0528  2.2860
 2140SOL    HW218057   2.314   4.567   8.666 -0.8887  0.0273  0.5426
 2141SOL     OW18058   0.794   4.378   0.010  0.5127 -0.3818 -0.7276
 2141SOL    HW118059   0.812   4.365  17.664 -2.0647 -1.8300 -1.0140
 2141SOL    HW218060   0.824   4.469   0.011  0.4790 -0.3819  0.8919
 2142SOL     OW18061   2.755   2.269   0.968  0.1880 -0.3764 -0.6228
 2142SOL    HW118062   2.775   2.345   0.915  0.9660  0.0305  0.2481
 2142SOL    HW218063   2.840   2.265   1.012 -0.7642 -0.7346  1.1936
 2143SOL     OW18064   1.929   4.331  12.091  0.1030 -0.3119 -0.6005
 2143SOL    HW118065   1.893   4.394  12.029  1.0826  0.1971 -0.6643
 2143SOL    HW218066   1.885   4.247  12.077 -0.8594 -0.0818  1.0794
 2144SOL     OW18067   1.234   4.574   6.032  0.1836 -0.3265 -0.1026
 2144SOL    HW118068   1.221   4.482   6.054 -2.3422  0.2296  0.6600
 2144SOL    HW218069   1.144   4.600   6.017 -1.0633 -3.1334  2.4740
 2145SOL     OW18070   4.313   3.601  17.005  0.6661 -0.2573  0.0256
 2145SOL    HW118071   4.338   3.517  17.042  0.3688 -0.7627 -0.9341
 2145SOL    HW218072   4.407   3.616  16.994 -0.1678  3.4949 -2.0470
 2146SOL     OW18073   0.669   4.226   2.045  0.3441 -0.2395 -0.1535
 2146SOL    HW118074   0.739   4.270   2.094 -1.9661  2.0456  1.0544
 2146SOL    HW218075   0.727   4.201   1.973  2.7771 -0.7004  1.9510
 2147SOL     OW18076   3.650   1.915   5.773 -0.3913 -0.3541 -0.4106
 2147SOL    HW118077   3.600   1.858   5.715 -1.7212  1.7746 -1.3472
 2147SOL    HW218078   3.616   1.906   5.862 -0.9204 -0.0147 -0.5800
 2148SOL     OW18079   1.223   4.493   5.668 -0.1762  0.0750 -0.7549
 2148SOL    HW118080   1.199   4.436   5.741  1.2808 -1.7737 -1.7441
 2148SOL    HW218081   1.300   4.441   5.645  0.1059  0.7622 -1.3501
 2149SOL     OW18082   4.323   0.795   9.095  0.0757  0.7326 -0.1231
 2149SOL    HW118083   4.416   0.775   9.101  0.1869  1.6439  1.1628
 2149SOL    HW218084   4.331   0.890   9.085 -1.2938  0.9351  0.6257
 2150SOL     OW18085   1.328   1.018  15.515  0.3028 -0.0713  0.4073
 2150SOL    HW118086   1.318   1.000  15.609  1.5130 -1.9672  0.1777
 2150SOL    HW218087   1.388   1.092  15.508  2.4819 -1.7957  0.9618
 2151SOL     OW18088   1.553   3.375   5.764  0.2034  0.1963  0.8468
 2151SOL    HW118089   1.640   3.409   5.787  0.0664  2.4926 -2.0930
 2151SOL    HW218090   1.569   3.342   5.676  2.4759  4.6141 -0.3953
 2152SOL     OW18091   4.474   1.778   5.587  0.5538  0.0751 -0.1679
 2152SOL    HW118092   4.428   1.848   5.541 -3.0236 -1.6113  0.8760
 2152SOL    HW218093   4.557   1.774   5.541  0.4123  0.6343 -0.4668
 2153SOL     OW18094   2.718   2.805   5.738  0.4818 -0.1332 -0.1842
 2153SOL    HW118095   2.762   2.828   5.820 -0.4476  0.4149  0.1612
 2153SOL    HW218096   2.690   2.715   5.753  1.1842 -0.2269  0.5481
 2154SOL     OW18097   4.667   0.676  17.424  0.5530  0.4701  0.2003
 2154SOL    HW118098   4.733   0.738  17.455  0.9494 -0.0100  0.3164
 2154SOL    HW218099   4.604   0.695  17.493 -0.7549  0.6696 -1.0545
 2155SOL     OW18100   2.847   2.521   0.906  0.4607 -0.2814 -0.3748
 2155SOL    HW118101   2.867   2.594   0.848  2.0946  0.4266  1.0809
 2155SOL    HW218102   2.759   2.553   0.926  0.8439 -1.0210  2.5414
 2156SOL     OW18103   3.859   2.659  15.443 -0.2583 -0.1239  0.0459
 2156SOL    HW118104   3.936   2.602  15.448  0.2688  0.4021 -2.4040
 2156SOL    HW218105   3.823   2.657  15.532 -1.6024 -2.2129 -0.5525
 2157SOL     OW18106   1.217   1.562   1.617 -0.9312  0.4184  0.2141
 2157SOL    HW118107   1.162   1.548   1.694 -0.6082 -0.5730  0.2579
 2157SOL    HW218108   1.302   1.526   1.642 -0.0715  2.4467  0.2069
 2158SOL     OW18109   3.313   1.454  16.386 -0.5347 -0.4711 -0.0615
 2158SOL    HW118110   3.239   1.431  16.442  0.6327  0.0505  1.7162
 2158SOL    HW218111   3.326   1.366  16.350  2.1084 -0.4491  0.7905
 2159SOL     OW18112   2.362   0.809   0.604  0.2501 -0.8164  0.0461
 2159SOL    HW118113   2.311   0.834   0.528 -2.1318 -1.2335  1.5293
 2159SOL    HW218114   2.434   0.761   0.563 -0.4424 -2.5278  0.7992
 2160SOL     OW18115   1.810   3.553   5.460 -0.0717 -0.7568  0.4410
 2160SOL    HW118116   1.819   3.616   5.532 -2.1293  1.5754 -1.3597
 2160SOL    HW218117   1.860   3.478   5.493  3.8206  1.7042  0.0806
 2161SOL     OW18118   4.107   2.981   4.898  0.0634 -0.1031 -0.4089
 2161SOL    HW118119   4.066   2.914   4.954  0.4918  1.8233  2.1867
 2161SOL    HW218120   4.166   3.010   4.967 -0.8575  2.9325 -0.9011
 2162SOL     OW18121   2.770   2.506  16.905  0.0175  0.4721 -0.1864
 2162SOL    HW118122   2.744   2.555  16.983  1.2727 -0.0129  0.5317
 2162SOL    HW218123   2.684   2.501  16.863 -0.3866  2.8146  0.3431
 2163SOL     OW18124   2.079   1.817   1.845 -0.2956 -0.3320  0.1489
 2163SOL    HW118125   2.145   1.748   1.841 -0.1427 -0.1314 -0.8572
 2163SOL    HW218126   2.059   1.827   1.752 -0.2605  0.0385  0.1811
 2164SOL     OW18127   1.226   1.690  12.604 -0.1007 -0.0528 -0.4397
 2164SOL    HW118128   1.197   1.764  12.657 -1.1387 -0.3551 -0.5821
 2164SOL    HW218129   1.155   1.628  12.621  1.1725 -1.2052  0.7002
 2165SOL     OW18130   4.634   2.495   4.192  0.1316 -0.2344  0.2512
 2165SOL    HW118131   4.698   2.444   4.241  0.8432  0.0838 -0.3610
 2165SOL    HW218132   4.631   2.445   4.110  1.4640  0.1585 -0.0243
 2166SOL     OW18133   3.459   1.477   2.915  0.0797 -0.3277  0.0859
 2166SOL    HW118134   3.467   1.401   2.973 -2.7082  1.4389  2.8261
 2166SOL    HW218135   3.510   1.547   2.956  1.1166 -1.4758  0.7519
 2167SOL     OW18136   0.485   3.939   2.000  0.1034  0.3195  0.4309
 2167SOL    HW118137   0.501   3.845   2.003  0.0122  0.3642  2.1615
 2167SOL    HW218138   0.478   3.948   1.905 -3.8009 -0.2247  0.6332
 2168SOL     OW18139   1.881   3.383   2.350 -0.4549 -0.1172 -0.1679
 2168SOL    HW118140   1.941   3.377   2.425 -1.4484  2.3017  0.8335
 2168SOL    HW218141   1.818   3.450   2.376 -0.5866 -0.1121 -0.5089
 2169SOL     OW18142   3.943   4.435   0.298 -0.1404 -0.6785 -0.3703
 2169SOL    HW118143   3.863   4.448   0.249 -0.6669 -1.8630  0.1762
 2169SOL    HW218144   3.941   4.344   0.328 -1.8775 -0.7574 -0.7434
 2170SOL     OW18145   0.612   2.441   2.397  0.4141 -0.0874 -0.0956
 2170SOL    HW118146   0.610   2.395   2.312 -2.3531  0.2237 -0.1938
 2170SOL    HW218147   0.675   2.386   2.445  0.3294 -0.2441 -0.1631
 2171SOL     OW18148   4.026   1.684  16.037  0.7519 -0.1394 -0.3273
 2171SOL    HW118149   4.110   1.641  16.050  0.8157 -0.1467 -0.7734
 2171SOL    HW218150   3.968   1.608  16.025 -1.2004  0.9919  1.9717
 2172SOL     OW18151   3.230   1.652   8.293  0.5246  0.1343 -0.4308
 2172SOL    HW118152   3.246   1.734   8.340  1.4095  0.4871 -1.3367
 2172SOL    HW218153   3.267   1.666   8.206 -1.4075  2.2944 -0.9044
 2173SOL     OW18154   2.831   1.118   2.556  0.2255 -0.1385 -0.2160
 2173SOL    HW118155   2.743   1.156   2.553  0.3803  0.2659  0.3686
 2173SOL    HW218156   2.843   1.102   2.649  4.3716  0.6748 -0.5937
 2174SOL     OW18157   4.214   3.873  12.716  0.0067 -0.1881  0.5581
 2174SOL    HW118158   4.180   3.876  12.805  0.5824  0.2622  0.7669
 2174SOL    HW218159   4.146   3.896  12.653  0.0838 -0.6736  0.2917
 2175SOL     OW18160   2.640   0.186   1.141  0.0927  0.0760 -0.5047
 2175SOL    HW118161   2.547   0.176   1.159  0.6655  3.9733  4.8242
 2175SOL    HW218162   2.668   0.242   1.213 -0.6784  1.8630 -1.6210
 2176SOL     OW18163   1.526   0.054   3.018  0.5481  0.1993 -0.0565
 2176SOL    HW118164   1.505   0.135   3.065 -1.0614 -0.3887  0.2038
 2176SOL    HW218165   1.542   0.094   2.932 -0.9559  3.6502  1.2640
 2177SOL     OW18166   2.077   4.732   3.465 -0.1796  0.6398 -0.0286
 2177SOL    HW118167   2.044   0.006   3.554  1.3777  1.3952  0.4473
 2177SOL    HW218168   2.137   4.660   3.484  0.6839  0.7493 -2.3171
 2178SOL     OW18169   2.891   1.692   6.949 -0.2736  0.6222 -0.0016
 2178SOL    HW118170   2.930   1.778   6.967  2.2252 -0.4491 -0.3155
 2178SOL    HW218171   2.801   1.725   6.941 -0.7318 -0.9859 -1.4940
 2179SOL     OW18172   0.266   3.955   5.018  0.6037 -0.3061  0.0582
 2179SOL    HW118173   0.190   3.922   5.065 -0.5511  1.8753 -0.2686
 2179SOL    HW218174   0.277   3.880   4.960  3.0988 -0.1250  0.2891
 2180SOL     OW18175   0.047   1.874   3.761  0.0095  0.4153  0.2413
 2180SOL    HW118176   4.703   1.896   3.716  1.4404  2.0342 -1.5472
 2180SOL    HW218177   0.039   1.903   3.851  0.2289 -1.5911  0.9028
 2181SOL     OW18178   4.303   2.015   8.799  0.0416 -0.1345 -0.0302
 2181SOL    HW118179   4.364   2.029   8.726 -2.0356  0.7629 -1.6065
 2181SOL    HW218180   4.244   2.085   8.770 -0.4317 -0.9929 -1.1537
 2182SOL     OW18181   0.167   3.269   5.690 -0.4292 -0.1681 -0.1360
 2182SOL    HW118182   0.175   3.179   5.721 -1.8933  0.1723  1.2102
 2182SOL    HW218183   0.205   3.263   5.602  0.2486 -0.9486  0.2088
 2183SOL     OW18184   1.257   3.545   2.203 -0.2181  0.0344  0.2098
 2183SOL    HW118185   1.257   3.547   2.299 -1.7643  1.6604  0.1861
 2183SOL    HW218186   1.163   3.557   2.187 -0.0999 -1.3506 -1.5049
 2184SOL     OW18187   4.100   1.365  16.650  0.1385  0.1627 -0.0899
 2184SOL    HW118188   4.068   1.282  16.686 -0.7202 -0.0041 -1.2411
 2184SOL    HW218189   4.092   1.343  16.557 -1.2800  0.3047 -0.0061
 2185SOL     OW18190   4.612   0.529   7.917 -0.3489  0.1910  0.7554
 2185SOL    HW118191   4.560   0.585   7.860 -1.2677  0.9419  2.3117
 2185SOL    HW218192   4.571   0.444   7.903  0.2676  0.2763 -1.5068
 2186SOL     OW18193   3.850   1.257  15.977 -0.4745 -0.6076 -0.2274
 2186SOL    HW118194   3.795   1.335  15.976  0.5434  0.1148  0.3793
 2186SOL    HW218195   3.930   1.285  15.933 -0.1905  0.5380  1.0476
 2187SOL     OW18196   2.057   3.527   8.517 -0.4513 -0.3717 -0.1293
 2187SOL    HW118197   2.116   3.482   8.578 -1.2441 -0.9613  0.2047
 2187SOL    HW218198   2.111   3.508   8.440 -0.9136  0.8380 -0.7516
 2188SOL     OW18199   3.603   2.679   2.997 -0.6913  0.1483 -0.3647
 2188SOL    HW118200   3.655   2.759   2.995  2.6029 -1.8850  1.8371
 2188SOL    HW218201   3.513   2.704   3.017 -0.6713  0.0237 -0.1102
 2189SOL     OW18202   1.874   1.673  10.646 -0.9175 -0.5025 -0.5406
 2189SOL    HW118203   1.781   1.649  10.640 -1.0179 -0.3471  0.4100
 2189SOL    HW218204   1.916   1.613  10.584 -0.2486  1.1638 -1.6979
 2190SOL     OW18205   3.947   2.383   2.147 -0.3402 -0.3799 -0.0035
 2190SOL    HW118206   3.956   2.351   2.057 -0.5966  1.6287 -0.7424
 2190SOL    HW218207   4.027   2.436   2.148  0.4422 -1.4903 -2.2361
 2191SOL     OW18208   3.273   3.763  11.752  0.0445 -0.5837  0.1368
 2191SOL    HW118209   3.315   3.706  11.816  1.2354  1.4197  1.1708
 2191SOL    HW218210   3.352   3.814  11.733 -0.3581  0.1245  0.3558
 2192SOL     OW18211   0.929   1.309  11.802 -0.0709  0.1232  0.0007
 2192SOL    HW118212   0.969   1.281  11.884 -0.3862  1.3822  0.5759
 2192SOL    HW218213   0.931   1.229  11.749 -0.7935  0.7868 -1.0394
 2193SOL     OW18214   4.146   4.002   3.580  0.3082  0.1337 -0.5186
 2193SOL    HW118215   4.231   3.963   3.559 -0.9893 -2.2285 -1.3390
 2193SOL    HW218216   4.150   4.063   3.506  2.1961  0.8806  0.1902
 2194SOL     OW18217   0.135   3.552  14.665 -0.8731 -0.4720  0.1509
 2194SOL    HW118218   0.106   3.574  14.754 -3.1015  1.7027 -1.1287
 2194SOL    HW218219   0.111   3.459  14.670  0.5062 -0.7944  0.9028
 2195SOL     OW18220   4.291   0.428   5.424  0.4384  0.7335 -0.1505
 2195SOL    HW118221   4.337   0.417   5.508  1.6292  0.4666 -0.8328
 2195SOL    HW218222   4.217   0.488   5.430  0.3108  0.6932 -1.2931
 2196SOL     OW18223   4.381   1.898   2.721 -0.0022  0.1030  0.3489
 2196SOL    HW118224   4.330   1.951   2.659  0.3804  0.9046  0.7240
 2196SOL    HW218225   4.467   1.939   2.716  0.9093 -1.6292  2.0399
 2197SOL     OW18226   3.139   2.577  13.805 -0.1023  0.4892 -0.1894
 2197SOL    HW118227   3.097   2.545  13.726 -0.8601  0.1020  0.3681
 2197SOL    HW218228   3.230   2.586  13.779 -0.0181  1.1218  0.3344
 2198SOL     OW18229   2.545   3.162   3.713  0.1295  0.3467  0.0499
 2198SOL    HW118230   2.563   3.081   3.665  0.7890  0.9247 -0.6831
 2198SOL    HW218231   2.620   3.216   3.687  1.4965 -1.9905 -0.8720
 2199SOL     OW18232   4.466   4.190  15.589 -0.4017 -0.1587 -0.7242
 2199SOL    HW118233   4.400   4.123  15.570  0.2575 -1.0891  0.2037
 2199SOL    HW218234   4.429   4.276  15.569 -1.6835 -0.0213  2.2262
 2200SOL     OW18235   3.080   1.682   9.419  0.0692 -0.0036 -0.0281
 2200SOL    HW118236   3.079   1.636   9.502  0.1646 -0.1942 -0.1333
 2200SOL    HW218237   3.172   1.695   9.395  0.1786 -0.0983  0.3472
 2201SOL     OW18238   2.599   3.136   7.760  0.1754  0.0048 -0.1091
 2201SOL    HW118239   2.651   3.133   7.841  0.9773  0.4355 -0.6099
 2201SOL    HW218240   2.623   3.058   7.710 -0.5830  0.8115 -1.7070
 2202SOL     OW18241   0.259   4.400   2.716 -0.3217 -0.4545 -0.3306
 2202SOL    HW118242   0.330   4.455   2.751 -1.6138  2.0493 -1.6570
 2202SOL    HW218243   0.186   4.461   2.718 -1.3955 -1.8098  1.1538
 2203SOL     OW18244   2.107   2.278   3.912 -0.0002 -0.2772  0.2308
 2203SOL    HW118245   2.190   2.269   3.865 -1.1109 -2.1339 -1.3186
 2203SOL    HW218246   2.057   2.203   3.881  3.0332 -1.2504 -2.2784
 2204SOL     OW18247   1.712   3.907   2.849  0.5935  0.3172 -0.4279
 2204SOL    HW118248   1.717   3.985   2.905  0.7798 -0.5750  0.8023
 2204SOL    HW218249   1.630   3.870   2.881  0.8578 -1.4113 -1.7496
 2205SOL     OW18250   2.726   0.878   6.501  0.1904 -0.4563 -0.1603
 2205SOL    HW118251   2.743   0.788   6.528  0.9887 -0.8843 -2.1462
 2205SOL    HW218252   2.727   0.911   6.591  0.2157 -3.1523  0.8388
 2206SOL     OW18253   3.043   0.372  10.345 -0.8273 -0.6811 -0.7180
 2206SOL    HW118254   3.013   0.434  10.412 -0.5912  1.0286 -2.1917
 2206SOL    HW218255   3.117   0.328  10.386 -1.7669 -0.5697  1.1381
 2207SOL     OW18256   3.473   3.283   7.223  0.1055  0.0225  0.4296
 2207SOL    HW118257   3.441   3.310   7.309  0.9014  2.4634 -0.0368
 2207SOL    HW218258   3.390   3.272   7.176 -0.1008 -0.8925  1.0166
 2208SOL     OW18259   3.497   0.932  11.263  0.4110 -0.4969  0.2158
 2208SOL    HW118260   3.525   0.991  11.193 -0.8478  0.1005  0.2190
 2208SOL    HW218261   3.522   0.979  11.342 -2.2602  1.3030 -0.0086
 2209SOL     OW18262   1.511   1.432   9.546  0.3771  0.5635 -0.3511
 2209SOL    HW118263   1.477   1.459   9.461 -1.4111 -3.7665 -1.0361
 2209SOL    HW218264   1.600   1.468   9.555  0.6844 -0.4211  0.5757
 2210SOL     OW18265   2.357   3.613   4.067  0.0225 -0.4385  0.4767
 2210SOL    HW118266   2.439   3.656   4.089 -0.3632 -0.0662  1.1988
 2210SOL    HW218267   2.368   3.529   4.112 -3.5217 -0.7198  0.8436
 2211SOL     OW18268   0.724   2.955  12.233 -0.3784 -0.7259  0.7648
 2211SOL    HW118269   0.786   2.886  12.209 -1.2487 -0.8218 -1.2133
 2211SOL    HW218270   0.655   2.950  12.167 -0.3429 -0.4950  0.7093
 2212SOL     OW18271   1.570   4.728   1.273 -0.2904 -0.7678  0.2076
 2212SOL    HW118272   1.549   4.635   1.274 -1.7436 -0.4469 -0.3121
 2212SOL    HW218273   1.485   0.034   1.286  0.7971  1.3350  0.4331
 2213SOL     OW18274   2.449   2.786   4.926 -0.3214 -0.2859  0.0166
 2213SOL    HW118275   2.365   2.820   4.956  1.0267  2.4371  0.6794
 2213SOL    HW218276   2.433   2.783   4.832 -0.7034  3.3664 -0.0328
 2214SOL     OW18277   1.200   3.535   7.427  0.2367  0.4263  0.3760
 2214SOL    HW118278   1.215   3.581   7.510 -0.2165 -1.3293  1.4304
 2214SOL    HW218279   1.290   3.517   7.399  0.1890 -1.3627  1.4039
 2215SOL     OW18280   1.412   4.444   3.298 -0.7241 -0.2401 -0.5248
 2215SOL    HW118281   1.366   4.481   3.373  2.1534 -0.2983  1.2557
 2215SOL    HW218282   1.352   4.377   3.264  0.9419 -0.3841 -3.1906
 2216SOL     OW18283   0.958   1.597   6.339 -0.5803 -0.5399 -0.5751
 2216SOL    HW118284   0.939   1.536   6.268  1.8307 -1.2431 -0.6239
 2216SOL    HW218285   0.902   1.667   6.306 -0.0820 -0.6739 -1.6933
 2217SOL     OW18286   0.064   0.454   6.477  0.0751  0.1345 -0.3680
 2217SOL    HW118287   0.021   0.466   6.393 -0.2151 -1.5307 -0.4561
 2217SOL    HW218288   4.723   0.427   6.525  0.4437 -0.0912  0.1023
 2218SOL     OW18289   2.618   3.669   5.051  0.1208 -0.2038 -0.4777
 2218SOL    HW118290   2.660   3.617   5.120  0.5962  1.5477  0.5450
 2218SOL    HW218291   2.524   3.655   5.059  0.2337 -0.5515  0.1917
 2219SOL     OW18292   0.873   3.655   7.717  0.0632  0.1067 -0.1465
 2219SOL    HW118293   0.841   3.625   7.802  0.0750  2.7037  0.7696
 2219SOL    HW218294   0.854   3.586   7.652 -1.4010  2.2153 -1.9690
 2220SOL     OW18295   3.374   3.145   2.350  0.1071  0.2091  0.0851
 2220SOL    HW118296   3.425   3.206   2.297  0.1701  0.6990  0.7037
 2220SOL    HW218297   3.305   3.203   2.383  3.1588  2.3250  2.8263
 2221SOL     OW18298   2.599   3.609  14.858  0.4120 -0.2884  0.2067
 2221SOL    HW118299   2.577   3.538  14.797  1.5580 -0.2757 -0.2170
 2221SOL    HW218300   2.580   3.559  14.938  0.0564  2.3034  1.7228
 2222SOL     OW18301   3.592   3.584   0.139  0.1234  0.4570  0.0643
 2222SOL    HW118302   3.606   3.620   0.051 -0.1173 -2.1250 -1.0447
 2222SOL    HW218303   3.681   3.572   0.170 -0.6165  0.2292  2.1112
 2223SOL     OW18304   2.251   1.224   4.766  0.1164 -0.3531 -0.3226
 2223SOL    HW118305   2.331   1.176   4.790  0.8128  0.9146 -0.0779
 2223SOL    HW218306   2.229   1.283   4.839 -2.7299 -1.3369 -0.3900
 2224SOL     OW18307   2.284   3.614   7.404  0.6038 -0.2115 -0.0342
 2224SOL    HW118308   2.315   3.703   7.416 -0.3977  0.1711 -0.2862
 2224SOL    HW218309   2.224   3.625   7.330  0.3329  2.1580  0.5399
 2225SOL     OW18310   1.179   0.589   2.681  0.0016  0.2792  0.5535
 2225SOL    HW118311   1.208   0.598   2.772  0.5683 -2.3252  0.6367
 2225SOL    HW218312   1.192   0.495   2.665  1.5262  0.6973 -0.5430
 2226SOL     OW18313   3.945   3.924  14.349 -0.6840 -0.0066 -0.1723
 2226SOL    HW118314   3.953   3.858  14.418  0.2399  0.0525 -0.2342
 2226SOL    HW218315   4.009   3.989  14.377 -1.0566  0.3283 -0.0878
 2227SOL     OW18316   1.162   0.460   8.047 -0.0505  0.1222 -0.1720
 2227SOL    HW118317   1.241   0.497   8.007  0.5955 -0.0372  0.9326
 2227SOL    HW218318   1.125   0.539   8.086 -1.0305  0.8253 -2.5923
 2228SOL     OW18319   3.494   0.360   5.056  0.1347 -0.0229 -0.0028
 2228SOL    HW118320   3.490   0.314   5.140  2.7062  0.1962  0.2202
 2228SOL    HW218321   3.505   0.448   5.092  2.5705 -0.4140  0.2238
 2229SOL     OW18322   0.359   3.455  12.891  0.1538 -0.1585  0.1764
 2229SOL    HW118323   0.268   3.426  12.894  1.2348 -3.3830  2.1255
 2229SOL    HW218324   0.378   3.490  12.978  0.8375  2.4074 -1.0070
 2230SOL     OW18325   3.241   0.980   1.441 -0.2723 -0.1673 -0.4774
 2230SOL    HW118326   3.171   0.917   1.423 -0.0116 -0.6117  0.0554
 2230SOL    HW218327   3.239   1.029   1.359  0.8169  1.8926  0.7390
 2231SOL     OW18328   4.403   4.716  15.781  0.1071  0.2933 -0.4710
 2231SOL    HW118329   4.448   0.042  15.725  0.1630  0.6023 -0.0800
 2231SOL    HW218330   4.394   4.647  15.716 -0.4339 -1.0389  1.0061
 2232SOL     OW18331   3.845   4.179   3.195  0.3658 -0.3060  0.5501
 2232SOL    HW118332   3.922   4.159   3.142 -1.5692 -1.3347 -1.8856
 2232SOL    HW218333   3.840   4.093   3.237 -0.2390 -0.3184  0.4623
 2233SOL     OW18334   2.053   3.314   1.701  0.2548 -0.3612  0.0284
 2233SOL    HW118335   2.082   3.267   1.779 -2.3640 -1.8089  0.1538
 2233SOL    HW218336   2.039   3.403   1.735  0.9352 -0.7596  1.3590
 2234SOL     OW18337   3.306   3.140  14.880  0.1500 -0.3706  0.2963
 2234SOL    HW118338   3.399   3.164  14.880  0.4508 -1.4596  2.6391
 2234SOL    HW218339   3.325   3.046  14.878 -1.1521 -0.5808 -1.9117
 2235SOL     OW18340   0.738   0.576   6.199  0.1411  0.0948  0.2172
 2235SOL    HW118341   0.751   0.495   6.149  1.8144  1.5344 -1.6792
 2235SOL    HW218342   0.728   0.544   6.288 -1.3588  1.8317  0.6763
 2236SOL     OW18343   0.192   0.679   9.196 -0.3830  0.0132  0.1303
 2236SOL    HW118344   0.162   0.740   9.129  0.8328 -1.6701 -1.9389
 2236SOL    HW218345   0.278   0.713   9.219  0.6217 -0.0304 -3.5364
 2237SOL     OW18346   2.528   4.311   8.309  0.1785  0.1042  0.6643
 2237SOL    HW118347   2.457   4.352   8.258  1.3578  0.5334 -0.6347
 2237SOL    HW218348   2.536   4.379   8.375  2.0715  1.0010 -0.4980
 2238SOL     OW18349   1.528   1.481   1.395  0.1375 -0.7155 -0.2121
 2238SOL    HW118350   1.503   1.452   1.483  0.7710  0.5688  0.3760
 2238SOL    HW218351   1.542   1.575   1.407 -0.0786 -0.7600  0.3699
 2239SOL     OW18352   4.573   2.936  13.197  0.6909 -0.5763 -0.2352
 2239SOL    HW118353   4.627   2.975  13.266 -0.4573  0.8421 -0.1595
 2239SOL    HW218354   4.640   2.880  13.155  0.0250 -0.2277 -1.7567
 2240SOL     OW18355   0.066   3.717   8.324  0.4486 -0.2738 -1.0082
 2240SOL    HW118356   0.012   3.675   8.391  1.0775  0.2679 -0.1708
 2240SOL    HW218357   0.150   3.737   8.365 -0.2015  0.7143 -0.1862
 2241SOL     OW18358   4.585   2.338  12.429 -0.9708 -0.8892 -0.7214
 2241SOL    HW118359   4.593   2.250  12.392 -0.7788 -0.0025 -2.7405
 2241SOL    HW218360   4.566   2.295  12.513  0.2503  0.6038  0.3306
 2242SOL     OW18361   0.077   3.015   1.732 -0.0243  0.3538  0.2479
 2242SOL    HW118362   0.172   3.017   1.723 -0.0137 -2.1146 -0.3618
 2242SOL    HW218363   0.074   2.950   1.802  0.9131 -0.9116 -0.8853
 2243SOL     OW18364   2.036   2.479   3.281  0.1778 -0.0909 -0.2621
 2243SOL    HW118365   2.004   2.395   3.313 -2.0100  1.0182  0.4646
 2243SOL    HW218366   2.118   2.451   3.240  0.2608 -0.0378 -0.1325
 2244SOL     OW18367   2.705   4.263   6.922 -0.1050 -0.1788  0.0635
 2244SOL    HW118368   2.617   4.262   6.961 -0.4677 -1.8653 -0.7878
 2244SOL    HW218369   2.685   4.197   6.855 -2.0990  0.5374 -0.0666
 2245SOL     OW18370   1.721   2.020   7.839 -0.2113  0.3020  0.3970
 2245SOL    HW118371   1.651   1.988   7.782  0.8189  0.1736 -0.7854
 2245SOL    HW218372   1.671   2.071   7.903  1.3312 -0.4885  2.2423
 2246SOL     OW18373   3.771   2.574  11.179 -0.2710  0.0227  0.0853
 2246SOL    HW118374   3.784   2.525  11.261  1.8623  3.9141  2.0494
 2246SOL    HW218375   3.840   2.639  11.191  0.6864 -1.2930  1.7926
 2247SOL     OW18376   1.541   1.894  15.798  0.0517 -0.2590  0.0382
 2247SOL    HW118377   1.466   1.914  15.854 -1.4882 -3.2769 -0.9155
 2247SOL    HW218378   1.566   1.806  15.826  2.3026  0.0918 -0.8979
 2248SOL     OW18379   2.541   2.492   6.355 -0.1311 -0.4109 -0.5293
 2248SOL    HW118380   2.540   2.570   6.410 -2.6194 -0.5197 -0.4067
 2248SOL    HW218381   2.571   2.530   6.273 -1.3635 -0.5275 -1.0252
 2249SOL     OW18382   3.999   2.223   5.748  0.7695  0.4947 -0.1225
 2249SOL    HW118383   3.930   2.290   5.742  1.2137  1.1671  2.4594
 2249SOL    HW218384   4.059   2.268   5.807  0.5420 -0.6112  0.9507
 2250SOL     OW18385   2.129   3.226   4.633  0.3609  0.5207 -0.1240
 2250SOL    HW118386   2.206   3.176   4.660  1.3817  0.7654 -2.5637
 2250SOL    HW218387   2.057   3.185   4.682 -1.1995  1.6966 -1.4534
 2251SOL     OW18388   4.413   4.735  13.361  0.3421  0.1143 -0.2582
 2251SOL    HW118389   4.392   0.091  13.354  0.1055 -0.0473 -1.5515
 2251SOL    HW218390   4.431   4.718  13.269  0.6149  1.6085 -0.4824
 2252SOL     OW18391   2.234   3.581   5.311 -0.0980 -0.0436  0.4941
 2252SOL    HW118392   2.318   3.627   5.318  0.2128 -0.2179 -2.1557
 2252SOL    HW218393   2.263   3.520   5.244 -0.1527  0.3294  0.1267
 2253SOL     OW18394   3.408   2.708  15.371  0.0891 -0.3917 -0.1753
 2253SOL    HW118395   3.332   2.675  15.419  0.2110  0.0009  0.2951
 2253SOL    HW218396   3.470   2.641  15.400  0.1485 -0.5023 -0.5648
 2254SOL     OW18397   0.593   4.281   6.335 -0.0599  0.3443  0.9890
 2254SOL    HW118398   0.511   4.232   6.346 -0.2932  0.4921 -0.1000
 2254SOL    HW218399   0.578   4.368   6.371 -1.4093  0.8661 -0.8142
 2255SOL     OW18400   0.173   1.545  10.233  0.0041  0.2708 -0.5472
 2255SOL    HW118401   0.152   1.470  10.288 -1.9221  0.4333 -1.0692
 2255SOL    HW218402   0.241   1.581  10.290  0.4731 -1.7045  0.1163
 2256SOL     OW18403   4.179   3.080  10.791  0.3096  0.1583 -0.1457
 2256SOL    HW118404   4.194   3.110  10.701  2.0637  1.8921  0.7279
 2256SOL    HW218405   4.238   3.139  10.837  1.6864  0.9846 -3.0090
 2257SOL     OW18406   2.919   2.636   1.721  0.6337 -0.7774  0.1087
 2257SOL    HW118407   2.896   2.610   1.810  0.6862  0.4886  0.4893
 2257SOL    HW218408   2.888   2.566   1.663  2.1646  0.4065 -2.1464
 2258SOL     OW18409   4.396   3.817   0.970  0.4069 -0.2849  0.4249
 2258SOL    HW118410   4.362   3.873   1.040  0.2116 -0.5031  0.5025
 2258SOL    HW218411   4.322   3.764   0.942  1.6736 -1.7298 -0.1974
 2259SOL     OW18412   3.848   4.054   0.994  0.1546  0.5022  0.5370
 2259SOL    HW118413   3.806   4.085   1.075 -0.1025 -0.4356  0.7648
 2259SOL    HW218414   3.854   3.962   1.018 -2.2329  0.2092  0.0036
 2260SOL     OW18415   1.651   2.457  10.612  0.0655 -0.7618  0.2570
 2260SOL    HW118416   1.591   2.387  10.641 -0.6601 -0.3200 -0.1784
 2260SOL    HW218417   1.652   2.505  10.695 -1.0269  0.6790 -0.5663
 2261SOL     OW18418   4.319   1.316   8.376 -0.3842  0.0016  0.1037
 2261SOL    HW118419   4.265   1.395   8.370 -1.4591 -0.7688 -0.2181
 2261SOL    HW218420   4.287   1.261   8.305  1.1468  1.4750 -1.7259
 2262SOL     OW18421   3.225   2.776   1.467  1.0114  0.2875  0.5546
 2262SOL    HW118422   3.209   2.725   1.546  1.9483  0.3037  0.7530
 2262SOL    HW218423   3.301   2.727   1.435  0.8077  0.0994  0.3571
 2263SOL     OW18424   1.848   0.736   7.184 -0.4939  0.2142 -0.1338
 2263SOL    HW118425   1.883   0.650   7.208  0.3545 -0.2598 -3.0955
 2263SOL    HW218426   1.923   0.784   7.220  0.5042 -1.0808 -0.5119
 2264SOL     OW18427   0.168   2.614  10.920  0.2796 -0.6310 -0.8724
 2264SOL    HW118428   0.147   2.695  10.871 -0.7619 -1.2357 -1.4412
 2264SOL    HW218429   0.170   2.650  11.009 -3.0469 -0.1089 -0.9919
 2265SOL     OW18430   1.819   4.650   7.963  0.2113 -0.1217  0.0993
 2265SOL    HW118431   1.735   4.692   7.984  0.4770  0.8762 -0.8538
 2265SOL    HW218432   1.852   4.701   7.889 -1.6729 -1.3042 -1.5272
 2266SOL     OW18433   2.975   0.412   4.469  0.1409 -0.1882 -0.5219
 2266SOL    HW118434   2.993   0.446   4.557  1.1313 -0.6938 -0.5301
 2266SOL    HW218435   2.943   0.490   4.423 -0.2864 -1.3582 -2.2169
 2267SOL     OW18436   0.729   1.002   2.160 -0.0973  0.2984  0.0206
 2267SOL    HW118437   0.749   1.070   2.224 -0.4529 -2.0622  2.6526
 2267SOL    HW218438   0.747   0.922   2.209  0.6218  0.8326  0.6348
 2268SOL     OW18439   3.325   2.915   5.184 -0.1759 -0.2960 -0.6704
 2268SOL    HW118440   3.302   2.846   5.246 -0.1154  1.6515  1.5215
 2268SOL    HW218441   3.402   2.874   5.145  1.0370  2.2890 -1.0008
 2269SOL     OW18442   4.563   0.294  14.706 -0.0978 -0.2068  0.1316
 2269SOL    HW118443   4.622   0.235  14.660 -2.4241 -0.0117 -3.0947
 2269SOL    HW218444   4.534   0.356  14.639  0.2031  0.4133  0.5658
 2270SOL     OW18445   0.950   2.512   5.837  0.0833 -0.1545 -0.2306
 2270SOL    HW118446   0.912   2.593   5.801  0.0214 -0.0003  0.1803
 2270SOL    HW218447   0.931   2.519   5.930  0.8234  0.4999 -0.1240
 2271SOL     OW18448   3.155   1.465  17.070  0.0444  0.1686 -0.1280
 2271SOL    HW118449   3.102   1.544  17.079  0.5554  0.5683 -0.5946
 2271SOL    HW218450   3.217   1.469  16.997  1.5501 -3.2020  0.9604
 2272SOL     OW18451   3.641   4.519   3.007 -0.1575 -0.1411  0.3519
 2272SOL    HW118452   3.682   4.479   2.930 -0.3978 -1.5717  0.9554
 2272SOL    HW218453   3.638   4.449   3.073 -1.5244  0.4775  0.9433
 2273SOL     OW18454   4.272   0.361   5.844  0.0039  0.5524  0.1312
 2273SOL    HW118455   4.178   0.349   5.831  0.1620 -1.0078  0.3884
 2273SOL    HW218456   4.308   0.273   5.832  1.5762  1.1407  0.5932
 2274SOL     OW18457   1.568   3.763   3.242 -0.3683 -0.0979  0.6622
 2274SOL    HW118458   1.647   3.727   3.200 -0.0776  0.3863  0.7906
 2274SOL    HW218459   1.603   3.836   3.294 -0.3758 -1.0201  1.9535
 2275SOL     OW18460   1.770   0.610   8.302 -0.2533 -0.7197  0.1722
 2275SOL    HW118461   1.699   0.670   8.279 -0.6903 -1.3911 -0.2390
 2275SOL    HW218462   1.812   0.596   8.217 -0.4420  1.1687 -0.2293
 2276SOL     OW18463   0.128   3.925   8.619  0.0963  0.2825 -0.3874
 2276SOL    HW118464   0.158   3.903   8.531 -1.8000 -0.1011 -0.9375
 2276SOL    HW218465   0.153   4.016   8.637 -1.1608  0.6814 -0.6327
 2277SOL     OW18466   2.513   1.106   7.903 -0.8372  0.6731 -0.3483
 2277SOL    HW118467   2.478   1.080   7.988  1.2858 -1.0642  0.0207
 2277SOL    HW218468   2.541   1.020   7.870  0.2756  0.6123  0.7321
 2278SOL     OW18469   2.114   3.685   4.210  0.7805 -0.6153 -0.4553
 2278SOL    HW118470   2.096   3.776   4.184  0.6261 -0.2039  1.0901
 2278SOL    HW218471   2.182   3.661   4.147  0.3332 -1.1478 -0.7302
 2279SOL     OW18472   2.605   4.499   3.843 -0.3699  0.3922  0.1498
 2279SOL    HW118473   2.685   4.466   3.884 -0.2124  1.5869  0.8048
 2279SOL    HW218474   2.583   4.428   3.784 -0.9887  0.3795  0.3921
 2280SOL     OW18475   3.032   4.190   1.873  0.5712  0.2519 -0.3376
 2280SOL    HW118476   3.000   4.139   1.947  0.2806  1.0615  0.0898
 2280SOL    HW218477   3.115   4.147   1.853  0.0124  0.6914 -3.5859
 2281SOL     OW18478   2.838   4.733   2.627  0.0369 -0.0782 -0.7089
 2281SOL    HW118479   2.760   0.050   2.616 -0.6683 -0.6320  1.4402
 2281SOL    HW218480   2.793   4.659   2.667 -0.3091 -0.3696 -1.6325
 2282SOL     OW18481   3.175   4.678   1.910  0.0441  0.2154  0.8144
 2282SOL    HW118482   3.139   4.594   1.882  2.8519 -0.6447 -0.2419
 2282SOL    HW218483   3.234   4.701   1.838 -0.9470  0.7031  0.1654
 2283SOL     OW18484   3.342   2.387   1.161 -0.1648 -0.1825  0.1766
 2283SOL    HW118485   3.270   2.438   1.197  0.5154  1.6262 -1.0579
 2283SOL    HW218486   3.399   2.378   1.237 -0.7210  0.6471  0.6809
 2284SOL     OW18487   3.089   1.488   9.624  0.1321 -0.0864  0.4826
 2284SOL    HW118488   3.157   1.428   9.591  0.9435  1.4692 -0.6372
 2284SOL    HW218489   3.023   1.423   9.649 -0.0656  0.0371  0.2772
 2285SOL     OW18490   2.337   2.832  15.130 -0.5363  0.0928  0.4282
 2285SOL    HW118491   2.375   2.755  15.088 -0.7284  0.0203  0.3881
 2285SOL    HW218492   2.286   2.795  15.202  1.3919  1.6630  2.5674
 2286SOL     OW18493   0.696   1.759   2.515  0.4229 -0.5290 -0.4539
 2286SOL    HW118494   0.648   1.731   2.436  0.4729  1.3037 -1.1283
 2286SOL    HW218495   0.671   1.851   2.524 -1.1374 -1.0432  0.4393
 2287SOL     OW18496   3.821   2.530  14.916 -0.4482  0.3956  0.1727
 2287SOL    HW118497   3.916   2.530  14.904 -0.3069 -0.3379  1.2853
 2287SOL    HW218498   3.815   2.482  14.999 -0.9387  0.1885  0.0143
 2288SOL     OW18499   0.730   2.204  13.396 -0.0483 -0.1725 -0.2511
 2288SOL    HW118500   0.718   2.214  13.301  1.2235 -3.3454 -0.7490
 2288SOL    HW218501   0.734   2.109  13.402  1.1785  0.0121  1.6059
 2289SOL     OW18502   3.926   3.326   7.271  0.1544  0.0742 -0.0925
 2289SOL    HW118503   4.001   3.281   7.231 -0.2892 -0.4167 -0.3744
 2289SOL    HW218504   3.962   3.342   7.358 -0.0494 -1.1074  0.2152
 2290SOL     OW18505   3.576   0.390  14.038  0.7509  0.2179 -0.0070
 2290SOL    HW118506   3.571   0.371  13.945 -1.7051  0.8733 -0.0182
 2290SOL    HW218507   3.552   0.483  14.048  4.4872  1.2213 -0.6221
 2291SOL     OW18508   4.500   3.065   8.889 -0.3432  0.0083 -0.1679
 2291SOL    HW118509   4.585   3.029   8.862  0.7143  1.5164  1.1324
 2291SOL    HW218510   4.527   3.157   8.885  0.7091 -0.3583 -1.4278
 2292SOL     OW18511   4.698   0.589   8.151 -0.3999  0.1785 -0.1508
 2292SOL    HW118512   4.701   0.500   8.185  0.6985  0.4749  0.5070
 2292SOL    HW218513   4.665   0.576   8.062 -1.4953 -1.1377  0.4397
 2293SOL     OW18514   3.359   4.174   7.784 -0.3990 -0.0825 -0.5835
 2293SOL    HW118515   3.289   4.199   7.844 -0.0791 -0.8627  0.1168
 2293SOL    HW218516   3.382   4.083   7.802  1.2507  0.1446 -1.5443
 2294SOL     OW18517   0.830   4.224  16.534 -0.0013 -0.2310  0.0689
 2294SOL    HW118518   0.892   4.215  16.462  0.6823 -0.0018  0.6354
 2294SOL    HW218519   0.873   4.281  16.597 -0.9649 -0.5493  1.0238
 2295SOL     OW18520   3.703   1.290   2.181 -0.1002 -0.3713 -0.0215
 2295SOL    HW118521   3.632   1.349   2.155  1.3059  0.1697 -2.6148
 2295SOL    HW218522   3.777   1.350   2.176 -1.2179  0.9844 -0.1789
 2296SOL     OW18523   0.950   3.570  15.925  0.7077 -0.6251  0.4963
 2296SOL    HW118524   0.866   3.569  15.878  1.0286 -1.3011 -0.0735
 2296SOL    HW218525   0.969   3.478  15.940  1.3690 -0.2291  2.0835
 2297SOL     OW18526   0.638   2.551  14.932 -0.0736 -0.2256  0.6013
 2297SOL    HW118527   0.594   2.520  14.852  1.2701 -0.3430 -0.1015
 2297SOL    HW218528   0.667   2.468  14.970  0.5152 -0.0700  0.4926
 2298SOL     OW18529   3.608   4.405   5.412  0.3090 -0.0839 -0.5771
 2298SOL    HW118530   3.569   4.413   5.325  0.8349  0.3647 -0.7688
 2298SOL    HW218531   3.694   4.440   5.390  0.1078  0.4911 -0.4387
 2299SOL     OW18532   4.619   1.981  17.551 -0.3048  0.3191  0.0971
 2299SOL    HW118533   4.638   1.902  17.500  2.6629  1.3929 -0.4671
 2299SOL    HW218534   4.547   1.957  17.610 -1.1907  0.2041 -1.0195
 2300SOL     OW18535   1.519   0.082   0.281  0.7892  0.2097 -0.3462
 2300SOL    HW118536   1.425   0.079   0.301  0.6530  0.0887 -1.0276
 2300SOL    HW218537   1.557   0.064   0.367 -1.5359 -0.1435  0.5975
 2301SOL     OW18538   2.096   1.801   8.058  0.3403  0.0124 -0.2332
 2301SOL    HW118539   2.052   1.841   7.983 -2.0437  1.3343  1.8737
 2301SOL    HW218540   2.139   1.882   8.086 -1.2331  1.5809 -2.3733
 2302SOL     OW18541   3.240   2.380   3.981 -0.6740  0.0955  0.2145
 2302SOL    HW118542   3.308   2.350   4.042 -0.2038  0.2016 -0.2571
 2302SOL    HW218543   3.169   2.331   4.021  0.6976 -1.1894  1.0907
 2303SOL     OW18544   2.292   1.035  13.979  0.1292 -0.3156  0.5801
 2303SOL    HW118545   2.205   1.044  14.018  0.4040  0.0191  1.1066
 2303SOL    HW218546   2.350   1.036  14.055 -0.5914  0.5905  1.1236
 2304SOL     OW18547   2.990   2.207   5.984  0.0456 -0.3061 -0.2134
 2304SOL    HW118548   3.056   2.144   6.013 -1.0373 -0.7488  1.3096
 2304SOL    HW218549   2.990   2.263   6.062 -1.1015 -1.2635  0.4819
 2305SOL     OW18550   2.785   4.687   7.870 -0.6576  0.1346 -0.5000
 2305SOL    HW118551   2.783   4.596   7.841 -0.6058 -0.3952  1.1603
 2305SOL    HW218552   2.878   4.706   7.862 -0.1918 -1.8966 -0.0231
 2306SOL     OW18553   1.272   0.473   1.392  0.1222  0.6513 -0.1132
 2306SOL    HW118554   1.253   0.565   1.411 -0.2059  0.2930  1.2769
 2306SOL    HW218555   1.184   0.437   1.384  0.6351 -0.9810  1.6497
 2307SOL     OW18556   1.973   2.754  12.712 -0.0059 -0.3054 -0.5174
 2307SOL    HW118557   2.030   2.805  12.655 -0.9409 -0.7406 -1.8575
 2307SOL    HW218558   2.023   2.673  12.724 -1.8256 -1.3932 -0.2226
 2308SOL     OW18559   2.689   0.360  14.631  0.3324  0.0594  0.0145
 2308SOL    HW118560   2.759   0.373  14.568 -0.1123  0.0722 -0.4748
 2308SOL    HW218561   2.735   0.335  14.711 -0.3098  0.2125  0.4335
 2309SOL     OW18562   1.817   1.559  12.158 -0.1359  0.3499 -0.3299
 2309SOL    HW118563   1.908   1.557  12.187  0.1802 -0.8456 -1.4264
 2309SOL    HW218564   1.773   1.610  12.227  0.0479 -1.0646  0.8295
 2310SOL     OW18565   4.383   2.528   4.026  0.3792  0.5533  0.0279
 2310SOL    HW118566   4.461   2.553   4.075  1.1697 -1.6158 -0.0875
 2310SOL    HW218567   4.322   2.599   4.041 -0.5005  0.5871 -3.5374
 2311SOL     OW18568   0.951   1.716  16.542  0.0667  0.0281 -1.4053
 2311SOL    HW118569   0.952   1.791  16.602 -0.1417 -2.1489  1.3038
 2311SOL    HW218570   0.861   1.718  16.510 -1.2325 -0.3507  2.2462
 2312SOL     OW18571   4.552   2.819   9.618  0.0311 -0.8867  0.1453
 2312SOL    HW118572   4.622   2.883   9.606 -1.7762  1.3728  1.5508
 2312SOL    HW218573   4.490   2.882   9.657  1.5146  0.4581  0.3332
 2313SOL     OW18574   1.972   0.733  12.697  0.6150 -0.4493 -0.5138
 2313SOL    HW118575   1.904   0.666  12.691  1.4053 -1.2657 -0.3555
 2313SOL    HW218576   2.018   0.700  12.775 -1.9126  0.3884  1.3141
 2314SOL     OW18577   1.706   1.524   0.796  0.8148 -0.0919  0.2636
 2314SOL    HW118578   1.705   1.449   0.855 -2.1472 -1.1684 -1.1698
 2314SOL    HW218579   1.788   1.520   0.746  0.3982 -0.0860 -0.4246
 2315SOL     OW18580   1.484   0.423   0.333  0.2076 -0.2495  0.0265
 2315SOL    HW118581   1.535   0.358   0.381  2.7084  0.7728 -1.2413
 2315SOL    HW218582   1.547   0.495   0.343 -0.9560  0.5795  1.3786
 2316SOL     OW18583   0.817   3.646   8.013  0.0139 -0.2135 -0.5808
 2316SOL    HW118584   0.757   3.718   7.995  1.5177  0.4743 -2.7890
 2316SOL    HW218585   0.887   3.686   8.064  1.2390 -2.7991 -0.2281
 2317SOL     OW18586   3.757   4.364   8.264 -0.4761  0.4619  0.3801
 2317SOL    HW118587   3.721   4.279   8.240  1.0803 -0.1045  0.0550
 2317SOL    HW218588   3.790   4.351   8.353 -0.1763  0.7878  0.3144
 2318SOL     OW18589   1.065   0.065   6.313  0.4231  0.2744  0.3945
 2318SOL    HW118590   1.101   4.717   6.335  0.0037  0.3214  1.2424
 2318SOL    HW218591   0.976   0.030   6.316  0.6557 -0.3029  0.5211
 2319SOL     OW18592   3.966   2.907  13.907  0.7475 -0.2952 -0.3146
 2319SOL    HW118593   3.980   2.985  13.959  1.3165 -0.2949 -0.4574
 2319SOL    HW218594   4.010   2.942  13.830 -0.0327 -3.6393 -2.3054
 2320SOL     OW18595   1.488   3.140  16.054 -0.2169 -0.1251  0.5888
 2320SOL    HW118596   1.493   3.236  16.059  1.8324 -0.3217  2.3307
 2320SOL    HW218597   1.532   3.104  16.131  0.3828  0.1377  0.3734
 2321SOL     OW18598   1.113   0.969   6.052  0.4308 -0.1509  0.5706
 2321SOL    HW118599   1.048   0.943   6.117  1.2880  0.9109  1.8281
 2321SOL    HW218600   1.121   0.890   5.997 -3.0598 -1.7813  2.3775
 2322SOL     OW18601   4.486   0.662   3.594 -0.3498 -0.0820 -0.0175
 2322SOL    HW118602   4.579   0.655   3.617 -0.3414  0.8577  0.2221
 2322SOL    HW218603   4.457   0.691   3.681 -0.3341  0.8284 -0.3152
 2323SOL     OW18604   2.020   1.747   4.888 -0.0991 -0.5850  0.6766
 2323SOL    HW118605   2.014   1.683   4.959  2.7694  0.3907  1.8133
 2323SOL    HW218606   1.940   1.796   4.907 -0.6986 -0.4851 -2.2008
 2324SOL     OW18607   1.962   3.507   6.269 -0.4619  1.0680 -0.2082
 2324SOL    HW118608   1.870   3.485   6.286 -0.0155  1.3696  2.6057
 2324SOL    HW218609   2.001   3.499   6.356 -0.4466  2.1205 -0.1171
 2325SOL     OW18610   3.167   3.941   1.903 -0.2856 -0.0667 -0.3608
 2325SOL    HW118611   3.073   3.925   1.901 -0.8228  3.2333 -0.2140
 2325SOL    HW218612   3.195   3.891   1.826 -1.7695  2.2425 -2.4047
 2326SOL     OW18613   0.489   4.189  16.119  0.7924  0.7903 -0.5893
 2326SOL    HW118614   0.494   4.250  16.193  1.8336 -1.9474  1.6251
 2326SOL    HW218615   0.580   4.200  16.092  1.8201 -0.8352  2.1873
 2327SOL     OW18616   2.098   1.282  15.836 -0.4035 -0.0616  0.3142
 2327SOL    HW118617   2.058   1.336  15.905 -4.1871 -0.0337 -1.9196
 2327SOL    HW218618   2.048   1.313  15.760  0.1344 -1.2710 -0.5290
 2328SOL     OW18619   0.887   1.613   2.027  0.3018 -0.2083 -0.3982
 2328SOL    HW118620   0.938   1.567   2.094 -0.7236  0.0261  0.5367
 2328SOL    HW218621   0.798   1.580   2.041 -0.5403  2.3089  0.1964
 2329SOL     OW18622   2.080   1.725  15.674  0.3247  0.1179 -0.4115
 2329SOL    HW118623   2.117   1.808  15.705 -0.5181 -0.5042  2.3295
 2329SOL    HW218624   2.067   1.751  15.583 -0.4695  0.4152 -0.2137
 2330SOL     OW18625   0.038   3.584   0.939 -0.4314 -0.1346 -0.2998
 2330SOL    HW118626   0.086   3.502   0.938 -0.3667 -0.1056  0.5838
 2330SOL    HW218627   0.055   3.630   1.021  0.4933  0.6433 -0.9235
 2331SOL     OW18628   0.027   0.233   8.747 -0.0272 -0.3462  0.0960
 2331SOL    HW118629   0.102   0.267   8.699  0.4160 -0.7160  0.5305
 2331SOL    HW218630   0.063   0.198   8.828 -1.8359 -1.6736  0.3346
 2332SOL     OW18631   1.875   2.488   2.889  0.0720 -0.7398  0.5405
 2332SOL    HW118632   1.946   2.479   2.825 -0.7208 -3.0563 -0.0309
 2332SOL    HW218633   1.842   2.399   2.902  3.5889 -2.2864 -1.0459
 2333SOL     OW18634   3.833   0.588   3.701 -0.9274 -0.0340 -0.7570
 2333SOL    HW118635   3.812   0.625   3.787  0.8251  0.8951 -0.7261
 2333SOL    HW218636   3.830   0.495   3.726  0.1085  0.8787  2.8569
 2334SOL     OW18637   4.347   0.446   2.461  0.0749 -0.0745 -0.1126
 2334SOL    HW118638   4.343   0.493   2.544  3.0740  1.9890 -1.1101
 2334SOL    HW218639   4.435   0.408   2.459  0.6567  1.3754 -3.1803
 2335SOL     OW18640   3.640   4.133   6.553 -0.1465 -0.2403  0.8380
 2335SOL    HW118641   3.598   4.081   6.485 -0.4678  1.3299 -0.1858
 2335SOL    HW218642   3.646   4.071   6.625 -2.2107 -1.1776  0.2004
 2336SOL     OW18643   4.389   0.042   9.991 -0.3030  0.4939 -0.2709
 2336SOL    HW118644   4.326   0.085   9.933  0.4491  4.0090  1.4962
 2336SOL    HW218645   4.387   4.688   9.962 -1.0735  0.6848 -0.8376
 2337SOL     OW18646   1.692   3.563  14.203 -0.2152  0.0364 -0.0224
 2337SOL    HW118647   1.661   3.562  14.113 -2.3205  4.1494  0.6177
 2337SOL    HW218648   1.661   3.477  14.231 -0.0163 -0.3880 -1.1197
 2338SOL     OW18649   3.605   1.880   2.852 -0.5204  0.5567 -0.2616
 2338SOL    HW118650   3.515   1.906   2.834 -0.7595 -0.9654 -1.2217
 2338SOL    HW218651   3.623   1.942   2.923 -2.4522  0.9962 -0.1483
 2339SOL     OW18652   1.644   4.314   8.037  0.2011  0.1732  0.1936
 2339SOL    HW118653   1.616   4.250   8.103  0.9649 -0.3211  0.0440
 2339SOL    HW218654   1.712   4.366   8.079  1.1471 -1.4261  0.6386
 2340SOL     OW18655   1.374   2.009   9.828 -0.5238 -0.3850  0.3988
 2340SOL    HW118656   1.312   2.080   9.810  0.3429 -0.1572 -1.6320
 2340SOL    HW218657   1.371   1.987   9.921 -3.5931 -0.6146  0.2248
 2341SOL     OW18658   4.724   1.883   1.639  0.5882 -0.3636  0.5779
 2341SOL    HW118659   0.063   1.928   1.674  0.6142 -1.6790  2.1981
 2341SOL    HW218660   0.022   1.830   1.567  1.6426  3.8491 -1.9640
 2342SOL     OW18661   3.060   0.178   4.304 -0.0014  1.2932 -0.1012
 2342SOL    HW118662   3.129   0.238   4.331  1.9519  0.3768 -3.1416
 2342SOL    HW218663   3.106   0.094   4.303  0.6450  1.6597 -0.4345
 2343SOL     OW18664   2.793   3.195   5.767  0.0543  0.1702 -0.0114
 2343SOL    HW118665   2.876   3.225   5.730  1.0040 -1.7630  0.5905
 2343SOL    HW218666   2.809   3.123   5.828 -0.0606 -0.4992 -0.7743
 2344SOL     OW18667   3.122   0.464  12.527  0.3732  0.2446  0.3174
 2344SOL    HW118668   3.040   0.513  12.530  0.6273  0.6709  0.4293
 2344SOL    HW218669   3.127   0.463  12.432  1.1756  0.4120  0.3597
 2345SOL     OW18670   0.728   3.651   5.435  0.4866  0.1589  0.2603
 2345SOL    HW118671   0.703   3.677   5.347 -2.4990  0.2143  1.0965
 2345SOL    HW218672   0.650   3.641   5.490 -0.7134  1.9626 -1.1540
 2346SOL     OW18673   2.217   1.175   2.293 -0.4082 -0.2687  0.4181
 2346SOL    HW118674   2.155   1.103   2.300  0.0041 -0.8131 -1.6422
 2346SOL    HW218675   2.169   1.250   2.328 -0.4574 -1.0866  2.1017
 2347SOL     OW18676   0.347   1.385  14.150  0.0735  0.1318  0.3795
 2347SOL    HW118677   0.370   1.325  14.221  1.5554 -1.2439 -1.2524
 2347SOL    HW218678   0.307   1.459  14.196 -1.5717 -0.8232  0.4807
 2348SOL     OW18679   3.226   2.270   3.190  0.1598 -0.0604 -0.4218
 2348SOL    HW118680   3.298   2.295   3.133  0.7942  0.6293  0.6788
 2348SOL    HW218681   3.267   2.275   3.277  0.7837 -0.3797 -0.6958
 2349SOL     OW18682   0.022   2.945   9.919  0.3597 -0.1723 -0.4172
 2349SOL    HW118683   0.031   2.850   9.908 -1.5679 -0.1557 -2.1926
 2349SOL    HW218684   0.108   2.983   9.937  0.3362 -1.4244  2.4016
 2350SOL     OW18685   2.220   0.452   2.700  0.0084  0.5280  0.6623
 2350SOL    HW118686   2.195   0.401   2.623 -0.2715  0.4188  0.8239
 2350SOL    HW218687   2.272   0.519   2.657 -0.5887  1.8661  2.0014
 2351SOL     OW18688   4.283   0.762   7.375 -0.2848  0.1349  0.1435
 2351SOL    HW118689   4.334   0.787   7.298  0.1583  0.1049  0.4235
 2351SOL    HW218690   4.241   0.844   7.398  0.1985  0.6586 -0.8237
 2352SOL     OW18691   3.276   4.482   1.184  0.0998 -0.3114 -0.6107
 2352SOL    HW118692   3.265   4.394   1.221 -0.3844  0.7923  1.8812
 2352SOL    HW218693   3.243   4.461   1.097 -0.0845  2.5804 -1.2370
 2353SOL     OW18694   0.721   0.982   9.883  0.1608 -0.2603  0.4890
 2353SOL    HW118695   0.683   0.999   9.797 -1.5499 -1.4051  1.0297
 2353SOL    HW218696   0.787   0.921   9.852  0.0766  1.1773 -2.5399
 2354SOL     OW18697   4.158   2.789   6.312  0.0393 -0.7483 -0.1836
 2354SOL    HW118698   4.160   2.871   6.263  1.9905  0.8099  2.5418
 2354SOL    HW218699   4.155   2.809   6.405  3.5502  1.7616 -0.6123
 2355SOL     OW18700   2.002   0.092   2.579 -0.2904 -0.0663  0.7458
 2355SOL    HW118701   1.950   0.028   2.530  0.1555  1.1748 -1.3677
 2355SOL    HW218702   1.975   0.175   2.539 -0.7548 -1.2275 -1.3603
 2356SOL     OW18703   0.374   2.201   0.734 -0.6364  0.5089 -0.0522
 2356SOL    HW118704   0.407   2.188   0.645  4.0811 -0.2054  1.7463
 2356SOL    HW218705   0.434   2.272   0.759 -0.5013  0.7399 -1.0490
 2357SOL     OW18706   1.001   1.350   2.626  0.9360 -0.3084  0.5749
 2357SOL    HW118707   0.929   1.413   2.616 -0.2235 -1.4054  2.0671
 2357SOL    HW218708   1.065   1.397   2.679  2.0305 -1.7510  0.5070
 2358SOL     OW18709   2.010   0.258   8.203  0.2748  0.7836  0.0102
 2358SOL    HW118710   2.058   0.268   8.285 -1.0144  0.5673  0.7879
 2358SOL    HW218711   1.943   0.204   8.245  2.2150 -1.7038 -0.0707
 2359SOL     OW18712   1.010   1.075   4.612 -0.1932 -0.5458 -0.5822
 2359SOL    HW118713   0.967   1.034   4.688 -0.6610 -3.1452 -2.2522
 2359SOL    HW218714   1.102   1.051   4.627  0.3829  2.3690  0.4810
 2360SOL     OW18715   2.811   3.082   6.906  0.6034  0.0413  0.6487
 2360SOL    HW118716   2.836   3.035   6.827 -0.8187 -1.2201  0.9517
 2360SOL    HW218717   2.872   3.155   6.907  1.5592 -0.7980  3.7438
 2361SOL     OW18718   3.507   3.480   1.913 -0.2986 -0.3880 -0.8374
 2361SOL    HW118719   3.424   3.448   1.877 -1.7609 -0.3979  2.5931
 2361SOL    HW218720   3.488   3.514   2.000 -1.5355 -1.0369 -0.8476
 2362SOL     OW18721   0.306   1.722  11.524  0.2153  0.4521  0.7042
 2362SOL    HW118722   0.319   1.633  11.492 -1.3795  0.9037 -1.2015
 2362SOL    HW218723   0.271   1.767  11.447 -0.1258  0.9931  1.1711
 2363SOL     OW18724   3.507   2.268   5.081 -0.2824  1.6079 -0.3375
 2363SOL    HW118725   3.521   2.282   4.988  1.0583  0.8093 -0.2442
 2363SOL    HW218726   3.591   2.290   5.120 -0.5614  1.8652  0.1263
 2364SOL     OW18727   1.165   0.224   1.206  0.4077 -0.4215 -0.0493
 2364SOL    HW118728   1.121   0.180   1.133  0.2379  1.0817 -0.8437
 2364SOL    HW218729   1.095   0.287   1.216  1.4454  0.4732  1.5483
 2365SOL     OW18730   2.156   4.210   2.768 -0.1706 -0.2014 -0.1532
 2365SOL    HW118731   2.149   4.117   2.748 -0.8924 -0.6257  2.0656
 2365SOL    HW218732   2.146   4.249   2.682 -1.4879  0.7422  0.4325
 2366SOL     OW18733   1.264   2.626   6.252  0.4317  0.0975  0.8604
 2366SOL    HW118734   1.202   2.591   6.188  3.0238 -1.2837 -0.9218
 2366SOL    HW218735   1.330   2.650   6.186  0.3396 -1.3123  0.2597
 2367SOL     OW18736   4.519   3.667   3.217 -0.1683  0.5315 -0.3551
 2367SOL    HW118737   4.563   3.687   3.135  1.3759  1.7398  0.7649
 2367SOL    HW218738   4.492   3.755   3.245 -0.7549  1.3028 -3.3833
 2368SOL     OW18739   0.048   4.339  11.643  0.0561  0.1151  0.3290
 2368SOL    HW118740   0.099   4.359  11.565 -0.5096 -1.4105 -0.4272
 2368SOL    HW218741   0.106   4.378  11.709 -0.8833 -0.2399  1.3624
 2369SOL     OW18742   0.032   0.323  12.341  0.5050 -0.2369  0.5797
 2369SOL    HW118743   0.124   0.307  12.360  0.7316 -0.4986 -0.7590
 2369SOL    HW218744   0.043   0.369  12.258  0.4285  1.9080  1.7718
 2370SOL     OW18745   3.585   1.541   6.300 -0.1755  0.4111  0.0601
 2370SOL    HW118746   3.490   1.537   6.289  0.2042  0.1801 -3.2337
 2370SOL    HW218747   3.598   1.592   6.380 -1.1505  0.4787  0.1770
 2371SOL     OW18748   2.744   2.228   8.372 -0.5300 -0.1366 -0.2997
 2371SOL    HW118749   2.676   2.253   8.310  0.6190  2.6458 -0.4381
 2371SOL    HW218750   2.806   2.214   8.301  2.4580 -1.2913  2.5398
 2372SOL     OW18751   0.052   4.030  11.507 -0.0671 -0.0689  0.0030
 2372SOL    HW118752   0.103   4.067  11.579  1.2907 -0.1414 -0.9119
 2372SOL    HW218753   0.055   3.939  11.537  1.6092 -0.4752 -1.3588
 2373SOL     OW18754   3.882   4.297  14.054  0.1963 -0.5056 -0.0490
 2373SOL    HW118755   3.876   4.296  14.150  1.0779 -0.9114  0.0041
 2373SOL    HW218756   3.966   4.252  14.046 -0.1237 -1.4424  1.7811
 2374SOL     OW18757   0.979   0.072   5.251  0.4689  0.1086 -0.4013
 2374SOL    HW118758   0.893   0.030   5.256 -1.0272  3.2056 -0.1574
 2374SOL    HW218759   1.031   4.732   5.230  0.5698 -0.2488  1.1757
 2375SOL     OW18760   1.044   3.885   6.257 -0.0797 -0.2206  0.4534
 2375SOL    HW118761   0.984   3.948   6.218  1.3548  0.6629 -0.3604
 2375SOL    HW218762   1.030   3.804   6.209  1.2919 -0.3997  0.3394
 2376SOL     OW18763   3.577   3.954   0.070  0.2043 -0.4906 -1.0847
 2376SOL    HW118764   3.515   4.026   0.054  0.5183  0.4913  2.1904
 2376SOL    HW218765   3.645   3.978   0.007  0.8551  1.4766  0.3922
 2377SOL     OW18766   2.061   3.567   6.525  0.0460  0.1337  0.4100
 2377SOL    HW118767   2.016   3.513   6.590 -1.4726  1.0970  0.1786
 2377SOL    HW218768   2.151   3.539   6.541 -0.4650 -1.1231  1.1044
 2378SOL     OW18769   3.927   0.644  17.280  0.1591 -0.5038 -0.1699
 2378SOL    HW118770   3.881   0.656  17.197  0.5981  0.8605 -0.2206
 2378SOL    HW218771   4.010   0.685  17.257  0.0630 -0.4536 -0.4280
 2379SOL     OW18772   1.699   0.114   9.206  0.4521 -0.2444  0.7502
 2379SOL    HW118773   1.700   0.208   9.223 -3.5755  0.6999 -4.0029
 2379SOL    HW218774   1.626   0.110   9.143  2.3224  0.4954 -1.4593
 2380SOL     OW18775   1.025   2.407   4.410  0.4941  0.4657 -0.1304
 2380SOL    HW118776   1.019   2.501   4.431  0.5833  0.5983 -0.7057
 2380SOL    HW218777   1.047   2.404   4.317  1.6869  2.2110  0.0746
 2381SOL     OW18778   2.535   1.411  17.060  0.9058 -0.7031  0.4809
 2381SOL    HW118779   2.448   1.429  17.024  0.3588 -0.1084  2.0990
 2381SOL    HW218780   2.578   1.365  16.988  4.2325 -0.2580  2.2271
 2382SOL     OW18781   2.908   2.325   1.325  0.3543  0.1483 -0.1942
 2382SOL    HW118782   2.962   2.336   1.247 -1.9515  0.5616 -1.7156
 2382SOL    HW218783   2.882   2.417   1.337 -0.3404 -0.1078  0.2309
 2383SOL     OW18784   0.861   4.207   1.813  0.5832  0.1791  0.3605
 2383SOL    HW118785   0.813   4.272   1.762  1.8404  1.4032  0.7634
 2383SOL    HW218786   0.824   4.124   1.781 -0.9829  0.6562  0.9257
 2384SOL     OW18787   1.253   0.130  10.903 -0.4491 -0.7585  0.6343
 2384SOL    HW118788   1.271   0.185  10.827 -0.6250  0.3259  1.3616
 2384SOL    HW218789   1.301   0.177  10.971  1.3946 -1.4673 -0.1884
 2385SOL     OW18790   0.221   3.154   8.999  0.2807 -0.2531  0.0994
 2385SOL    HW118791   0.169   3.107   8.933  1.1313  1.0087 -1.4849
 2385SOL    HW218792   0.224   3.091   9.071  1.1765 -0.4747 -0.1354
 2386SOL     OW18793   0.489   2.574   1.793 -0.4274 -0.1422  0.2310
 2386SOL    HW118794   0.448   2.660   1.782 -0.4287 -0.7131 -4.1014
 2386SOL    HW218795   0.464   2.556   1.884  0.1750  0.8373  0.5753
 2387SOL     OW18796   4.171   1.289   8.139 -0.0402  0.2773  0.3560
 2387SOL    HW118797   4.225   1.210   8.137 -0.2139  0.1757 -0.5030
 2387SOL    HW218798   4.220   1.348   8.083 -1.0161 -0.4262 -1.2506
 2388SOL     OW18799   3.684   2.994   6.516 -0.2972  0.2731 -0.3733
 2388SOL    HW118800   3.623   2.920   6.513  1.1064 -0.9491  1.2072
 2388SOL    HW218801   3.736   2.986   6.595 -0.0701 -1.8247 -0.7260
 2389SOL     OW18802   0.896   1.560   2.510  0.6731  0.0786  0.8379
 2389SOL    HW118803   0.837   1.635   2.519  1.7964  1.1886 -1.0568
 2389SOL    HW218804   0.979   1.604   2.525  0.0997  0.3888  3.1318
 2390SOL     OW18805   2.151   1.061  12.174 -0.2274  0.0794  0.1683
 2390SOL    HW118806   2.203   0.981  12.181  0.2467  0.5435  1.9622
 2390SOL    HW218807   2.216   1.128  12.197  1.1234 -1.9435  2.3057
 2391SOL     OW18808   3.093   1.312   3.557  0.3617  0.5836 -0.2510
 2391SOL    HW118809   3.017   1.297   3.501  0.4771 -1.1305  0.0530
 2391SOL    HW218810   3.096   1.220   3.583 -0.8424  0.8579  0.8591
 2392SOL     OW18811   0.366   0.285  12.242  0.1211 -0.7811  0.1360
 2392SOL    HW118812   0.384   0.377  12.262  0.7415 -0.8995  0.1303
 2392SOL    HW218813   0.337   0.249  12.325  1.9626 -2.3354  0.1246
 2393SOL     OW18814   3.010   1.974   9.261 -0.3305 -0.0880  0.0357
 2393SOL    HW118815   3.005   1.901   9.323  0.6275  1.3009  1.7566
 2393SOL    HW218816   3.098   2.005   9.283 -0.3413  0.5275 -0.7830
 2394SOL     OW18817   0.173   2.776   5.570  0.2807 -0.0725  0.3334
 2394SOL    HW118818   0.146   2.688   5.597  0.3888  0.6948  3.0099
 2394SOL    HW218819   0.264   2.772   5.539 -0.0949  0.6576 -0.8478
 2395SOL     OW18820   1.994   3.583  11.248 -0.1722  0.4148  0.0092
 2395SOL    HW118821   2.088   3.591  11.229 -0.2064 -1.1212 -0.8108
 2395SOL    HW218822   1.954   3.548  11.169  2.1433 -1.3467 -0.3912
 2396SOL     OW18823   0.187   4.465  10.476 -0.2136 -0.3167  0.3381
 2396SOL    HW118824   0.164   4.523  10.403 -2.1472 -1.2614  0.2024
 2396SOL    HW218825   0.137   4.388  10.451 -1.1405 -0.1802  1.7768
 2397SOL     OW18826   2.205   1.389   4.192  0.7104  0.3185 -0.2293
 2397SOL    HW118827   2.129   1.445   4.205 -0.6168 -1.1129 -1.7096
 2397SOL    HW218828   2.177   1.305   4.228  0.9206  0.4989  0.3460
 2398SOL     OW18829   2.516   3.189  15.305  0.0652 -0.2724  0.0892
 2398SOL    HW118830   2.480   3.172  15.218  0.3106  1.5380 -0.3654
 2398SOL    HW218831   2.451   3.252  15.338  0.6550  0.0572  0.6230
 2399SOL     OW18832   2.450   1.844   4.857 -0.5860 -0.6824  0.0746
 2399SOL    HW118833   2.517   1.897   4.901 -1.4349  2.0198 -1.8987
 2399SOL    HW218834   2.500   1.797   4.790  0.1080 -1.7990  1.3865
 2400SOL     OW18835   2.283   4.113  11.828  0.2851 -0.1220  0.9003
 2400SOL    HW118836   2.255   4.022  11.818 -2.7625  1.1238 -1.7327
 2400SOL    HW218837   2.362   4.090  11.879  1.2428  1.0319 -0.0673
 2401SOL     OW18838   0.273   3.796   0.844  0.1843 -0.2344  0.4198
 2401SOL    HW118839   0.272   3.745   0.925 -0.7636 -0.6672  0.1270
 2401SOL    HW218840   0.341   3.754   0.791 -1.5327 -1.3084 -0.8935
 2402SOL     OW18841   1.055   1.115   9.088 -0.0899  0.0771 -0.1468
 2402SOL    HW118842   1.104   1.086   9.010  1.7734  0.5647  0.8405
 2402SOL    HW218843   1.104   1.194   9.109  1.0871 -0.7187  0.1034
 2403SOL     OW18844   0.833   4.586  12.558 -0.1151 -0.5290 -0.6333
 2403SOL    HW118845   0.887   4.655  12.520  0.8812 -0.9790 -0.0484
 2403SOL    HW218846   0.888   4.510  12.537  0.7760 -0.9282  3.1728
 2404SOL     OW18847   0.486   3.078   2.800  0.2634 -0.1660 -0.2922
 2404SOL    HW118848   0.402   3.116   2.827 -1.1992 -1.4529 -3.0401
 2404SOL    HW218849   0.489   2.985   2.823 -1.5064  0.0299  0.7423
 2405SOL     OW18850   0.075   0.541   3.771 -0.4280  0.2246  0.8300
 2405SOL    HW118851   0.072   0.506   3.860 -2.5084 -0.9416  0.3064
 2405SOL    HW218852   0.126   0.621   3.783 -1.5895  0.7129  2.4531
 2406SOL     OW18853   1.145   4.089  17.359 -0.0908  0.3883  0.1718
 2406SOL    HW118854   1.121   3.997  17.369  1.1161 -0.1219 -1.6092
 2406SOL    HW218855   1.104   4.135  17.432  0.1564  0.1326  0.4748
 2407SOL     OW18856   2.648   2.591  15.956 -0.1464 -0.1600 -0.1258
 2407SOL    HW118857   2.717   2.648  15.990 -0.2273  1.0888 -2.0662
 2407SOL    HW218858   2.568   2.639  15.977 -0.9596 -1.9212  0.8613
 2408SOL     OW18859   3.738   4.708   6.075 -0.1888  0.2259  0.1825
 2408SOL    HW118860   3.690   0.037   6.125  0.2558 -1.0538  2.2681
 2408SOL    HW218861   3.686   4.630   6.095  0.0370  0.2898  0.9999
 2409SOL     OW18862   0.394   2.354   9.490 -0.0857  0.3236  0.0245
 2409SOL    HW118863   0.409   2.261   9.502  1.5771  0.6004  0.2059
 2409SOL    HW218864   0.484   2.387   9.484 -0.6412  2.1272  1.6738
 2410SOL     OW18865   4.226   3.228   7.227  0.6685 -0.0544 -0.0242
 2410SOL    HW118866   4.281   3.252   7.301 -1.9160  4.5999  0.4030
 2410SOL    HW218867   4.231   3.311   7.178  1.7295 -0.0719  0.0667
 2411SOL     OW18868   3.699   0.086  14.479  0.0131 -0.5183  0.1175
 2411SOL    HW118869   3.790   0.072  14.504  0.6149 -1.2434 -2.5068
 2411SOL    HW218870   3.713   0.105  14.386  0.3212  0.3366  0.3344
 2412SOL     OW18871   4.324   3.297   6.801 -0.1201 -0.0039  0.2682
 2412SOL    HW118872   4.309   3.381   6.757 -0.4796  0.0058  0.4116
 2412SOL    HW218873   4.245   3.292   6.854 -1.2268  1.7764 -1.1621
 2413SOL     OW18874   2.620   3.363   4.177 -0.1593  0.0715 -0.4483
 2413SOL    HW118875   2.561   3.311   4.122  0.3598 -0.7352 -0.2278
 2413SOL    HW218876   2.701   3.312   4.179 -0.4199 -0.2942  0.7122
 2414SOL     OW18877   2.228   4.431  14.750  0.2540  0.3869  0.1536
 2414SOL    HW118878   2.171   4.508  14.751 -1.2868 -0.7583  0.2760
 2414SOL    HW218879   2.276   4.442  14.831 -0.5634 -0.5152  0.7580
 2415SOL     OW18880   2.520   4.271  10.375 -1.0173  0.4156 -0.0106
 2415SOL    HW118881   2.479   4.300  10.457 -1.2836 -1.9805  0.7081
 2415SOL    HW218882   2.548   4.351  10.331 -2.0118  0.3558 -0.7645
 2416SOL     OW18883   3.619   4.060   5.831 -0.2313 -0.2799 -0.7098
 2416SOL    HW118884   3.626   4.083   5.739  2.4092  1.0555 -0.1533
 2416SOL    HW218885   3.556   4.124   5.865  2.6465  1.2165  1.7977
 2417SOL     OW18886   3.188   2.278   4.854 -0.4253  0.3092  0.0810
 2417SOL    HW118887   3.182   2.196   4.902  1.1286  0.0156 -0.2279
 2417SOL    HW218888   3.190   2.338   4.929  1.0886  0.2929  0.0502
 2418SOL     OW18889   2.747   0.977   8.687  0.0887  0.5316 -0.0623
 2418SOL    HW118890   2.804   1.048   8.715 -0.7413  0.9392  0.5774
 2418SOL    HW218891   2.791   0.948   8.606  2.0582 -0.1793  1.2558
 2419SOL     OW18892   1.961   1.710   2.198 -0.1741 -0.2586 -0.3579
 2419SOL    HW118893   1.937   1.645   2.264  1.5551 -0.8332 -0.2758
 2419SOL    HW218894   2.057   1.712   2.203 -0.1399 -1.0532 -0.6611
 2420SOL     OW18895   0.496   3.233   4.791 -0.1622  0.0833  0.1215
 2420SOL    HW118896   0.441   3.158   4.771 -0.6959  0.1220  1.3751
 2420SOL    HW218897   0.429   3.289   4.832 -1.6877 -1.1890 -0.6530
 2421SOL     OW18898   1.902   4.103   4.318  0.4519 -0.0805  0.5085
 2421SOL    HW118899   1.826   4.048   4.339 -1.9127  3.2394  0.6964
 2421SOL    HW218900   1.951   4.048   4.256 -2.0943 -0.4006 -1.2271
 2422SOL     OW18901   2.486   1.839  16.603 -0.2085  0.4446  0.3726
 2422SOL    HW118902   2.459   1.800  16.520 -0.4936 -0.3439  0.8392
 2422SOL    HW218903   2.428   1.797  16.666  0.4178  1.0119  1.3190
 2423SOL     OW18904   3.964   0.187   9.826  0.3634  0.0672 -0.0975
 2423SOL    HW118905   3.928   0.125   9.890 -0.8565 -0.3460 -1.1936
 2423SOL    HW218906   4.058   0.177   9.837  0.2468  1.4085  2.1017
 2424SOL     OW18907   4.559   4.512  11.636 -0.1249 -0.3381  0.1737
 2424SOL    HW118908   4.623   4.444  11.657 -1.1942 -1.3743  0.1539
 2424SOL    HW218909   4.490   4.452  11.606  0.1661 -1.0582  0.9269
 2425SOL     OW18910   4.500   0.356   9.201 -0.4291 -0.5912  0.3439
 2425SOL    HW118911   4.574   0.417   9.193  1.8532 -3.7653 -2.9107
 2425SOL    HW218912   4.435   0.403   9.149 -1.1756 -0.7963  1.0889
 2426SOL     OW18913   0.440   2.276   1.400  1.0405  0.4833 -0.0565
 2426SOL    HW118914   0.425   2.344   1.333 -0.7652 -0.9095 -1.0670
 2426SOL    HW218915   0.498   2.214   1.357  0.6824 -0.2161  0.4620
 2427SOL     OW18916   1.956   3.999   5.014 -0.0662  0.0255 -0.0837
 2427SOL    HW118917   2.009   3.919   5.016  1.9996  1.4871  2.5824
 2427SOL    HW218918   2.018   4.071   5.022 -0.3634  0.1974  0.6681
 2428SOL     OW18919   0.928   2.033   6.228 -0.1465  0.3016 -0.3591
 2428SOL    HW118920   0.953   2.004   6.316 -0.0180  2.7001  0.4121
 2428SOL    HW218921   1.005   2.078   6.194 -0.0328  1.5892  1.6188
 2429SOL     OW18922   0.066   2.599   2.361  0.6073  0.2766 -0.4663
 2429SOL    HW118923   0.090   2.659   2.290 -1.3562  0.5654 -0.8960
 2429SOL    HW218924   0.154   2.562   2.371 -0.6739 -2.5779  0.3397
 2430SOL     OW18925   4.076   2.211   2.844  0.3231 -0.8352 -0.1063
 2430SOL    HW118926   4.091   2.143   2.779 -2.1765  0.5421 -2.0766
 2430SOL    HW218927   4.047   2.290   2.799  1.3317 -0.6825 -0.4977
 2431SOL     OW18928   3.660   3.156   5.201  0.2417 -0.1209  0.2932
 2431SOL    HW118929   3.629   3.246   5.198  2.1418  0.4894 -0.4196
 2431SOL    HW218930   3.705   3.169   5.118 -0.1468 -2.0730 -0.2280
 2432SOL     OW18931   0.167   4.597   3.442 -0.1551  0.0541  0.1563
 2432SOL    HW118932   0.130   4.662   3.501 -0.3385  1.6490 -1.7145
 2432SOL    HW218933   0.086   4.547   3.433 -0.6615  0.9414 -0.2721
 2433SOL     OW18934   4.246   2.563   2.637 -0.3530 -0.1494 -0.6512
 2433SOL    HW118935   4.288   2.548   2.721  0.6664  1.2564 -0.9020
 2433SOL    HW218936   4.159   2.525   2.646 -0.6473  0.3052 -1.5289
 2434SOL     OW18937   4.701   1.405   2.422  0.1094 -0.7509 -0.5757
 2434SOL    HW118938   4.648   1.465   2.369  0.6170  0.9464  0.8372
 2434SOL    HW218939   4.701   1.322   2.374  0.9629  0.6149 -2.9849
 2435SOL     OW18940   2.653   3.511   1.442  0.2413  0.2915  0.5565
 2435SOL    HW118941   2.657   3.544   1.531  1.3137 -1.1005  1.0236
 2435SOL    HW218942   2.740   3.537   1.411 -0.7226  1.3560 -1.2643
 2436SOL     OW18943   0.299   0.084  12.061 -0.1337  0.3458 -0.7605
 2436SOL    HW118944   0.310   0.172  12.096  0.9464  0.9846 -2.6858
 2436SOL    HW218945   0.262   0.041  12.138 -1.7005  1.7896 -0.7049
 2437SOL     OW18946   0.163   3.755  16.617 -0.6161 -0.1768 -0.6751
 2437SOL    HW118947   0.203   3.699  16.549 -0.4936  0.3508 -1.0379
 2437SOL    HW218948   0.239   3.763  16.675  1.3392 -0.7387 -3.1426
 2438SOL     OW18949   4.620   2.237   3.553  0.1195  0.3832  0.0495
 2438SOL    HW118950   4.649   2.146   3.550  1.3924  0.7702  0.6332
 2438SOL    HW218951   4.573   2.242   3.636  0.9516 -0.0905  0.5562
 2439SOL     OW18952   0.551   1.713  15.504 -0.0395  0.6559  0.0062
 2439SOL    HW118953   0.519   1.670  15.425  1.7204 -1.9609  0.7194
 2439SOL    HW218954   0.496   1.674  15.572 -0.5752 -0.6386 -1.1794
 2440SOL     OW18955   1.414   2.729   5.492  0.3060 -0.6405  0.2995
 2440SOL    HW118956   1.468   2.658   5.526  0.7819 -1.0277 -1.2876
 2440SOL    HW218957   1.326   2.691   5.488  0.9531 -1.6028 -3.8651
 2441SOL     OW18958   1.557   3.757   2.258 -0.1129 -0.8088  0.0895
 2441SOL    HW118959   1.527   3.835   2.304  0.5947 -0.8117  0.5572
 2441SOL    HW218960   1.579   3.805   2.178  2.5023  1.6008  2.2637
 2442SOL     OW18961   0.230   0.863  14.592 -0.2361 -0.0484  0.5703
 2442SOL    HW118962   0.257   0.776  14.622 -0.8573  0.3546  2.2908
 2442SOL    HW218963   0.138   0.846  14.572  0.2371 -0.9782 -0.7972
 2443SOL     OW18964   2.024   2.932   7.380  0.2692 -0.0424 -0.2134
 2443SOL    HW118965   2.003   2.913   7.289  1.3201  2.2268 -0.9420
 2443SOL    HW218966   2.047   3.025   7.377 -0.3093  0.1053 -0.1844
 2444SOL     OW18967   2.757   0.982  10.683 -0.0780  0.2529 -0.1690
 2444SOL    HW118968   2.668   0.964  10.714  0.1291  1.5184  1.1827
 2444SOL    HW218969   2.759   1.078  10.688  2.6302  0.0983  1.3565
 2445SOL     OW18970   1.049   1.484   1.835 -0.3207  0.2244  0.6271
 2445SOL    HW118971   0.997   1.530   1.900 -1.1568 -0.1513  0.2154
 2445SOL    HW218972   1.003   1.489   1.751  0.5721 -1.9755  0.0124
 2446SOL     OW18973   3.049   0.413   4.947  0.0755 -0.0285  0.1157
 2446SOL    HW118974   3.009   0.340   4.899  0.6784 -0.1971 -0.1378
 2446SOL    HW218975   3.005   0.395   5.030  0.5952 -1.4453  0.0869
 2447SOL     OW18976   3.296   1.519   6.282  0.6044 -0.1002  0.0428
 2447SOL    HW118977   3.269   1.472   6.203 -2.3375  2.4552 -0.4906
 2447SOL    HW218978   3.232   1.502   6.351 -0.0659 -1.5569 -0.9423
 2448SOL     OW18979   1.875   3.615   0.224  0.1738 -0.0586 -0.5881
 2448SOL    HW118980   1.871   3.532   0.177 -2.3356  0.2767 -0.9685
 2448SOL    HW218981   1.842   3.669   0.152  1.9308  1.0246 -0.5608
 2449SOL     OW18982   0.049   4.049   3.633  0.1170  0.2895  0.1793
 2449SOL    HW118983   0.056   4.023   3.725  1.5237  2.1410  0.6046
 2449SOL    HW218984   0.059   4.144   3.640  1.0565  0.1761  0.4528
 2450SOL     OW18985   2.225   3.888   5.963 -0.4864 -0.4560  0.0126
 2450SOL    HW118986   2.179   3.825   6.019  0.2775  0.6957  1.9120
 2450SOL    HW218987   2.209   3.850   5.876  2.3676  1.2902 -1.2758
 2451SOL     OW18988   2.150   2.693   7.475 -0.2798  0.1330 -0.3511
 2451SOL    HW118989   2.145   2.740   7.558  0.0978 -1.4654  0.5761
 2451SOL    HW218990   2.108   2.764   7.428 -4.4440 -1.5161  0.8456
 2452SOL     OW18991   0.040   0.927   7.967 -0.0919 -0.0607 -0.2689
 2452SOL    HW118992   4.713   0.999   7.966  0.7190  0.6638 -0.3101
 2452SOL    HW218993   0.025   0.892   7.879  2.1927 -0.8055 -0.3551
 2453SOL     OW18994   3.248   2.065  12.456  0.0003  0.3212 -0.1897
 2453SOL    HW118995   3.218   2.112  12.534  2.0532 -2.6225  2.3672
 2453SOL    HW218996   3.311   2.128  12.420  0.8015  1.3216  3.0277
 2454SOL     OW18997   4.446   0.663   4.285  0.1794  0.3710  0.0586
 2454SOL    HW118998   4.394   0.720   4.341  1.9481  3.5430 -1.5374
 2454SOL    HW218999   4.532   0.676   4.327 -0.9308  0.5098  2.3052
 2455SOL     OW19000   4.433   2.678   7.036 -0.2253  0.5645  0.1566
 2455SOL    HW119001   4.468   2.724   7.112  1.9508  0.6749 -0.9088
 2455SOL    HW219002   4.492   2.711   6.968  0.0161 -0.9139 -0.3469
 2456SOL     OW19003   0.509   3.244  17.314  0.4731  0.1482 -0.2557
 2456SOL    HW119004   0.498   3.179  17.245  3.3312  0.9725 -1.5024
 2456SOL    HW219005   0.442   3.308  17.290  1.8486  0.6342 -2.7470
 2457SOL     OW19006   2.609   0.391  13.533  0.5701 -0.2750 -0.1426
 2457SOL    HW119007   2.614   0.476  13.577 -1.8632  0.3506 -1.1156
 2457SOL    HW219008   2.619   0.418  13.442  0.1219  0.0032 -0.1082
 2458SOL     OW19009   4.315   0.771  14.978 -0.0774  0.2688  0.1767
 2458SOL    HW119010   4.390   0.712  14.984 -0.3177  0.0587  1.0254
 2458SOL    HW219011   4.250   0.723  14.927  0.6397 -0.7457  0.2213
 2459SOL     OW19012   1.197   2.807   2.640 -0.0490 -0.2343 -0.3182
 2459SOL    HW119013   1.127   2.762   2.593 -2.0067 -0.6689  3.0187
 2459SOL    HW219014   1.222   2.744   2.708 -0.1618 -1.9747 -1.8659
 2460SOL     OW19015   0.560   2.627   4.883  0.2077  0.0112  0.3983
 2460SOL    HW119016   0.620   2.678   4.938  2.2654 -0.6530 -1.2510
 2460SOL    HW219017   0.592   2.537   4.882 -1.0420 -0.4540  2.1324
 2461SOL     OW19018   4.054   3.100   6.699 -0.9481  0.1895 -0.6292
 2461SOL    HW119019   4.014   3.114   6.613  0.8710 -3.3112 -2.0342
 2461SOL    HW219020   4.147   3.107   6.677 -0.6046  0.1069  0.8240
 2462SOL     OW19021   1.704   1.016   5.407 -0.0255  0.3509  0.3381
 2462SOL    HW119022   1.646   1.042   5.478  0.5898  2.1291  0.1831
 2462SOL    HW219023   1.652   0.944   5.370 -0.4613 -0.3784  2.3775
 2463SOL     OW19024   2.490   4.202   7.852  0.1898  0.3976 -0.3901
 2463SOL    HW119025   2.449   4.177   7.935  2.0190 -0.6635  0.1885
 2463SOL    HW219026   2.452   4.136   7.794  0.1274  2.3931 -2.6197
 2464SOL     OW19027   4.037   3.591   8.152 -0.7151  0.7504 -0.1135
 2464SOL    HW119028   4.034   3.652   8.225 -0.6651  1.5865 -0.8039
 2464SOL    HW219029   3.943   3.576   8.139 -1.1882  2.3129  1.4648
 2465SOL     OW19030   2.912   4.001  10.272  0.3749  0.8460  0.1766
 2465SOL    HW119031   2.966   4.000  10.351  1.3647 -1.8962 -0.5415
 2465SOL    HW219032   2.824   4.021  10.303 -0.9606  0.8242 -3.5286
 2466SOL     OW19033   3.319   1.263   1.857 -0.4374 -0.0456  0.2118
 2466SOL    HW119034   3.230   1.244   1.828 -0.1078 -2.2419  0.6647
 2466SOL    HW219035   3.357   1.306   1.780 -0.6770 -0.0592  0.0858
 2467SOL     OW19036   3.685   3.473   2.985 -0.5371  0.5478  0.4911
 2467SOL    HW119037   3.649   3.452   3.072  2.3320 -1.4718  1.1918
 2467SOL    HW219038   3.691   3.387   2.942  0.0184  0.4129  0.8294
 2468SOL     OW19039   2.385   0.590  12.890  0.2716 -0.5492 -0.0955
 2468SOL    HW119040   2.437   0.593  12.970  1.7023  1.0410 -1.0783
 2468SOL    HW219041   2.364   0.684  12.888 -0.6113 -0.7421  0.1881
 2469SOL     OW19042   1.684   4.269  15.593 -0.0373 -0.1496  0.5172
 2469SOL    HW119043   1.678   4.348  15.539  1.0527 -1.3631 -1.3938
 2469SOL    HW219044   1.634   4.285  15.673  0.5246  2.0297  0.4141
 2470SOL     OW19045   3.443   2.138   7.773 -0.6644 -0.0880 -0.1988
 2470SOL    HW119046   3.449   2.232   7.793 -3.8612  0.0871 -0.0836
 2470SOL    HW219047   3.374   2.131   7.707  0.8253 -3.0113 -1.4577
 2471SOL     OW19048   0.423   2.246   7.294 -0.0791 -0.1218 -0.0515
 2471SOL    HW119049   0.399   2.253   7.201 -1.6580  0.1102  0.3734
 2471SOL    HW219050   0.458   2.333   7.314  0.4578 -0.5131  0.6950
 2472SOL     OW19051   0.874   0.286  11.644  0.2838 -0.1190  0.4794
 2472SOL    HW119052   0.782   0.282  11.671  0.0253 -0.9246 -0.5232
 2472SOL    HW219053   0.891   0.202  11.687  1.1427 -2.2470 -4.0471
 2473SOL     OW19054   0.813   1.225   5.470  0.0272 -0.4862  0.3132
 2473SOL    HW119055   0.864   1.170   5.410  1.0453 -0.5425  1.2268
 2473SOL    HW219056   0.804   1.311   5.429  2.6753 -0.0941  0.5588
 2474SOL     OW19057   2.862   0.895  12.677  0.1561  0.6081  0.1794
 2474SOL    HW119058   2.909   0.975  12.655 -1.0162  1.0569 -0.6775
 2474SOL    HW219059   2.922   0.839  12.628 -0.3947 -0.2067  0.4219
 2475SOL     OW19060   2.596   0.292   3.754  0.0875 -0.2710  0.2693
 2475SOL    HW119061   2.542   0.305   3.677  1.1127 -1.2109 -0.6047
 2475SOL    HW219062   2.579   0.375   3.798  2.3789  0.6529 -0.5866
 2476SOL     OW19063   0.583   1.989  15.447  0.7659 -0.2455  0.3687
 2476SOL    HW119064   0.642   1.965  15.375  0.2722 -1.5588  0.4012
 2476SOL    HW219065   0.565   1.898  15.469  0.4854 -0.2942 -0.0718
 2477SOL     OW19066   1.944   4.400  15.765 -0.5939 -0.2654 -0.3684
 2477SOL    HW119067   1.873   4.426  15.706 -0.7740 -0.6717 -0.3328
 2477SOL    HW219068   1.940   4.466  15.834  1.3537  3.1409 -3.5624
 2478SOL     OW19069   0.793   1.116   8.558  0.4521 -0.1828 -0.2995
 2478SOL    HW119070   0.780   1.030   8.598 -0.3262  1.1563  2.2957
 2478SOL    HW219071   0.710   1.139   8.516  0.3321 -0.6050 -0.2894
 2479SOL     OW19072   0.114   0.521  12.899 -0.7457  0.4324 -0.3702
 2479SOL    HW119073   0.205   0.546  12.915 -0.9490  0.7382  0.3051
 2479SOL    HW219074   0.125   0.426  12.891  1.0286  0.8846 -3.2037
 2480SOL     OW19075   2.589   4.207   5.937 -0.6101 -0.1150 -0.0217
 2480SOL    HW119076   2.549   4.153   6.005 -1.0344  2.2418  1.6248
 2480SOL    HW219077   2.663   4.149   5.923 -0.4826  0.7309 -2.6906
 2481SOL     OW19078   0.475   2.582   5.949 -0.3688  0.1167  0.3008
 2481SOL    HW119079   0.415   2.526   5.898 -0.8926  0.3541  0.6617
 2481SOL    HW219080   0.499   2.653   5.889  2.1895 -1.6577 -0.7788
 2482SOL     OW19081   2.278   2.029  16.082  0.0942  0.2254  0.2265
 2482SOL    HW119082   2.239   2.095  16.139 -1.5133 -0.5684  0.0493
 2482SOL    HW219083   2.355   2.016  16.137 -1.8079  0.2884  2.8968
 2483SOL     OW19084   4.590   0.757   9.111  0.6821 -0.2243  0.2182
 2483SOL    HW119085   4.671   0.808   9.114  0.6113  0.0026 -1.6561
 2483SOL    HW219086   4.609   0.690   9.176  0.8164  0.5043  0.9280
 2484SOL     OW19087   2.218   1.113   6.398 -0.1829  0.1807 -0.6733
 2484SOL    HW119088   2.156   1.040   6.395 -0.4141  0.3444  0.0922
 2484SOL    HW219089   2.294   1.056   6.390  0.0161  0.2037  0.9750
 2485SOL     OW19090   0.301   1.532   8.462 -0.4826 -0.5662  0.5368
 2485SOL    HW119091   0.293   1.439   8.438  0.1264 -0.4029 -0.2883
 2485SOL    HW219092   0.261   1.571   8.385 -1.0035  0.1766  1.1807
 2486SOL     OW19093   0.366   2.553   2.385  0.4694 -0.0817 -0.1598
 2486SOL    HW119094   0.453   2.514   2.385  0.5347  0.0520 -1.0396
 2486SOL    HW219095   0.383   2.610   2.310  1.8164 -1.7286 -1.1067
 2487SOL     OW19096   4.247   2.168  15.091 -0.4294  1.1220 -0.1584
 2487SOL    HW119097   4.203   2.102  15.145 -1.3639  2.2958  0.5110
 2487SOL    HW219098   4.209   2.249  15.126 -0.8738  0.2280  1.4509
 2488SOL     OW19099   3.918   2.133   3.062 -0.1499  0.3642 -0.0132
 2488SOL    HW119100   3.914   2.209   3.119  0.1653  0.1143  0.3487
 2488SOL    HW219101   3.956   2.174   2.985  0.2065  1.5411  0.7940
 2489SOL     OW19102   0.302   3.974  15.802  0.5794 -0.4742 -0.3855
 2489SOL    HW119103   0.331   4.065  15.813  0.4865 -0.2878 -1.6472
 2489SOL    HW219104   0.349   3.957  15.721 -0.1079  1.9790 -1.3275
 2490SOL     OW19105   4.309   3.954  14.815  0.1782  0.1587  0.4701
 2490SOL    HW119106   4.328   4.004  14.735  0.5994 -2.2349 -0.9280
 2490SOL    HW219107   4.249   4.022  14.846  0.2402  0.3882  0.0887
 2491SOL     OW19108   1.438   0.485   8.356  0.8412  0.0091  0.1512
 2491SOL    HW119109   1.386   0.405   8.347 -0.0372  1.0549 -3.7356
 2491SOL    HW219110   1.424   0.522   8.270  1.2166 -1.8466 -0.7121
 2492SOL     OW19111   0.331   4.443   8.482 -0.3061  0.5197 -0.5398
 2492SOL    HW119112   0.276   4.416   8.555  1.7940 -2.3357 -0.0098
 2492SOL    HW219113   0.358   4.529   8.513  2.6806 -0.7409  0.3267
 2493SOL     OW19114   0.440   2.588  11.130 -0.0268 -0.1782  0.0163
 2493SOL    HW119115   0.531   2.600  11.105  0.6322 -1.0407  2.0156
 2493SOL    HW219116   0.441   2.514  11.191  0.6975 -0.3232 -0.1772
 2494SOL     OW19117   3.695   4.110   8.202 -0.1887  0.5980 -0.0512
 2494SOL    HW119118   3.687   4.016   8.182  2.4540  0.5941 -1.0507
 2494SOL    HW219119   3.646   4.140   8.125 -0.0965 -1.0475 -0.7497
 2495SOL     OW19120   3.533   3.796   5.894  0.0655 -0.3547  0.0344
 2495SOL    HW119121   3.572   3.884   5.894  1.6480 -1.0594  0.2283
 2495SOL    HW219122   3.516   3.787   5.800  1.3826  1.9331 -0.4517
 2496SOL     OW19123   3.089   3.546   8.441  0.3488 -0.2367 -0.2935
 2496SOL    HW119124   3.157   3.595   8.488  0.5846  0.4371 -1.3197
 2496SOL    HW219125   3.040   3.498   8.507  2.5276 -1.2333  0.5931
 2497SOL     OW19126   4.319   3.218   8.395  0.1025 -0.0210  0.3192
 2497SOL    HW119127   4.287   3.190   8.309 -0.2298 -2.1529  1.1397
 2497SOL    HW219128   4.300   3.312   8.391 -0.5515 -0.2455 -1.6397
 2498SOL     OW19129   4.185   1.987   5.145 -0.1096  0.1517 -0.2019
 2498SOL    HW119130   4.153   2.069   5.106 -0.9144  0.2348  0.6318
 2498SOL    HW219131   4.175   1.923   5.075  3.4548 -1.5837  0.8742
 2499SOL     OW19132   3.224   3.874   7.652 -0.4997 -0.4132  0.2096
 2499SOL    HW119133   3.311   3.905   7.675 -0.4031 -0.8158  0.3929
 2499SOL    HW219134   3.184   3.858   7.738 -0.4268 -0.2410  0.2742
 2500SOL     OW19135   0.640   2.345   8.226 -0.4988 -0.1583  0.0227
 2500SOL    HW119136   0.722   2.371   8.183 -0.0419 -1.0487  0.3475
 2500SOL    HW219137   0.583   2.422   8.223 -2.1895 -1.4016  0.0974
 2501SOL     OW19138   0.859   3.573   8.766  0.1000  0.3854 -0.1367
 2501SOL    HW119139   0.793   3.574   8.835 -2.0675  0.1804 -2.2164
 2501SOL    HW219140   0.862   3.663   8.735 -0.9355  0.1608 -0.8983
 2502SOL     OW19141   0.770   0.390   3.640  0.4324  0.0268  0.1088
 2502SOL    HW119142   0.773   0.454   3.711 -0.7982 -0.0903  0.2713
 2502SOL    HW219143   0.725   0.435   3.569  3.7428 -1.3688 -2.8755
 2503SOL     OW19144   2.120   3.397   7.130  0.6263 -0.5953  0.2892
 2503SOL    HW119145   2.194   3.455   7.151 -0.9055  0.4859  2.8241
 2503SOL    HW219146   2.158   3.352   7.055 -1.3102 -0.6160 -0.6800
 2504SOL     OW19147   0.274   1.858   8.057  0.5049  0.6011  0.0850
 2504SOL    HW119148   0.220   1.839   8.134 -1.3422 -0.3126 -1.4234
 2504SOL    HW219149   0.238   1.938   8.019 -0.3963  0.0357 -0.2624
 2505SOL     OW19150   1.045   0.204   7.275  0.1999 -0.1622  0.0021
 2505SOL    HW119151   1.136   0.218   7.300  0.8184 -0.0558 -2.3357
 2505SOL    HW219152   1.054   0.224   7.182 -3.2435 -2.9969 -0.9395
 2506SOL     OW19153   1.395   0.390   1.637  0.4930  0.3537 -0.0140
 2506SOL    HW119154   1.362   0.396   1.547 -3.9198 -0.3310  1.5866
 2506SOL    HW219155   1.409   0.296   1.652 -1.0931  0.2415  0.7703
 2507SOL     OW19156   3.162   1.965   3.214 -0.0376  0.4648 -0.5353
 2507SOL    HW119157   3.232   1.899   3.211 -1.6639 -1.2725 -0.5884
 2507SOL    HW219158   3.233   2.027   3.230 -1.2937  1.7483  0.0400
 2508SOL     OW19159   0.024   4.641   0.596 -0.1836  0.5703 -0.1267
 2508SOL    HW119160   0.064   4.718   0.555 -0.1630  0.0486 -1.0824
 2508SOL    HW219161   0.102   4.598   0.631 -1.2167 -0.3948  0.9950
 2509SOL     OW19162   3.932   3.270   3.244  0.7526 -0.0320  0.0921
 2509SOL    HW119163   3.839   3.264   3.266 -0.2559  1.0497 -3.9868
 2509SOL    HW219164   3.938   3.364   3.233  2.0122 -0.2670 -1.1835
 2510SOL     OW19165   1.007   1.556  15.112 -0.2073  0.6086 -0.1991
 2510SOL    HW119166   1.047   1.523  15.193  1.6610  2.5967 -0.3006
 2510SOL    HW219167   0.942   1.487  15.102 -0.3788  0.4332  1.9706
 2511SOL     OW19168   1.478   3.274   4.226 -0.1684 -0.0967  0.0693
 2511SOL    HW119169   1.416   3.279   4.154  0.3935 -3.4785 -0.6752
 2511SOL    HW219170   1.551   3.292   4.167 -1.6890 -0.6487 -1.9970
 2512SOL     OW19171   1.940   3.792  11.554  0.6050  0.0195  0.4039
 2512SOL    HW119172   1.967   3.700  11.555  1.3487  0.2206 -0.8922
 2512SOL    HW219173   1.997   3.819  11.482  0.0766 -0.1448 -0.0703
 2513SOL     OW19174   2.644   3.736   7.623 -0.3359 -0.1421 -0.5146
 2513SOL    HW119175   2.616   3.817   7.580 -1.2362 -1.4400 -2.4270
 2513SOL    HW219176   2.715   3.763   7.681 -0.0230  2.9207 -2.3339
 2514SOL     OW19177   1.858   0.982   8.571 -0.3214 -0.3645 -0.4595
 2514SOL    HW119178   1.795   0.919   8.606 -0.1343  0.1889  0.8652
 2514SOL    HW219179   1.906   0.931   8.506  1.4133 -1.1489  1.4213
 2515SOL     OW19180   3.245   2.867   5.450  0.3668 -0.6960  0.0407
 2515SOL    HW119181   3.182   2.871   5.522 -0.2086 -3.8311 -0.2801
 2515SOL    HW219182   3.267   2.960   5.441  0.0692 -0.8142 -1.8920
 2516SOL     OW19183   1.622   0.122  17.498  0.0890  0.5551 -0.5461
 2516SOL    HW119184   1.703   0.120  17.447  0.3592 -1.9684 -0.0038
 2516SOL    HW219185   1.655   0.162  17.579 -0.0405 -1.2621  0.4039
 2517SOL     OW19186   4.564   2.611  10.080 -0.1619  0.3504  0.1041
 2517SOL    HW119187   4.536   2.699  10.103 -0.7433  0.0405  0.5951
 2517SOL    HW219188   4.561   2.612   9.985 -0.7578 -1.3769  0.1031
 2518SOL     OW19189   1.680   2.724   9.066 -1.1539 -0.0891  0.0477
 2518SOL    HW119190   1.625   2.723   9.144 -2.4110 -1.0449 -0.8358
 2518SOL    HW219191   1.675   2.818   9.046  0.4638  0.0010  0.0906
 2519SOL     OW19192   1.000   2.146   2.629  0.5390  0.1642  0.2752
 2519SOL    HW119193   0.923   2.191   2.663 -1.3301 -2.1446 -0.8432
 2519SOL    HW219194   0.968   2.055   2.622  2.2686 -0.4461  0.3299
 2520SOL     OW19195   4.610   2.824   5.493 -0.0870  0.0729  0.2922
 2520SOL    HW119196   4.621   2.919   5.480 -0.3886 -0.0307 -0.7614
 2520SOL    HW219197   4.700   2.804   5.467  0.2913  0.0926  1.5856
 2521SOL     OW19198   4.083   0.277   6.105 -0.0769 -0.1384  0.2124
 2521SOL    HW119199   4.070   0.259   6.011  0.8073  0.3634 -0.0081
 2521SOL    HW219200   4.173   0.246   6.119 -0.1991 -1.2670 -1.4677
 2522SOL     OW19201   3.167   3.194  17.097  0.0715 -0.1080 -0.1110
 2522SOL    HW119202   3.252   3.176  17.138 -1.1052 -0.7770  2.0195
 2522SOL    HW219203   3.147   3.105  17.070  3.1443 -1.2724  1.4298
 2523SOL     OW19204   2.192   2.888   2.081  0.3107 -0.7254 -0.4012
 2523SOL    HW119205   2.179   2.844   1.997 -2.2522 -1.2173  0.2638
 2523SOL    HW219206   2.101   2.898   2.107 -0.0015  1.8502 -2.4214
 2524SOL     OW19207   0.154   2.763  16.340  0.0933 -0.3909  0.1094
 2524SOL    HW119208   0.199   2.693  16.293 -0.8336  0.1239 -1.5483
 2524SOL    HW219209   0.194   2.842  16.305 -0.4600 -0.0775  0.1758
 2525SOL     OW19210   4.630   1.681  15.020 -0.4427  0.3984 -0.3696
 2525SOL    HW119211   4.653   1.717  14.935  1.9814  3.0377  1.4147
 2525SOL    HW219212   4.539   1.710  15.028 -0.1467  1.0661  0.5992
 2526SOL     OW19213   2.093   2.540  14.865 -0.3121  0.0356  0.5775
 2526SOL    HW119214   2.066   2.449  14.852  2.7950 -0.6157 -1.3211
 2526SOL    HW219215   2.053   2.580  14.788 -0.7653  1.6631  1.6655
 2527SOL     OW19216   2.788   3.412  10.047  0.4631 -0.1013  0.3225
 2527SOL    HW119217   2.776   3.428  10.141  1.6475  2.2710  0.0730
 2527SOL    HW219218   2.765   3.501  10.021  0.7466  0.1446  0.9104
 2528SOL     OW19219   4.504   2.049   9.493 -0.5392  0.4071  0.3646
 2528SOL    HW119220   4.482   2.105   9.419  2.1899  1.2931  0.2048
 2528SOL    HW219221   4.520   2.119   9.557  1.4817 -0.9184  1.3312
 2529SOL     OW19222   4.052   0.312  16.946 -0.1247 -0.2530  0.6923
 2529SOL    HW119223   4.078   0.241  16.887 -3.3103  0.3438 -1.3891
 2529SOL    HW219224   3.957   0.304  16.958 -0.0078 -0.1191  1.7728
 2530SOL     OW19225   4.543   0.280  10.102 -0.4316  0.0326 -0.5171
 2530SOL    HW119226   4.525   0.188  10.082 -0.0492 -0.6669  2.3715
 2530SOL    HW219227   4.569   0.315  10.017  1.4346  0.7481  0.3522
 2531SOL     OW19228   3.231   1.284   6.961  0.3659 -0.2270  0.2961
 2531SOL    HW119229   3.160   1.311   6.903  0.4036  0.5928  0.6278
 2531SOL    HW219230   3.217   1.207   7.016 -2.8759  0.5591  0.5815
 2532SOL     OW19231   0.722   2.643   9.328  0.2051  0.3241 -0.3609
 2532SOL    HW119232   0.804   2.642   9.277  1.3641 -1.7329  1.5759
 2532SOL    HW219233   0.659   2.649   9.256 -2.2743 -3.3584  1.4925
 2533SOL     OW19234   2.341   1.494   3.993  0.2115  0.2128  0.2473
 2533SOL    HW119235   2.277   1.437   4.036  0.1239  1.5459  1.9178
 2533SOL    HW219236   2.357   1.549   4.070  2.5797 -2.2231  1.4838
 2534SOL     OW19237   1.820   3.406   5.816 -0.4256 -0.0022  0.3518
 2534SOL    HW119238   1.799   3.314   5.835  1.8876 -0.6020 -0.0292
 2534SOL    HW219239   1.915   3.402   5.805 -0.4407 -0.5713  0.4066
 2535SOL     OW19240   4.241   0.192   3.723 -0.5377 -0.3738 -0.4484
 2535SOL    HW119241   4.165   0.134   3.718 -0.6392 -0.3641  1.0442
 2535SOL    HW219242   4.300   0.144   3.665  1.2993 -1.0142  1.9596
 2536SOL     OW19243   0.673   1.883   6.521  0.7015  0.3192  0.3600
 2536SOL    HW119244   0.605   1.950   6.515  1.2079  0.8065  0.0199
 2536SOL    HW219245   0.627   1.813   6.475 -1.4914  1.4255  0.8884
 2537SOL     OW19246   4.432   2.513   5.257 -0.3688  0.0083 -0.2372
 2537SOL    HW119247   4.434   2.580   5.189 -0.0561  0.8586  0.6165
 2537SOL    HW219248   4.345   2.518   5.297  0.5375  2.1821  1.4444
 2538SOL     OW19249   3.139   0.338   3.404  0.0966 -0.0494 -0.2341
 2538SOL    HW119250   3.068   0.330   3.467  0.8034  2.6972  0.9012
 2538SOL    HW219251   3.131   0.253   3.360 -0.3293 -0.5553  0.8153
 2539SOL     OW19252   3.279   0.612  15.778  0.3397 -0.4326  0.2271
 2539SOL    HW119253   3.202   0.560  15.800  0.2186 -0.4527 -0.2484
 2539SOL    HW219254   3.255   0.636  15.689 -0.7042  0.4673  0.7425
 2540SOL     OW19255   1.967   2.248  11.451  1.0481  0.3116 -0.1898
 2540SOL    HW119256   1.903   2.319  11.457  1.2187  0.3434  1.3322
 2540SOL    HW219257   1.952   2.222  11.360 -1.1649 -0.0448  0.2851
 2541SOL     OW19258   4.282   3.643   5.384 -0.1936 -0.3891  0.1413
 2541SOL    HW119259   4.364   3.642   5.335 -2.3684  0.3668 -3.5156
 2541SOL    HW219260   4.240   3.562   5.357  2.4090 -2.0435  1.0762
 2542SOL     OW19261   3.218   0.045   2.572  0.3365 -0.3887 -0.4728
 2542SOL    HW119262   3.280   4.718   2.537  0.8438 -1.0528  1.6510
 2542SOL    HW219263   3.155   0.044   2.500  0.5170  1.8130 -0.6530
 2543SOL     OW19264   0.520   0.291   1.832  0.6688 -0.2634  0.2364
 2543SOL    HW119265   0.502   0.255   1.919  0.6478 -2.7562 -0.7946
 2543SOL    HW219266   0.503   0.209   1.787 -1.4522 -0.4523  1.3889
 2544SOL     OW19267   2.613   0.822   2.299 -0.1931  0.3417 -0.2279
 2544SOL    HW119268   2.624   0.805   2.392 -0.4265 -0.4891 -0.3473
 2544SOL    HW219269   2.640   0.914   2.291 -0.3798  0.3147 -1.1438
 2545SOL     OW19270   2.315   1.849  15.049  0.1045  0.1783 -0.5069
 2545SOL    HW119271   2.287   1.808  15.131 -1.0317  0.5425 -0.7211
 2545SOL    HW219272   2.295   1.941  15.063 -0.0722  0.2862 -1.5064
 2546SOL     OW19273   0.688   4.042   2.275 -0.0269 -0.3805  0.3617
 2546SOL    HW119274   0.687   4.052   2.179  1.2131 -1.6868  0.2188
 2546SOL    HW219275   0.624   4.110   2.298  0.6910  0.0412  1.1207
 2547SOL     OW19276   4.709   0.846  16.714 -0.2218  0.1630  0.2930
 2547SOL    HW119277   0.053   0.860  16.665  0.1322 -2.4042  0.1535
 2547SOL    HW219278   4.735   0.780  16.778  0.8838 -2.4355 -2.8283
 2548SOL     OW19279   1.283   3.908  12.338  0.4302 -0.0842  0.4969
 2548SOL    HW119280   1.215   3.846  12.364 -0.4615  1.1189  1.0362
 2548SOL    HW219281   1.311   3.952  12.418  1.7199  2.0077 -1.1284
 2549SOL     OW19282   0.198   2.241   6.385  0.9010 -0.2200  0.6415
 2549SOL    HW119283   0.254   2.315   6.363  1.6811 -2.3093 -4.1484
 2549SOL    HW219284   0.123   2.289   6.421  0.1285 -3.2768  3.0892
 2550SOL     OW19285   2.239   1.162  17.600  0.4269  0.2708  0.3083
 2550SOL    HW119286   2.232   1.118  17.685  2.4868  3.8398  2.3396
 2550SOL    HW219287   2.202   1.091  17.547  1.7107 -0.7791  0.8303
 2551SOL     OW19288   2.478   3.010   3.148  0.3961 -0.1696  0.4111
 2551SOL    HW119289   2.421   2.958   3.204  0.2313 -1.4314 -0.9001
 2551SOL    HW219290   2.422   3.087   3.141  0.3096 -0.3540 -1.0972
 2552SOL     OW19291   3.532   0.958   0.863 -0.2404 -0.1024  0.3458
 2552SOL    HW119292   3.492   0.877   0.896 -1.3495  0.4687  0.4355
 2552SOL    HW219293   3.554   0.939   0.772 -0.2811 -1.3127  0.5893
 2553SOL     OW19294   3.133   3.730   4.114  0.0743  0.0607  0.1740
 2553SOL    HW119295   3.049   3.751   4.154  0.0977  0.0874  0.2099
 2553SOL    HW219296   3.181   3.707   4.193  0.2371  1.8312  0.5941
 2554SOL     OW19297   4.096   1.059   2.745  0.3305 -0.1779  0.3525
 2554SOL    HW119298   4.162   1.126   2.764  1.1816  0.3028 -4.2807
 2554SOL    HW219299   4.024   1.101   2.698  0.6499 -1.0742 -0.9524
 2555SOL     OW19300   3.376   0.928   3.416 -0.1446 -0.0881  0.0653
 2555SOL    HW119301   3.340   0.977   3.342 -0.2775  3.5433  2.5199
 2555SOL    HW219302   3.439   0.870   3.373  1.0127  1.1265  0.1211
 2556SOL     OW19303   3.415   0.748   5.922 -0.4912 -0.1474 -0.0749
 2556SOL    HW119304   3.498   0.787   5.950  0.4433 -0.5087 -2.3880
 2556SOL    HW219305   3.367   0.828   5.899  0.2010  0.5052  0.7375
 2557SOL     OW19306   4.494   4.113   5.611  0.2238 -0.0264 -0.2807
 2557SOL    HW119307   4.581   4.148   5.630 -0.2667  0.4303  1.0543
 2557SOL    HW219308   4.470   4.088   5.700 -2.0255 -2.0777 -1.4564
 2558SOL     OW19309   4.606   1.890   4.300  0.4570  0.4987  0.3719
 2558SOL    HW119310   4.674   1.836   4.260 -0.5014 -0.6627  0.3224
 2558SOL    HW219311   4.638   1.882   4.390  0.7819 -1.1977  0.1046
 2559SOL     OW19312   3.124   1.714   2.942  0.2642 -0.1875 -0.4083
 2559SOL    HW119313   3.029   1.711   2.932  0.1498  1.7335 -0.0559
 2559SOL    HW219314   3.142   1.623   2.966  3.0887  0.7202  0.9842
 2560SOL     OW19315   4.228   2.889   8.707 -0.6827 -0.8020 -0.6763
 2560SOL    HW119316   4.178   2.958   8.664  1.3023 -0.2432 -2.1134
 2560SOL    HW219317   4.295   2.867   8.642 -0.0788  0.8023 -0.5931
 2561SOL     OW19318   1.258   1.149   8.166 -0.3498  0.3892  0.0862
 2561SOL    HW119319   1.288   1.236   8.192 -0.0977  0.2630  0.2197
 2561SOL    HW219320   1.289   1.142   8.075 -1.7242  1.6432 -0.4755
 2562SOL     OW19321   2.414   0.913   1.429  0.6094  0.4187  0.4179
 2562SOL    HW119322   2.431   0.825   1.397  1.2530  0.8549 -0.4210
 2562SOL    HW219323   2.500   0.930   1.467  1.4614  1.6996 -2.1175
 2563SOL     OW19324   2.809   3.336   6.036  0.4574 -0.5155  0.2230
 2563SOL    HW119325   2.848   3.377   5.959  1.4089 -1.5531  0.1498
 2563SOL    HW219326   2.739   3.396   6.063  1.0125  1.6304 -3.1004
 2564SOL     OW19327   4.485   0.177  14.134 -0.1225  0.1079 -0.1312
 2564SOL    HW119328   4.532   0.252  14.170 -0.4516 -0.5777  1.7094
 2564SOL    HW219329   4.391   0.193  14.133 -0.3005 -0.7424  3.4919
 2565SOL     OW19330   1.907   3.899  16.728  0.4439 -0.0477  0.0933
 2565SOL    HW119331   1.899   3.983  16.683  1.3368 -0.3451 -0.6199
 2565SOL    HW219332   1.874   3.837  16.663  2.7474 -1.6658  0.4935
 2566SOL     OW19333   0.355   0.989   2.067 -0.1165  0.4762  0.1566
 2566SOL    HW119334   0.415   1.040   2.013 -0.6335  0.6854 -0.2158
 2566SOL    HW219335   0.324   1.058   2.126  0.4723 -0.5336  1.6319
 2567SOL     OW19336   1.101   3.910   1.547 -1.3184  0.1792  0.0779
 2567SOL    HW119337   1.094   3.919   1.642 -0.5226  0.7394  0.0936
 2567SOL    HW219338   1.135   3.996   1.520  1.0157  0.0333  2.5255
 2568SOL     OW19339   4.581   1.093   8.680  0.0879 -0.1378  0.7949
 2568SOL    HW119340   4.497   1.046   8.678  0.1812 -0.2985  0.5676
 2568SOL    HW219341   4.575   1.163   8.615  1.0346 -0.2510  0.5745
 2569SOL     OW19342   2.772   3.290   8.613 -0.2090  1.4006  0.7630
 2569SOL    HW119343   2.806   3.215   8.564  0.2519  1.5250  0.8911
 2569SOL    HW219344   2.774   3.349   8.538  2.5404 -0.4599 -0.6489
 2570SOL     OW19345   4.090   1.974  15.222  0.0973 -0.2574 -0.4207
 2570SOL    HW119346   4.030   1.916  15.175 -1.1558 -0.2732  1.2310
 2570SOL    HW219347   4.142   1.901  15.256  1.7931  0.4044 -1.5988
 2571SOL     OW19348   0.429   3.193  13.092  0.2950 -0.1102  0.2371
 2571SOL    HW119349   0.336   3.190  13.067 -0.1440 -0.6907  1.9523
 2571SOL    HW219350   0.421   3.283  13.125  0.9116  0.3534 -0.8745
 2572SOL     OW19351   4.548   4.106   4.860  0.0345  0.3180  0.1983
 2572SOL    HW119352   4.589   4.048   4.795  2.1149  3.4934 -1.3575
 2572SOL    HW219353   4.470   4.061   4.891  1.0217 -1.6871 -0.2501
 2573SOL     OW19354   0.944   0.832   9.779 -0.9481  0.4802 -0.3263
 2573SOL    HW119355   1.031   0.799   9.801 -1.6255 -1.3135 -0.3365
 2573SOL    HW219356   0.969   0.924   9.771 -0.7781  0.4241 -0.4581
 2574SOL     OW19357   3.375   0.880   9.455  0.4738  0.8457 -0.4846
 2574SOL    HW119358   3.335   0.925   9.530  0.9449  0.3638  0.0516
 2574SOL    HW219359   3.342   0.791   9.461  0.8880  0.7038 -0.2882
 2575SOL     OW19360   2.671   2.514   7.091 -0.1313 -0.1788  0.2181
 2575SOL    HW119361   2.655   2.586   7.152 -0.5437  0.2946 -0.4519
 2575SOL    HW219362   2.593   2.462   7.111 -0.5539  1.1946  2.1265
 2576SOL     OW19363   3.664   2.868  15.410  0.2919  0.3126 -0.2524
 2576SOL    HW119364   3.712   2.787  15.395  1.4275  0.9525 -0.0935
 2576SOL    HW219365   3.573   2.842  15.395  0.6467 -0.2053 -1.5418
 2577SOL     OW19366   4.674   4.003   5.863  0.2681  0.3582 -0.1896
 2577SOL    HW119367   4.726   3.965   5.934 -0.5180  0.2102  0.3002
 2577SOL    HW219368   0.006   4.066   5.844 -0.9024  1.5572 -0.4815
 2578SOL     OW19369   2.780   0.098   2.168 -0.2963 -0.1720 -0.0822
 2578SOL    HW119370   2.778   0.155   2.245 -1.4007 -2.0416  1.2450
 2578SOL    HW219371   2.873   0.085   2.149 -1.1307 -1.0055 -3.5296
 2579SOL     OW19372   3.866   3.369   6.574 -0.2088  0.3406  0.2252
 2579SOL    HW119373   3.936   3.316   6.537  0.0423  1.0822 -0.3579
 2579SOL    HW219374   3.914   3.408   6.646  0.1877 -0.4613  0.3984
 2580SOL     OW19375   2.621   2.297   9.263  0.5031  0.5818  0.2351
 2580SOL    HW119376   2.651   2.272   9.350 -3.7090 -1.3242  1.1170
 2580SOL    HW219377   2.550   2.234   9.249  1.8793 -0.6190 -1.3381
 2581SOL     OW19378   0.544   1.471  13.989 -0.1163  0.1058  0.2892
 2581SOL    HW119379   0.552   1.566  13.987  2.3211 -0.1478 -2.0946
 2581SOL    HW219380   0.465   1.455  14.039 -0.0580  1.6808  0.8991
 2582SOL     OW19381   2.691   2.664   4.589  0.2382 -0.0335 -0.3583
 2582SOL    HW119382   2.678   2.590   4.649 -0.4326  0.2106 -0.1981
 2582SOL    HW219383   2.612   2.647   4.538  0.2945  0.8496 -0.7268
 2583SOL     OW19384   2.332   2.161  11.363 -0.2021 -0.3373 -0.0075
 2583SOL    HW119385   2.351   2.076  11.404  0.6016 -0.1366  0.0350
 2583SOL    HW219386   2.395   2.223  11.400 -2.3520  0.1741  2.8285
 2584SOL     OW19387   2.232   4.443   6.555 -0.1555 -0.1747  0.0762
 2584SOL    HW119388   2.273   4.377   6.610 -2.0304 -0.5223  1.0742
 2584SOL    HW219389   2.291   4.444   6.479  1.0139  0.4310  1.0130
 2585SOL     OW19390   3.794   2.075   9.211  0.5588 -0.3080 -0.0955
 2585SOL    HW119391   3.824   2.160   9.242  1.9245 -0.7503 -0.2002
 2585SOL    HW219392   3.882   2.040   9.196  0.3761  0.6171 -3.1915
 2586SOL     OW19393   4.646   4.432  14.674  0.4929  0.2101  0.9016
 2586SOL    HW119394   4.589   4.494  14.720  1.2573  0.7416  1.1257
 2586SOL    HW219395   4.613   4.351  14.712  1.8376 -0.5007  0.5315
 2587SOL     OW19396   0.275   1.739   3.691  0.1328 -0.3461 -0.1623
 2587SOL    HW119397   0.303   1.830   3.695 -1.5702  0.0819  2.5407
 2587SOL    HW219398   0.184   1.755   3.716 -0.3447 -1.6810 -1.0804
 2588SOL     OW19399   0.341   0.386   4.952  0.3417 -0.5401  0.0817
 2588SOL    HW119400   0.274   0.379   5.020  0.6862  1.5150  0.6290
 2588SOL    HW219401   0.401   0.317   4.980 -0.2181 -1.1531 -0.2358
 2589SOL     OW19402   4.407   2.426   8.158 -0.2900  0.2707  0.6083
 2589SOL    HW119403   4.435   2.387   8.241 -0.2404  0.9061  0.8885
 2589SOL    HW219404   4.469   2.396   8.092 -1.2595 -1.9403  0.7033
 2590SOL     OW19405   1.627   3.978  12.943 -0.8568  0.0928 -0.0785
 2590SOL    HW119406   1.682   3.902  12.925 -1.8181 -0.5924 -0.1200
 2590SOL    HW219407   1.553   3.937  12.988  0.5484 -0.7231  1.4579
 2591SOL     OW19408   2.168   2.008  15.832  0.0035  0.9566 -0.0890
 2591SOL    HW119409   2.218   2.020  15.913 -1.2642  2.2493  0.5033
 2591SOL    HW219410   2.089   2.061  15.845  0.8782  2.2201  0.0358
 2592SOL     OW19411   0.150   2.983   4.068 -0.6405  0.0744 -0.1393
 2592SOL    HW119412   0.227   3.036   4.089  1.5149 -2.8765 -0.5708
 2592SOL    HW219413   0.091   3.048   4.030  0.4406  1.2550  0.1902
 2593SOL     OW19414   4.192   0.200  14.829 -0.1593 -0.1697  0.2053
 2593SOL    HW119415   4.185   0.191  14.733  0.7995 -2.8784  0.3900
 2593SOL    HW219416   4.258   0.268  14.842 -0.5232 -0.0050  1.1969
 2594SOL     OW19417   2.132   2.167   6.772 -0.9447  0.6745  0.1530
 2594SOL    HW119418   2.177   2.241   6.730  2.8820  0.3098  3.6798
 2594SOL    HW219419   2.154   2.179   6.864 -0.3868 -0.1364  0.1207
 2595SOL     OW19420   2.880   0.753   7.214  0.6804 -0.1796  0.2720
 2595SOL    HW119421   2.914   0.667   7.239  0.0487 -0.5347 -0.0935
 2595SOL    HW219422   2.797   0.748   7.262  0.4934  1.3333  0.0953
 2596SOL     OW19423   4.274   1.177   8.610  0.8249 -0.5548  0.5273
 2596SOL    HW119424   4.282   1.237   8.536 -1.3477  0.7389  1.3681
 2596SOL    HW219425   4.285   1.226   8.691 -0.7892 -0.4788  0.7036
 2597SOL     OW19426   0.011   0.768   4.336  0.4291  0.3677  0.2664
 2597SOL    HW119427   0.002   0.758   4.430 -3.0146  1.4647  0.0580
 2597SOL    HW219428   0.074   0.702   4.307 -1.6286 -1.6304  0.3251
 2598SOL     OW19429   1.581   4.379   3.798 -0.7073  0.0270 -0.2504
 2598SOL    HW119430   1.491   4.404   3.820 -1.0560  0.9319 -2.7033
 2598SOL    HW219431   1.575   4.287   3.824 -0.7275  0.6407  1.9138
 2599SOL     OW19432   3.765   2.099   5.597  0.1074 -1.1670  0.1802
 2599SOL    HW119433   3.843   2.133   5.641 -1.3624  0.6442  1.3899
 2599SOL    HW219434   3.724   2.046   5.664 -1.8343  0.7023  0.4665
 2600SOL     OW19435   1.345   2.611   4.971  0.4467 -0.3502 -0.0640
 2600SOL    HW119436   1.363   2.558   4.893 -2.3701  2.6471 -2.7419
 2600SOL    HW219437   1.251   2.621   4.953  0.5865 -0.9034 -1.1402
 2601SOL     OW19438   1.402   1.306   0.857 -0.0323 -0.4192 -0.0960
 2601SOL    HW119439   1.351   1.233   0.893 -0.4414 -0.2646 -0.3526
 2601SOL    HW219440   1.457   1.263   0.792  1.0252 -0.5462  0.8860
 2602SOL     OW19441   4.656   1.678   1.318 -0.3005  0.0167  0.1684
 2602SOL    HW119442   4.729   1.705   1.261  0.5728 -0.4483  1.0717
 2602SOL    HW219443   4.699   1.640   1.394 -1.2303  1.2228  1.2835
 2603SOL     OW19444   0.071   3.473   5.246  0.0120  0.3975  0.2134
 2603SOL    HW119445   0.069   3.401   5.183 -2.9273  1.3210 -0.7495
 2603SOL    HW219446   0.158   3.511   5.235 -1.0577  3.1864  1.2987
 2604SOL     OW19447   1.778   1.228  17.667  0.4508 -0.6363 -0.4114
 2604SOL    HW119448   1.757   1.236  17.574 -2.9580  1.8027  0.5889
 2604SOL    HW219449   1.855   1.285  17.674 -0.4771  0.4950  0.5113
 2605SOL     OW19450   0.611   1.367   3.938 -0.2634 -0.4211 -0.5071
 2605SOL    HW119451   0.552   1.442   3.933 -1.5746 -1.2030  3.0790
 2605SOL    HW219452   0.582   1.347   4.027 -0.2977  0.2730 -0.3581
 2606SOL     OW19453   2.707   1.392   2.030  0.3410 -0.5317 -0.5645
 2606SOL    HW119454   2.794   1.353   2.041 -0.6111 -1.3298  4.1913
 2606SOL    HW219455   2.692   1.412   2.122  0.2195  0.1043 -0.7275
 2607SOL     OW19456   1.611   0.141   4.450 -0.4779  0.5730  0.2571
 2607SOL    HW119457   1.629   0.057   4.408 -3.0695  0.3638 -0.4351
 2607SOL    HW219458   1.626   0.107   4.538 -0.1786  1.7762  0.6672
 2608SOL     OW19459   2.537   2.872  11.161  0.1411 -0.2628  0.1712
 2608SOL    HW119460   2.465   2.934  11.176 -0.3388 -0.9510  0.7050
 2608SOL    HW219461   2.561   2.857  11.252  2.7796 -2.1637 -0.8559
 2609SOL     OW19462   4.367   0.780  15.994 -0.4776 -1.0322  0.2116
 2609SOL    HW119463   4.286   0.765  15.945 -0.9758  2.4525 -0.0244
 2609SOL    HW219464   4.347   0.872  16.012  2.8004 -0.4129  0.5829
 2610SOL     OW19465   3.390   3.435  13.994  0.1517  0.0905 -0.1589
 2610SOL    HW119466   3.471   3.457  13.947  0.6072  0.6291  0.8917
 2610SOL    HW219467   3.413   3.368  14.058 -0.3921 -1.2068 -1.3210
 2611SOL     OW19468   3.155   3.559   2.579 -0.1133 -0.4810  0.3673
 2611SOL    HW119469   3.138   3.624   2.512  1.5684 -0.6323 -0.2057
 2611SOL    HW219470   3.248   3.578   2.593 -0.0666 -0.7803  0.4855
 2612SOL     OW19471   0.004   3.489   5.527  0.3197 -0.0243  0.1709
 2612SOL    HW119472   0.042   3.494   5.440 -1.4228 -0.9318 -0.6338
 2612SOL    HW219473   4.698   3.405   5.515 -0.7187  0.4329  0.7139
 2613SOL     OW19474   1.782   4.048  15.477  0.2820  0.4038 -0.0180
 2613SOL    HW119475   1.745   4.125  15.521 -0.3690  0.8635 -1.3581
 2613SOL    HW219476   1.873   4.061  15.502  0.9281 -2.4685 -0.8668
 2614SOL     OW19477   3.865   2.192  11.978 -0.3532  0.2025 -0.0989
 2614SOL    HW119478   3.890   2.110  11.935  1.4052 -0.1933  1.6390
 2614SOL    HW219479   3.863   2.153  12.066  1.8011  0.4417  0.0539
 2615SOL     OW19480   2.147   4.092   2.485  0.1560 -0.1799  0.3266
 2615SOL    HW119481   2.101   4.161   2.437 -1.7060  0.2858  2.7715
 2615SOL    HW219482   2.073   4.044   2.524  0.5513 -2.1361 -1.3620
 2616SOL     OW19483   0.049   2.672   9.352 -0.5189  0.2857  0.5001
 2616SOL    HW119484   0.087   2.727   9.421  1.1026  0.4182 -0.5000
 2616SOL    HW219485   0.079   2.715   9.272 -0.8900  1.8184  1.1734
 2617SOL     OW19486   2.966   3.570   4.658  0.2019 -0.8507 -0.6176
 2617SOL    HW119487   2.961   3.503   4.589 -2.7588 -0.3424 -0.8818
 2617SOL    HW219488   2.875   3.562   4.686 -0.2254 -0.9062 -2.0240
 2618SOL     OW19489   1.571   4.123   3.794 -0.0765  0.1469  0.5782
 2618SOL    HW119490   1.491   4.091   3.836  0.1101 -1.2943 -0.1800
 2618SOL    HW219491   1.639   4.072   3.837  0.2328 -0.6679 -0.8987
 2619SOL     OW19492   0.279   4.119   5.965  0.4413 -0.4502  0.2162
 2619SOL    HW119493   0.298   4.190   5.903  1.4040 -0.9464 -0.0471
 2619SOL    HW219494   0.248   4.164   6.043  3.1290  0.1002  0.9748
 2620SOL     OW19495   2.015   3.660   6.931  0.3550 -0.5440 -0.6188
 2620SOL    HW119496   1.972   3.706   6.859 -0.2180 -0.6078 -0.3207
 2620SOL    HW219497   2.106   3.679   6.910  0.1838  0.8774 -0.0829
 2621SOL     OW19498   4.639   4.083   6.345  0.0075  0.3359 -0.4362
 2621SOL    HW119499   4.650   4.033   6.426  0.6665 -0.5752 -1.0938
 2621SOL    HW219500   4.633   4.170   6.384 -1.9572 -0.3152  0.6936
 2622SOL     OW19501   2.999   0.288  16.810 -0.3428 -1.3618 -0.2945
 2622SOL    HW119502   2.970   0.377  16.793  3.7429 -0.3786 -2.1988
 2622SOL    HW219503   2.946   0.233  16.753 -2.5269  0.7647 -0.2786
 2623SOL     OW19504   0.127   2.993   5.739  0.1622 -0.6046  0.5270
 2623SOL    HW119505   0.127   2.948   5.654 -0.2561 -1.1243  0.8005
 2623SOL    HW219506   0.035   3.017   5.726 -0.2575 -2.5610 -0.1040
 2624SOL     OW19507   1.817   4.517   6.046  0.7569 -0.3167 -0.3581
 2624SOL    HW119508   1.785   4.605   6.067 -2.3996 -1.4781 -0.3511
 2624SOL    HW219509   1.850   4.494   6.133 -0.7259  0.4207  0.3986
 2625SOL     OW19510   3.512   0.036   6.497  0.2959 -0.7304 -0.2809
 2625SOL    HW119511   3.550   4.723   6.570 -2.2675  0.7061  2.0415
 2625SOL    HW219512   3.483   4.699   6.445  1.4964 -1.9710  0.7944
 2626SOL     OW19513   4.368   1.128  15.783  0.3003  0.3206 -0.5129
 2626SOL    HW119514   4.398   1.120  15.693 -0.9588 -0.2760 -0.8803
 2626SOL    HW219515   4.414   1.210  15.801  0.1876  0.3458 -0.3311
 2627SOL     OW19516   2.228   3.023   6.257 -0.0340 -0.0040 -0.0618
 2627SOL    HW119517   2.172   3.012   6.333  0.2135 -1.0428 -0.0332
 2627SOL    HW219518   2.205   2.947   6.204 -2.0174  0.1894  0.5162
 2628SOL     OW19519   0.421   0.102   5.626 -0.3990  0.4405 -0.2366
 2628SOL    HW119520   0.347   0.093   5.687 -0.5325  1.9757 -0.1645
 2628SOL    HW219521   0.495   0.076   5.681 -1.2826 -0.4546  0.5193
 2629SOL     OW19522   4.031   0.950   9.465  0.0980 -0.0862 -0.0309
 2629SOL    HW119523   4.118   0.987   9.482 -1.2310  3.3968 -0.8070
 2629SOL    HW219524   4.047   0.911   9.379  0.6194  1.1761 -0.5009
 2630SOL     OW19525   3.963   3.049  12.807  0.3749  0.0868  0.4463
 2630SOL    HW119526   4.049   3.050  12.765  0.4292  2.7023  0.6594
 2630SOL    HW219527   3.981   3.065  12.899  2.3041  1.8042 -0.2304
 2631SOL     OW19528   1.245   0.455  12.135 -0.2545 -0.0580 -0.0718
 2631SOL    HW119529   1.150   0.447  12.131 -0.2416  0.3663 -1.3300
 2631SOL    HW219530   1.279   0.367  12.148 -1.1372 -0.4756 -0.6095
 2632SOL     OW19531   3.865   4.500  11.499 -0.8346  0.0720  0.1713
 2632SOL    HW119532   3.777   4.462  11.495 -0.6043 -0.4923  0.5251
 2632SOL    HW219533   3.868   4.536  11.410 -0.5456  1.2241  0.6465
 2633SOL     OW19534   1.285   3.605   6.976  0.3651 -0.0902  0.4008
 2633SOL    HW119535   1.237   3.542   7.029 -3.0079  1.1301 -1.2030
 2633SOL    HW219536   1.254   3.586   6.888  0.6705  2.1707 -0.2033
 2634SOL     OW19537   0.185   4.118   0.607 -0.5953 -0.3069 -0.4157
 2634SOL    HW119538   0.113   4.132   0.545 -0.4747  0.7946 -0.3121
 2634SOL    HW219539   0.253   4.115   0.539  0.5385  2.1586  0.6070
 2635SOL     OW19540   1.791   0.140  15.740 -0.3368 -0.5658 -0.3939
 2635SOL    HW119541   1.830   0.197  15.674  1.3986 -1.0196  0.2414
 2635SOL    HW219542   1.810   0.187  15.822 -4.9335 -1.5941  1.2363
 2636SOL     OW19543   3.159   3.936  10.452  0.2397  0.1838 -0.0367
 2636SOL    HW119544   3.228   3.987  10.495  0.0448  0.5308 -0.1316
 2636SOL    HW219545   3.136   3.875  10.522  0.2187  1.5247  1.1277
 2637SOL     OW19546   4.352   3.234  11.493  0.0596 -0.1750 -0.3283
 2637SOL    HW119547   4.437   3.259  11.529 -0.3323  2.5351 -1.3203
 2637SOL    HW219548   4.296   3.307  11.519  0.4391  1.1598 -3.2986
 2638SOL     OW19549   2.868   0.754   8.818 -0.2209 -0.2008 -0.0565
 2638SOL    HW119550   2.828   0.829   8.861  2.2682  0.8667  0.4278
 2638SOL    HW219551   2.960   0.783   8.822 -0.0555 -1.0046  2.1686
 2639SOL     OW19552   1.084   1.406   4.560 -1.2361  0.1314 -0.1006
 2639SOL    HW119553   1.130   1.470   4.615 -2.0654  1.5327 -1.0524
 2639SOL    HW219554   1.067   1.324   4.606 -0.6892 -0.6290 -1.2682
 2640SOL     OW19555   1.431   3.695   4.290  0.0572  0.1724 -0.5973
 2640SOL    HW119556   1.357   3.634   4.289 -1.8231  2.3827  2.2734
 2640SOL    HW219557   1.381   3.774   4.314  1.1299  1.2934 -2.1024
 2641SOL     OW19558   0.485   2.922   7.095 -0.2173 -0.2973  0.3693
 2641SOL    HW119559   0.518   3.007   7.126 -1.5904 -0.2886  1.7920
 2641SOL    HW219560   0.438   2.959   7.020 -0.8149  0.5910  1.1799
 2642SOL     OW19561   4.448   4.339   8.109  0.1590  0.3481 -0.8546
 2642SOL    HW119562   4.498   4.358   8.030 -0.1017  0.7467 -0.9224
 2642SOL    HW219563   4.508   4.276   8.150 -2.4418 -0.7494  1.2705
 2643SOL     OW19564   4.465   4.576   3.753 -0.3170 -0.0462 -0.1060
 2643SOL    HW119565   4.402   4.606   3.687 -1.3366  2.1994  1.8828
 2643SOL    HW219566   4.522   4.531   3.691  0.9560  1.9386 -0.3505
 2644SOL     OW19567   2.013   2.945   3.828 -0.2498 -0.0197  0.2104
 2644SOL    HW119568   2.039   2.946   3.736 -0.8318  1.0872  0.0610
 2644SOL    HW219569   2.054   2.865   3.861  2.3728  0.6000 -1.4910
 2645SOL     OW19570   2.481   4.303   7.052 -0.2179  0.4971  0.2003
 2645SOL    HW119571   2.490   4.395   7.077  0.9746  0.3916  0.1601
 2645SOL    HW219572   2.387   4.287   7.059 -0.0124 -1.2556 -1.1673
 2646SOL     OW19573   3.903   2.661  16.579  0.0881  0.4329 -0.2185
 2646SOL    HW119574   3.877   2.752  16.593 -0.7928 -0.0279  1.1219
 2646SOL    HW219575   3.946   2.640  16.662 -1.1650  0.7457  0.5021
 2647SOL     OW19576   3.292   2.991  11.147 -0.5501  0.0980 -0.2763
 2647SOL    HW119577   3.265   3.001  11.056  2.2183  2.1660 -0.8873
 2647SOL    HW219578   3.334   2.907  11.130 -2.1398 -0.7944  0.2945
 2648SOL     OW19579   1.174   3.057   2.301  0.4267  0.7715 -0.5902
 2648SOL    HW119580   1.187   2.971   2.261  1.6486  0.2006  1.0425
 2648SOL    HW219581   1.264   3.081   2.323  0.8618 -0.5483 -0.9540
 2649SOL     OW19582   3.249   3.582   0.767 -0.4293  0.0786  0.3836
 2649SOL    HW119583   3.286   3.612   0.850  2.7668 -3.7790  0.3555
 2649SOL    HW219584   3.318   3.612   0.708  0.7930 -2.7426  0.3457
 2650SOL     OW19585   2.808   0.245   2.846  0.0998  0.3472  0.5842
 2650SOL    HW119586   2.891   0.219   2.806  0.1018 -1.3819  1.6950
 2650SOL    HW219587   2.829   0.339   2.846  0.7528  0.2069 -0.2288
 2651SOL     OW19588   2.684   1.269   3.196 -0.5579 -0.2480 -0.3207
 2651SOL    HW119589   2.755   1.322   3.161 -0.8832  0.9541  0.8612
 2651SOL    HW219590   2.636   1.340   3.238  1.0196  0.3648  0.4229
 2652SOL     OW19591   1.199   0.700   1.500 -0.2644  0.1361  0.1498
 2652SOL    HW119592   1.114   0.731   1.469 -0.5096  0.2802  0.9701
 2652SOL    HW219593   1.239   0.786   1.518 -1.1427  0.5004  0.3329
 2653SOL     OW19594   0.902   2.780   8.699  0.2375 -0.3780 -0.1211
 2653SOL    HW119595   0.942   2.826   8.772 -1.2157  0.0192  0.4324
 2653SOL    HW219596   0.961   2.802   8.627 -0.8320  0.2796 -0.8056
 2654SOL     OW19597   1.708   1.643   3.525  0.1190 -0.2094 -0.1005
 2654SOL    HW119598   1.672   1.591   3.596  0.3811 -1.3737 -0.8121
 2654SOL    HW219599   1.729   1.727   3.565  0.1011  0.0904 -0.7156
 2655SOL     OW19600   2.703   1.078   2.842  0.6613 -0.3167 -0.0924
 2655SOL    HW119601   2.670   1.003   2.893 -1.9187  0.1949 -1.0030
 2655SOL    HW219602   2.711   1.150   2.905  1.4728 -1.6512  1.3255
 2656SOL     OW19603   2.220   0.778   9.247 -0.2027 -0.4433 -0.1898
 2656SOL    HW119604   2.266   0.694   9.241  1.4095  0.4537 -0.3241
 2656SOL    HW219605   2.187   0.786   9.158 -0.2486 -0.6537 -0.1922
 2657SOL     OW19606   2.100   2.487   6.868 -0.1562 -0.2846 -0.0043
 2657SOL    HW119607   2.065   2.451   6.787  0.1812 -1.1339  0.2325
 2657SOL    HW219608   2.191   2.460   6.876  0.0337 -0.1937 -1.7348
 2658SOL     OW19609   0.994   3.605   6.120  0.5408  0.4790 -0.0689
 2658SOL    HW119610   0.996   3.509   6.126 -0.3435  0.6046  2.1620
 2658SOL    HW219611   1.027   3.608   6.030 -1.2887  0.0561 -0.7739
 2659SOL     OW19612   0.038   1.626   9.028  0.1038 -0.2677 -0.2921
 2659SOL    HW119613   0.056   1.619   8.934  0.2088 -2.2698 -0.1394
 2659SOL    HW219614   0.029   1.719   9.045 -2.0922  0.0460 -3.1733
 2660SOL     OW19615   2.118   1.512   1.640  0.5894 -0.8665  0.5001
 2660SOL    HW119616   2.202   1.525   1.683  0.1623 -1.6232  1.5462
 2660SOL    HW219617   2.127   1.579   1.571 -4.4359  0.0774  0.7443
 2661SOL     OW19618   0.095   0.394   8.342  0.7076 -0.0556  0.1031
 2661SOL    HW119619   0.159   0.443   8.292  0.2589  0.2997 -0.1231
 2661SOL    HW219620   0.144   0.382   8.423 -1.3837 -0.7322  1.2772
 2662SOL     OW19621   2.262   1.795   6.937 -0.3681 -0.3127  0.2852
 2662SOL    HW119622   2.217   1.865   6.985  0.7535 -1.0402  2.4065
 2662SOL    HW219623   2.214   1.795   6.855 -0.7473  2.4203  0.5020
 2663SOL     OW19624   2.504   3.516   8.298  0.2149  0.9000 -0.1680
 2663SOL    HW119625   2.537   3.453   8.234  0.6880  0.4929  0.4775
 2663SOL    HW219626   2.575   3.517   8.361  0.8800  0.5049 -0.9036
 2664SOL     OW19627   4.078   0.677   3.550 -0.2224 -0.0676  0.5064
 2664SOL    HW119628   4.118   0.712   3.629 -0.1282  1.8987 -0.4174
 2664SOL    HW219629   4.000   0.636   3.588  1.3102 -1.8230  1.7644
 2665SOL     OW19630   0.051   3.104  13.329  0.2644  0.0079  0.1859
 2665SOL    HW119631   0.061   3.164  13.402 -0.9508 -0.0228  0.3855
 2665SOL    HW219632   0.095   3.023  13.356  1.2383 -0.0574 -1.6031
 2666SOL     OW19633   3.979   1.141   2.379 -0.3035  0.0817  0.1385
 2666SOL    HW119634   4.004   1.233   2.372 -1.6841  0.2989 -1.9021
 2666SOL    HW219635   3.923   1.159   2.455 -1.0231  0.6168 -0.5212
 2667SOL     OW19636   1.960   2.768   5.372 -0.0761  0.3318  0.4523
 2667SOL    HW119637   1.966   2.705   5.300 -0.7740  0.2508  0.4697
 2667SOL    HW219638   1.988   2.716   5.448 -0.1201  0.2152  0.3880
 2668SOL     OW19639   3.939   0.544   3.381 -0.0808  0.4685  0.0909
 2668SOL    HW119640   3.992   0.608   3.430  1.2830 -0.7853  0.2604
 2668SOL    HW219641   3.958   0.469   3.436  1.3009  0.0573 -0.9452
 2669SOL     OW19642   1.712   0.270   4.081  0.1218  0.3266 -0.3876
 2669SOL    HW119643   1.803   0.251   4.105  0.5367  1.5979 -0.9985
 2669SOL    HW219644   1.706   0.265   3.986  0.2122  3.0431 -0.5319
 2670SOL     OW19645   1.527   3.805   1.145  0.6148 -0.3349 -0.0296
 2670SOL    HW119646   1.607   3.802   1.093  1.0694  1.9415  0.5401
 2670SOL    HW219647   1.504   3.712   1.146  0.6759 -0.3230  3.0489
 2671SOL     OW19648   2.441   3.955   8.229  0.5531 -0.5794 -0.4456
 2671SOL    HW119649   2.355   3.926   8.259  0.9619  0.2291  1.4809
 2671SOL    HW219650   2.488   3.919   8.304 -1.0430 -0.9072  0.4083
 2672SOL     OW19651   0.284   1.133   3.218  0.1624 -0.1702 -0.0165
 2672SOL    HW119652   0.307   1.187   3.293  2.2620 -0.0122 -0.7766
 2672SOL    HW219653   0.370   1.100   3.192  0.0614  0.5439 -1.2339
 2673SOL     OW19654   0.805   0.058  14.782 -0.0603 -0.3819 -0.8057
 2673SOL    HW119655   0.714   0.076  14.806  0.1250  0.9347 -1.1358
 2673SOL    HW219656   0.859   0.115  14.836 -0.4899 -1.8128  1.1504
 2674SOL     OW19657   0.613   3.348   1.200  0.1472 -0.4123 -1.0342
 2674SOL    HW119658   0.639   3.364   1.291 -2.0574  0.7877 -0.6208
 2674SOL    HW219659   0.670   3.275   1.172  1.0365 -0.1979  0.2192
 2675SOL     OW19660   3.676   0.809   7.876  0.3192  0.0535  0.7143
 2675SOL    HW119661   3.662   0.899   7.848 -0.0709 -0.3637 -0.4682
 2675SOL    HW219662   3.626   0.820   7.956 -0.6589 -0.6717  0.2107
 2676SOL     OW19663   3.551   0.254   9.147  0.5746 -0.0707  0.5244
 2676SOL    HW119664   3.598   0.318   9.200  0.3756  0.9655 -0.5525
 2676SOL    HW219665   3.609   0.233   9.074  1.1807  0.1450  0.9439
 2677SOL     OW19666   3.563   0.931   6.448  0.1178  0.0166 -0.5764
 2677SOL    HW119667   3.491   0.876   6.479 -2.2843  1.4281 -3.7259
 2677SOL    HW219668   3.540   1.006   6.503 -2.0869 -0.7919 -0.4129
 2678SOL     OW19669   3.182   4.403   4.630 -0.4443  0.0140 -0.1179
 2678SOL    HW119670   3.245   4.463   4.671 -0.8698  0.0894  0.4226
 2678SOL    HW219671   3.178   4.457   4.552  1.1588  0.3615  0.0225
 2679SOL     OW19672   0.805   2.471   1.827 -0.4192  0.0349 -0.6797
 2679SOL    HW119673   0.870   2.457   1.758  1.3287 -0.9204  1.1407
 2679SOL    HW219674   0.727   2.431   1.788 -0.1418  0.9252 -2.1261
 2680SOL     OW19675   3.976   0.298   8.523  0.1564 -0.1853  0.1852
 2680SOL    HW119676   3.885   0.328   8.517  1.1615  3.0291  1.0658
 2680SOL    HW219677   3.982   0.229   8.457  0.2354 -1.8332  1.9178
 2681SOL     OW19678   4.155   3.201   8.621 -0.0077 -0.4867 -0.0716
 2681SOL    HW119679   4.237   3.227   8.579  0.9484 -1.4984  1.2086
 2681SOL    HW219680   4.181   3.224   8.710  3.1031  1.7425 -1.5519
 2682SOL     OW19681   1.364   0.962   4.941 -0.6565 -0.2332  0.1215
 2682SOL    HW119682   1.436   0.907   4.909 -0.7623 -0.1691 -0.2272
 2682SOL    HW219683   1.402   1.013   5.012  1.4720  0.2161 -1.3558
 2683SOL     OW19684   3.203   0.206   7.349  0.2670 -0.1461 -0.8997
 2683SOL    HW119685   3.283   0.212   7.297  0.7249 -0.7960 -0.2535
 2683SOL    HW219686   3.163   0.133   7.301  1.5912 -0.9550 -0.7504
 2684SOL     OW19687   0.277   0.949   8.535  0.5837 -0.0267  0.0072
 2684SOL    HW119688   0.218   0.950   8.610  1.2277 -0.7202  0.5352
 2684SOL    HW219689   0.212   0.913   8.474  0.6544  1.4525 -0.9368
 2685SOL     OW19690   4.184   4.183  14.828  0.5263 -0.3380  0.2739
 2685SOL    HW119691   4.096   4.205  14.797  0.5065 -1.5202 -0.5092
 2685SOL    HW219692   4.245   4.249  14.794 -0.2464  1.4492  2.3549
 2686SOL     OW19693   3.486   0.976   8.955  0.0759  0.3011  0.4675
 2686SOL    HW119694   3.419   0.923   8.998 -1.2960  0.9716 -0.8394
 2686SOL    HW219695   3.510   0.907   8.893  2.4105  1.2261  0.3323
 2687SOL     OW19696   2.911   2.680  16.715  0.2788 -0.1067 -0.5781
 2687SOL    HW119697   2.900   2.610  16.780 -1.4854 -1.2962 -2.1380
 2687SOL    HW219698   2.888   2.632  16.636  0.9276 -0.3188 -0.6336
 2688SOL     OW19699   2.280   2.712   9.034 -0.0935  0.5584 -0.1536
 2688SOL    HW119700   2.208   2.760   9.075  0.1999  0.2183  0.7670
 2688SOL    HW219701   2.326   2.674   9.109 -0.1999 -2.6828 -1.7683
 2689SOL     OW19702   2.210   0.842  15.280 -0.2845  0.6923 -0.7490
 2689SOL    HW119703   2.187   0.923  15.234 -1.1110  1.8605  1.7143
 2689SOL    HW219704   2.214   0.781  15.207 -0.9001 -1.7535  1.2684
 2690SOL     OW19705   0.185   3.550   7.890 -0.2013 -0.3786  0.1218
 2690SOL    HW119706   0.237   3.555   7.810  1.3558 -0.9526  1.0922
 2690SOL    HW219707   0.212   3.639   7.915 -0.3482 -0.3876  0.3094
 2691SOL     OW19708   3.956   2.464   0.810  0.1584 -0.7320  0.4416
 2691SOL    HW119709   4.038   2.417   0.820  0.7517  0.1456 -0.3373
 2691SOL    HW219710   3.894   2.393   0.828 -0.0814 -0.5852  0.2041
 2692SOL     OW19711   3.875   1.009   8.317 -0.4273 -0.2223  0.5617
 2692SOL    HW119712   3.944   1.005   8.383  0.1033 -0.3404 -0.0010
 2692SOL    HW219713   3.796   1.004   8.371 -0.2608  2.9251  1.0812
 2693SOL     OW19714   1.297   2.417  11.660  0.3547 -0.5436  0.5398
 2693SOL    HW119715   1.358   2.465  11.715 -0.8665  1.4206  0.1679
 2693SOL    HW219716   1.286   2.482  11.590  0.5296 -1.3271 -0.2235
 2694SOL     OW19717   3.482   4.309   2.795 -0.4266 -0.4045  0.2257
 2694SOL    HW119718   3.572   4.336   2.777 -0.7908 -0.6468 -1.8787
 2694SOL    HW219719   3.434   4.350   2.724  1.4446  2.9535  0.9272
 2695SOL     OW19720   4.404   4.152   8.800  0.2977  0.6319 -0.0373
 2695SOL    HW119721   4.395   4.246   8.815 -1.3186  0.3408  0.8499
 2695SOL    HW219722   4.357   4.130   8.881  1.7700  1.3994  1.0298
 2696SOL     OW19723   1.493   0.928  17.498  0.1755  0.0335 -0.0180
 2696SOL    HW119724   1.553   0.938  17.572  0.2449 -3.9562  0.4867
 2696SOL    HW219725   1.458   1.014  17.477 -1.2784 -0.7266 -0.7456
 2697SOL     OW19726   2.799   0.183   1.503 -0.7216  0.0033 -0.2500
 2697SOL    HW119727   2.869   0.213   1.446 -1.6123 -0.3795 -1.5624
 2697SOL    HW219728   2.750   0.127   1.442  1.4613 -2.1450 -0.0141
 2698SOL     OW19729   1.286   2.610  11.461 -0.3619  0.1958  0.2212
 2698SOL    HW119730   1.363   2.654  11.425 -0.9464  0.3973 -0.7766
 2698SOL    HW219731   1.222   2.623  11.391 -0.4958 -1.7700 -0.0251
 2699SOL     OW19732   1.933   1.852   7.855 -0.0877  0.3970  0.0813
 2699SOL    HW119733   1.977   1.874   7.773 -0.5207 -1.5344 -0.6844
 2699SOL    HW219734   1.859   1.912   7.852  0.5573  1.1199 -2.0907
 2700SOL     OW19735   1.268   4.444   1.401 -0.2819 -0.1049 -0.2381
 2700SOL    HW119736   1.319   4.443   1.321 -1.9201  1.1067 -1.2908
 2700SOL    HW219737   1.198   4.387   1.370  0.2450  0.1642 -1.9139
 2701SOL     OW19738   0.689   4.121   4.224  0.0821  0.0279  0.0132
 2701SOL    HW119739   0.599   4.131   4.254  0.1700 -0.9554  0.6172
 2701SOL    HW219740   0.720   4.203   4.262  0.7604 -0.2286  0.0137
 2702SOL     OW19741   3.341   3.325   2.849 -0.1553  0.5804  0.1003
 2702SOL    HW119742   3.317   3.295   2.937  2.7977 -0.9521  0.3912
 2702SOL    HW219743   3.379   3.412   2.857  0.2808  0.2899  1.2125
 2703SOL     OW19744   1.423   4.719   7.064 -0.4953 -0.2758 -0.3786
 2703SOL    HW119745   1.425   4.647   7.128 -0.0544 -1.5712 -1.8620
 2703SOL    HW219746   1.452   4.668   6.989 -0.3034 -0.6250 -0.0712
 2704SOL     OW19747   3.004   0.679   0.942 -0.5392 -0.2352 -0.1460
 2704SOL    HW119748   3.051   0.689   0.859 -2.0232  0.3755 -0.9120
 2704SOL    HW219749   2.952   0.759   0.940 -1.4699 -0.8017  1.3755
 2705SOL     OW19750   2.890   1.869  10.590  0.0460  0.5722 -0.0868
 2705SOL    HW119751   2.919   1.828  10.671 -3.2830  1.6216  1.6293
 2705SOL    HW219752   2.794   1.865  10.590  0.0524  0.4174 -0.1159
 2706SOL     OW19753   0.355   1.575   3.979  0.4199 -0.4362  0.0137
 2706SOL    HW119754   0.312   1.660   3.972  0.2172 -0.4882  0.5704
 2706SOL    HW219755   0.313   1.534   3.903  0.0041  1.4813 -0.7673
 2707SOL     OW19756   1.429   2.771  11.660 -0.3400 -0.7771  0.0480
 2707SOL    HW119757   1.344   2.753  11.621 -0.6381  1.4113 -0.2801
 2707SOL    HW219758   1.478   2.808  11.586 -3.4027 -1.8812 -2.4964
 2708SOL     OW19759   4.184   3.920   7.215 -0.0519  0.3534  1.0425
 2708SOL    HW119760   4.092   3.899   7.233 -0.0901  0.1845  0.6430
 2708SOL    HW219761   4.216   3.835   7.187  1.0200 -0.0339  3.4382
 2709SOL     OW19762   4.527   3.250   6.454 -0.5680  0.1589  0.8283
 2709SOL    HW119763   4.574   3.334   6.451  1.0490 -0.5635  6.2848
 2709SOL    HW219764   4.530   3.227   6.361  1.8490 -1.3298  1.2801
 2710SOL     OW19765   3.557   2.156  12.606  0.1217  0.0592  0.0714
 2710SOL    HW119766   3.646   2.177  12.580  0.5502  0.0956  1.5781
 2710SOL    HW219767   3.518   2.243  12.596  0.1535  0.1070  0.3619
 2711SOL     OW19768   3.351   2.300  13.830 -0.1871 -0.3900  0.7283
 2711SOL    HW119769   3.269   2.261  13.860 -0.5104 -1.3822 -1.4659
 2711SOL    HW219770   3.340   2.394  13.816 -1.2282 -0.6308 -0.0781
 2712SOL     OW19771   0.339   1.199  14.335 -0.8306  0.3999 -0.8518
 2712SOL    HW119772   0.296   1.173  14.416 -0.1891  0.0888 -0.6116
 2712SOL    HW219773   0.360   1.111  14.304 -0.2337  1.4465 -3.4455
 2713SOL     OW19774   1.822   4.496   6.838 -0.8429 -0.1851  0.0373
 2713SOL    HW119775   1.734   4.511   6.872 -0.4223  0.5404  0.8025
 2713SOL    HW219776   1.807   4.406   6.806 -1.0177 -0.5914  1.2801
 2714SOL     OW19777   1.197   0.472  17.644  0.4492  0.0687  0.0471
 2714SOL    HW119778   1.186   0.407  17.714  0.0159 -1.3934 -1.3734
 2714SOL    HW219779   1.265   0.528  17.682 -0.7480 -0.1841  2.5602
 2715SOL     OW19780   1.188   1.682   7.137  0.0220 -0.0573 -0.8247
 2715SOL    HW119781   1.235   1.706   7.216 -2.2194  0.3918  0.3661
 2715SOL    HW219782   1.246   1.717   7.069 -0.6825  1.0375 -0.8449
 2716SOL     OW19783   1.724   1.526   8.157  0.5690  0.3171  0.6236
 2716SOL    HW119784   1.758   1.545   8.244  3.0063  1.9784 -0.6868
 2716SOL    HW219785   1.662   1.598   8.149  0.2138  0.1866  2.3622
 2717SOL     OW19786   2.934   4.465  15.651  0.0954 -0.2821  0.1623
 2717SOL    HW119787   2.914   4.429  15.738 -2.8989  1.5373  0.2451
 2717SOL    HW219788   2.896   4.397  15.596 -1.3588 -0.7908  1.7664
 2718SOL     OW19789   3.099   0.606   6.371 -0.2156 -0.8746 -0.2992
 2718SOL    HW119790   3.018   0.588   6.420  1.6386 -2.8020  2.0707
 2718SOL    HW219791   3.138   0.519   6.362 -0.8558 -1.2015  0.0345
 2719SOL     OW19792   2.845   1.200   9.871 -0.5232  0.5880  0.0532
 2719SOL    HW119793   2.785   1.146   9.923  1.9105 -2.0229  0.1329
 2719SOL    HW219794   2.924   1.148   9.884 -0.0324  1.5739  1.0862
 2720SOL     OW19795   1.679   1.498   1.943 -0.0382  0.4298 -0.2292
 2720SOL    HW119796   1.739   1.423   1.944 -1.6280 -0.8600 -1.5846
 2720SOL    HW219797   1.740   1.571   1.930 -1.1613  1.4237  0.0867
 2721SOL     OW19798   1.140   1.365   5.195 -0.6672 -0.0582 -0.0353
 2721SOL    HW119799   1.222   1.341   5.153  1.1290  1.7407  2.4310
 2721SOL    HW219800   1.152   1.339   5.287 -0.2959  1.4402  0.3351
 2722SOL     OW19801   2.286   3.149  12.130  0.3205 -0.2496  0.0459
 2722SOL    HW119802   2.312   3.140  12.222 -0.0334 -2.2075 -0.0389
 2722SOL    HW219803   2.363   3.183  12.085  1.8676 -1.7227  1.5680
 2723SOL     OW19804   1.014   2.430   1.195 -0.0836 -0.3892 -0.3729
 2723SOL    HW119805   0.951   2.364   1.223  0.5148 -0.8089 -0.0280
 2723SOL    HW219806   1.070   2.436   1.272 -0.6451 -1.7767  0.1360
 2724SOL     OW19807   2.989   1.296   5.186 -0.2608  0.0420 -0.1785
 2724SOL    HW119808   2.955   1.210   5.211  1.5021 -0.8622 -0.8447
 2724SOL    HW219809   2.913   1.345   5.156 -0.1274  0.4634  0.1820
 2725SOL     OW19810   2.971   0.463  15.354  0.1872 -0.6746 -0.3190
 2725SOL    HW119811   2.968   0.371  15.329  3.2434 -0.5404 -1.2725
 2725SOL    HW219812   2.898   0.506  15.310  0.5968  1.5136  1.1615
 2726SOL     OW19813   4.458   1.132  12.486 -0.5445 -0.4825  0.2313
 2726SOL    HW119814   4.411   1.189  12.547  0.2684 -1.0253  1.3758
 2726SOL    HW219815   4.383   1.090  12.444 -0.5062 -0.3018 -0.0163
 2727SOL     OW19816   1.210   0.787   4.450  0.1711  0.6136  0.0824
 2727SOL    HW119817   1.253   0.857   4.499 -1.8222  2.9139 -1.4107
 2727SOL    HW219818   1.180   0.833   4.372 -3.2179 -1.6396  0.0436
 2728SOL     OW19819   0.481   0.072   8.510 -0.4466  0.5866 -0.2894
 2728SOL    HW119820   0.570   0.037   8.502  0.2955  2.6080 -1.0889
 2728SOL    HW219821   0.497   0.167   8.505 -1.3579  0.6797 -1.3240
 2729SOL     OW19822   2.481   4.632   4.216 -0.3042  0.6490 -0.3625
 2729SOL    HW119823   2.484   4.644   4.121  0.6769 -2.7354 -0.7540
 2729SOL    HW219824   2.545   4.561   4.211  2.7914  3.4827 -1.5341
 2730SOL     OW19825   1.662   0.550  10.159  0.2327  0.0757 -0.0062
 2730SOL    HW119826   1.731   0.612  10.135 -0.2151  1.0834  1.3284
 2730SOL    HW219827   1.594   0.605  10.198 -0.5283 -0.8192 -0.0686
 2731SOL     OW19828   1.649   2.900   6.683  0.7298 -0.2771 -0.3801
 2731SOL    HW119829   1.590   2.917   6.756  1.0259  0.7178 -0.3716
 2731SOL    HW219830   1.612   2.955   6.614 -1.7874  0.0516  1.2622
 2732SOL     OW19831   3.012   2.252   4.051 -0.0164  0.0470  0.0354
 2732SOL    HW119832   3.071   2.177   4.052 -1.0787 -0.7905 -0.2359
 2732SOL    HW219833   2.922   2.219   4.048  0.7306 -1.8669 -1.2461
 2733SOL     OW19834   2.850   1.875   4.714  0.2409  0.3130 -0.2426
 2733SOL    HW119835   2.934   1.882   4.668  1.5395  0.3164  2.1499
 2733SOL    HW219836   2.877   1.821   4.788 -1.1944  1.1342  0.8850
 2734SOL     OW19837   1.933   2.374  16.387 -0.1505 -0.0256 -0.0355
 2734SOL    HW119838   1.904   2.383  16.477 -1.3102 -3.3210 -0.0830
 2734SOL    HW219839   1.867   2.433  16.352 -1.6368 -0.9043  1.2887
 2735SOL     OW19840   3.020   0.111   4.968 -0.6984  0.2558 -0.1006
 2735SOL    HW119841   2.990   0.170   5.037 -2.1900 -0.1400 -0.4159
 2735SOL    HW219842   2.947   0.052   4.950  0.4450 -0.6660 -1.7008
 2736SOL     OW19843   1.223   3.207   9.095  0.1374 -0.7435 -0.4144
 2736SOL    HW119844   1.291   3.263   9.058 -1.0404  0.4901 -0.7479
 2736SOL    HW219845   1.145   3.255   9.067 -1.1292 -3.1096 -0.8952
 2737SOL     OW19846   1.152   4.536   7.324 -0.2339  0.6112 -0.2349
 2737SOL    HW119847   1.120   4.604   7.264  0.2627  0.3205 -0.8300
 2737SOL    HW219848   1.122   4.580   7.403  1.1927 -0.6190  0.9895
 2738SOL     OW19849   0.057   4.329   3.034 -0.2782 -0.3757 -0.5121
 2738SOL    HW119850   0.132   4.271   3.042  1.4166  1.7685 -0.8224
 2738SOL    HW219851   0.025   4.309   2.945 -1.5511  3.7471 -0.9682
 2739SOL     OW19852   4.155   0.198  14.556  0.5395 -0.0849  0.2274
 2739SOL    HW119853   4.098   0.127  14.528  1.1524  0.1092 -1.5271
 2739SOL    HW219854   4.239   0.163  14.527  0.9391  2.4722 -1.7254
 2740SOL     OW19855   0.626   2.812   8.793  0.2797 -0.0348 -0.3839
 2740SOL    HW119856   0.717   2.798   8.818  0.3063  0.0333 -0.4416
 2740SOL    HW219857   0.589   2.861   8.867  1.7797  0.9560 -0.2782
 2741SOL     OW19858   4.542   0.902   8.190 -0.4360  0.5427 -0.1058
 2741SOL    HW119859   4.525   0.836   8.123 -1.1467 -2.9975  3.5950
 2741SOL    HW219860   4.520   0.874   8.279  1.5679  1.4700  0.6815
 2742SOL     OW19861   1.923   1.375  15.654  0.0282 -0.4909 -0.2864
 2742SOL    HW119862   1.843   1.414  15.689 -0.4414 -0.4644 -1.3979
 2742SOL    HW219863   1.915   1.393  15.560 -1.7796 -0.3833 -0.1270
 2743SOL     OW19864   3.619   3.133  13.292 -0.3379  0.3501  0.0456
 2743SOL    HW119865   3.595   3.052  13.246 -0.0801  1.0029 -1.2216
 2743SOL    HW219866   3.552   3.119  13.358  0.4743  0.6360  0.9275
 2744SOL     OW19867   1.249   2.743   3.602 -0.3107 -0.4070 -0.1124
 2744SOL    HW119868   1.335   2.708   3.578  0.3081 -0.6840  2.5376
 2744SOL    HW219869   1.187   2.677   3.573 -0.4045 -0.8291  1.0403
 2745SOL     OW19870   0.891   2.088   8.970  0.1448  0.4092  0.0041
 2745SOL    HW119871   0.960   2.140   9.012 -0.0998  0.9002 -0.2098
 2745SOL    HW219872   0.908   2.000   9.003  3.6525  1.2282  0.3874
 2746SOL     OW19873   2.612   1.164  10.330 -0.0598  0.1352 -0.1424
 2746SOL    HW119874   2.615   1.082  10.280  1.5114 -1.3905  2.4647
 2746SOL    HW219875   2.690   1.145  10.382 -0.8258  1.6496  1.5280
 2747SOL     OW19876   3.781   0.307   5.650  0.3215  0.3740  0.3170
 2747SOL    HW119877   3.752   0.379   5.594  2.2324 -0.0864 -1.2503
 2747SOL    HW219878   3.716   0.242   5.625  0.8698  0.1183 -0.4579
 2748SOL     OW19879   1.162   3.198   7.187  0.2652 -0.0777  0.1378
 2748SOL    HW119880   1.124   3.116   7.218  1.2097 -0.4243  0.3807
 2748SOL    HW219881   1.246   3.162   7.160  1.4386  0.6337  2.8355
 2749SOL     OW19882   1.836   1.363   4.896 -0.1995 -0.0928 -0.1301
 2749SOL    HW119883   1.857   1.388   4.985  1.7684  1.6212 -1.0773
 2749SOL    HW219884   1.771   1.294   4.906 -0.8069  0.6096  0.7008
 2750SOL     OW19885   4.688   2.172   2.918  0.5227 -0.4197  0.6277
 2750SOL    HW119886   4.723   2.261   2.912 -0.3164 -0.1955 -0.9879
 2750SOL    HW219887   4.624   2.177   2.988  0.1479  1.2228  0.1601
 2751SOL     OW19888   3.989   3.265   4.250  0.5567  0.0268 -0.1599
 2751SOL    HW119889   3.900   3.281   4.219  1.0543  0.8795 -1.1409
 2751SOL    HW219890   4.025   3.328   4.188 -2.6222  1.4707 -0.5325
 2752SOL     OW19891   4.298   3.476   9.718 -0.1974 -0.1606  0.0246
 2752SOL    HW119892   4.355   3.468   9.641  0.4702 -1.0027  0.6186
 2752SOL    HW219893   4.360   3.485   9.790 -2.3983  1.9957  1.6759
 2753SOL     OW19894   1.621   0.927   4.837 -0.5601 -0.1205 -0.0527
 2753SOL    HW119895   1.603   0.993   4.769  1.6631  1.6301  1.0702
 2753SOL    HW219896   1.689   0.873   4.797 -0.5556  0.9509 -1.5149
 2754SOL     OW19897   1.279   0.285   6.729 -0.6599 -0.1565 -0.1736
 2754SOL    HW119898   1.226   0.337   6.668 -0.6527 -0.5250 -0.4887
 2754SOL    HW219899   1.369   0.308   6.706 -0.4674 -0.6769  0.0636
 2755SOL     OW19900   3.492   2.265   1.819  0.0594  0.7726  0.1082
 2755SOL    HW119901   3.534   2.180   1.830  2.1178  1.6416 -0.9077
 2755SOL    HW219902   3.398   2.252   1.830 -0.2449  0.6984 -2.4971
 2756SOL     OW19903   3.308   2.603   5.311  0.2428  0.2020 -0.4834
 2756SOL    HW119904   3.289   2.515   5.346  1.6071  0.4311  0.8474
 2756SOL    HW219905   3.274   2.658   5.382  2.0960  0.1920  0.4131
 2757SOL     OW19906   2.210   3.341   4.336  0.0622  0.3929 -0.1682
 2757SOL    HW119907   2.213   3.433   4.361 -0.8322  0.3220  0.2202
 2757SOL    HW219908   2.181   3.289   4.412 -0.8590 -0.8940 -1.3866
 2758SOL     OW19909   0.102   1.699   5.854  0.5043 -0.0482 -0.2241
 2758SOL    HW119910   0.047   1.627   5.821  0.3176  0.1561 -0.3585
 2758SOL    HW219911   0.064   1.717   5.940 -0.1408 -1.5010 -0.1931
 2759SOL     OW19912   2.968   1.397  13.288 -0.3794 -0.8396 -0.4292
 2759SOL    HW119913   2.915   1.476  13.295 -1.0594 -1.3315  0.0116
 2759SOL    HW219914   3.053   1.440  13.282 -0.3168 -1.2093 -1.9665
 2760SOL     OW19915   3.538   3.186   3.508  0.2842 -0.9668 -0.3048
 2760SOL    HW119916   3.445   3.204   3.515 -0.0481 -2.0369 -1.9837
 2760SOL    HW219917   3.561   3.222   3.594 -0.5466  1.6140 -1.1702
 2761SOL     OW19918   3.503   0.644  15.967 -0.4192  0.2766 -0.5930
 2761SOL    HW119919   3.421   0.653  15.918  0.0921  3.9016 -0.7926
 2761SOL    HW219920   3.563   0.680  15.902  0.8559 -0.2106  0.3182
 2762SOL     OW19921   4.457   0.866   7.187  0.1383 -0.0912  0.0663
 2762SOL    HW119922   4.456   0.843   7.094 -1.9349  4.5965 -1.0341
 2762SOL    HW219923   4.552   0.866   7.199  0.0159  0.3022  1.0453
 2763SOL     OW19924   4.521   3.973   1.303 -0.3172 -0.3968 -0.1161
 2763SOL    HW119925   4.566   3.950   1.221 -1.1279 -0.7037 -0.4768
 2763SOL    HW219926   4.451   4.031   1.274 -0.3299  0.0384  0.7906
 2764SOL     OW19927   4.234   0.065   4.516  0.1200  0.0334 -0.3584
 2764SOL    HW119928   4.176   0.125   4.470  0.7931  1.1832  0.3124
 2764SOL    HW219929   4.302   0.128   4.537 -0.8791  1.2503 -0.8083
 2765SOL     OW19930   1.976   1.582   9.754  0.2105 -0.3170 -0.4382
 2765SOL    HW119931   1.987   1.663   9.704  0.8865  0.2566  0.6283
 2765SOL    HW219932   1.905   1.612   9.810  0.3825 -0.3288 -0.2138
 2766SOL     OW19933   1.884   0.331   1.371  0.3887  0.2887  0.3041
 2766SOL    HW119934   1.792   0.347   1.390  0.1937 -1.7060  0.9785
 2766SOL    HW219935   1.918   0.397   1.431  1.1600 -0.4807  0.7138
 2767SOL     OW19936   2.902   2.344   3.673 -0.2099  0.4098 -0.1220
 2767SOL    HW119937   2.959   2.268   3.678 -0.9751 -0.3473 -2.4286
 2767SOL    HW219938   2.953   2.407   3.723  0.2713  0.3244 -0.5025
 2768SOL     OW19939   2.927   1.272   2.140 -0.6771 -0.3132  0.3560
 2768SOL    HW119940   2.996   1.207   2.124 -0.0067  0.2022  1.2147
 2768SOL    HW219941   2.942   1.308   2.227  0.3199  0.5739 -0.1948
 2769SOL     OW19942   2.229   0.101   3.926  0.7341  0.0358 -0.2222
 2769SOL    HW119943   2.317   0.069   3.947  0.6897  0.3863  0.5172
 2769SOL    HW219944   2.182   0.049   3.991  1.7909 -0.7388 -0.0704
 2770SOL     OW19945   3.645   0.047  11.795  0.2488 -0.7105 -0.1167
 2770SOL    HW119946   3.622   4.694  11.772 -0.4883 -0.2496 -1.1695
 2770SOL    HW219947   3.714   0.027  11.858  1.2566  1.2074 -0.6368
 2771SOL     OW19948   1.064   4.245   7.312  0.5530  0.4673 -0.4332
 2771SOL    HW119949   1.019   4.330   7.311 -0.0093  0.1924  3.0316
 2771SOL    HW219950   1.058   4.211   7.222  0.3775 -0.1419 -0.1865
 2772SOL     OW19951   3.892   2.437   5.459 -0.0463  0.2366 -0.5208
 2772SOL    HW119952   3.806   2.429   5.416 -0.5850 -2.8137  1.0976
 2772SOL    HW219953   3.877   2.436   5.553  1.2171 -1.7304 -0.3332
 2773SOL     OW19954   2.116   1.652   8.293  0.5432 -0.2800 -0.5957
 2773SOL    HW119955   2.089   1.703   8.217  0.1013 -1.7144 -1.4078
 2773SOL    HW219956   2.068   1.572   8.271 -0.1525 -0.1410  0.3877
 2774SOL     OW19957   3.632   2.461  10.212 -0.4418  0.3744 -0.1656
 2774SOL    HW119958   3.725   2.480  10.225 -0.5694  0.5657  0.4789
 2774SOL    HW219959   3.646   2.370  10.241  0.0785  0.2274 -0.8674
 2775SOL     OW19960   3.008   1.258  17.129  0.0858 -0.3404 -0.5854
 2775SOL    HW119961   3.063   1.332  17.103 -2.9869  1.9883 -0.4915
 2775SOL    HW219962   3.047   1.245  17.216  2.3811  1.0205 -1.4056
 2776SOL     OW19963   0.450   2.040   6.471 -0.2633  0.0408 -0.3070
 2776SOL    HW119964   0.456   2.037   6.567  0.3015 -0.8421 -0.3651
 2776SOL    HW219965   0.418   2.126   6.444  0.7519  1.0031  1.5834
 2777SOL     OW19966   3.328   1.421   4.264  0.1607  0.6558 -0.5800
 2777SOL    HW119967   3.248   1.462   4.233 -1.8561 -2.3917  0.6116
 2777SOL    HW219968   3.371   1.494   4.310  0.4084  0.3877 -0.3889
 2778SOL     OW19969   4.356   4.491   6.526 -0.0193 -0.4954  0.6210
 2778SOL    HW119970   4.396   4.488   6.613  0.4720 -0.5171  0.3923
 2778SOL    HW219971   4.281   4.549   6.538 -0.9859 -1.9792  1.7136
 2779SOL     OW19972   4.724   2.187   4.675 -0.0571 -0.0650 -0.1172
 2779SOL    HW119973   0.058   2.136   4.638 -0.2096 -1.7248  1.9107
 2779SOL    HW219974   4.701   2.124   4.743 -1.8559  1.0422  0.3024
 2780SOL     OW19975   3.653   4.584   6.675  0.1089 -0.2766  0.0102
 2780SOL    HW119976   3.567   4.584   6.718 -1.4256  0.0722 -3.0680
 2780SOL    HW219977   3.716   4.600   6.746 -0.0842  1.2485 -0.1698
 2781SOL     OW19978   2.375   3.558   3.646  0.2083  0.3916 -0.4856
 2781SOL    HW119979   2.345   3.470   3.624  0.6266  0.6202 -1.9901
 2781SOL    HW219980   2.304   3.596   3.698 -0.3919 -1.9733  0.4404
 2782SOL     OW19981   1.560   1.063   1.369 -0.7371 -0.2133 -0.4250
 2782SOL    HW119982   1.485   1.085   1.315 -1.3233 -0.0798  0.4378
 2782SOL    HW219983   1.627   1.088   1.306  0.4846  1.9189  1.7177
 2783SOL     OW19984   0.967   2.774   5.233  0.8880 -0.1257 -0.1998
 2783SOL    HW119985   1.030   2.840   5.260  1.5629 -1.0420  0.4351
 2783SOL    HW219986   0.903   2.778   5.304  2.0769  1.3893  0.7791
 2784SOL     OW19987   1.530   4.296  12.020  0.5392 -1.0579  0.0706
 2784SOL    HW119988   1.525   4.310  11.925  0.9258  1.1253  0.3610
 2784SOL    HW219989   1.481   4.369  12.056  1.2580 -0.4403 -0.1875
 2785SOL     OW19990   3.182   0.435   7.900  0.1378  0.0262  0.1235
 2785SOL    HW119991   3.229   0.351   7.896  3.8157  2.1225 -1.3389
 2785SOL    HW219992   3.110   0.411   7.958  0.3455 -3.2124 -0.9545
 2786SOL     OW19993   3.194   3.077   7.969 -0.6070 -0.1106  0.1488
 2786SOL    HW119994   3.289   3.087   7.964 -0.5324  0.3440  2.5127
 2786SOL    HW219995   3.191   3.000   8.026 -2.2447  0.1282  0.3920
 2787SOL     OW19996   0.016   3.647   7.416 -0.0397 -0.0494 -0.6602
 2787SOL    HW119997   0.063   3.657   7.333  1.0762 -0.3510 -0.0685
 2787SOL    HW219998   4.661   3.651   7.394  0.1110 -2.3468 -1.7302
 2788SOL     OW19999   2.477   2.829  15.554  0.3849 -1.0207 -0.0493
 2788SOL    HW120000   2.415   2.890  15.513 -0.5614 -2.8949 -1.4250
 2788SOL    HW220001   2.415   2.776  15.604 -0.1875 -2.1497 -1.9577
 2789SOL     OW20002   2.113   3.125   3.307 -0.0450 -1.0469 -0.3695
 2789SOL    HW120003   2.027   3.165   3.310  0.0536 -0.9125  0.4703
 2789SOL    HW220004   2.139   3.140   3.397 -0.7281  0.6211 -0.4561
 2790SOL     OW20005   1.144   2.950   5.296  0.1540  0.1887 -0.1133
 2790SOL    HW120006   1.147   3.042   5.270 -0.4217  0.1258 -0.3953
 2790SOL    HW220007   1.210   2.947   5.366 -1.0057 -1.1808  0.9261
 2791SOL     OW20008   2.697   3.950   4.057 -0.7331 -0.2624 -0.0082
 2791SOL    HW120009   2.640   3.960   3.981 -0.1757  1.5252 -0.1813
 2791SOL    HW220010   2.775   3.913   4.017 -0.3126 -1.7662  2.1852
 2792SOL     OW20011   1.105   4.017  12.027  0.9224 -0.3281 -0.4249
 2792SOL    HW120012   1.169   4.038  11.960  0.5159  0.5267 -0.5406
 2792SOL    HW220013   1.149   3.963  12.092 -2.1170  1.5997  3.2583
 2793SOL     OW20014   0.368   4.453   2.448  0.2218 -0.2689  0.1610
 2793SOL    HW120015   0.408   4.527   2.494  0.2164  0.5849 -1.2370
 2793SOL    HW220016   0.342   4.402   2.525 -2.9917  0.5758 -0.3639
 2794SOL     OW20017   1.891   3.832   7.475 -0.0454 -0.2986 -1.0090
 2794SOL    HW120018   1.872   3.836   7.382 -1.9702 -2.6765 -0.7098
 2794SOL    HW220019   1.805   3.853   7.513  1.6591  2.4780  1.3368
 2795SOL     OW20020   3.083   0.960   7.258 -0.1801 -0.1265 -0.1077
 2795SOL    HW120021   2.997   0.918   7.261  0.4455 -1.1503  2.8921
 2795SOL    HW220022   3.100   0.973   7.164 -0.8102  0.8797 -0.0829
 2796SOL     OW20023   0.046   2.193   5.060 -0.9657  0.3799 -0.8450
 2796SOL    HW120024   0.034   2.132   4.987 -2.9488 -0.1417 -0.0793
 2796SOL    HW220025   4.707   2.179   5.117 -0.2907 -0.9875 -0.2837
 2797SOL     OW20026   2.191   4.282   8.535  0.4022 -0.3403 -0.1475
 2797SOL    HW120027   2.196   4.283   8.439  2.9029 -1.5817 -0.0445
 2797SOL    HW220028   2.277   4.241   8.549  0.8516  0.4970 -0.4930
 2798SOL     OW20029   1.141   2.832   2.185  0.6432 -0.3398 -0.2331
 2798SOL    HW120030   1.162   2.747   2.146 -4.9219 -1.5336 -0.5865
 2798SOL    HW220031   1.045   2.831   2.181  0.7039  0.8944 -1.9855
 2799SOL     OW20032   1.515   0.187   2.766  0.2467  0.2267 -0.3230
 2799SOL    HW120033   1.570   0.231   2.701  1.5746 -0.0079  0.6480
 2799SOL    HW220034   1.464   0.123   2.717 -0.8099  0.5386  0.3717
 2800SOL     OW20035   2.564   0.378   8.660  0.0407 -0.1002 -0.1196
 2800SOL    HW120036   2.656   0.356   8.679 -0.0204 -0.2880 -0.0454
 2800SOL    HW220037   2.567   0.392   8.565 -0.6946  2.0392  0.1923
 2801SOL     OW20038   2.650   2.526   7.459  0.1986 -0.1170 -0.1444
 2801SOL    HW120039   2.688   2.602   7.414  0.7249 -1.1239 -1.3896
 2801SOL    HW220040   2.559   2.532   7.430  0.2962  0.4281 -0.3335
 2802SOL     OW20041   2.280   1.401   1.125  0.8536 -0.2062  0.2780
 2802SOL    HW120042   2.337   1.399   1.048 -0.9834 -1.5248 -1.0428
 2802SOL    HW220043   2.348   1.402   1.192  0.4025 -0.2413  0.7328
 2803SOL     OW20044   1.494   2.038   1.258 -0.6435  0.4811 -0.1229
 2803SOL    HW120045   1.499   1.954   1.212 -0.6085  1.7321 -2.3741
 2803SOL    HW220046   1.559   2.091   1.213  0.0822 -0.9133 -0.6974
 2804SOL     OW20047   1.883   3.555   4.789  0.0442  0.4402 -0.3356
 2804SOL    HW120048   1.876   3.643   4.753 -1.2970  1.2807  1.9877
 2804SOL    HW220049   1.977   3.537   4.786 -0.4089 -2.3516  2.3320
 2805SOL     OW20050   4.001   3.718  12.332  0.4239 -0.5411  0.5804
 2805SOL    HW120051   3.964   3.701  12.246 -0.3152  1.4761  0.4849
 2805SOL    HW220052   4.092   3.726  12.303  0.5057  0.6708  1.1586
 2806SOL     OW20053   1.037   0.025  12.493 -0.4499 -0.0420  0.1603
 2806SOL    HW120054   1.036   0.074  12.411 -1.3134  2.7320  1.8293
 2806SOL    HW220055   1.039   4.672  12.461  2.1314 -0.0166  0.2847
 2807SOL     OW20056   1.868   2.216   6.875  0.7187  0.6156 -0.2145
 2807SOL    HW120057   1.959   2.194   6.854  0.8506 -0.3892  1.4132
 2807SOL    HW220058   1.855   2.164   6.954  0.0162  2.0426  0.6166
 2808SOL     OW20059   0.202   2.483   7.373  0.0668 -0.1158 -0.4145
 2808SOL    HW120060   0.179   2.472   7.466  4.1131  1.1807  0.7572
 2808SOL    HW220061   0.255   2.405   7.358 -0.6270 -0.5286 -0.7150
 2809SOL     OW20062   3.927   0.983   3.190  0.0449 -0.5664  0.1825
 2809SOL    HW120063   3.930   1.044   3.264  1.1887 -1.1347  0.6153
 2809SOL    HW220064   3.833   0.991   3.172 -0.0941 -0.9672  0.6888
 2810SOL     OW20065   2.135   3.563   7.713 -0.0400 -0.2591 -0.0748
 2810SOL    HW120066   2.184   3.597   7.637  2.0547 -2.5828  0.2335
 2810SOL    HW220067   2.047   3.556   7.676 -0.4826  1.9819  0.5818
 2811SOL     OW20068   0.234   2.048   6.198 -0.6303 -0.5563  0.6451
 2811SOL    HW120069   0.178   2.098   6.257  0.0585 -0.6024  1.3377
 2811SOL    HW220070   0.292   2.121   6.177  0.6206 -0.8044  3.2929
 2812SOL     OW20071   3.474   3.978   1.659  0.0915  0.2502  0.0036
 2812SOL    HW120072   3.564   3.971   1.690 -0.1614  1.5621  0.9967
 2812SOL    HW220073   3.453   3.885   1.668 -1.4286  0.3766 -2.3919
 2813SOL     OW20074   1.233   1.701   6.467  1.1375  0.3197 -0.2996
 2813SOL    HW120075   1.231   1.612   6.501 -2.6157 -0.3255 -2.1420
 2813SOL    HW220076   1.187   1.694   6.383  0.8210  1.4354 -0.2221
 2814SOL     OW20077   0.214   0.969   2.406 -0.1634  0.0290  0.8428
 2814SOL    HW120078   0.157   0.894   2.421 -0.0357 -0.3611 -0.6409
 2814SOL    HW220079   0.303   0.936   2.403  0.1848  0.9117  1.2942
 2815SOL     OW20080   0.532   1.083  12.966  0.3239 -0.1095  0.5679
 2815SOL    HW120081   0.537   1.061  12.873  0.3407  0.3104  0.4664
 2815SOL    HW220082   0.624   1.078  12.992  0.4142  1.7548  0.6181
 2816SOL     OW20083   3.180   1.568  13.306 -0.4263  0.0481  0.0984
 2816SOL    HW120084   3.207   1.645  13.257  0.2567 -1.7026 -2.2746
 2816SOL    HW220085   3.136   1.613  13.377 -2.0943  1.2783 -1.7210
 2817SOL     OW20086   0.630   1.749   8.894  0.2844 -0.1648 -0.8366
 2817SOL    HW120087   0.557   1.723   8.838 -2.0930 -0.9423  2.6318
 2817SOL    HW220088   0.701   1.695   8.858 -0.6332 -0.7560 -1.7644
 2818SOL     OW20089   2.908   1.121   9.128  0.7990 -0.0141  0.4155
 2818SOL    HW120090   2.996   1.111   9.092  0.7127  0.1139  0.1659
 2818SOL    HW220091   2.919   1.128   9.223 -0.3716  0.6376  0.5139
 2819SOL     OW20092   4.727   4.372   6.656  0.0040  0.7341 -0.3833
 2819SOL    HW120093   4.670   4.341   6.726  0.7209 -0.2823 -0.2518
 2819SOL    HW220094   0.020   4.455   6.692  0.7509  0.5296 -0.5479
 2820SOL     OW20095   0.495   0.590   8.563  0.4505 -0.4493  0.1972
 2820SOL    HW120096   0.489   0.667   8.507 -1.3300  0.1327  1.1737
 2820SOL    HW220097   0.402   0.590   8.586 -0.0513 -3.3832 -1.8882
 2821SOL     OW20098   3.873   1.175   4.356  0.3616  0.1540  0.1502
 2821SOL    HW120099   3.879   1.140   4.267  2.4775  0.7370  0.0788
 2821SOL    HW220100   3.908   1.263   4.347 -2.1421  0.8895 -2.4295
 2822SOL     OW20101   3.542   1.563   3.692  0.4663  0.3185  0.3060
 2822SOL    HW120102   3.460   1.533   3.733  1.2619 -2.7837 -0.3555
 2822SOL    HW220103   3.522   1.558   3.599 -1.0232  0.8145  0.6013
 2823SOL     OW20104   3.670   2.535   3.910 -0.4667  0.1657  0.3567
 2823SOL    HW120105   3.644   2.458   3.859  2.2343  0.4701 -1.5192
 2823SOL    HW220106   3.725   2.582   3.847  0.7629  0.0565  1.3489
 2824SOL     OW20107   2.271   0.506   7.229 -0.4153 -0.5141  0.0347
 2824SOL    HW120108   2.234   0.538   7.312 -0.0735 -1.2081  0.4555
 2824SOL    HW220109   2.316   0.428   7.260 -0.7199 -0.6828  0.0488
 2825SOL     OW20110   3.607   1.176  15.690 -0.0547 -0.4307 -0.1791
 2825SOL    HW120111   3.614   1.269  15.712  0.5189 -0.3806 -0.5868
 2825SOL    HW220112   3.668   1.137  15.754 -1.2037 -0.7667  0.7265
 2826SOL     OW20113   1.215   0.556   9.294  0.0432 -0.1026  0.6037
 2826SOL    HW120114   1.211   0.585   9.385  0.6275  0.3377  0.4885
 2826SOL    HW220115   1.138   0.499   9.296  0.8591 -1.2100  0.6605
 2827SOL     OW20116   0.622   3.737  11.202 -0.6418 -0.2290  0.2253
 2827SOL    HW120117   0.610   3.645  11.224  0.4915  0.0493  1.9850
 2827SOL    HW220118   0.559   3.745  11.130 -0.3758  0.8442  0.1061
 2828SOL     OW20119   4.336   0.539  15.582  0.0448 -1.0403 -0.3491
 2828SOL    HW120120   4.308   0.463  15.531 -2.4271 -0.3183 -0.0980
 2828SOL    HW220121   4.286   0.530  15.663  1.8464  1.7138  1.0842
 2829SOL     OW20122   2.680   1.364   2.314  0.4168  0.0829  0.0302
 2829SOL    HW120123   2.769   1.376   2.347  0.8459 -0.2215 -1.0107
 2829SOL    HW220124   2.654   1.455   2.326 -0.5835  0.0925 -2.3495
 2830SOL     OW20125   2.463   2.737   2.037 -0.4847 -0.2780  0.0574
 2830SOL    HW120126   2.411   2.686   2.100  0.7017 -2.8966 -1.0890
 2830SOL    HW220127   2.401   2.756   1.967  1.5781 -0.9282 -1.9329
 2831SOL     OW20128   2.799   2.196  14.107  0.1316 -0.2793  0.3058
 2831SOL    HW120129   2.810   2.137  14.181 -1.1183  0.1659  0.8525
 2831SOL    HW220130   2.818   2.141  14.031 -4.3970 -1.2562 -0.1720
 2832SOL     OW20131   2.857   3.236   4.163 -0.1704  0.4596 -0.3316
 2832SOL    HW120132   2.920   3.297   4.126 -0.3562 -0.3307 -1.9432
 2832SOL    HW220133   2.901   3.152   4.146  0.7150  0.4562  1.8542
 2833SOL     OW20134   1.536   3.713  13.742  1.0573 -0.1208 -0.1187
 2833SOL    HW120135   1.494   3.798  13.742  0.3433 -0.4721 -0.8638
 2833SOL    HW220136   1.569   3.689  13.655 -0.2185  0.1908 -0.6879
 2834SOL     OW20137   3.715   1.322  16.568  0.4251  0.6214  0.2096
 2834SOL    HW120138   3.676   1.263  16.633 -1.7951  2.6284  0.6927
 2834SOL    HW220139   3.754   1.397  16.612  0.1385  1.8111 -1.5676
 2835SOL     OW20140   2.565   4.322   4.435 -0.2684 -0.2624  0.1116
 2835SOL    HW120141   2.486   4.352   4.391  1.0412  1.3494 -1.1390
 2835SOL    HW220142   2.632   4.384   4.406 -0.6511 -0.7507 -1.7726
 2836SOL     OW20143   3.300   3.728   8.490  0.5659  0.6379 -0.8565
 2836SOL    HW120144   3.237   3.791   8.526  0.3452  0.3029 -0.6518
 2836SOL    HW220145   3.373   3.784   8.467  2.5509 -1.0965  1.1563
 2837SOL     OW20146   3.831   2.072   6.139 -0.2625  0.6278  0.3300
 2837SOL    HW120147   3.860   2.002   6.081  1.3014  0.6578  1.0857
 2837SOL    HW220148   3.906   2.130   6.155  0.0880 -0.0273  1.0238
 2838SOL     OW20149   0.023   1.099  17.358  0.3189  1.0948  0.4521
 2838SOL    HW120150   4.674   1.139  17.341 -0.3922  0.4803  2.5721
 2838SOL    HW220151   0.073   1.171  17.319 -0.6722 -0.2302 -3.2519
 2839SOL     OW20152   1.683   0.616   1.677  0.1164 -0.0020  0.2041
 2839SOL    HW120153   1.709   0.524   1.677  0.5328  0.1185 -0.5825
 2839SOL    HW220154   1.599   0.607   1.633 -0.2149 -1.7875  1.2048
 2840SOL     OW20155   3.339   1.976   8.702 -0.5330 -0.0609  0.1187
 2840SOL    HW120156   3.330   1.913   8.773  1.4992  0.9083  1.2509
 2840SOL    HW220157   3.250   1.987   8.668 -0.6265  0.9706  0.6994
 2841SOL     OW20158   2.724   2.098   4.125 -0.2476  0.4168 -0.1108
 2841SOL    HW120159   2.731   2.075   4.032  0.7980 -1.7925  0.5271
 2841SOL    HW220160   2.700   2.191   4.116  1.8431  1.2360  2.7659
 2842SOL     OW20161   1.079   3.541   5.867 -0.6538 -0.2276  0.0112
 2842SOL    HW120162   1.018   3.467   5.864 -0.6850 -0.1945 -0.1550
 2842SOL    HW220163   1.104   3.543   5.775 -2.4990  3.0712 -0.4277
 2843SOL     OW20164   3.968   1.985   2.286  0.5627  0.0013 -0.0478
 2843SOL    HW120165   3.878   1.979   2.254  0.5041  2.8987 -0.3724
 2843SOL    HW220166   3.954   2.064   2.337 -0.5961  0.0190 -0.3966
 2844SOL     OW20167   1.535   3.492   5.475 -0.5448 -0.7876 -0.2043
 2844SOL    HW120168   1.606   3.543   5.436  0.8027 -1.0607  1.8784
 2844SOL    HW220169   1.495   3.562   5.527  1.2590  0.0922  0.0272
 2845SOL     OW20170   0.827   2.712   3.142 -0.0749  0.1551  0.3299
 2845SOL    HW120171   0.751   2.767   3.121 -0.7792 -1.1376 -0.5192
 2845SOL    HW220172   0.883   2.749   3.073  0.3155  0.0351  0.5829
 2846SOL     OW20173   2.897   3.647   6.023  0.4178  0.4393  0.4602
 2846SOL    HW120174   2.985   3.671   5.994 -0.1701  1.9169 -0.1151
 2846SOL    HW220175   2.871   3.593   5.948  0.0216  1.1595  0.0849
 2847SOL     OW20176   2.224   1.120  13.563  0.5968  0.5397 -0.2015
 2847SOL    HW120177   2.172   1.185  13.610  3.0582  1.0371  1.8594
 2847SOL    HW220178   2.230   1.046  13.623  0.3616 -1.2585 -2.3514
 2848SOL     OW20179   2.824   0.175   8.550  0.0359 -0.3579  0.0593
 2848SOL    HW120180   2.864   0.148   8.468 -0.1537 -0.2746 -0.0600
 2848SOL    HW220181   2.751   0.114   8.554  0.9020 -1.3444  0.6635
 2849SOL     OW20182   4.608   4.468   5.288 -0.4814  0.1672  0.8025
 2849SOL    HW120183   4.616   4.562   5.279  2.8866 -0.3935 -1.6480
 2849SOL    HW220184   4.678   4.438   5.346 -0.0236 -2.0454 -0.8946
 2850SOL     OW20185   1.049   4.018   8.754  0.1037 -0.1072 -0.2091
 2850SOL    HW120186   0.972   3.967   8.731  0.5294 -1.5238  1.4600
 2850SOL    HW220187   1.044   4.099   8.703 -0.4531 -1.2092 -1.8793
 2851SOL     OW20188   4.276   1.508  11.802 -0.1664 -0.2509 -0.5783
 2851SOL    HW120189   4.183   1.504  11.825 -1.4481  2.1665 -5.3164
 2851SOL    HW220190   4.313   1.443  11.862  0.7398  1.0350  0.2405
 2852SOL     OW20191   3.048   0.999   9.897 -0.2124 -0.5502  0.5243
 2852SOL    HW120192   3.058   0.915   9.941 -0.1196 -1.4317 -1.2038
 2852SOL    HW220193   3.097   1.052   9.961  1.4233 -0.0061 -1.1674
 2853SOL     OW20194   4.634   3.277   7.501 -0.0709  0.1276  0.0150
 2853SOL    HW120195   4.680   3.214   7.557  1.0453 -1.0105 -2.2001
 2853SOL    HW220196   4.675   3.363   7.518 -0.8166  0.2474  1.2288
 2854SOL     OW20197   2.771   0.287   9.013 -0.2721 -0.0498 -0.3448
 2854SOL    HW120198   2.725   0.364   9.045  0.7043 -1.1872  3.7654
 2854SOL    HW220199   2.816   0.327   8.939  0.2886 -1.0792 -0.5602
 2855SOL     OW20200   1.584   0.996   7.427 -0.0467 -0.2088 -0.0699
 2855SOL    HW120201   1.603   1.031   7.513  0.7335 -2.6262  0.7293
 2855SOL    HW220202   1.650   0.927   7.416  2.3525  1.8064  2.0497
 2856SOL     OW20203   0.947   3.739   2.722 -0.4409  0.6402  0.1349
 2856SOL    HW120204   0.870   3.685   2.738  1.0528 -1.6913 -0.5287
 2856SOL    HW220205   0.962   3.706   2.633 -0.2783 -1.9788  1.1275
 2857SOL     OW20206   0.542   2.444  12.083 -0.0793  0.2908 -0.1044
 2857SOL    HW120207   0.612   2.496  12.122 -0.7071  0.4792  0.7662
 2857SOL    HW220208   0.512   2.401  12.163 -0.6128 -2.2860 -1.6649
 2858SOL     OW20209   2.689   2.803  11.622  0.1870  0.2018  0.3062
 2858SOL    HW120210   2.703   2.736  11.555  1.5077  1.4562 -0.6780
 2858SOL    HW220211   2.627   2.850  11.567 -0.6994 -1.1260  0.1850
 2859SOL     OW20212   3.395   0.380  12.398  0.4011  0.5289  0.6948
 2859SOL    HW120213   3.318   0.436  12.408 -0.8577 -1.3204  1.1950
 2859SOL    HW220214   3.465   0.432  12.358  1.4053 -0.5029  1.1146
 2860SOL     OW20215   4.367   0.221  11.582 -0.4926 -0.2105  1.0310
 2860SOL    HW120216   4.371   0.125  11.582  0.7821 -0.1654  0.9101
 2860SOL    HW220217   4.414   0.236  11.663  1.6500  1.2722 -0.4780
 2861SOL     OW20218   0.072   3.775  14.504 -0.0930  0.1334 -0.1211
 2861SOL    HW120219   0.093   3.683  14.521 -3.8738 -0.0255  3.7883
 2861SOL    HW220220   4.726   3.764  14.459  0.1894 -0.7193 -0.4507
 2862SOL     OW20221   4.186   4.532   4.064 -0.0103  0.4245 -0.4771
 2862SOL    HW120222   4.200   4.622   4.093  1.2824  0.1619 -0.3015
 2862SOL    HW220223   4.185   4.493   4.151  1.5506 -3.3288 -2.1574
 2863SOL     OW20224   1.527   0.100  11.480  0.4481  0.3467  0.5738
 2863SOL    HW120225   1.615   0.121  11.511  1.8335 -1.9256 -1.8544
 2863SOL    HW220226   1.483   0.080  11.563 -0.2107 -0.4981  0.0171
 2864SOL     OW20227   1.035   0.160   0.013  0.3617 -0.2413  0.5507
 2864SOL    HW120228   0.982   0.239  17.746 -0.4998 -0.6773  1.3584
 2864SOL    HW220229   1.017   0.150   0.106  1.8470 -0.1986  0.8492
 2865SOL     OW20230   2.969   1.064   3.368 -0.1434 -0.4129 -0.0464
 2865SOL    HW120231   2.883   1.073   3.407 -0.6667  0.0741 -1.2907
 2865SOL    HW220232   2.978   0.973   3.395 -1.1115 -0.1229  1.2334
 2866SOL     OW20233   0.589   3.063   7.520 -0.2022 -0.2018 -0.1960
 2866SOL    HW120234   0.591   3.120   7.597  1.4128  0.5683 -0.8142
 2866SOL    HW220235   0.681   3.064   7.494 -0.1337  1.0810  0.1035
 2867SOL     OW20236   0.234   3.930  12.764  0.2636  0.1239 -0.3987
 2867SOL    HW120237   0.206   4.013  12.727 -1.0679  0.5682  1.5823
 2867SOL    HW220238   0.251   3.971  12.849  1.5705  1.6692 -1.4289
 2868SOL     OW20239   3.579   4.648  17.645 -0.0765 -0.4178  0.5582
 2868SOL    HW120240   3.652   4.619  17.590 -1.9001 -2.6317 -0.6730
 2868SOL    HW220241   3.562   4.720  17.585  0.4833 -0.9108 -0.1898
 2869SOL     OW20242   2.638   1.546  15.207  0.7978 -0.2182 -0.1647
 2869SOL    HW120243   2.592   1.590  15.278 -1.6286  1.6553 -2.9120
 2869SOL    HW220244   2.703   1.497  15.257  0.9384 -1.5898 -1.7017
 2870SOL     OW20245   1.448   2.187   7.930  0.0725 -0.1821  0.0289
 2870SOL    HW120246   1.370   2.153   7.974 -0.2926  1.9594  1.0030
 2870SOL    HW220247   1.419   2.274   7.906  1.3867  0.3869  0.5154
 2871SOL     OW20248   0.750   1.298  12.008 -0.2123 -0.2213  0.4041
 2871SOL    HW120249   0.696   1.360  11.959  2.4315  1.9528  0.2672
 2871SOL    HW220250   0.795   1.265  11.930  0.5335  1.0138  0.3218
 2872SOL     OW20251   4.097   1.173   0.108 -0.0267 -0.0092  0.2572
 2872SOL    HW120252   4.076   1.255   0.063 -0.4533 -1.6927 -2.6746
 2872SOL    HW220253   4.147   1.128   0.040  1.2620  0.8736  0.6172
 2873SOL     OW20254   2.361   0.598  12.540 -0.0747 -0.2156 -0.1028
 2873SOL    HW120255   2.284   0.644  12.507 -1.5072 -1.2389  1.7848
 2873SOL    HW220256   2.413   0.585  12.461  1.3304 -1.4684  1.0239
 2874SOL     OW20257   1.527   4.304   1.822 -0.6496 -0.1148  0.4082
 2874SOL    HW120258   1.558   4.381   1.869 -1.7582  0.3917  0.3206
 2874SOL    HW220259   1.502   4.339   1.736  0.7088 -1.5698 -0.5633
 2875SOL     OW20260   4.077   4.077   5.677 -0.5305  0.2370  0.1543
 2875SOL    HW120261   4.032   4.090   5.760  2.3624 -1.5123  2.0009
 2875SOL    HW220262   4.076   3.981   5.671 -0.0106  0.2949 -0.9259
 2876SOL     OW20263   3.957   4.450   3.070  0.6020 -0.6207 -0.6909
 2876SOL    HW120264   3.887   4.431   3.008 -0.7616 -3.7646  1.8143
 2876SOL    HW220265   3.905   4.467   3.149 -1.5281 -0.2997 -2.1762
 2877SOL     OW20266   0.902   2.521   8.436  0.2815 -0.3743 -0.1675
 2877SOL    HW120267   0.965   2.462   8.396 -0.0454  0.1058 -1.3906
 2877SOL    HW220268   0.942   2.608   8.439 -0.5794 -0.0021  0.8563
 2878SOL     OW20269   3.526   2.225  15.566  0.6818  0.0434  0.7101
 2878SOL    HW120270   3.465   2.171  15.514 -0.3768  1.3148  0.6377
 2878SOL    HW220271   3.461   2.248  15.633  1.9639  3.0218  0.8976
 2879SOL     OW20272   2.821   4.617  17.428  0.0626 -0.0252 -0.1444
 2879SOL    HW120273   2.892   4.667  17.469 -0.1964  0.6059 -0.4590
 2879SOL    HW220274   2.763   4.685  17.393 -0.0917 -0.4482 -0.7053
 2880SOL     OW20275   0.348   3.408   7.332 -0.6900  0.1702 -0.1188
 2880SOL    HW120276   0.423   3.455   7.295  1.4035 -2.5168  0.7363
 2880SOL    HW220277   0.280   3.473   7.311 -3.3823 -2.3541  0.7878
 2881SOL     OW20278   1.272   1.953   4.808 -0.3960 -0.6049 -0.3915
 2881SOL    HW120279   1.200   2.012   4.787 -1.2126 -1.5071 -0.1567
 2881SOL    HW220280   1.347   2.006   4.781 -0.6481 -0.0352  0.0291
 2882SOL     OW20281   2.494   1.170   9.670  0.5877  0.6132 -0.0477
 2882SOL    HW120282   2.445   1.223   9.608  0.3172 -0.9726 -1.1839
 2882SOL    HW220283   2.476   1.226   9.745 -0.5616  2.1089 -1.4549
 2883SOL     OW20284   1.032   1.804  16.970  0.1925  0.2418  0.4854
 2883SOL    HW120285   0.951   1.756  16.991  2.2905 -2.6187  1.9983
 2883SOL    HW220286   1.009   1.845  16.887  0.6610 -1.5572 -0.5345
 2884SOL     OW20287   2.456   3.871   6.842 -0.2464  0.2102  0.1901
 2884SOL    HW120288   2.404   3.926   6.900  0.5554 -0.2903  1.4024
 2884SOL    HW220289   2.395   3.806   6.808 -0.2016  1.5208 -2.3509
 2885SOL     OW20290   3.376   2.675   3.365  0.6607 -0.0886 -0.1973
 2885SOL    HW120291   3.296   2.686   3.416  2.4307 -0.9270  2.8167
 2885SOL    HW220292   3.408   2.765   3.367 -1.2711  0.6238 -1.9691
 2886SOL     OW20293   1.979   3.893  14.781  0.0566  0.0106 -0.0383
 2886SOL    HW120294   1.911   3.903  14.847 -2.3503  0.9816 -2.6309
 2886SOL    HW220295   2.031   3.974  14.775 -0.9226  0.5060 -1.8905
 2887SOL     OW20296   3.490   4.336  12.489 -0.0731 -0.3692 -0.0537
 2887SOL    HW120297   3.457   4.322  12.400  0.8361 -1.9085 -0.1504
 2887SOL    HW220298   3.523   4.248  12.506 -2.3380 -2.3357 -5.8910
 2888SOL     OW20299   3.470   1.510   6.059  0.2972  0.9246  0.0909
 2888SOL    HW120300   3.537   1.497   6.126 -1.0178  0.2198  1.2682
 2888SOL    HW220301   3.534   1.530   5.990  2.3467  0.5577  1.8835
 2889SOL     OW20302   4.337   4.706   5.188  0.6286  0.7935  0.8896
 2889SOL    HW120303   4.423   4.671   5.213  0.5415 -0.5177 -0.6369
 2889SOL    HW220304   4.337   0.062   5.210 -0.7157  1.0816 -0.3656
 2890SOL     OW20305   0.662   4.259   1.485  0.2504  0.1011 -0.6752
 2890SOL    HW120306   0.568   4.268   1.467  0.5483  1.8538 -1.3548
 2890SOL    HW220307   0.684   4.298   1.569 -1.0647  0.1579 -0.3507
 2891SOL     OW20308   4.307   2.868  13.196 -0.5069 -0.6083  0.2516
 2891SOL    HW120309   4.246   2.942  13.197 -0.7739 -0.8348  0.7897
 2891SOL    HW220310   4.389   2.918  13.188 -0.7410  0.1197  2.1946
 2892SOL     OW20311   4.166   3.258  14.204  0.1274  0.7492  0.1351
 2892SOL    HW120312   4.090   3.314  14.191  0.4468  0.9701 -0.7798
 2892SOL    HW220313   4.164   3.205  14.124  1.9205  0.0407  0.5576
 2893SOL     OW20314   1.491   1.746   9.817  0.2355  0.3228 -0.0593
 2893SOL    HW120315   1.483   1.840   9.832  0.1205  0.5247 -1.3751
 2893SOL    HW220316   1.585   1.726   9.821  0.6212  2.0268 -0.7927
 2894SOL     OW20317   2.584   1.584   6.802 -0.0298  0.4652  0.0687
 2894SOL    HW120318   2.510   1.592   6.741 -0.0023  0.9358  0.0948
 2894SOL    HW220319   2.654   1.585   6.737  1.2891 -2.0703  1.4642
 2895SOL     OW20320   1.570   0.229   3.645 -0.7391 -0.0628 -0.7811
 2895SOL    HW120321   1.611   0.256   3.727 -1.2275 -1.7348  0.0077
 2895SOL    HW220322   1.598   0.137   3.646 -0.5846 -0.0228 -1.2159
 2896SOL     OW20323   0.395   3.645  15.134 -0.2508 -0.4218 -0.1871
 2896SOL    HW120324   0.414   3.568  15.081 -0.0019  0.4205 -1.3316
 2896SOL    HW220325   0.399   3.713  15.066 -0.5612 -1.7322 -1.5141
 2897SOL     OW20326   3.451   4.408   1.427  0.1688  0.0042  0.5154
 2897SOL    HW120327   3.410   4.465   1.492 -0.3796  0.3367 -0.1280
 2897SOL    HW220328   3.377   4.348   1.417  3.2047 -3.1284 -2.8543
 2898SOL     OW20329   1.306   4.645   1.656 -0.0514 -0.1693 -0.3640
 2898SOL    HW120330   1.342   4.644   1.745 -2.0343 -1.8300  0.4235
 2898SOL    HW220331   1.231   4.703   1.669  0.6826  1.3464 -2.8838
 2899SOL     OW20332   1.940   3.280   2.631 -0.2546  0.1896 -0.2319
 2899SOL    HW120333   2.020   3.231   2.613 -2.4695 -3.9504  1.1218
 2899SOL    HW220334   1.871   3.227   2.590  0.4074 -0.9443  0.1263
 2900SOL     OW20335   1.176   2.878   3.168 -0.2216  1.1204 -0.4728
 2900SOL    HW120336   1.104   2.903   3.110 -1.8521  0.3534  1.2064
 2900SOL    HW220337   1.208   2.962   3.200 -1.0896  0.5683  1.8088
 2901SOL     OW20338   1.472   1.031   6.834 -0.3045 -0.6859  0.1821
 2901SOL    HW120339   1.542   1.021   6.770  1.3988  0.3325  1.8554
 2901SOL    HW220340   1.512   1.013   6.919 -0.0005  1.6657  0.5510
 2902SOL     OW20341   3.465   1.536   2.663 -0.0653 -0.7689 -0.0402
 2902SOL    HW120342   3.376   1.530   2.631 -0.0387  1.6167 -0.5858
 2902SOL    HW220343   3.448   1.512   2.754  1.5077  0.0746  0.4813
 2903SOL     OW20344   2.225   4.131  15.522  0.1103 -0.0181 -0.6816
 2903SOL    HW120345   2.189   4.187  15.453  0.1088  2.8435  1.6205
 2903SOL    HW220346   2.313   4.167  15.535 -0.4251  1.1975 -0.3260
 2904SOL     OW20347   0.170   1.513   4.315  0.2083  0.2429 -0.1849
 2904SOL    HW120348   0.148   1.544   4.403 -0.7158  0.6459 -0.5651
 2904SOL    HW220349   0.117   1.435   4.301  1.2527 -0.5111  0.0080
 2905SOL     OW20350   1.744   2.630   7.941  0.0074  0.7144  0.0390
 2905SOL    HW120351   1.800   2.691   7.989 -2.1754  0.6802  2.6046
 2905SOL    HW220352   1.681   2.600   8.006 -0.6986  2.4957  0.1709
 2906SOL     OW20353   4.336   0.134   6.876 -0.9103 -0.0714 -0.1673
 2906SOL    HW120354   4.299   0.126   6.964  2.9886  1.2332  1.5910
 2906SOL    HW220355   4.378   0.219   6.886  0.7317 -0.8316 -0.7404
 2907SOL     OW20356   3.368   0.087   3.607 -0.1361 -0.0308 -0.0058
 2907SOL    HW120357   3.398   0.115   3.694 -0.9608 -2.6012  1.1190
 2907SOL    HW220358   3.395   0.166   3.560 -1.4340 -0.5618 -1.6099
 2908SOL     OW20359   0.454   4.339   5.149 -0.1995 -0.2082  0.3146
 2908SOL    HW120360   0.506   4.409   5.109  0.1536 -1.7040 -1.8253
 2908SOL    HW220361   0.499   4.260   5.120 -0.5273 -0.9846  1.8728
 2909SOL     OW20362   2.715   0.531   8.074 -0.6091  0.4532  0.0625
 2909SOL    HW120363   2.763   0.476   8.136  2.1780  0.6446 -1.9178
 2909SOL    HW220364   2.661   0.591   8.125 -0.4529  0.9658 -0.3804
 2910SOL     OW20365   0.268   1.829   4.063  0.1641  0.3364 -0.1612
 2910SOL    HW120366   0.313   1.888   4.123  2.2528  1.2278 -2.5676
 2910SOL    HW220367   0.240   1.898   4.003  0.8091  1.1513  0.4716
 2911SOL     OW20368   0.352   2.458   3.415 -0.4132 -0.0401 -0.1777
 2911SOL    HW120369   0.293   2.429   3.484  0.7824 -1.0873  0.4058
 2911SOL    HW220370   0.442   2.463   3.449 -0.5136  0.8371 -0.0385
 2912SOL     OW20371   3.154   1.608   2.384  0.0236 -0.1657  0.1601
 2912SOL    HW120372   3.169   1.533   2.442 -1.6222 -0.8120 -0.2432
 2912SOL    HW220373   3.060   1.621   2.383  0.0396 -0.3634 -4.3414
 2913SOL     OW20374   3.701   1.234   9.884  0.0580  0.7270 -0.2924
 2913SOL    HW120375   3.707   1.209   9.976  2.7755  1.8209 -0.2032
 2913SOL    HW220376   3.622   1.289   9.881 -0.3213  0.2155  0.2719
 2914SOL     OW20377   0.538   2.976  14.227 -0.1624 -0.3957  0.3017
 2914SOL    HW120378   0.573   3.062  14.203  2.0720 -1.3999 -0.0257
 2914SOL    HW220379   0.459   3.002  14.275 -0.9088  1.0211 -1.6838
 2915SOL     OW20380   0.216   1.290   7.422 -0.0946 -0.1600  0.4903
 2915SOL    HW120381   0.222   1.333   7.337 -0.9300  0.1454  0.5877
 2915SOL    HW220382   0.306   1.298   7.454  0.7585 -0.4602 -1.8085
 2916SOL     OW20383   4.053   0.884  10.855  0.0249  0.2365  0.3263
 2916SOL    HW120384   4.052   0.841  10.769 -0.0131 -0.4573  0.6729
 2916SOL    HW220385   4.000   0.962  10.839  0.4516  0.3004 -0.7750
 2917SOL     OW20386   0.988   1.393   0.882 -0.1728 -0.1352  0.5517
 2917SOL    HW120387   1.015   1.364   0.794 -1.5405 -2.6113  0.9667
 2917SOL    HW220388   0.934   1.471   0.871 -2.2587 -1.7977 -1.2064
 2918SOL     OW20389   4.549   2.630   7.432 -0.4902  0.4921 -0.7047
 2918SOL    HW120390   4.631   2.651   7.478  1.7010 -3.2072 -2.8575
 2918SOL    HW220391   4.501   2.593   7.506 -0.7757  2.2278 -0.0325
 2919SOL     OW20392   2.841   1.277   0.623  0.1642 -0.2845 -0.5321
 2919SOL    HW120393   2.754   1.294   0.660  1.4189  1.8873  1.4259
 2919SOL    HW220394   2.821   1.226   0.545 -0.4663 -1.0584  0.1261
 2920SOL     OW20395   0.603   3.918   7.699 -0.1774 -0.1577 -0.2967
 2920SOL    HW120396   0.696   3.920   7.676 -0.6644  0.7371 -2.2161
 2920SOL    HW220397   0.583   4.012   7.693 -1.1892 -0.2378  2.2602
 2921SOL     OW20398   2.750   4.686   6.561  0.4959 -0.1472  0.2666
 2921SOL    HW120399   2.776   0.039   6.580  2.4286 -0.7451  0.4295
 2921SOL    HW220400   2.682   4.697   6.494 -0.3780 -0.6351  1.0761
 2922SOL     OW20401   1.360   2.945   6.166 -0.3005 -0.2824  0.0829
 2922SOL    HW120402   1.352   2.945   6.262 -1.7527  0.3730 -0.0343
 2922SOL    HW220403   1.421   2.873   6.147  0.2778  0.5089 -1.0479
 2923SOL     OW20404   4.223   2.755  15.381 -0.2046  0.4217  0.5748
 2923SOL    HW120405   4.195   2.739  15.471  0.9648 -1.5967  0.5723
 2923SOL    HW220406   4.210   2.849  15.366 -1.7069  0.5843  2.8974
 2924SOL     OW20407   0.583   2.011   9.010 -0.1949  0.0865  1.1262
 2924SOL    HW120408   0.585   2.008   9.105  0.2672  2.6053  1.1843
 2924SOL    HW220409   0.637   1.935   8.987 -1.7552 -0.2674 -1.4070
 2925SOL     OW20410   1.349   1.842   6.965  0.1606 -0.2758 -0.5058
 2925SOL    HW120411   1.413   1.823   6.896  0.6879  2.5020 -0.7819
 2925SOL    HW220412   1.277   1.830   6.904 -0.0835 -0.1698 -0.2361
 2926SOL     OW20413   4.339   0.838  13.156 -0.5952 -0.6029 -0.4187
 2926SOL    HW120414   4.247   0.859  13.140 -1.1330 -0.5319  2.7691
 2926SOL    HW220415   4.355   0.808  13.066  0.5478 -3.7993  0.8555
 2927SOL     OW20416   4.210   1.607   0.596  0.0076  0.0490  0.2537
 2927SOL    HW120417   4.223   1.609   0.502 -1.4915  1.3078  0.0820
 2927SOL    HW220418   4.190   1.514   0.605  1.0864 -0.1918  0.2165
 2928SOL     OW20419   3.189   2.623   8.236 -0.6638 -0.1113 -0.6492
 2928SOL    HW120420   3.192   2.680   8.313 -2.4249  0.4057 -0.9699
 2928SOL    HW220421   3.110   2.569   8.235 -1.3586  0.9120 -0.6652
 2929SOL     OW20422   3.422   2.257   6.385  0.4428 -0.4143  0.4734
 2929SOL    HW120423   3.358   2.238   6.454 -1.2613  3.1885 -0.1299
 2929SOL    HW220424   3.384   2.334   6.343  1.4440  0.2836  0.8531
 2930SOL     OW20425   2.043   4.294   5.238  0.2661 -0.4677 -0.1356
 2930SOL    HW120426   2.086   4.301   5.323 -0.0301 -1.8365  0.1250
 2930SOL    HW220427   2.064   4.373   5.187 -1.7518 -0.3946 -0.8670
 2931SOL     OW20428   1.901   4.578   4.465 -0.2539 -0.0474  0.0305
 2931SOL    HW120429   1.805   4.578   4.469 -0.3822 -1.4936 -2.7652
 2931SOL    HW220430   1.915   4.627   4.384  2.4971 -1.1160 -0.1220
 2932SOL     OW20431   0.683   1.487   5.948 -0.3151 -0.1016 -0.3431
 2932SOL    HW120432   0.643   1.512   6.032  0.4900 -1.1489  0.3485
 2932SOL    HW220433   0.735   1.566   5.929 -1.5766  1.0272  0.8737
 2933SOL     OW20434   3.403   3.715   8.982 -0.2381  0.5327 -0.5355
 2933SOL    HW120435   3.319   3.731   9.025  0.6554  0.6777  1.1343
 2933SOL    HW220436   3.457   3.686   9.055 -2.7589  1.1983  1.5983
 2934SOL     OW20437   4.279   4.702   7.785 -0.0300  0.0607  0.1734
 2934SOL    HW120438   4.219   0.036   7.766 -0.5219  0.2686  2.5042
 2934SOL    HW220439   4.345   0.009   7.839  2.3164  0.2257 -2.8142
 2935SOL     OW20440   1.901   0.017   6.680 -0.5945  0.0555 -0.5744
 2935SOL    HW120441   1.953   4.720   6.608 -0.2585 -0.3656 -0.1335
 2935SOL    HW220442   1.844   4.679   6.699  0.2939 -0.4640  0.0383
 2936SOL     OW20443   1.172   4.701   4.715  0.7405  0.3554  0.2538
 2936SOL    HW120444   1.158   4.668   4.626 -0.8877  2.9545 -0.4509
 2936SOL    HW220445   1.188   0.056   4.697 -0.2043  0.5318  0.2956
 2937SOL     OW20446   2.741   1.581   7.200 -0.0485  0.7692  0.1333
 2937SOL    HW120447   2.688   1.558   7.124 -1.3122  2.0857  0.6269
 2937SOL    HW220448   2.677   1.632   7.248 -1.1516 -0.0106 -0.5161
 2938SOL     OW20449   4.683   1.741   4.507  0.1079  0.0448 -0.1657
 2938SOL    HW120450   4.612   1.679   4.521  0.0533  0.4887  1.5758
 2938SOL    HW220451   0.002   1.741   4.585  0.3249  2.8425 -0.3087
 2939SOL     OW20452   2.182   0.649   8.158  0.0587 -0.3855  0.0591
 2939SOL    HW120453   2.218   0.580   8.104 -0.5831  0.7842 -1.8669
 2939SOL    HW220454   2.178   0.608   8.244 -0.0155 -1.1881 -0.3349
 2940SOL     OW20455   0.593   4.660  17.053  0.5988 -0.3336  0.4481
 2940SOL    HW120456   0.622   4.636  16.965  0.9029 -0.0336  0.4715
 2940SOL    HW220457   0.525   4.726  17.038  1.1166 -0.3471 -1.9735
 2941SOL     OW20458   4.388   4.095  14.586  0.0843  0.2516  0.1265
 2941SOL    HW120459   4.418   4.074  14.498 -3.0078 -2.1263 -0.3306
 2941SOL    HW220460   4.458   4.150  14.623 -1.7977  1.3233  2.1261
 2942SOL     OW20461   1.834   3.718   5.963 -0.1783  0.1240  0.1701
 2942SOL    HW120462   1.810   3.786   5.899 -2.0044  0.0075  0.7517
 2942SOL    HW220463   1.923   3.699   5.934  0.3239  0.1764  1.7260
 2943SOL     OW20464   1.953   0.244   3.632  0.6586 -0.1435  0.2122
 2943SOL    HW120465   1.875   0.296   3.654 -0.2356 -1.5448  0.3084
 2943SOL    HW220466   2.004   0.273   3.708  0.6608 -1.0003  0.5266
 2944SOL     OW20467   3.464   4.548  10.633  0.2757  0.1298  0.4527
 2944SOL    HW120468   3.486   4.468  10.584  1.9553 -0.0834  1.5483
 2944SOL    HW220469   3.459   4.516  10.723 -0.8140  1.8051  0.9812
 2945SOL     OW20470   2.965   3.742   7.154  0.5779 -0.0041 -0.3297
 2945SOL    HW120471   3.054   3.778   7.151  1.2994 -1.6035  2.8533
 2945SOL    HW220472   2.992   3.651   7.140 -0.2357 -0.4847  1.3172
 2946SOL     OW20473   4.373   1.503  13.715 -0.3978  0.1827  0.4328
 2946SOL    HW120474   4.280   1.520  13.706  0.4770  3.2290 -2.8602
 2946SOL    HW220475   4.402   1.575  13.659 -0.4267 -0.4435 -0.4039
 2947SOL     OW20476   2.452   0.736   4.113  0.4059  0.5818 -0.1362
 2947SOL    HW120477   2.429   0.709   4.025 -1.5345  1.0986  0.2196
 2947SOL    HW220478   2.410   0.672   4.171  1.5800  0.1713  0.2729
 2948SOL     OW20479   1.237   4.044   0.719 -0.4003 -0.6344  0.3046
 2948SOL    HW120480   1.167   4.076   0.662  0.6380  1.7888  0.3554
 2948SOL    HW220481   1.316   4.071   0.671  0.0658 -0.0505  1.4211
 2949SOL     OW20482   2.376   1.227   7.670 -0.4525 -0.2183 -0.1063
 2949SOL    HW120483   2.374   1.292   7.740 -0.5818 -1.1078  0.7099
 2949SOL    HW220484   2.381   1.144   7.717 -2.9690 -0.9206 -1.0936
 2950SOL     OW20485   1.810   1.978   1.274  0.7411  0.1818 -0.1655
 2950SOL    HW120486   1.902   1.981   1.249  0.9804  0.1540  0.6953
 2950SOL    HW220487   1.764   1.990   1.191  1.6808  0.0614 -0.7003
 2951SOL     OW20488   3.692   2.768  13.384  0.0678 -0.3158  0.3425
 2951SOL    HW120489   3.621   2.804  13.330 -1.0790 -2.5068  0.3871
 2951SOL    HW220490   3.763   2.763  13.321  0.2824 -0.8440  0.6339
 2952SOL     OW20491   3.958   4.089   4.127  0.7034  0.7144 -0.6040
 2952SOL    HW120492   4.026   4.131   4.074  1.8507 -0.6977 -0.2395
 2952SOL    HW220493   3.964   3.996   4.104  0.1383  0.3702  0.6556
 2953SOL     OW20494   3.203   2.384   0.915 -0.3098  0.1488  0.3469
 2953SOL    HW120495   3.194   2.289   0.926 -1.1622  0.2547  0.5648
 2953SOL    HW220496   3.280   2.408   0.967  1.0745  2.6043 -2.9124
 2954SOL     OW20497   2.286   2.346   6.653  0.0350  0.2582 -0.0373
 2954SOL    HW120498   2.238   2.414   6.605 -1.7300 -1.4743 -0.7477
 2954SOL    HW220499   2.328   2.294   6.586 -0.3512  0.3021 -0.3164
 2955SOL     OW20500   0.102   0.915   9.080  0.7502  0.4089 -0.1588
 2955SOL    HW120501   0.095   1.005   9.111  0.3432  0.2654  0.1762
 2955SOL    HW220502   0.117   0.931   8.987 -1.4148 -1.4886 -0.8333
 2956SOL     OW20503   3.993   2.953   9.278 -0.4488  0.0799 -0.1842
 2956SOL    HW120504   4.081   2.917   9.275 -0.4516  0.1121 -0.8063
 2956SOL    HW220505   3.977   2.987   9.366 -1.5152  2.6905 -1.4006
 2957SOL     OW20506   4.085   4.338   9.675 -0.0985 -0.2991  0.1150
 2957SOL    HW120507   4.027   4.263   9.660  1.8743 -2.1029  1.5120
 2957SOL    HW220508   4.098   4.314   9.766  1.6736  1.2376  0.2592
 2958SOL     OW20509   4.673   0.348   6.751 -0.0141  0.3840  0.2407
 2958SOL    HW120510   0.029   0.333   6.763  0.6690  2.5366 -2.1431
 2958SOL    HW220511   4.638   0.293   6.821 -0.0351  0.3797  0.2270
 2959SOL     OW20512   0.373   4.271   8.281  0.6055  0.5597  0.4016
 2959SOL    HW120513   0.281   4.248   8.273  0.5449  0.8895  0.1483
 2959SOL    HW220514   0.363   4.341   8.345 -0.5170 -0.3236  1.1825
 2960SOL     OW20515   3.348   1.046   7.787  0.3274  0.1996  0.1819
 2960SOL    HW120516   3.375   1.053   7.695 -2.5844  0.9692 -0.6406
 2960SOL    HW220517   3.408   0.976   7.812  0.7873  0.3956 -0.3636
 2961SOL     OW20518   1.431   1.822   5.179 -0.1760 -0.2017 -0.0484
 2961SOL    HW120519   1.421   1.785   5.092 -1.1430  2.2517 -0.9869
 2961SOL    HW220520   1.522   1.795   5.195 -0.3765 -0.7852  0.1160
 2962SOL     OW20521   2.996   2.548  14.380  0.4258 -0.1241 -0.3090
 2962SOL    HW120522   3.029   2.607  14.312  0.5052  0.1518 -0.0331
 2962SOL    HW220523   2.936   2.506  14.320  1.4479  0.6454 -1.8765
 2963SOL     OW20524   4.311   1.635   9.183  0.0935 -0.2866 -0.0120
 2963SOL    HW120525   4.397   1.667   9.157 -0.9316  0.2377 -2.8232
 2963SOL    HW220526   4.337   1.543   9.187  0.7443 -0.1318 -0.7500
 2964SOL     OW20527   0.591   0.562  12.432  0.1944  0.3250  0.2705
 2964SOL    HW120528   0.533   0.574  12.357 -0.3131  0.0928  0.6238
 2964SOL    HW220529   0.644   0.484  12.418  0.9510  0.3421  3.0667
 2965SOL     OW20530   0.447   2.113   5.302  0.0730  0.0145 -0.5688
 2965SOL    HW120531   0.534   2.154   5.296  0.1460  0.2982  2.1867
 2965SOL    HW220532   0.400   2.188   5.267  0.2550  0.1347 -0.5578
 2966SOL     OW20533   4.737   3.795  17.065 -0.5927  0.0269  0.2064
 2966SOL    HW120534   4.666   3.750  17.020 -0.5029  1.6102 -1.5276
 2966SOL    HW220535   4.690   3.860  17.118 -0.4078 -1.0783  1.6954
 2967SOL     OW20536   4.291   2.120   2.538  0.2909  0.1761 -0.5224
 2967SOL    HW120537   4.352   2.175   2.587  0.0545  1.3661 -1.5317
 2967SOL    HW220538   4.317   2.148   2.450  0.6546  0.3230 -0.3685
 2968SOL     OW20539   2.373   0.608   3.314  0.6129 -0.0629  0.1008
 2968SOL    HW120540   2.277   0.609   3.314  0.5923 -3.0116 -4.6297
 2968SOL    HW220541   2.389   0.546   3.244 -2.4949  1.4906 -1.9936
 2969SOL     OW20542   3.343   0.786   3.639 -0.2875  0.2638  0.3394
 2969SOL    HW120543   3.341   0.844   3.563  0.1503  1.0194  0.9110
 2969SOL    HW220544   3.314   0.706   3.594  2.0048  0.1580 -0.9492
 2970SOL     OW20545   1.257   0.958  15.790  0.1360 -0.0049  0.7139
 2970SOL    HW120546   1.218   0.922  15.870  0.6089 -0.1026  0.9028
 2970SOL    HW220547   1.192   0.921  15.730  1.7560 -0.0112 -1.0252
 2971SOL     OW20548   4.376   2.248   9.308 -0.1080 -0.2100 -1.0963
 2971SOL    HW120549   4.394   2.335   9.344 -1.5099 -0.3882  0.0370
 2971SOL    HW220550   4.281   2.262   9.310 -0.2614 -1.2758 -1.0573
 2972SOL     OW20551   4.442   2.678   3.754 -0.5760 -0.2422 -0.1245
 2972SOL    HW120552   4.444   2.723   3.669 -2.9665 -1.2870 -0.7364
 2972SOL    HW220553   4.528   2.707   3.785 -1.3861  2.0593 -0.0081
 2973SOL     OW20554   2.637   2.632   1.010 -0.2773  0.0945 -0.0138
 2973SOL    HW120555   2.639   2.724   0.984 -1.5934 -0.0193 -0.4958
 2973SOL    HW220556   2.617   2.638   1.103  0.2239  2.5896 -0.0631
 2974SOL     OW20557   1.620   4.246   9.483 -0.4757 -0.5371  0.1389
 2974SOL    HW120558   1.697   4.301   9.466 -2.7952  2.4955 -0.6694
 2974SOL    HW220559   1.588   4.256   9.393  1.4837 -1.7177 -0.7073
 2975SOL     OW20560   0.457   3.933   4.429  0.2465  0.0119  0.3100
 2975SOL    HW120561   0.459   4.026   4.404  0.7713 -0.5147 -1.5565
 2975SOL    HW220562   0.500   3.889   4.357  0.7926  2.1054 -0.6502
 2976SOL     OW20563   1.259   1.689   2.236 -0.2330  0.7085 -0.2083
 2976SOL    HW120564   1.342   1.705   2.191  0.0221  0.6464  0.2334
 2976SOL    HW220565   1.205   1.755   2.195  0.5678  0.6575 -1.3359
 2977SOL     OW20566   4.074   3.411   5.452 -0.1663 -0.5899 -0.0888
 2977SOL    HW120567   4.029   3.334   5.417  0.3193 -1.7571  1.8879
 2977SOL    HW220568   3.998   3.465   5.475  0.7594  0.6398  0.1306
 2978SOL     OW20569   1.853   1.887   3.506 -0.0626 -0.0530  0.2648
 2978SOL    HW120570   1.830   1.920   3.419 -3.4895 -1.1482  0.7322
 2978SOL    HW220571   1.904   1.964   3.530  0.6028 -0.0349 -1.2517
 2979SOL     OW20572   1.137   2.491   6.974 -0.0707 -0.1061 -0.4473
 2979SOL    HW120573   1.135   2.527   6.885  0.6949 -1.0877 -0.8612
 2979SOL    HW220574   1.073   2.421   6.960  2.0422 -2.0510 -0.3786
 2980SOL     OW20575   0.959   4.142   5.793  0.1160  0.6446  0.5563
 2980SOL    HW120576   0.957   4.127   5.698 -0.0020  0.9707  0.5073
 2980SOL    HW220577   0.937   4.060   5.838  2.1447 -1.0071 -1.4759
 2981SOL     OW20578   1.036   4.169  13.836 -0.2409 -0.0571 -0.3188
 2981SOL    HW120579   1.039   4.075  13.856  1.1778 -0.1088 -0.7455
 2981SOL    HW220580   1.086   4.170  13.754 -2.7253  0.7024 -1.8361
 2982SOL     OW20581   3.403   3.983  10.635 -0.8711 -0.2752  0.1617
 2982SOL    HW120582   3.486   3.946  10.607 -1.5346 -0.7003 -1.2399
 2982SOL    HW220583   3.395   3.956  10.726  2.0773 -0.3348  0.3904
 2983SOL     OW20584   4.161   0.987   8.430 -0.6589  0.0544  0.0872
 2983SOL    HW120585   4.160   0.900   8.470 -2.1011  0.3374  0.6802
 2983SOL    HW220586   4.186   1.035   8.508  0.2997  0.3590 -0.4094
 2984SOL     OW20587   1.392   2.888   2.390 -0.1653  0.0727 -0.4744
 2984SOL    HW120588   1.329   2.816   2.400 -0.2054  0.0383 -0.9674
 2984SOL    HW220589   1.387   2.923   2.478  1.0459  1.0865 -0.8125
 2985SOL     OW20590   2.324   1.123   8.512  0.1242 -0.0246 -0.0139
 2985SOL    HW120591   2.260   1.165   8.569 -0.1029  2.8489 -2.3784
 2985SOL    HW220592   2.372   1.069   8.575  0.8110 -0.0285 -0.5363
 2986SOL     OW20593   2.706   0.008  10.301  0.0967  0.6855 -0.5187
 2986SOL    HW120594   2.660   0.061  10.235  2.2020  0.6508 -2.0259
 2986SOL    HW220595   2.791   0.052  10.295  0.4320  0.1208  0.0809
 2987SOL     OW20596   1.280   0.264   7.751  0.0836 -0.0850 -0.0875
 2987SOL    HW120597   1.214   0.199   7.726  0.7663  0.4214 -3.1556
 2987SOL    HW220598   1.285   0.307   7.666 -2.1583  2.3234  0.9862
 2988SOL     OW20599   3.112   2.849   8.096  0.5949 -0.3088 -0.4392
 2988SOL    HW120600   3.100   2.808   8.010  2.2691 -3.0455  0.6304
 2988SOL    HW220601   3.148   2.777   8.148 -1.1854 -0.8956 -0.0233
 2989SOL     OW20602   1.506   3.979  15.633  0.1004 -0.4523 -0.2493
 2989SOL    HW120603   1.560   3.920  15.580  0.3215 -1.3055  0.9198
 2989SOL    HW220604   1.444   4.010  15.567 -2.5229 -1.5507  1.7035
 2990SOL     OW20605   4.723   1.577   6.660  0.2361  0.1475 -0.0463
 2990SOL    HW120606   4.676   1.502   6.624  0.0703  0.5610 -0.6977
 2990SOL    HW220607   4.682   1.649   6.613  1.0473  0.8323  0.2957
 2991SOL     OW20608   4.131   3.142  10.393 -0.1116 -0.3128 -0.4562
 2991SOL    HW120609   4.059   3.090  10.429  0.5447  0.0944  1.4502
 2991SOL    HW220610   4.140   3.224  10.443  1.3295 -0.8965  0.2371
 2992SOL     OW20611   3.916   3.794   6.505  0.1661 -0.2335  0.1539
 2992SOL    HW120612   3.879   3.716   6.464 -0.7026 -0.3981  1.2283
 2992SOL    HW220613   4.001   3.797   6.461  0.7322  0.5032  1.2855
 2993SOL     OW20614   2.914   2.956   8.741  0.0212  0.2014 -0.6351
 2993SOL    HW120615   3.001   2.926   8.769  0.2854  0.7465 -0.8801
 2993SOL    HW220616   2.893   3.002   8.822 -0.3678 -0.1728 -0.5215
 2994SOL     OW20617   0.011   3.563  17.707  0.6072 -1.0665 -0.5433
 2994SOL    HW120618   0.001   3.499   0.030  2.2029 -1.6306 -0.8425
 2994SOL    HW220619   4.657   3.592  17.708  0.9588  0.1290 -1.7115
 2995SOL     OW20620   1.391   0.651   1.756  0.2055  0.2493 -0.1316
 2995SOL    HW120621   1.382   0.620   1.666  1.0351  1.5901 -0.6778
 2995SOL    HW220622   1.390   0.567   1.802 -0.1177  0.6193  0.5421
 2996SOL     OW20623   2.800   2.852   2.340 -0.5445  0.5729  0.2292
 2996SOL    HW120624   2.785   2.781   2.277  1.0748  0.7202 -0.3127
 2996SOL    HW220625   2.745   2.925   2.310 -1.5986 -0.1067  0.5056
 2997SOL     OW20626   4.717   4.127   2.261  0.1413  0.1839  0.0626
 2997SOL    HW120627   0.052   4.190   2.269 -1.7286  2.2330  0.6849
 2997SOL    HW220628   4.641   4.176   2.229 -1.7041 -2.6454  0.1564
 2998SOL     OW20629   2.154   2.198   7.035 -0.2116 -0.4173  0.1010
 2998SOL    HW120630   2.160   2.125   7.097  0.7713  0.0751  0.5895
 2998SOL    HW220631   2.086   2.248   7.080 -1.5683 -1.4378 -0.8387
 2999SOL     OW20632   4.661   2.330   6.428 -0.2273  0.6377  0.1214
 2999SOL    HW120633   4.660   2.246   6.381  0.1850  0.2258  0.8577
 2999SOL    HW220634   4.584   2.378   6.396  0.3436  0.3910 -1.6551
 3000SOL     OW20635   1.773   2.141  16.527  0.2257  0.2892  0.5363
 3000SOL    HW120636   1.811   2.186  16.451 -1.1113  0.0931 -0.2512
 3000SOL    HW220637   1.812   2.203  16.589 -1.1469  0.2813  1.4167
 3001SOL     OW20638   4.306   2.366  14.160 -0.3478 -0.4342  0.2206
 3001SOL    HW120639   4.223   2.385  14.204  0.2345 -0.2238  1.2443
 3001SOL    HW220640   4.280   2.342  14.072 -2.7012 -0.3848  0.9040
 3002SOL     OW20641   2.099   4.415   7.134  0.0157  0.2469 -0.3709
 3002SOL    HW120642   2.121   4.349   7.068 -0.0854 -1.7891  1.6449
 3002SOL    HW220643   2.068   4.362   7.208  1.7745 -0.1991  0.0378
 3003SOL     OW20644   2.332   2.209  14.942 -0.4101  0.2412 -0.4648
 3003SOL    HW120645   2.427   2.200  14.940 -0.5631 -1.5335  0.6110
 3003SOL    HW220646   2.330   2.191  15.036 -0.4137  3.3505  0.1486
 3004SOL     OW20647   0.622   2.164   9.267  0.2906  0.9950  0.0410
 3004SOL    HW120648   0.648   2.193   9.354 -1.1388  0.0014  0.8058
 3004SOL    HW220649   0.617   2.070   9.285  1.4228  1.0447  0.6024
 3005SOL     OW20650   3.428   1.903  16.869 -0.6323  0.1955 -0.3746
 3005SOL    HW120651   3.425   1.920  16.963  1.8087  0.4805 -0.3515
 3005SOL    HW220652   3.334   1.917  16.858 -0.7339  0.2038  0.5292
 3006SOL     OW20653   3.604   0.568   7.778  0.1272 -0.2680  0.4380
 3006SOL    HW120654   3.625   0.660   7.792  1.0113 -0.1622 -1.6378
 3006SOL    HW220655   3.520   0.566   7.824 -1.2872  1.0509 -2.1315
 3007SOL     OW20656   0.157   3.228  13.080 -0.2214  0.0367 -0.2338
 3007SOL    HW120657   0.094   3.193  13.144 -0.5665  0.8689 -0.1174
 3007SOL    HW220658   0.158   3.315  13.121 -4.3900 -1.0430  2.1924
 3008SOL     OW20659   4.456   4.733  14.873  0.4343  0.5430 -0.3684
 3008SOL    HW120660   4.449   0.041  14.789  1.0723 -0.3467 -0.9059
 3008SOL    HW220661   4.513   0.056  14.920  0.4941  1.7261 -1.9432
 3009SOL     OW20662   1.092   2.398   5.439  0.0897  0.2099 -0.7185
 3009SOL    HW120663   1.028   2.387   5.509 -1.0664 -0.7742 -1.9094
 3009SOL    HW220664   1.057   2.342   5.369 -2.1662  0.3080  0.3357
 3010SOL     OW20665   1.903   2.594  17.318  0.2033 -1.2310 -0.6877
 3010SOL    HW120666   1.913   2.683  17.285 -2.2038 -0.0199  1.8303
 3010SOL    HW220667   1.828   2.555  17.274  0.0014  1.3042 -2.5867
 3011SOL     OW20668   3.374   3.359   6.725 -0.4110 -0.5530  0.3139
 3011SOL    HW120669   3.323   3.279   6.737 -0.5054 -0.4916  0.3234
 3011SOL    HW220670   3.454   3.320   6.689 -1.1847 -0.9772 -0.9844
 3012SOL     OW20671   4.681   3.342   3.073  0.4390  0.1648  0.0011
 3012SOL    HW120672   4.690   3.391   3.155 -0.7101 -0.4555  0.4949
 3012SOL    HW220673   0.009   3.273   3.087  0.5189  0.2425  0.0142
 3013SOL     OW20674   0.978   2.046   8.146  0.6712 -0.1828 -0.4092
 3013SOL    HW120675   0.970   1.969   8.090  0.1774  0.1337 -0.7731
 3013SOL    HW220676   0.927   2.021   8.223  2.0570 -0.0796  0.5319
 3014SOL     OW20677   4.193   2.208  16.566 -0.4659  0.5824 -0.4223
 3014SOL    HW120678   4.185   2.123  16.523 -0.5148  0.3521  0.0421
 3014SOL    HW220679   4.283   2.206  16.598 -0.9722  2.0668  1.0572
 3015SOL     OW20680   4.448   3.300  16.825 -0.2564  0.0150 -0.7190
 3015SOL    HW120681   4.419   3.226  16.773  0.7099  0.4548 -1.8805
 3015SOL    HW220682   4.497   3.359  16.769 -0.4206 -0.2065 -1.0926
 3016SOL     OW20683   1.951   2.273   5.558 -0.3785 -0.0455  0.5692
 3016SOL    HW120684   2.040   2.273   5.594 -0.3947  2.0586  0.6082
 3016SOL    HW220685   1.915   2.195   5.600 -2.6874  0.7483  0.0345
 3017SOL     OW20686   3.628   3.701   6.273 -0.7054  0.2323 -0.3814
 3017SOL    HW120687   3.569   3.707   6.348 -0.9897 -2.5695 -0.3605
 3017SOL    HW220688   3.709   3.668   6.314  0.0389  0.2678 -1.8100
 3018SOL     OW20689   4.141   0.943   4.791 -0.7201  0.0780  0.2681
 3018SOL    HW120690   4.127   0.964   4.699  2.5194 -2.0583 -0.7383
 3018SOL    HW220691   4.058   0.905   4.819  0.0951  0.2144  2.8611
 3019SOL     OW20692   1.365   3.449   8.978  0.4317 -0.1940  0.8971
 3019SOL    HW120693   1.455   3.461   9.008  0.1673 -0.4717  1.8094
 3019SOL    HW220694   1.336   3.533   8.943  0.8433  0.7848  2.9288
 3020SOL     OW20695   2.131   4.443  16.394  0.0300  0.3697  0.3513
 3020SOL    HW120696   2.040   4.413  16.405 -0.0963  0.5232 -0.2976
 3020SOL    HW220697   2.137   4.507  16.465 -2.3222  1.1686 -0.1531
 3021SOL     OW20698   4.718   0.814   5.795  0.1004  0.3590  0.0725
 3021SOL    HW120699   0.051   0.873   5.766  0.9239 -1.0301 -0.7827
 3021SOL    HW220700   0.008   0.733   5.753 -0.4448  0.6496 -0.8283
 3022SOL     OW20701   0.294   3.292   8.087 -0.3840 -0.2223  0.3155
 3022SOL    HW120702   0.373   3.327   8.129 -0.7010 -1.1354  1.6557
 3022SOL    HW220703   0.271   3.357   8.020 -1.4151 -1.6202 -0.6755
 3023SOL     OW20704   3.598   2.466   7.340  0.3779 -0.2180  0.0851
 3023SOL    HW120705   3.638   2.384   7.370 -0.0198 -0.0404  1.0988
 3023SOL    HW220706   3.550   2.429   7.266 -1.1318 -0.2375  1.0642
 3024SOL     OW20707   4.685   0.832  13.756 -0.7016  0.0666  0.0664
 3024SOL    HW120708   4.601   0.796  13.728 -0.3456  0.2913 -1.3247
 3024SOL    HW220709   4.658   0.924  13.760  1.3103  0.7153 -0.8107
 3025SOL     OW20710   2.685   3.704  17.729  0.2891 -0.2230 -0.1417
 3025SOL    HW120711   2.736   3.637   0.027 -0.0709 -0.2876  0.1676
 3025SOL    HW220712   2.601   3.689   0.026 -0.2169  3.4317  0.0798
 3026SOL     OW20713   0.374   4.152   6.520 -0.0362 -0.4071  0.3628
 3026SOL    HW120714   0.302   4.215   6.509 -0.5811 -0.6770  2.4025
 3026SOL    HW220715   0.326   4.070   6.512 -0.8044  0.1665 -1.0258
 3027SOL     OW20716   0.023   3.452   9.153  0.3510  0.0616  0.0125
 3027SOL    HW120717   0.077   3.509   9.207  1.3796  1.0187 -2.0396
 3027SOL    HW220718   0.089   3.387   9.129 -1.8368 -1.9902 -0.4676
 3028SOL     OW20719   1.834   3.739  15.531 -0.3825 -0.1308 -0.3922
 3028SOL    HW120720   1.801   3.826  15.506 -0.0554 -0.1462 -0.8859
 3028SOL    HW220721   1.830   3.678  15.457 -1.5977 -1.2084  0.5610
 3029SOL     OW20722   4.359   4.139   5.393  0.4670  0.3123 -0.0171
 3029SOL    HW120723   4.419   4.082   5.344 -0.2414 -0.0319 -0.4786
 3029SOL    HW220724   4.395   4.128   5.481 -0.3561  1.1352  0.4209
 3030SOL     OW20725   1.916   1.545   4.681  0.3140  0.0831 -0.4408
 3030SOL    HW120726   1.911   1.481   4.751  1.5468 -0.5247 -0.8980
 3030SOL    HW220727   1.948   1.618   4.734  1.2229 -1.0902  0.6181
 3031SOL     OW20728   4.271   3.717  14.704 -0.4375  0.3724  0.1311
 3031SOL    HW120729   4.282   3.797  14.755  1.3096  0.9861 -1.1756
 3031SOL    HW220730   4.362   3.692  14.688 -0.5437  0.2033 -0.2125
 3032SOL     OW20731   3.459   0.698   2.476 -0.5352 -0.2058 -0.0346
 3032SOL    HW120732   3.544   0.731   2.507  0.3075 -2.1547 -0.2600
 3032SOL    HW220733   3.469   0.723   2.385  2.0600  0.8609  0.5116
 3033SOL     OW20734   4.453   1.100   5.395  0.5845  0.1909  1.0028
 3033SOL    HW120735   4.358   1.107   5.394  0.6128  0.3158 -1.4430
 3033SOL    HW220736   4.462   1.036   5.466 -3.5031 -1.1252  0.3218
 3034SOL     OW20737   0.128   3.562   1.823  0.0347 -0.0041 -0.4382
 3034SOL    HW120738   0.090   3.476   1.802 -0.6351 -0.0014  0.7588
 3034SOL    HW220739   0.038   3.592   1.839  0.5227  0.5782  1.2822
 3035SOL     OW20740   3.810   4.681  11.990  0.3463 -0.1181 -0.1902
 3035SOL    HW120741   3.841   4.595  11.961  0.8816 -0.6103  1.8322
 3035SOL    HW220742   3.773   4.658  12.076  3.4581  0.2158  1.2346
 3036SOL     OW20743   1.815   1.821   6.124  0.4318  0.2349  0.1110
 3036SOL    HW120744   1.793   1.898   6.072 -0.8728 -0.4630 -0.3782
 3036SOL    HW220745   1.890   1.783   6.078 -1.1192  0.5012 -2.6653
 3037SOL     OW20746   1.587   1.589   5.663 -0.2645  0.2447 -0.1055
 3037SOL    HW120747   1.607   1.659   5.601 -1.0063 -1.5210 -2.3197
 3037SOL    HW220748   1.497   1.611   5.687  0.3378  0.8671  1.5244
 3038SOL     OW20749   1.821   2.586   8.426 -0.3005 -0.3458  0.2916
 3038SOL    HW120750   1.859   2.564   8.511 -1.9455  1.1721  1.4322
 3038SOL    HW220751   1.824   2.502   8.381  1.0918  1.1102 -2.3249
 3039SOL     OW20752   3.221   1.194   8.667  0.4135 -0.0886 -0.1869
 3039SOL    HW120753   3.297   1.205   8.611  0.7880 -2.8057 -0.2097
 3039SOL    HW220754   3.189   1.284   8.675  0.9519  0.1724 -1.0527
 3040SOL     OW20755   0.031   3.915   2.106  0.1425  0.0693  0.0970
 3040SOL    HW120756   4.726   3.985   2.155 -2.4775  0.2776 -2.4982
 3040SOL    HW220757   0.043   3.943   2.016  1.3457  3.4598  1.3413
 3041SOL     OW20758   1.240   1.020   1.841 -0.1780 -0.3459  0.3863
 3041SOL    HW120759   1.184   1.088   1.878  0.2754 -1.3160  2.8583
 3041SOL    HW220760   1.297   0.998   1.915  0.8678  1.4680  0.1072
 3042SOL     OW20761   4.301   4.448  11.942  0.1697 -0.1961  0.2424
 3042SOL    HW120762   4.271   4.450  12.033  0.3591  2.5283  0.2285
 3042SOL    HW220763   4.229   4.488  11.894  1.0659  0.6622 -0.3802
 3043SOL     OW20764   0.759   2.014  11.897  0.1249 -0.7005  0.3114
 3043SOL    HW120765   0.717   2.087  11.851  3.5222  1.5829  0.8743
 3043SOL    HW220766   0.823   2.065  11.947  1.3622 -1.2694 -0.6892
 3044SOL     OW20767   3.168   3.762   2.987  0.0454  0.1644 -0.0378
 3044SOL    HW120768   3.111   3.810   2.926 -2.7711 -2.5079  0.4757
 3044SOL    HW220769   3.118   3.752   3.068  0.4638  0.0789  0.2059
 3045SOL     OW20770   3.602   0.771  13.906 -0.1625  0.1216  0.2726
 3045SOL    HW120771   3.540   0.808  13.844 -0.6441 -2.0316 -0.5077
 3045SOL    HW220772   3.542   0.736  13.972  2.0265 -2.0913  1.0695
 3046SOL     OW20773   3.131   3.767   2.367 -0.0321  0.0426  0.2558
 3046SOL    HW120774   3.074   3.840   2.389  1.6156  1.6309 -0.6982
 3046SOL    HW220775   3.143   3.787   2.274  0.7628 -0.9931  0.1300
 3047SOL     OW20776   2.030   0.206  10.341 -0.0345 -0.3940 -0.1316
 3047SOL    HW120777   2.012   0.112  10.343  0.0196 -0.3955  0.2275
 3047SOL    HW220778   2.077   0.210  10.424 -1.6750  0.3302  0.7430
 3048SOL     OW20779   4.311   2.790   4.824  0.6727 -0.3140 -0.0356
 3048SOL    HW120780   4.309   2.790   4.728 -1.3062 -0.8805  0.0079
 3048SOL    HW220781   4.249   2.863   4.835  0.8741 -0.1856  0.2607
 3049SOL     OW20782   4.380   2.417   7.144  0.7117 -0.4602  0.1362
 3049SOL    HW120783   4.379   2.497   7.092 -1.6038  0.2205  1.2005
 3049SOL    HW220784   4.340   2.356   7.083  1.7542 -2.1491  1.1601
 3050SOL     OW20785   4.349   0.711   8.733 -0.2853  1.0971  0.0261
 3050SOL    HW120786   4.297   0.785   8.702 -2.0228 -0.1228  0.0688
 3050SOL    HW220787   4.362   0.747   8.821 -0.9291 -0.7960  0.8913
 3051SOL     OW20788   4.383   3.553   4.673 -0.0350  0.0380 -0.1147
 3051SOL    HW120789   4.329   3.526   4.599 -3.6582 -0.8558  2.8702
 3051SOL    HW220790   4.356   3.644   4.682 -0.3711 -0.1042  0.3231
 3052SOL     OW20791   2.127   0.911   3.877 -0.5119 -0.3771  0.3904
 3052SOL    HW120792   2.117   0.833   3.823  2.2007 -2.5008  2.9537
 3052SOL    HW220793   2.038   0.947   3.874 -0.1729  0.3417 -0.8899
 3053SOL     OW20794   0.861   2.778   7.367 -0.1480  0.5664  0.2568
 3053SOL    HW120795   0.800   2.806   7.299  0.5608  0.6289 -0.3619
 3053SOL    HW220796   0.907   2.711   7.316  0.8240  1.7580 -0.4248
 3054SOL     OW20797   0.509   4.165  14.892 -0.0987 -0.1686  0.3111
 3054SOL    HW120798   0.509   4.233  14.825  3.2803 -0.3519  0.0861
 3054SOL    HW220799   0.415   4.160  14.909 -0.3518  0.7261 -0.8013
 3055SOL     OW20800   1.704   4.278   0.645  0.3598  0.0475 -0.4227
 3055SOL    HW120801   1.791   4.261   0.609  0.8774  1.2872  0.2312
 3055SOL    HW220802   1.714   4.356   0.700 -1.8108  0.2835 -0.3619
 3056SOL     OW20803   2.414   3.079   4.726 -0.5309 -0.2557 -0.2119
 3056SOL    HW120804   2.485   3.088   4.663  0.5498 -1.2766  0.8753
 3056SOL    HW220805   2.450   3.129   4.799 -0.1893 -0.8063 -0.0081
 3057SOL     OW20806   2.627   0.232   6.978  0.1296 -0.5812  0.3654
 3057SOL    HW120807   2.692   0.185   7.030  0.0502  0.5168  1.4477
 3057SOL    HW220808   2.547   0.194   7.012  0.2896  0.1229  1.5333
 3058SOL     OW20809   4.569   4.412  12.326 -0.5386  0.3352  0.0932
 3058SOL    HW120810   4.609   4.327  12.345 -1.2935 -0.3109 -1.2339
 3058SOL    HW220811   4.645   4.467  12.347  0.2996 -0.5859 -0.5417
 3059SOL     OW20812   2.143   2.830   2.634  0.2181 -0.2375 -0.1602
 3059SOL    HW120813   2.174   2.795   2.717 -1.6491  0.6769  0.9023
 3059SOL    HW220814   2.228   2.853   2.597  0.8231 -1.5077  0.4295
 3060SOL     OW20815   2.639   1.011   7.026 -0.7315  0.0908 -0.2714
 3060SOL    HW120816   2.681   0.929   7.000  1.4275  0.3652  2.3090
 3060SOL    HW220817   2.710   1.075   7.024 -0.3927 -0.1851  2.5710
 3061SOL     OW20818   4.211   4.183  12.175 -0.2427 -0.1324  0.6671
 3061SOL    HW120819   4.230   4.273  12.198  3.6542 -0.8909  0.4325
 3061SOL    HW220820   4.297   4.147  12.154 -0.0096  2.2286 -2.4131
 3062SOL     OW20821   2.776   0.694   7.650 -0.1634 -0.0191  0.0885
 3062SOL    HW120822   2.720   0.760   7.608 -2.1914 -1.8284 -0.0572
 3062SOL    HW220823   2.841   0.756   7.685 -0.2570  0.5745 -0.7668
 3063SOL     OW20824   2.408   2.481   8.764  0.1573 -0.1513  0.0909
 3063SOL    HW120825   2.485   2.537   8.777  0.0932  0.0724 -0.5047
 3063SOL    HW220826   2.332   2.532   8.790  0.1999 -1.4553  2.8484
 3064SOL     OW20827   1.615   1.621   4.561  0.7008  0.1915 -0.4698
 3064SOL    HW120828   1.691   1.650   4.511  0.1456  0.5907 -1.0728
 3064SOL    HW220829   1.615   1.680   4.637  0.4668 -0.5134  0.0760
 3065SOL     OW20830   0.092   2.661   2.781  0.5055 -0.3613 -0.0220
 3065SOL    HW120831   0.174   2.626   2.747  0.9315  0.3641  0.2593
 3065SOL    HW220832   0.092   2.739   2.725  0.4041 -0.0640  0.3882
 3066SOL     OW20833   4.366   2.067   3.604  0.6289  0.3551  0.4552
 3066SOL    HW120834   4.311   2.053   3.527 -2.0862 -0.8180  2.6214
 3066SOL    HW220835   4.443   2.015   3.580 -0.7491 -0.6178 -1.8777
 3067SOL     OW20836   3.536   3.715   2.813 -0.2406 -0.4348 -0.1481
 3067SOL    HW120837   3.564   3.802   2.785  0.6534 -0.6357  0.1377
 3067SOL    HW220838   3.619   3.692   2.855 -0.4558 -2.5382 -0.8531
 3068SOL     OW20839   0.234   1.835   5.651  0.0322 -0.2280  0.4650
 3068SOL    HW120840   0.260   1.757   5.602  0.9056 -0.7639  1.7922
 3068SOL    HW220841   0.208   1.791   5.732 -0.1564  0.6728  0.8977
 3069SOL     OW20842   2.179   2.341   2.383 -0.2445 -0.6225 -0.2990
 3069SOL    HW120843   2.105   2.280   2.383  0.0355 -0.9624 -0.8105
 3069SOL    HW220844   2.145   2.411   2.328  0.6966 -0.8802 -1.2027
 3070SOL     OW20845   3.373   4.602   2.451 -0.4833  0.5401  0.0429
 3070SOL    HW120846   3.354   4.508   2.449 -1.9686  0.8344  0.0324
 3070SOL    HW220847   3.376   4.638   2.362 -1.1160  1.1203  0.2542
 3071SOL     OW20848   4.137   3.183   5.191 -0.2927 -0.0025 -0.0147
 3071SOL    HW120849   4.166   3.134   5.268  1.6583 -2.3959 -2.2797
 3071SOL    HW220850   4.200   3.159   5.123 -0.9506 -1.0301 -0.2683
 3072SOL     OW20851   2.084   3.982   4.140 -0.2286 -0.5209  0.1910
 3072SOL    HW120852   2.177   4.001   4.149 -0.6017 -0.0640  3.1228
 3072SOL    HW220853   2.041   4.066   4.124  1.0963  0.4139  1.5092
 3073SOL     OW20854   1.004   3.283   8.211  0.3270  0.3990 -0.9119
 3073SOL    HW120855   0.974   3.358   8.160 -1.3584  0.5974  0.3417
 3073SOL    HW220856   0.950   3.299   8.289  0.2881  2.5312 -1.3701
 3074SOL     OW20857   2.774   3.533   7.547 -0.0989  0.0937  0.3475
 3074SOL    HW120858   2.704   3.595   7.565 -0.2229  0.0606 -0.0231
 3074SOL    HW220859   2.711   3.463   7.532  0.9883 -0.4168 -1.9810
 3075SOL     OW20860   1.402   3.108   7.086  0.4212 -0.4713 -0.0841
 3075SOL    HW120861   1.415   3.029   7.034  0.0731 -0.8772  0.4360
 3075SOL    HW220862   1.457   3.167   7.035  0.1367  0.7276  0.9853
 3076SOL     OW20863   2.747   3.469   2.225 -0.4364  0.0664 -0.5319
 3076SOL    HW120864   2.702   3.541   2.181 -0.9258  0.5817  0.8073
 3076SOL    HW220865   2.754   3.499   2.316 -0.2252 -0.3981 -0.3973
 3077SOL     OW20866   2.411   0.171  11.195 -0.8983 -0.4520 -0.2237
 3077SOL    HW120867   2.480   0.105  11.186 -0.5740 -0.4522  2.1525
 3077SOL    HW220868   2.409   0.177  11.291  0.9809  2.4492 -0.3450
 3078SOL     OW20869   0.322   3.636   5.220  0.2564  1.0352 -0.3895
 3078SOL    HW120870   0.370   3.614   5.140  1.3441  1.7597  0.0683
 3078SOL    HW220871   0.256   3.687   5.174 -1.5535 -0.8318  0.1464
 3079SOL     OW20872   0.853   4.684   6.199 -0.1074  0.1701 -0.1360
 3079SOL    HW120873   0.761   4.709   6.199 -0.5056 -1.2702  0.5874
 3079SOL    HW220874   0.848   4.605   6.253  0.7939 -0.1859 -0.5697
 3080SOL     OW20875   1.164   2.062   4.186 -0.0024  0.7998 -0.2639
 3080SOL    HW120876   1.160   2.133   4.121 -0.2017  0.4438 -0.6370
 3080SOL    HW220877   1.084   2.014   4.166  0.5421  0.0085 -0.5197
 3081SOL     OW20878   3.937   4.370   5.524  0.3019  0.5327 -0.1613
 3081SOL    HW120879   3.919   4.463   5.506 -1.6900  0.1080 -0.3247
 3081SOL    HW220880   3.915   4.372   5.617 -1.8216  0.9864 -0.6766
 3082SOL     OW20881   4.414   4.330   4.053  0.4902 -0.3082  0.1319
 3082SOL    HW120882   4.389   4.423   4.051  1.5286 -0.0063  1.1087
 3082SOL    HW220883   4.465   4.330   3.972 -2.1627  1.2400 -1.5378
 3083SOL     OW20884   2.128   0.630   3.810  0.3482  0.2966 -0.5640
 3083SOL    HW120885   2.137   0.556   3.751 -0.2624 -1.4829  1.5879
 3083SOL    HW220886   2.046   0.608   3.855  0.7607  0.7056  0.3922
 3084SOL     OW20887   3.156   0.781   8.589  0.0548  0.3838 -0.0073
 3084SOL    HW120888   3.165   0.812   8.679 -1.6542  0.3145  0.1772
 3084SOL    HW220889   3.181   0.857   8.537 -0.1533  0.8083  0.5153
 3085SOL     OW20890   3.622   1.107   6.236  0.1914 -0.0104 -0.0333
 3085SOL    HW120891   3.530   1.131   6.248  0.2427 -0.0663  0.5053
 3085SOL    HW220892   3.625   1.046   6.310  2.1307 -0.0701 -0.1608
 3086SOL     OW20893   2.300   1.009   7.337 -0.4743  0.0422 -0.3064
 3086SOL    HW120894   2.363   1.065   7.383  0.5277 -0.7599 -0.6812
 3086SOL    HW220895   2.358   0.949   7.290  0.2838  0.4262  0.1374
 3087SOL     OW20896   0.919   2.763   5.699  0.0380  0.2480 -0.2687
 3087SOL    HW120897   0.873   2.825   5.755  1.4103  1.2428 -0.2496
 3087SOL    HW220898   0.901   2.811   5.618 -0.5238 -1.0186 -0.8978
 3088SOL     OW20899   4.577   0.957   3.532 -0.0975 -0.0262  0.6394
 3088SOL    HW120900   4.510   0.894   3.558 -0.3011 -0.1398 -0.1456
 3088SOL    HW220901   4.651   0.899   3.511  0.0100  0.7333 -1.1036
 3089SOL     OW20902   0.344   1.456   5.271 -0.2358 -0.0451 -0.3430
 3089SOL    HW120903   0.410   1.388   5.285 -1.1218 -0.5772  1.1788
 3089SOL    HW220904   0.403   1.531   5.273  1.2825 -1.2099 -1.1265
 3090SOL     OW20905   2.895   0.673   3.034  0.1483 -0.1425 -0.8482
 3090SOL    HW120906   2.866   0.607   2.971 -1.2057  1.3167 -1.7416
 3090SOL    HW220907   2.930   0.615   3.102 -1.4375 -0.1456 -0.0109
 3091SOL     OW20908   2.710   0.347  11.100 -0.5208 -1.1298  0.4670
 3091SOL    HW120909   2.687   0.265  11.144  0.1773 -1.5716 -0.0023
 3091SOL    HW220910   2.800   0.328  11.075 -0.9888 -1.0090 -1.2883
 3092SOL     OW20911   0.639   0.803  16.519 -0.3091  0.9878  0.2010
 3092SOL    HW120912   0.698   0.809  16.595  2.1445  2.8658 -1.8489
 3092SOL    HW220913   0.703   0.806  16.448  2.2434 -0.2009  2.4217
 3093SOL     OW20914   0.514   0.983   8.151  0.0365 -0.1339 -0.0621
 3093SOL    HW120915   0.430   1.028   8.155  0.4627  0.4649  2.2659
 3093SOL    HW220916   0.514   0.924   8.075  1.3984 -0.0702 -0.1076
 3094SOL     OW20917   3.896   3.155   5.393  0.0057  0.1609  0.7829
 3094SOL    HW120918   3.958   3.153   5.320 -1.5381  2.4248 -0.6053
 3094SOL    HW220919   3.815   3.159   5.342  1.2564  0.6281 -1.1441
 3095SOL     OW20920   1.194   2.405   5.796  0.1109  0.0197  0.1542
 3095SOL    HW120921   1.211   2.429   5.887 -0.7053 -0.8353  0.5316
 3095SOL    HW220922   1.114   2.453   5.774 -1.4591 -1.6875  2.1770
 3096SOL     OW20923   0.106   4.624   6.435 -0.0219 -0.5271 -0.6748
 3096SOL    HW120924   0.043   4.695   6.425 -0.0215 -0.8401 -2.9539
 3096SOL    HW220925   0.150   4.657   6.513 -1.1275  1.3367 -0.8493
 3097SOL     OW20926   3.873   0.108  10.487 -0.0517 -0.2761 -0.1278
 3097SOL    HW120927   3.840   0.198  10.494 -0.6188 -0.6350  1.6558
 3097SOL    HW220928   3.963   0.113  10.455  0.3436  0.6592  1.1519
 3098SOL     OW20929   3.162   1.609   4.137  0.2845  0.1104 -0.0375
 3098SOL    HW120930   3.152   1.633   4.045 -3.1854  0.4095  0.4261
 3098SOL    HW220931   3.164   1.699   4.171  2.4065 -0.2844  0.8878
 3099SOL     OW20932   0.721   2.384   1.212 -0.4978  0.1541 -0.0069
 3099SOL    HW120933   0.699   2.475   1.232  2.0651  1.1947 -2.0908
 3099SOL    HW220934   0.699   2.371   1.120 -0.0924 -3.2300  0.3774
 3100SOL     OW20935   3.823   4.594   3.807 -0.8089  0.1674 -0.9959
 3100SOL    HW120936   3.827   4.534   3.881  0.9937 -1.9320 -2.8079
 3100SOL    HW220937   3.732   4.578   3.780 -0.3470 -2.8285 -0.7780
 3101SOL     OW20938   4.334   3.244  10.920 -0.3967  0.0062 -0.3197
 3101SOL    HW120939   4.361   3.232  11.011  0.7421  0.1155 -0.6433
 3101SOL    HW220940   4.306   3.334  10.907 -0.7782 -0.0265  0.2632
 3102SOL     OW20941   1.367   3.348  10.152  0.4298  0.0872  0.2104
 3102SOL    HW120942   1.455   3.319  10.127 -0.0263 -0.7957 -0.4179
 3102SOL    HW220943   1.382   3.378  10.241  2.3268 -0.6053  0.1204
 3103SOL     OW20944   1.032   0.112   8.837 -0.0595  0.5056 -0.0813
 3103SOL    HW120945   1.064   0.053   8.906  0.5000  0.3021 -0.5130
 3103SOL    HW220946   1.026   0.193   8.887  0.0006 -0.5435  1.6071
 3104SOL     OW20947   0.811   0.110   4.804 -0.1224 -0.0738 -0.1274
 3104SOL    HW120948   0.840   0.184   4.751  1.8464 -1.2319 -0.6611
 3104SOL    HW220949   0.804   0.159   4.886  0.5906  3.3726 -2.1255
 3105SOL     OW20950   2.254   0.433  11.074 -0.4535 -0.2540  0.3731
 3105SOL    HW120951   2.295   0.399  10.994  1.1593  0.3346  0.9481
 3105SOL    HW220952   2.330   0.474  11.115 -0.6540  1.4510 -0.9621
 3106SOL     OW20953   3.396   3.576   5.612 -0.0514  0.1599  0.5225
 3106SOL    HW120954   3.418   3.486   5.636 -0.8590  0.2258  1.5096
 3106SOL    HW220955   3.467   3.626   5.650  2.0556 -2.7650  0.4756
 3107SOL     OW20956   4.523   4.272   2.117 -0.5486 -0.2447  0.0369
 3107SOL    HW120957   4.557   4.356   2.085  1.6273 -0.2676  2.3309
 3107SOL    HW220958   4.529   4.214   2.041 -0.0465  0.8716 -0.7800
 3108SOL     OW20959   2.300   2.162   3.509  0.0809  0.3425  0.2464
 3108SOL    HW120960   2.314   2.067   3.516  3.6462  0.7706 -0.8691
 3108SOL    HW220961   2.240   2.157   3.435 -0.5647  0.5626  0.7654
 3109SOL     OW20962   3.905   2.835  10.376  0.5135  0.2521  0.3637
 3109SOL    HW120963   3.972   2.774  10.406  1.7115  0.2335 -2.4091
 3109SOL    HW220964   3.918   2.831  10.282 -0.7565  2.0830  0.1145
 3110SOL     OW20965   4.058   3.820   1.230  0.0691  0.2514 -0.0906
 3110SOL    HW120966   4.005   3.806   1.152 -2.4586  0.8884  1.5008
 3110SOL    HW220967   4.085   3.730   1.249 -2.3141 -0.8836 -2.1803
 3111SOL     OW20968   1.540   1.090   8.803 -0.2197  0.1011  0.1800
 3111SOL    HW120969   1.465   1.042   8.767  0.0355 -0.0398 -0.1597
 3111SOL    HW220970   1.540   1.165   8.743  1.3120  0.2179  0.3386
 3112SOL     OW20971   2.140   1.843   5.215 -0.0056 -0.4210 -0.2253
 3112SOL    HW120972   2.178   1.847   5.302  1.8747 -0.3425 -1.0535
 3112SOL    HW220973   2.051   1.817   5.239  0.2179 -1.3084 -0.3564
 3113SOL     OW20974   1.062   4.184   0.020 -0.1568 -0.5082 -0.7743
 3113SOL    HW120975   1.013   4.138  17.698  0.4204 -0.1047 -1.4536
 3113SOL    HW220976   1.083   4.266  17.723 -0.7592  0.5336  0.8792
 3114SOL     OW20977   1.529   1.823  10.596 -0.0607  0.2912  0.4872
 3114SOL    HW120978   1.542   1.838  10.502  2.0837  1.5983  1.0020
 3114SOL    HW220979   1.570   1.738  10.606 -2.6573 -0.6693  3.1421
 3115SOL     OW20980   0.156   1.825   7.364  0.1905 -0.0866  0.0258
 3115SOL    HW120981   0.248   1.817   7.338  1.2436  2.6078  3.0315
 3115SOL    HW220982   0.113   1.754   7.316 -0.2535 -0.0739  0.4047
 3116SOL     OW20983   0.923   2.160   1.273  0.0910  0.1319  0.5681
 3116SOL    HW120984   0.876   2.192   1.350 -1.7295  1.3565 -1.0595
 3116SOL    HW220985   0.962   2.083   1.314  2.5484  0.5871 -0.9064
 3117SOL     OW20986   3.300   2.486   6.470 -0.3011 -0.3781  0.3799
 3117SOL    HW120987   3.224   2.494   6.527 -0.7971  1.2338 -0.4868
 3117SOL    HW220988   3.370   2.504   6.533 -1.6259 -1.1995  2.0825
 3118SOL     OW20989   1.573   1.332   2.995 -0.4635  0.0802 -0.3205
 3118SOL    HW120990   1.626   1.272   3.047 -1.3675  0.4638  1.0340
 3118SOL    HW220991   1.515   1.271   2.947 -1.2086  0.6450 -0.1404
 3119SOL     OW20992   3.219   2.670  10.769  0.0518 -0.2404  0.1025
 3119SOL    HW120993   3.249   2.593  10.817 -0.7677 -0.1747  0.7227
 3119SOL    HW220994   3.240   2.653  10.677  1.9522  2.9412 -0.0464
 3120SOL     OW20995   3.425   3.938   3.917  0.4597  0.5601 -0.1489
 3120SOL    HW120996   3.396   3.983   3.837  1.2871  0.3580 -0.5644
 3120SOL    HW220997   3.513   3.977   3.917 -0.7790  3.3380  0.4026
 3121SOL     OW20998   4.193   2.962  17.210 -0.1224 -0.0936  0.2240
 3121SOL    HW120999   4.169   3.049  17.177  1.2790  0.5261  0.8138
 3121SOL    HW221000   4.157   2.974  17.298 -2.7875 -0.3365 -0.8360
 3122SOL     OW21001   2.698   0.601   4.977  0.3159 -0.0182 -0.5851
 3122SOL    HW121002   2.606   0.577   4.968  0.2459 -0.0801  0.2964
 3122SOL    HW221003   2.712   0.545   5.054  0.9601 -0.3973 -0.9734
 3123SOL     OW21004   2.601   4.667   5.508  0.2403  0.3949  0.2023
 3123SOL    HW121005   2.599   0.025   5.511  0.7140  0.4581 -1.7532
 3123SOL    HW221006   2.657   4.646   5.584  0.2189  0.5911  0.2731
 3124SOL     OW21007   3.441   1.388   3.289  0.5651 -0.3624 -0.3118
 3124SOL    HW121008   3.448   1.347   3.203 -1.5245 -0.4132 -0.4582
 3124SOL    HW221009   3.529   1.414   3.314  1.1122 -2.3189 -0.2400
 3125SOL     OW21010   3.199   2.451   8.895  0.2197 -0.2373 -0.6194
 3125SOL    HW121011   3.277   2.410   8.859  1.1327  2.2254 -1.4845
 3125SOL    HW221012   3.147   2.371   8.904  1.0674 -0.8464 -1.1952
 3126SOL     OW21013   2.344   1.739  12.761 -0.1677 -0.5082  0.0888
 3126SOL    HW121014   2.283   1.803  12.726  0.0885  0.3859  1.2614
 3126SOL    HW221015   2.303   1.710  12.843 -0.4427  2.7964  1.1501
 3127SOL     OW21016   2.085   3.236   3.828  1.1450  0.3902  0.3397
 3127SOL    HW121017   2.058   3.146   3.842  1.9341 -0.4137 -3.1595
 3127SOL    HW221018   2.125   3.252   3.913  0.7430 -1.9868  0.9731
 3128SOL     OW21019   2.856   0.520   6.516  0.3525  0.4336  0.0555
 3128SOL    HW121020   2.849   0.535   6.421  2.7309 -1.5113 -0.4430
 3128SOL    HW221021   2.872   0.425   6.521 -0.2569  0.4309  1.9002
 3129SOL     OW21022   2.036   0.823   4.163 -0.2872 -0.5548 -0.2098
 3129SOL    HW121023   2.064   0.837   4.253  0.7399  0.9719 -0.7703
 3129SOL    HW221024   2.115   0.833   4.110  0.1511 -1.2362  0.3270
 3130SOL     OW21025   1.124   0.027  14.575  0.3355  0.4701  0.0723
 3130SOL    HW121026   1.177   0.107  14.580  0.3215  0.5092 -0.4020
 3130SOL    HW221027   1.041   0.074  14.576 -0.4325 -0.9263  1.6124
 3131SOL     OW21028   0.428   4.281   6.919  0.5861  0.1933 -0.4740
 3131SOL    HW121029   0.407   4.266   7.011  0.4512  1.3007 -0.3193
 3131SOL    HW221030   0.377   4.360   6.897  2.5057  1.3083 -0.9290
 3132SOL     OW21031   1.628   3.531  15.846  0.1575  0.4888  0.7696
 3132SOL    HW121032   1.618   3.625  15.832 -1.5246  0.0688 -0.9512
 3132SOL    HW221033   1.633   3.491  15.759 -3.1276  1.9498 -0.0903
 3133SOL     OW21034   0.394   0.151   2.840 -0.0343 -0.0325  0.0360
 3133SOL    HW121035   0.299   0.162   2.846 -0.4103 -1.7798 -2.3921
 3133SOL    HW221036   0.406   0.069   2.888  0.5009  0.3901  0.6176
 3134SOL     OW21037   1.482   4.278  11.764  0.1589  0.3897  0.1475
 3134SOL    HW121038   1.466   4.372  11.754  1.1240  0.5829  0.3967
 3134SOL    HW221039   1.523   4.259  11.680 -2.4831  2.1108 -1.5263
 3135SOL     OW21040   4.709   1.196   2.233 -0.5274  0.3301 -0.0160
 3135SOL    HW121041   0.005   1.136   2.165  1.5079 -0.9723  2.1133
 3135SOL    HW221042   4.615   1.178   2.233 -0.1905 -1.4007 -0.1659
 3136SOL     OW21043   2.451   4.445   7.443  0.4359  0.9116  0.0718
 3136SOL    HW121044   2.535   4.491   7.443 -0.9106  3.2681 -2.2978
 3136SOL    HW221045   2.393   4.514   7.473 -0.5110  0.3943 -0.5829
 3137SOL     OW21046   3.483   0.998   5.025  0.1847  0.2071  0.3038
 3137SOL    HW121047   3.409   0.976   5.081 -1.5113 -2.3088 -2.9267
 3137SOL    HW221048   3.445   0.966   4.944 -0.9330  1.7015  0.2498
 3138SOL     OW21049   3.216   4.685   4.189  0.2871 -0.0941  0.2092
 3138SOL    HW121050   3.168   4.711   4.110 -0.4483  0.0857  0.7162
 3138SOL    HW221051   3.306   4.716   4.179  0.3146 -0.2522 -0.0318
 3139SOL     OW21052   2.741   2.300   6.568  0.1964  0.5946  0.5750
 3139SOL    HW121053   2.666   2.273   6.514  0.5263  1.5979 -0.3960
 3139SOL    HW221054   2.715   2.392   6.574 -2.0612 -0.0954  1.3715
 3140SOL     OW21055   3.034   0.050   2.373 -0.1153 -0.6266 -0.4135
 3140SOL    HW121056   3.005   0.061   2.282  0.9248 -0.5495 -0.7397
 3140SOL    HW221057   2.950   0.057   2.419 -0.6888 -0.6980 -1.4441
 3141SOL     OW21058   2.360   3.964   4.426  0.0497  0.7012 -0.0222
 3141SOL    HW121059   2.285   3.936   4.478 -0.3703 -2.4954 -2.3574
 3141SOL    HW221060   2.410   4.017   4.488  0.8774 -0.6526  0.4880
 3142SOL     OW21061   1.806   4.469   8.161  0.3376 -0.2889  0.0420
 3142SOL    HW121062   1.829   4.541   8.102  1.7405 -1.1073 -0.4108
 3142SOL    HW221063   1.843   4.494   8.246 -1.4164  0.2400  0.6418
 3143SOL     OW21064   0.798   2.530   8.791  0.2637  0.2284  0.0659
 3143SOL    HW121065   0.802   2.584   8.870 -0.1079 -0.7979  0.7964
 3143SOL    HW221066   0.866   2.577   8.743  1.1808 -1.6247 -0.4495
 3144SOL     OW21067   0.598   2.562   6.324 -0.3136 -0.0078  0.4503
 3144SOL    HW121068   0.649   2.509   6.385  1.4509  2.6957  1.2760
 3144SOL    HW221069   0.619   2.650   6.355 -2.0606  0.4725  0.2664
 3145SOL     OW21070   3.264   0.156   1.716  0.1158 -0.8603 -0.5780
 3145SOL    HW121071   3.276   0.181   1.625 -1.1537 -0.5994 -0.6791
 3145SOL    HW221072   3.168   0.159   1.718  0.1081  0.0835 -2.1840
 3146SOL     OW21073   2.607   1.158   6.365  0.6289 -0.3336 -0.5608
 3146SOL    HW121074   2.609   1.214   6.443  2.9060 -0.3529 -0.6048
 3146SOL    HW221075   2.615   1.069   6.401  0.8806 -0.4261 -0.8501
 3147SOL     OW21076   1.250   3.956   3.252 -0.6119  0.6738 -0.2076
 3147SOL    HW121077   1.174   3.980   3.199 -2.7409 -0.9214  2.1273
 3147SOL    HW221078   1.276   4.042   3.286 -1.1331  0.8763 -0.3269
 3148SOL     OW21079   1.491   1.342   5.617 -0.1547 -0.6017  0.2611
 3148SOL    HW121080   1.522   1.430   5.637 -0.8002  0.1406 -2.0329
 3148SOL    HW221081   1.486   1.312   5.708  0.8172  1.5952  1.0490
 3149SOL     OW21082   4.489   2.738   9.358 -0.4307 -0.0343  0.2917
 3149SOL    HW121083   4.503   2.765   9.449 -4.1428  1.2702  0.4517
 3149SOL    HW221084   4.576   2.724   9.320 -0.1071  0.9248  0.6884
 3150SOL     OW21085   3.681   4.247   6.189  0.2546 -1.2084  0.2235
 3150SOL    HW121086   3.768   4.220   6.158  0.3970 -0.0969 -0.3282
 3150SOL    HW221087   3.646   4.167   6.227  1.3959 -1.9002 -0.1669
 3151SOL     OW21088   0.064   3.769  11.589 -0.9568 -0.5262 -0.1025
 3151SOL    HW121089   0.008   3.696  11.564 -1.6737 -0.2667  0.7593
 3151SOL    HW221090   0.081   3.761  11.683  2.2830  0.7381 -0.5817
 3152SOL     OW21091   0.761   3.333  16.747  0.0123 -0.0218 -0.1584
 3152SOL    HW121092   0.775   3.427  16.746 -1.5837  0.2271  0.3605
 3152SOL    HW221093   0.723   3.318  16.660 -0.8935 -1.4567  0.4747
 3153SOL     OW21094   4.473   2.275   8.379 -0.5140  0.1863  0.5140
 3153SOL    HW121095   4.533   2.286   8.452 -0.0631 -0.6838  0.2751
 3153SOL    HW221096   4.431   2.195   8.412  1.6164 -1.2866 -0.3924
 3154SOL     OW21097   2.587   2.790   1.590  0.6019 -0.1946 -0.0974
 3154SOL    HW121098   2.511   2.737   1.568  0.4447 -0.2288  0.5178
 3154SOL    HW221099   2.613   2.765   1.678 -2.4493 -0.4365  0.7327
 3155SOL     OW21100   0.554   3.448   3.106  0.0510 -0.0007  0.3314
 3155SOL    HW121101   0.603   3.489   3.035  1.6660 -0.4250  1.1925
 3155SOL    HW221102   0.601   3.365   3.111  1.2956  0.5433 -2.6926
 3156SOL     OW21103   3.785   0.032   1.402 -0.1866  0.4490  0.4745
 3156SOL    HW121104   3.789   0.113   1.452 -1.3329 -0.1330  1.5015
 3156SOL    HW221105   3.693   0.021   1.377  0.6140 -0.1219 -2.2124
 3157SOL     OW21106   3.067   4.486   2.188 -0.7994 -0.2152 -0.4910
 3157SOL    HW121107   3.090   4.578   2.182  0.4621 -0.5056 -0.1239
 3157SOL    HW221108   3.020   4.493   2.271 -0.6304 -2.2830 -0.2027
 3158SOL     OW21109   3.512   2.430   4.421 -0.1533 -0.9694 -0.3453
 3158SOL    HW121110   3.551   2.383   4.495 -0.9077 -2.6802 -1.0292
 3158SOL    HW221111   3.446   2.476   4.473 -0.4252  0.1642 -1.7042
 3159SOL     OW21112   0.363   1.720   9.697  0.1729 -0.1064  0.3026
 3159SOL    HW121113   0.279   1.674   9.684  1.9224 -3.6218  1.3632
 3159SOL    HW221114   0.347   1.800   9.746 -0.8618 -1.7580  2.6563
 3160SOL     OW21115   3.983   3.494   3.910 -0.4434 -0.0330 -0.0378
 3160SOL    HW121116   4.031   3.443   3.975 -0.1164 -2.2092 -1.9937
 3160SOL    HW221117   4.045   3.480   3.838 -1.3067 -0.6288 -0.6604
 3161SOL     OW21118   0.050   2.958  10.199 -0.1099 -0.0346  0.2354
 3161SOL    HW121119   0.023   2.912  10.120 -0.7008  0.4484  0.1610
 3161SOL    HW221120   4.724   3.029  10.213  1.2484  1.1573  0.3363
 3162SOL     OW21121   3.743   3.234   0.847 -0.3520 -0.0553 -0.0244
 3162SOL    HW121122   3.653   3.246   0.816 -1.2909 -2.3975  1.8511
 3162SOL    HW221123   3.780   3.274   0.768  1.3100  0.4761  1.0088
 3163SOL     OW21124   3.758   2.463   2.591 -0.1982  0.3010 -0.2616
 3163SOL    HW121125   3.718   2.412   2.662  1.2294 -0.8221 -0.2681
 3163SOL    HW221126   3.685   2.492   2.536 -1.1007  1.7034  1.6385
 3164SOL     OW21127   4.207   3.595   2.978 -0.2929  0.3555  0.6616
 3164SOL    HW121128   4.245   3.588   3.066 -1.3035  1.5998  1.1936
 3164SOL    HW221129   4.204   3.501   2.957  1.2319  0.9811 -2.3904
 3165SOL     OW21130   2.964   2.046   6.391  0.3684 -0.1120 -0.8616
 3165SOL    HW121131   3.003   2.106   6.327  1.6586 -1.3047 -1.2006
 3165SOL    HW221132   3.013   1.965   6.372 -0.9129 -0.9810 -0.4414
 3166SOL     OW21133   4.078   4.196   7.263  0.4427  0.0438  0.1678
 3166SOL    HW121134   4.108   4.105   7.267 -2.4871 -1.0232 -1.7330
 3166SOL    HW221135   4.130   4.233   7.334 -0.0180 -0.6326  0.8635
 3167SOL     OW21136   0.268   3.543   2.635  0.2674 -0.2395  0.0391
 3167SOL    HW121137   0.212   3.465   2.641  0.4762 -0.4630 -0.8941
 3167SOL    HW221138   0.350   3.502   2.608  0.0361 -1.1064  0.6352
 3168SOL     OW21139   2.183   2.538   5.922  0.1955  0.1332 -0.0368
 3168SOL    HW121140   2.157   2.508   5.835  1.0255 -0.6312 -0.0280
 3168SOL    HW221141   2.224   2.459   5.958  1.1381  1.5448  1.9852
 3169SOL     OW21142   2.447   0.071   3.507  0.0169 -0.2409  0.0186
 3169SOL    HW121143   2.385   0.021   3.560 -0.5405 -0.8133 -1.1861
 3169SOL    HW221144   2.450   0.012   3.432 -1.1974  0.2399 -0.4055
 3170SOL     OW21145   0.509   4.109  11.796 -0.3005 -0.0647 -0.4670
 3170SOL    HW121146   0.572   4.118  11.867  1.6672 -3.6025 -1.7314
 3170SOL    HW221147   0.557   4.093  11.714 -1.0720  0.4886 -1.0226
 3171SOL     OW21148   1.756   2.560   5.932  0.2664 -0.0075  0.6653
 3171SOL    HW121149   1.765   2.505   6.011  0.0555 -0.3224  0.4699
 3171SOL    HW221150   1.760   2.497   5.860 -0.7828 -1.7379  2.1125
 3172SOL     OW21151   1.525   2.292   8.922  0.0878  0.3741 -0.3358
 3172SOL    HW121152   1.437   2.268   8.895  0.1936  0.1015 -0.4410
 3172SOL    HW221153   1.520   2.387   8.914  2.5202  0.6344  1.1386
 3173SOL     OW21154   1.164   2.857  13.805  0.5239  0.4468  0.5899
 3173SOL    HW121155   1.212   2.851  13.723  0.0426 -0.0256  0.3428
 3173SOL    HW221156   1.096   2.790  13.794  1.8615 -0.5863 -1.4605
 3174SOL     OW21157   3.583   2.881   5.075  0.2894 -0.2638  0.2481
 3174SOL    HW121158   3.586   2.970   5.111 -0.0369 -0.3585  0.5082
 3174SOL    HW221159   3.645   2.871   5.003 -1.9875 -2.9936 -1.3190
 3175SOL     OW21160   1.371   0.710   9.005 -0.0562  0.7964 -0.0456
 3175SOL    HW121161   1.388   0.775   9.073  1.1618  1.5646 -1.0980
 3175SOL    HW221162   1.284   0.734   8.973  1.4430  1.3908 -3.5675
 3176SOL     OW21163   2.959   2.664   3.676 -0.0870  0.4023  0.9671
 3176SOL    HW121164   2.884   2.645   3.733  0.2671 -1.2422  0.8810
 3176SOL    HW221165   3.034   2.649   3.734 -1.1322  1.0804  2.4887
 3177SOL     OW21166   3.132   3.607   5.898  0.3765 -0.2325 -0.4368
 3177SOL    HW121167   3.116   3.513   5.886  1.8820 -0.4508 -0.7384
 3177SOL    HW221168   3.198   3.596   5.966 -1.5545 -1.4758  1.2510
 3178SOL     OW21169   3.206   3.414  11.673 -0.3559  0.4859 -0.2651
 3178SOL    HW121170   3.297   3.422  11.644  0.3240 -1.3416  1.3957
 3178SOL    HW221171   3.204   3.330  11.719  3.3636  1.8664  2.3987
 3179SOL     OW21172   1.756   3.908   6.148  0.1744  0.0476 -0.6276
 3179SOL    HW121173   1.685   3.938   6.090  1.0242  1.2957 -1.0405
 3179SOL    HW221174   1.783   3.835   6.092  0.6536 -1.4394  1.5381
 3180SOL     OW21175   3.066   4.153   6.679  0.1760 -0.0266  0.3953
 3180SOL    HW121176   3.048   4.167   6.772 -0.6347 -0.3703  0.2950
 3180SOL    HW221177   2.999   4.086   6.662  1.1615 -0.3319 -2.3566
 3181SOL     OW21178   1.739   2.952   6.236  0.1594  0.1329  0.1112
 3181SOL    HW121179   1.757   3.021   6.300  0.3504  0.4875 -0.3301
 3181SOL    HW221180   1.676   3.002   6.185  0.2450 -0.3110 -0.4274
 3182SOL     OW21181   3.861   3.714   4.657 -0.0927  0.0010 -0.4356
 3182SOL    HW121182   3.770   3.709   4.628 -0.2038 -0.1041 -0.0700
 3182SOL    HW221183   3.852   3.703   4.751  1.1988 -0.4831 -0.3661
 3183SOL     OW21184   3.022   4.216   4.025 -0.6144  0.0014  0.2648
 3183SOL    HW121185   3.077   4.237   4.101 -0.9915 -2.8611  1.3198
 3183SOL    HW221186   2.983   4.130   4.038  1.3578 -0.8104  0.8563
 3184SOL     OW21187   3.819   0.508  12.066 -0.1608 -0.2295  0.3014
 3184SOL    HW121188   3.894   0.460  12.101  0.9491 -0.7582 -2.7837
 3184SOL    HW221189   3.743   0.487  12.121 -1.2378 -0.5935 -1.3202
 3185SOL     OW21190   2.851   3.768   6.801  0.6054  0.2536 -0.4675
 3185SOL    HW121191   2.826   3.676   6.803  0.6664  0.2224 -1.5259
 3185SOL    HW221192   2.947   3.764   6.810  0.2717 -1.5674  2.5455
 3186SOL     OW21193   1.091   0.400   3.844  0.3258  0.2436  0.6746
 3186SOL    HW121194   1.092   0.458   3.920  0.4296  0.0497  0.8196
 3186SOL    HW221195   1.183   0.389   3.822  0.1310 -0.5775  0.2624
 3187SOL     OW21196   1.417   3.102   2.682 -0.5364 -0.1889  0.3562
 3187SOL    HW121197   1.424   3.032   2.747 -2.0993 -1.3604 -0.7390
 3187SOL    HW221198   1.466   3.174   2.720  0.1223  0.6284 -1.9899
 3188SOL     OW21199   3.421   1.276   8.962 -0.0290  0.6579  0.1085
 3188SOL    HW121200   3.415   1.181   8.954 -0.6277  0.5121  2.5036
 3188SOL    HW221201   3.516   1.283   8.970  0.1600 -1.1570 -0.5827
 3189SOL     OW21202   0.816   3.466   7.518  0.1240  0.7711  0.7264
 3189SOL    HW121203   0.871   3.391   7.496  0.4998  0.9933  0.8884
 3189SOL    HW221204   0.795   3.498   7.431 -1.5819  0.5571  1.0671
 3190SOL     OW21205   4.442   2.682   8.340 -0.1456 -0.0604  0.4494
 3190SOL    HW121206   4.441   2.769   8.300 -0.6006 -0.6814 -0.8970
 3190SOL    HW221207   4.442   2.624   8.264 -0.8049 -0.6961  0.9267
 3191SOL     OW21208   2.458   2.212   4.308  0.0116 -0.3923  0.5243
 3191SOL    HW121209   2.377   2.246   4.268  0.3409 -1.1803 -0.8161
 3191SOL    HW221210   2.494   2.153   4.242  2.6562  0.9071  0.8384
 3192SOL     OW21211   3.319   0.031   8.578  0.2390  0.8467 -0.5533
 3192SOL    HW121212   3.383   4.731   8.518 -1.1107 -1.1382 -0.7633
 3192SOL    HW221213   3.236   0.028   8.531  1.7112 -0.4486 -3.0492
 3193SOL     OW21214   4.444   3.707   0.268  0.0901 -0.7124  0.0242
 3193SOL    HW121215   4.505   3.755   0.324  1.3124  0.6416 -2.4587
 3193SOL    HW221216   4.509   3.653   0.222  0.8585 -0.3927  0.7359
 3194SOL     OW21217   1.612   4.681   0.532 -0.1381  0.4894  0.5361
 3194SOL    HW121218   1.707   4.688   0.538 -0.0550 -1.2869  1.1504
 3194SOL    HW221219   1.594   4.592   0.561  0.9727 -0.2160 -0.9565
 3195SOL     OW21220   4.258   2.222   3.319  0.6287 -0.4932  0.6075
 3195SOL    HW121221   4.233   2.304   3.277  1.8773  0.3837  1.5698
 3195SOL    HW221222   4.313   2.257   3.388  1.4235  0.4496 -0.5069
 3196SOL     OW21223   4.415   4.027   2.466 -0.2899  0.0708  0.0487
 3196SOL    HW121224   4.455   4.105   2.429 -0.9049  0.3461 -0.0364
 3196SOL    HW221225   4.461   4.033   2.550 -2.2969  0.1716  1.1410
 3197SOL     OW21226   0.579   2.947   4.357  0.3394  0.1720 -0.2844
 3197SOL    HW121227   0.521   2.960   4.432 -0.7385 -2.7452 -0.5981
 3197SOL    HW221228   0.664   2.948   4.399 -1.5809  2.4675  3.4787
 3198SOL     OW21229   3.990   3.650  17.547 -0.2413 -0.4038 -0.2604
 3198SOL    HW121230   3.919   3.609  17.597 -0.1608 -2.1742 -1.5824
 3198SOL    HW221231   3.934   3.711  17.498 -0.9645 -0.5616  0.3617
 3199SOL     OW21232   4.448   1.801   9.606  0.1046 -0.3903  0.2365
 3199SOL    HW121233   4.476   1.886   9.571 -1.3316 -0.4181 -0.9983
 3199SOL    HW221234   4.486   1.810   9.693  0.9868 -0.2674 -0.1616
 3200SOL     OW21235   3.615   2.809  10.074 -0.2619 -0.5173  0.3858
 3200SOL    HW121236   3.611   2.789  10.168  1.4017 -0.7687  0.3975
 3200SOL    HW221237   3.557   2.744  10.034 -0.2440 -1.1283  1.3370
 3201SOL     OW21238   1.095   0.723   5.957 -0.5519 -0.4273 -0.0886
 3201SOL    HW121239   1.121   0.673   5.879 -0.9422 -1.3616  0.3866
 3201SOL    HW221240   1.000   0.720   5.960 -0.6917  2.5063 -1.1072
 3202SOL     OW21241   1.685   2.477  17.188  0.3990  0.5542 -0.4069
 3202SOL    HW121242   1.687   2.391  17.230  1.0626  0.6572 -0.2296
 3202SOL    HW221243   1.591   2.495  17.185 -0.5872 -4.3114  1.3770
 3203SOL     OW21244   1.620   1.744   2.729  0.5584 -0.5857 -0.1019
 3203SOL    HW121245   1.534   1.706   2.717  0.4447  0.1773 -1.7369
 3203SOL    HW221246   1.679   1.668   2.732  2.1866  0.6625 -0.5751
 3204SOL     OW21247   3.172   1.503   8.660  0.3936  0.2945  0.4276
 3204SOL    HW121248   3.190   1.565   8.730  0.0252  0.3294  0.4898
 3204SOL    HW221249   3.080   1.477   8.666  0.1779  0.8632 -0.4527
 3205SOL     OW21250   2.041   4.010   3.792 -0.3786  0.3430 -0.3662
 3205SOL    HW121251   1.950   4.014   3.762 -0.4323 -1.7503 -0.5036
 3205SOL    HW221252   2.054   3.916   3.808 -0.6302  0.2373 -0.7704
 3206SOL     OW21253   3.323   0.577   8.522  0.4504 -0.0572 -0.7821
 3206SOL    HW121254   3.242   0.628   8.523  1.1628  1.0727 -0.6928
 3206SOL    HW221255   3.292   0.497   8.566 -1.1092  1.1250  0.2544
 3207SOL     OW21256   3.090   0.899   6.753 -0.2083 -0.3088 -0.5223
 3207SOL    HW121257   3.041   0.821   6.727 -1.1033  0.3722 -0.8755
 3207SOL    HW221258   3.179   0.881   6.724  0.4127  2.1248 -0.1425
 3208SOL     OW21259   3.373   0.380   4.042 -0.4136 -0.0445 -0.3532
 3208SOL    HW121260   3.356   0.404   4.133 -4.1363 -1.3657 -0.6839
 3208SOL    HW221261   3.301   0.321   4.019  0.9582 -2.0282  0.3727
 3209SOL     OW21262   4.183   0.456   6.858 -0.0229 -0.2806  0.0520
 3209SOL    HW121263   4.255   0.393   6.863 -1.4183 -1.8616 -0.1749
 3209SOL    HW221264   4.117   0.412   6.910 -0.5274 -0.9577 -1.1592
 3210SOL     OW21265   4.019   3.700  14.496 -0.2480 -0.9352  0.1221
 3210SOL    HW121266   4.083   3.654  14.549 -0.6498  0.3717  1.7341
 3210SOL    HW221267   4.047   3.664  14.412 -0.7905 -1.8317  0.3287
 3211SOL     OW21268   2.826   1.443   6.604 -0.5575 -0.0831 -0.8220
 3211SOL    HW121269   2.832   1.474   6.514 -0.3219  0.5223 -0.6013
 3211SOL    HW221270   2.737   1.409   6.604  0.0667 -1.6939 -0.2620
 3212SOL     OW21271   3.142   0.601   5.268 -0.1630 -0.0782 -0.3385
 3212SOL    HW121272   3.167   0.511   5.291 -1.8763 -0.0170  1.7833
 3212SOL    HW221273   3.222   0.635   5.228 -0.7587  0.9333 -0.6528
 3213SOL     OW21274   4.633   4.705  12.333  0.0974  0.1926  0.2046
 3213SOL    HW121275   4.544   4.688  12.362 -0.6820  4.6898  0.3832
 3213SOL    HW221276   4.651   0.042  12.391 -0.4182  1.1866 -0.9063
 3214SOL     OW21277   0.942   1.445   2.270  0.6011  0.4355 -0.1878
 3214SOL    HW121278   0.893   1.371   2.305  2.4109 -0.9263 -0.5329
 3214SOL    HW221279   0.941   1.507   2.343  1.3074  0.3431 -0.0998
 3215SOL     OW21280   1.112   0.360   6.540 -0.0526 -0.2693  0.0272
 3215SOL    HW121281   1.047   0.307   6.494  0.0557 -1.6090  1.4059
 3215SOL    HW221282   1.055   0.419   6.589 -1.7308 -1.4033 -0.5879
 3216SOL     OW21283   1.637   3.030  16.252  1.0350  0.3811 -0.2259
 3216SOL    HW121284   1.594   2.946  16.236  0.4637  1.1556 -2.7583
 3216SOL    HW221285   1.674   3.019  16.339  2.3526 -0.7529 -0.9230
 3217SOL     OW21286   2.415   1.438   1.371 -0.1579  0.1459  0.5447
 3217SOL    HW121287   2.384   1.360   1.417  1.9794 -1.9637 -1.5453
 3217SOL    HW221288   2.372   1.512   1.414  2.1132  2.8222 -1.7386
 3218SOL     OW21289   2.075   3.671   2.975 -0.1191 -0.0348 -0.2365
 3218SOL    HW121290   2.166   3.651   2.952  0.7269  1.2719  1.9803
 3218SOL    HW221291   2.029   3.628   2.903 -0.1439  0.4014 -0.4835
 3219SOL     OW21292   1.853   4.434  11.446 -0.5331  0.1390 -0.7624
 3219SOL    HW121293   1.944   4.426  11.475 -0.5574  2.5952  0.0583
 3219SOL    HW221294   1.855   4.529  11.434 -1.9506  0.3572  0.6108
 3220SOL     OW21295   0.629   4.053  16.547  0.0624 -0.0003 -0.2042
 3220SOL    HW121296   0.696   4.118  16.571  0.7865  0.1786 -2.6988
 3220SOL    HW221297   0.596   4.088  16.465  1.9928 -0.4268 -1.1620
 3221SOL     OW21298   3.119   0.689   4.945  0.4138 -0.0587  0.3429
 3221SOL    HW121299   3.100   0.597   4.961 -0.8425 -0.1670 -1.7179
 3221SOL    HW221300   3.213   0.685   4.927  0.3916 -0.6038  0.3505
 3222SOL     OW21301   0.546   0.398  11.143 -0.0880  0.1995  0.0872
 3222SOL    HW121302   0.598   0.320  11.162 -0.8549 -0.4022 -0.3005
 3222SOL    HW221303   0.509   0.418  11.229  2.4054 -0.2916  1.2481
 3223SOL     OW21304   3.436   1.227   8.476 -0.4345  0.4363  0.3786
 3223SOL    HW121305   3.529   1.251   8.469 -0.3102  0.8590  3.5095
 3223SOL    HW221306   3.394   1.302   8.435  0.8041  1.4415  0.9574
 3224SOL     OW21307   1.576   2.534  15.765 -0.2094  0.1312 -0.1703
 3224SOL    HW121308   1.517   2.549  15.691 -1.6871  0.7274  1.1340
 3224SOL    HW221309   1.610   2.617  15.797  1.3950 -0.3256 -0.6665
 3225SOL     OW21310   1.108   2.351  11.404  0.2582 -0.4870  0.2066
 3225SOL    HW121311   1.026   2.395  11.384  0.7170 -0.0307 -0.6498
 3225SOL    HW221312   1.130   2.375  11.494 -0.9665  1.2665  0.0246
 3226SOL     OW21313   4.538   3.528  12.006  0.1466 -0.0884 -0.0695
 3226SOL    HW121314   4.538   3.433  11.996  1.5968 -0.2791  1.7570
 3226SOL    HW221315   4.446   3.549  11.992 -0.3218 -0.3207  2.8192
 3227SOL     OW21316   0.967   1.062   5.294  0.1862  0.5034  0.1344
 3227SOL    HW121317   1.033   1.102   5.238 -1.3476  2.1222 -0.5527
 3227SOL    HW221318   0.922   0.993   5.245  0.4538  0.2492  0.2527
 3228SOL     OW21319   2.412   0.557   0.095 -0.3663  0.0247  0.5451
 3228SOL    HW121320   2.426   0.466   0.119  0.9304 -0.3288 -1.5259
 3228SOL    HW221321   2.407   0.542   0.000  0.8798  0.6745  0.3776
 3229SOL     OW21322   1.763   4.633  16.594 -0.0857  0.3862 -0.3672
 3229SOL    HW121323   1.675   4.642  16.557 -1.7419  0.1945  3.6113
 3229SOL    HW221324   1.756   4.558  16.652 -2.0390  2.3375  1.9264
 3230SOL     OW21325   1.624   0.548   2.346 -0.2116  0.5515  0.5797
 3230SOL    HW121326   1.617   0.528   2.439 -1.3863  3.2262  1.0657
 3230SOL    HW221327   1.572   0.473   2.317 -0.8087  1.0597  0.3115
 3231SOL     OW21328   0.854   1.300   9.092 -0.0054 -0.2447  0.3215
 3231SOL    HW121329   0.923   1.234   9.101  0.2870 -0.0826 -0.7832
 3231SOL    HW221330   0.788   1.250   9.044 -0.1196 -0.7693  1.0204
 3232SOL     OW21331   2.194   3.261   6.905 -0.1370  0.0261  0.5734
 3232SOL    HW121332   2.280   3.275   6.866 -0.4331 -2.8116 -1.1209
 3232SOL    HW221333   2.168   3.178   6.863  0.5632  0.6840 -1.1671
 3233SOL     OW21334   2.795   4.033   4.333  1.1399  0.0828 -0.0979
 3233SOL    HW121335   2.751   4.017   4.250  0.2853  0.7067  0.2369
 3233SOL    HW221336   2.857   3.960   4.329  0.6382 -0.3132 -0.6098
 3234SOL     OW21337   2.796   2.907   7.722 -0.0528  0.2124  0.5774
 3234SOL    HW121338   2.716   2.858   7.701 -0.4029  1.0569 -0.0565
 3234SOL    HW221339   2.862   2.838   7.712 -0.3308  0.1729 -1.0269
 3235SOL     OW21340   0.805   1.024   1.062  0.1690  0.3192 -0.0631
 3235SOL    HW121341   0.732   1.019   1.000  1.1989  2.5172 -1.4296
 3235SOL    HW221342   0.872   1.057   1.002 -0.7081  2.3929  0.1288
 3236SOL     OW21343   4.591   1.274   3.538 -0.5031  0.1306  0.2341
 3236SOL    HW121344   4.672   1.270   3.488 -1.6314 -1.3875 -1.4491
 3236SOL    HW221345   4.569   1.181   3.542 -0.5802  0.1590  0.4863
 3237SOL     OW21346   0.386   4.630   2.886 -0.2196 -0.2137 -0.3607
 3237SOL    HW121347   0.446   4.567   2.927 -1.3072 -0.4865  0.8224
 3237SOL    HW221348   0.305   4.600   2.927 -0.9228  4.2873  1.5568
 3238SOL     OW21349   0.621   1.548   1.674 -0.1237 -0.0615  0.2857
 3238SOL    HW121350   0.615   1.496   1.594  1.8815  0.1122  0.0303
 3238SOL    HW221351   0.546   1.607   1.666  1.4151  1.8326 -0.1650
 3239SOL     OW21352   2.973   2.370   7.998 -0.8563 -0.4158 -0.4000
 3239SOL    HW121353   3.068   2.379   7.988 -0.9668  0.1576 -0.9169
 3239SOL    HW221354   2.960   2.418   8.079  1.0925 -0.1424 -0.2376
 3240SOL     OW21355   2.447   1.037   1.182  0.1856 -0.3077  0.8953
 3240SOL    HW121356   2.435   1.007   1.272  0.2857 -4.0780 -0.3557
 3240SOL    HW221357   2.370   1.003   1.136  0.3687  1.9425 -1.0430
 3241SOL     OW21358   4.087   2.492   4.600 -0.5485 -0.3078 -0.7921
 3241SOL    HW121359   4.076   2.397   4.608  3.0755 -0.7184 -0.4847
 3241SOL    HW221360   4.003   2.529   4.626 -1.0775 -0.5812 -2.1502
 3242SOL     OW21361   0.617   1.336  15.635 -0.1212 -0.0196 -0.0727
 3242SOL    HW121362   0.678   1.356  15.564  1.9447  0.2739  1.7651
 3242SOL    HW221363   0.679   1.351  15.707  0.9248 -1.7697 -0.6064
 3243SOL     OW21364   3.490   2.435   7.804 -0.0422 -0.6154  0.2687
 3243SOL    HW121365   3.464   2.521   7.837  0.0182 -0.6571  0.4257
 3243SOL    HW221366   3.532   2.451   7.720 -2.5793  1.8603 -0.5256
 3244SOL     OW21367   2.120   4.682   6.216  0.5449  0.1721 -0.8234
 3244SOL    HW121368   2.147   4.596   6.184  2.0511  0.1703  0.4430
 3244SOL    HW221369   2.199   4.732   6.236 -0.6790  0.8835  2.2045
 3245SOL     OW21370   1.931   1.237  12.226  0.1975  0.4629 -0.6581
 3245SOL    HW121371   2.009   1.187  12.202  0.6560  1.9609 -2.2859
 3245SOL    HW221372   1.855   1.185  12.198 -0.2226  1.3744 -1.2276
 3246SOL     OW21373   4.322   1.807   7.460  0.5115 -0.0944  0.1567
 3246SOL    HW121374   4.228   1.788   7.462  0.3249  0.8102  0.0425
 3246SOL    HW221375   4.336   1.801   7.365  1.0349  0.2029  0.2154
 3247SOL     OW21376   2.207   3.189   1.898 -0.0944  0.0371  0.5574
 3247SOL    HW121377   2.270   3.256   1.924  0.8187 -0.7451  0.3560
 3247SOL    HW221378   2.258   3.114   1.868 -0.1286  0.1413  0.2390
 3248SOL     OW21379   4.617   4.680   8.146 -0.2471  0.0039  0.3500
 3248SOL    HW121380   4.566   4.681   8.064 -1.3768 -1.6349  1.0163
 3248SOL    HW221381   4.600   0.032   8.176 -2.5735 -0.0172 -0.8916
 3249SOL     OW21382   1.022   1.914   4.425 -0.5710  0.4051  0.2857
 3249SOL    HW121383   1.089   1.856   4.390 -0.6944 -0.0519  0.8006
 3249SOL    HW221384   1.069   1.991   4.456  1.7064 -0.4737 -1.0001
 3250SOL     OW21385   3.259   0.377   6.357  0.4976  0.3011  0.1167
 3250SOL    HW121386   3.251   0.319   6.433  1.5245  0.4347  0.3298
 3250SOL    HW221387   3.347   0.413   6.370  1.0372 -0.1282 -2.4302
 3251SOL     OW21388   2.795   1.612   5.866 -0.4652  0.5212 -0.1616
 3251SOL    HW121389   2.765   1.610   5.775  0.6728 -0.4600 -0.5091
 3251SOL    HW221390   2.730   1.669   5.909 -0.6420 -0.3025  0.6664
 3252SOL     OW21391   1.211   1.671   7.430 -0.1768 -0.0980  0.0133
 3252SOL    HW121392   1.134   1.723   7.454 -1.4675 -1.2769 -1.5003
 3252SOL    HW221393   1.214   1.596   7.489  0.4531 -0.6856 -0.7591
 3253SOL     OW21394   3.244   2.704   6.280  0.5423 -0.3060 -0.0875
 3253SOL    HW121395   3.306   2.688   6.209  1.6987  2.4892  0.3213
 3253SOL    HW221396   3.277   2.633   6.336 -1.6241 -1.9575 -0.8686
 3254SOL     OW21397   4.618   2.035  13.707  0.1805 -0.3310  0.0717
 3254SOL    HW121398   4.680   2.098  13.743  0.0736  0.2101 -0.6898
 3254SOL    HW221399   4.548   2.096  13.683  0.8841  0.3973 -0.1227
 3255SOL     OW21400   0.057   4.584   2.725 -0.7937  0.3743 -0.1359
 3255SOL    HW121401   4.727   4.639   2.765  0.6173  3.0295 -1.3759
 3255SOL    HW221402   0.006   4.546   2.654 -0.6758  0.2312 -0.1440
 3256SOL     OW21403   3.406   3.493   0.351 -0.1617 -0.0090 -0.4508
 3256SOL    HW121404   3.440   3.405   0.334 -0.7064 -0.2352 -0.3968
 3256SOL    HW221405   3.447   3.523   0.270  1.6676  0.2260  0.5642
 3257SOL     OW21406   1.926   0.336   2.492 -0.7383 -0.2445 -0.8440
 3257SOL    HW121407   1.910   0.346   2.398 -0.4646 -1.9729 -1.0683
 3257SOL    HW221408   1.976   0.416   2.512 -0.2273 -0.5993 -0.7055
 3258SOL     OW21409   3.885   4.677  10.963 -0.0375 -0.4107  0.1559
 3258SOL    HW121410   3.895   4.692  10.869 -0.7901  0.3862  0.2060
 3258SOL    HW221411   3.814   0.001  10.980 -1.1248 -1.4597 -0.5741
 3259SOL     OW21412   3.709   0.644   1.636 -0.8260  0.1899 -0.3131
 3259SOL    HW121413   3.742   0.722   1.681 -0.6005  1.4049 -2.5903
 3259SOL    HW221414   3.673   0.585   1.701  2.4200 -0.6700  0.7060
 3260SOL     OW21415   2.268   1.733  15.298  0.1847  0.0829 -0.1815
 3260SOL    HW121416   2.223   1.781  15.368  1.7272  2.6847 -0.9775
 3260SOL    HW221417   2.209   1.658  15.295 -2.3260  2.0864 -1.6028
 3261SOL     OW21418   4.729   3.032   9.387 -0.4682 -0.3897  0.9199
 3261SOL    HW121419   4.720   3.121   9.423 -1.4795 -0.5744  1.1148
 3261SOL    HW221420   0.011   2.979   9.464  0.7418 -0.3462  0.6573
 3262SOL     OW21421   2.484   4.207  14.633 -0.3462  0.0157 -0.5798
 3262SOL    HW121422   2.462   4.223  14.725 -0.0888  0.3909 -0.5821
 3262SOL    HW221423   2.422   4.265  14.590 -0.0784 -0.8022 -2.0512
 3263SOL     OW21424   3.440   3.006   7.854 -0.1946  0.0144 -0.0535
 3263SOL    HW121425   3.497   2.965   7.918  0.4270  0.5305 -0.2828
 3263SOL    HW221426   3.453   2.946   7.780  0.0731 -1.4782  1.2012
 3264SOL     OW21427   3.641   2.838  14.661 -0.4338 -0.1405 -0.0100
 3264SOL    HW121428   3.566   2.804  14.612 -0.5711  0.7831 -0.4440
 3264SOL    HW221429   3.597   2.882  14.734 -1.4435 -4.2200  1.8075
 3265SOL     OW21430   3.116   2.319  16.099  0.4829  0.5562  0.0723
 3265SOL    HW121431   3.060   2.243  16.116  0.9944 -0.5606 -3.3374
 3265SOL    HW221432   3.187   2.289  16.042  0.3242  0.6720 -0.1871
 3266SOL     OW21433   2.901   0.532   1.236 -0.3558 -0.0246 -0.0478
 3266SOL    HW121434   2.897   0.621   1.271  0.2941  0.0337 -0.1287
 3266SOL    HW221435   2.808   0.512   1.233 -0.6225  1.2478 -0.1485
 3267SOL     OW21436   3.589   1.412   6.895 -0.4470  0.1071 -0.2963
 3267SOL    HW121437   3.588   1.480   6.962 -0.8251  1.1904 -1.3859
 3267SOL    HW221438   3.501   1.432   6.863 -0.6212 -1.8127 -1.0261
 3268SOL     OW21439   4.734   2.796  16.710  0.0929  0.0554  0.1438
 3268SOL    HW121440   0.071   2.772  16.654  0.6928 -0.3754  1.1282
 3268SOL    HW221441   0.013   2.732  16.779  0.8582  1.7017  1.5096
 3269SOL     OW21442   2.019   0.703   6.049 -0.3257  0.7837 -0.3314
 3269SOL    HW121443   2.060   0.703   5.963 -0.3122  1.0650 -0.3263
 3269SOL    HW221444   2.081   0.657   6.106  0.8100 -2.5547 -4.2394
 3270SOL     OW21445   4.670   3.894   1.111  0.5784  0.0218  0.1538
 3270SOL    HW121446   0.026   3.874   1.117  0.5638  0.0356  0.4260
 3270SOL    HW221447   4.638   3.838   1.039 -0.2854  0.8051 -0.0691
 3271SOL     OW21448   2.137   4.290   5.485  0.0377  0.7680 -0.1259
 3271SOL    HW121449   2.229   4.311   5.501  0.2472 -0.8208  0.7612
 3271SOL    HW221450   2.099   4.341   5.556 -0.7589  0.7105 -0.5167
 3272SOL     OW21451   1.005   0.339   7.865 -0.0144  0.0033  0.2493
 3272SOL    HW121452   1.060   0.385   7.928 -1.3306 -0.8272  2.0219
 3272SOL    HW221453   1.070   0.345   7.796 -1.1647  2.1629 -0.6265
 3273SOL     OW21454   3.508   3.017  12.383 -0.0974  0.5181  0.2361
 3273SOL    HW121455   3.518   3.026  12.288  1.0981 -2.2518  0.1073
 3273SOL    HW221456   3.584   2.963  12.402 -0.4376 -0.5134 -1.2896
 3274SOL     OW21457   0.912   0.989   7.435 -0.2786  0.4970 -0.6007
 3274SOL    HW121458   0.961   0.907   7.438  2.0979  1.9496  0.4080
 3274SOL    HW221459   0.970   1.054   7.397  2.2253 -1.0332  0.6422
 3275SOL     OW21460   4.153   1.454   6.753  0.1784  0.6019 -0.8607
 3275SOL    HW121461   4.081   1.449   6.690 -0.1201  0.4546 -0.5104
 3275SOL    HW221462   4.222   1.479   6.691  0.9674 -2.3207 -1.1702
 3276SOL     OW21463   2.059   1.814  12.778  0.0695  0.0897 -0.2252
 3276SOL    HW121464   2.072   1.724  12.807  2.1428  0.5906  0.4456
 3276SOL    HW221465   1.987   1.803  12.716 -1.5904 -0.3287  1.7887
 3277SOL     OW21466   0.537   0.735   6.889 -0.1802  0.3950  0.4120
 3277SOL    HW121467   0.574   0.736   6.801 -0.7930 -0.1965  0.1515
 3277SOL    HW221468   0.610   0.776   6.935 -1.7409  1.8301  1.6026
 3278SOL     OW21469   0.057   4.510  12.112  0.0434 -0.5249 -0.0251
 3278SOL    HW121470   4.714   4.511  12.165 -0.1512  0.0083 -0.3265
 3278SOL    HW221471   0.118   4.563  12.163 -0.4117 -0.1843  0.1642
 3279SOL     OW21472   3.640   3.235   1.956  0.0216 -0.0553 -0.0976
 3279SOL    HW121473   3.690   3.183   1.894  1.4293  1.9327 -0.6406
 3279SOL    HW221474   3.608   3.304   1.898  2.1979  1.4563  0.4829
 3280SOL     OW21475   3.058   3.687   3.214  0.4225  0.0032 -0.2511
 3280SOL    HW121476   2.990   3.628   3.246  0.4548 -0.9168 -1.8637
 3280SOL    HW221477   3.115   3.691   3.290  2.0818  0.3595 -1.5007
 3281SOL     OW21478   0.071   1.544   1.778  0.3117 -0.2665  0.0505
 3281SOL    HW121479   0.027   1.464   1.807 -0.0994  0.2185  0.7698
 3281SOL    HW221480   0.036   1.610   1.837 -1.8470  1.4170 -3.0926
 3282SOL     OW21481   3.610   2.629   7.078  0.1240 -0.1867  0.1512
 3282SOL    HW121482   3.673   2.565   7.111  0.5078  0.6772  1.1118
 3282SOL    HW221483   3.669   2.694   7.040 -1.0106  1.3862  1.0453
 3283SOL     OW21484   2.894   3.874   8.905 -0.1869  0.0998 -0.3606
 3283SOL    HW121485   2.892   3.826   8.822 -0.4425  1.0150 -0.8816
 3283SOL    HW221486   2.980   3.915   8.912 -0.0030 -0.2345 -0.6421
 3284SOL     OW21487   2.733   1.713   1.428  0.1658 -0.2258 -0.4356
 3284SOL    HW121488   2.811   1.760   1.397  1.0674 -2.4516 -1.5071
 3284SOL    HW221489   2.671   1.728   1.358  0.5045 -0.9076 -0.8823
 3285SOL     OW21490   4.158   0.858  15.225  0.8758  0.3701  0.3167
 3285SOL    HW121491   4.204   0.842  15.143 -1.4519  3.5301 -1.6416
 3285SOL    HW221492   4.228   0.840  15.287  1.1368 -2.2122 -0.7107
 3286SOL     OW21493   1.948   0.440  17.156 -0.0991 -0.5084 -0.7587
 3286SOL    HW121494   2.002   0.517  17.138  0.4399 -0.7565 -0.1896
 3286SOL    HW221495   2.019   0.378  17.139 -1.8624 -2.4786 -0.9044
 3287SOL     OW21496   4.328   4.699  11.630 -0.1148  0.1375  0.2160
 3287SOL    HW121497   4.242   4.658  11.618  0.3252 -1.2006  1.5859
 3287SOL    HW221498   4.386   4.624  11.621 -1.6218 -0.7597 -2.1852
 3288SOL     OW21499   1.210   1.649   6.151 -0.4681 -0.1863 -0.4993
 3288SOL    HW121500   1.128   1.680   6.111 -0.8092 -0.4066  0.0262
 3288SOL    HW221501   1.273   1.704   6.105  0.1279 -2.7778 -2.8066
 3289SOL     OW21502   2.357   1.312   9.930 -1.0087 -0.2229  0.2336
 3289SOL    HW121503   2.315   1.299  10.015  1.5234  0.7211  1.6213
 3289SOL    HW221504   2.276   1.337   9.884 -0.6826  3.2039  1.5068
 3290SOL     OW21505   2.208   2.161   2.662 -0.7364 -0.7092  0.1671
 3290SOL    HW121506   2.277   2.134   2.722  0.4505  1.1667 -0.3303
 3290SOL    HW221507   2.229   2.101   2.591  3.3976 -0.2135  0.9356
 3291SOL     OW21508   0.217   1.599   5.509 -0.1194  0.8745 -0.3335
 3291SOL    HW121509   0.222   1.504   5.521 -0.8169  0.9302  0.4585
 3291SOL    HW221510   0.130   1.607   5.470 -0.5790 -1.0966  0.2952
 3292SOL     OW21511   1.799   3.196   6.345  0.0241  0.1188  0.2502
 3292SOL    HW121512   1.890   3.195   6.375 -0.0424  2.4759  0.5558
 3292SOL    HW221513   1.774   3.276   6.298 -0.4000  0.1244  0.4884
 3293SOL     OW21514   3.918   2.448   7.615  0.3119  0.0803 -0.2902
 3293SOL    HW121515   3.892   2.479   7.528 -1.6981  0.6758  0.5197
 3293SOL    HW221516   3.842   2.473   7.667  1.6860  2.3806  0.6004
 3294SOL     OW21517   3.385   1.691   5.838 -0.4091 -0.5637  0.2790
 3294SOL    HW121518   3.295   1.664   5.858  0.1262 -1.3973  1.5581
 3294SOL    HW221519   3.393   1.715   5.931 -1.2768 -0.1050  0.2366
 3295SOL     OW21520   2.380   4.457  12.399  0.9042 -0.0738  0.0663
 3295SOL    HW121521   2.363   4.467  12.493  0.4884  0.6319 -0.0870
 3295SOL    HW221522   2.442   4.384  12.399  2.3602  1.1515  0.1602
 3296SOL     OW21523   2.621   1.569   7.822  0.5386 -0.2347 -0.1450
 3296SOL    HW121524   2.677   1.590   7.896  2.4173 -2.1766 -1.0365
 3296SOL    HW221525   2.658   1.485   7.795  2.9966  0.7765  0.1644
 3297SOL     OW21526   3.891   1.441   4.825  0.3401 -0.6740 -0.2650
 3297SOL    HW121527   3.801   1.415   4.843  0.4866 -0.9946  0.0155
 3297SOL    HW221528   3.925   1.445   4.914  1.2823 -0.3668 -0.6409
 3298SOL     OW21529   2.238   3.311   4.050  0.5414 -0.2358  0.7361
 3298SOL    HW121530   2.214   3.323   4.141 -0.8670  1.0294  0.2001
 3298SOL    HW221531   2.327   3.277   4.044  0.3144 -0.3998 -1.8502
 3299SOL     OW21532   0.459   3.767   7.543 -0.0383  0.2349 -0.5911
 3299SOL    HW121533   0.417   3.844   7.507 -0.1958  0.8133  0.8238
 3299SOL    HW221534   0.514   3.809   7.610 -0.7256  2.5250 -1.4794
 3300SOL     OW21535   3.569   0.566   6.664 -0.2205  0.0646  0.3888
 3300SOL    HW121536   3.661   0.566   6.688  0.0714 -0.9464 -0.7496
 3300SOL    HW221537   3.520   0.580   6.745  2.6426 -0.9988  2.2812
 3301SOL     OW21538   3.273   4.630   0.907  0.4200  0.8468 -0.8423
 3301SOL    HW121539   3.237   4.543   0.926  1.2568  0.7029  0.0613
 3301SOL    HW221540   3.226   4.686   0.969  2.1997  1.4176 -0.0344
 3302SOL     OW21541   2.094   1.858   9.373 -0.3850 -0.1943  0.0576
 3302SOL    HW121542   2.187   1.875   9.391 -0.7459 -0.2642  1.9889
 3302SOL    HW221543   2.060   1.938   9.412  1.4464  0.2217  0.8355
 3303SOL     OW21544   0.280   0.633   4.642  0.1774 -0.4293 -0.0325
 3303SOL    HW121545   0.354   0.669   4.594 -1.6626 -0.1455 -2.6597
 3303SOL    HW221546   0.301   0.671   4.728 -0.3910  0.2151 -0.1793
 3304SOL     OW21547   0.382   0.019  16.891  0.7404  0.5078 -0.0318
 3304SOL    HW121548   0.364   4.666  16.917 -1.7412  0.9431 -0.2095
 3304SOL    HW221549   0.375   0.011  16.796  0.6370 -1.5536  0.1577
 3305SOL     OW21550   3.018   3.780  16.099 -0.4427  0.2063 -0.0816
 3305SOL    HW121551   2.967   3.810  16.024  1.2070  1.3390 -0.7462
 3305SOL    HW221552   3.065   3.704  16.064  1.6135  1.6950 -0.5516
 3306SOL     OW21553   3.603   0.309   1.163  0.0253 -0.0883 -0.1636
 3306SOL    HW121554   3.588   0.350   1.078  1.7540  0.7176 -0.0751
 3306SOL    HW221555   3.517   0.267   1.174 -1.1071  2.4319  0.6695
 3307SOL     OW21556   4.343   4.568   6.074  0.5213 -0.4326  0.3394
 3307SOL    HW121557   4.306   4.495   6.025 -0.5675  1.1140 -1.1429
 3307SOL    HW221558   4.292   4.577   6.155  0.7592  2.9398  0.1140
 3308SOL     OW21559   2.238   0.888   1.078 -0.2365  0.4079 -0.3488
 3308SOL    HW121560   2.261   0.800   1.049  1.9846  1.1749 -0.9780
 3308SOL    HW221561   2.145   0.873   1.091 -0.0966  0.3761  0.5868
 3309SOL     OW21562   1.236   1.638  14.985 -0.2515  0.1760  0.2572
 3309SOL    HW121563   1.151   1.614  15.023 -0.8365  1.3721 -0.2896
 3309SOL    HW221564   1.249   1.731  15.006 -1.2482  0.6461 -1.0956
 3310SOL     OW21565   1.400   3.979   6.862 -0.9400  0.2105  0.5670
 3310SOL    HW121566   1.338   4.051   6.869  1.6739  2.4450  0.5361
 3310SOL    HW221567   1.368   3.941   6.780 -0.1227  1.6758 -0.4341
 3311SOL     OW21568   3.857   0.210   3.583  0.2432  0.2811  0.2421
 3311SOL    HW121569   3.860   0.213   3.678  0.5874  2.0707  0.1856
 3311SOL    HW221570   3.947   0.240   3.568 -0.4427  2.9468  1.4244
 3312SOL     OW21571   3.848   3.282   4.513  0.1449  0.5311 -0.2566
 3312SOL    HW121572   3.888   3.240   4.436  0.6168  0.2461  0.1454
 3312SOL    HW221573   3.898   3.363   4.509  0.2680  0.4903  0.4924
 3313SOL     OW21574   0.816   2.330   1.482 -0.7736  0.4235 -0.6470
 3313SOL    HW121575   0.732   2.349   1.523  0.2558 -0.6010  1.9568
 3313SOL    HW221576   0.792   2.351   1.392  0.3994 -0.0521 -1.0771
 3314SOL     OW21577   2.438   2.049   7.061 -0.0272 -0.4081  0.0632
 3314SOL    HW121578   2.499   1.994   7.110  1.1726 -0.9031 -1.9594
 3314SOL    HW221579   2.360   2.030   7.112 -0.0802  1.3998  0.6461
 3315SOL     OW21580   3.816   4.646   6.473  0.2566 -0.1563 -0.1412
 3315SOL    HW121581   3.875   4.574   6.454  1.1234  0.4162  0.3748
 3315SOL    HW221582   3.763   4.605   6.541 -0.5479  1.6394  0.3309
 3316SOL     OW21583   4.268   3.022  13.493  0.3175  0.4201 -0.0548
 3316SOL    HW121584   4.249   3.112  13.465  5.7487  0.4956 -3.6265
 3316SOL    HW221585   4.363   3.014  13.492  0.0836 -2.1846 -1.5842
 3317SOL     OW21586   4.251   1.017  17.683  0.6621 -0.2341 -0.2622
 3317SOL    HW121587   4.226   0.924  17.691 -1.1488  0.0265 -2.8282
 3317SOL    HW221588   4.205   1.041  17.603  0.1920  1.4602  0.5087
 3318SOL     OW21589   1.182   4.314   1.665 -0.0650 -0.0812  0.1050
 3318SOL    HW121590   1.223   4.376   1.604  1.1802 -1.5914 -0.5941
 3318SOL    HW221591   1.195   4.241   1.605  0.1406  0.6340 -0.7234
 3319SOL     OW21592   0.254   1.134   8.159  0.0600  0.5227 -0.3048
 3319SOL    HW121593   0.207   1.208   8.120  2.1955  1.1715 -1.6673
 3319SOL    HW221594   0.208   1.061   8.120 -0.1652  0.7531 -0.4687
 3320SOL     OW21595   2.122   2.071   9.820  0.3720 -0.4146 -0.1353
 3320SOL    HW121596   2.199   2.103   9.866  0.1240  1.3361 -0.9259
 3320SOL    HW221597   2.090   2.155   9.785 -1.5705 -0.3323  1.8436
 3321SOL     OW21598   1.247   3.935   5.901  0.3682  0.3999 -0.1587
 3321SOL    HW121599   1.292   4.017   5.884  0.1764  0.3647 -0.8297
 3321SOL    HW221600   1.176   3.922   5.838 -1.1686 -2.7567  2.2537
 3322SOL     OW21601   2.195   4.120  10.951 -0.1679  0.6027  0.8557
 3322SOL    HW121602   2.175   4.110  10.858 -2.2086 -0.3653  1.4198
 3322SOL    HW221603   2.230   4.032  10.963 -0.5354  0.4225  0.5757
 3323SOL     OW21604   3.054   0.102  10.608 -0.1166 -0.0304  0.1077
 3323SOL    HW121605   3.136   0.100  10.560  1.1039  0.3650  2.1911
 3323SOL    HW221606   3.075   0.158  10.683  1.9535 -0.2888 -0.2825
 3324SOL     OW21607   1.633   2.316   5.220 -0.4921  0.3514 -0.2020
 3324SOL    HW121608   1.616   2.281   5.132  1.3133  1.0978 -0.8476
 3324SOL    HW221609   1.544   2.342   5.246 -0.8673 -2.5861  1.4784
 3325SOL     OW21610   1.194   0.687   5.443  0.4122  0.5506 -0.2553
 3325SOL    HW121611   1.201   0.706   5.537 -0.6328  0.7354 -0.2204
 3325SOL    HW221612   1.251   0.610   5.438 -1.2634 -0.5974 -1.4954
 3326SOL     OW21613   1.772   1.321   5.588  0.0495 -0.2646  0.4108
 3326SOL    HW121614   1.792   1.289   5.676  1.9537 -0.2659 -0.0236
 3326SOL    HW221615   1.677   1.309   5.588  0.2035 -1.4059 -1.4105
 3327SOL     OW21616   3.111   1.405   2.605 -0.1379  0.6468  0.1159
 3327SOL    HW121617   3.118   1.391   2.699 -1.1151  0.2193  0.1204
 3327SOL    HW221618   3.176   1.339   2.580  2.5536  2.4936  2.1604
 3328SOL     OW21619   4.433   1.535  16.522  0.2293 -0.0361 -1.1613
 3328SOL    HW121620   4.369   1.546  16.452 -1.1087 -1.4724 -0.1661
 3328SOL    HW221621   4.487   1.611  16.501  1.7878 -0.4381  1.3811
 3329SOL     OW21622   1.432   3.661  11.647 -0.6431 -0.2351  0.4724
 3329SOL    HW121623   1.471   3.595  11.589  0.1143  0.4868  0.1585
 3329SOL    HW221624   1.516   3.689  11.685 -0.9960  0.5757  0.6368
 3330SOL     OW21625   2.517   3.531  15.773 -0.1146  0.1370  0.2738
 3330SOL    HW121626   2.524   3.480  15.854 -0.2738 -1.5315 -0.7399
 3330SOL    HW221627   2.465   3.601  15.813 -2.2755 -1.2200 -0.1573
 3331SOL     OW21628   1.180   0.586   4.756 -0.0289  0.3893 -0.6104
 3331SOL    HW121629   1.203   0.670   4.796 -1.5356  1.4096 -1.8616
 3331SOL    HW221630   1.093   0.573   4.794  0.0943  0.5977 -0.2548
 3332SOL     OW21631   2.036   4.611   6.465 -0.2126  0.1121 -0.1686
 3332SOL    HW121632   2.101   4.553   6.505 -0.3085 -0.3482 -0.6944
 3332SOL    HW221633   2.045   4.611   6.370 -0.0636 -0.4114 -0.1550
 3333SOL     OW21634   1.495   0.839  15.887 -0.3178 -0.3831 -0.4048
 3333SOL    HW121635   1.539   0.824  15.804  0.8420  0.3774  0.0689
 3333SOL    HW221636   1.414   0.879  15.857 -1.2391 -0.6353  1.7155
 3334SOL     OW21637   1.876   2.063  13.304  0.3381  0.5910  0.0255
 3334SOL    HW121638   1.865   2.099  13.392 -0.7760 -1.8414  0.8764
 3334SOL    HW221639   1.785   2.052  13.279  0.4893  2.4662 -1.3275
 3335SOL     OW21640   1.500   0.765  16.813  0.0776 -0.4720  0.3248
 3335SOL    HW121641   1.532   0.675  16.816  1.3036  0.0308  1.9864
 3335SOL    HW221642   1.419   0.772  16.761  0.8258 -1.1604 -0.9275
 3336SOL     OW21643   1.486   1.902  12.075 -0.0506  0.4061 -0.1575
 3336SOL    HW121644   1.565   1.931  12.121 -0.4542  0.6859  0.3728
 3336SOL    HW221645   1.516   1.837  12.013 -0.5440  1.6405 -1.6967
 3337SOL     OW21646   1.979   1.478   6.056  0.1886  0.3415 -0.4945
 3337SOL    HW121647   1.988   1.573   6.051 -1.5189  0.3149 -3.9244
 3337SOL    HW221648   2.042   1.459   5.987 -0.9841 -0.0495 -1.4486
 3338SOL     OW21649   2.335   2.276   3.766 -0.0767 -0.1056 -0.4848
 3338SOL    HW121650   2.376   2.362   3.755  0.9550 -0.4110  0.9937
 3338SOL    HW221651   2.329   2.240   3.678  0.2971 -0.5978 -0.3062
 3339SOL     OW21652   2.870   3.711   5.531 -0.2195 -0.3967  0.1732
 3339SOL    HW121653   2.943   3.740   5.586 -1.4735 -2.0394  2.6875
 3339SOL    HW221654   2.906   3.723   5.443  0.9514 -0.6726  0.6105
 3340SOL     OW21655   3.861   3.320   2.361 -1.0896 -0.5853 -0.1584
 3340SOL    HW121656   3.867   3.253   2.429 -0.0947 -0.3003  0.0392
 3340SOL    HW221657   3.925   3.290   2.297  1.0374 -0.8456  2.1055
 3341SOL     OW21658   2.376   1.033   2.972 -0.7104  0.2659  0.2442
 3341SOL    HW121659   2.327   0.951   2.969  1.5875 -1.0496 -1.5430
 3341SOL    HW221660   2.400   1.035   3.064  4.2977 -0.7024 -1.0274
 3342SOL     OW21661   1.590   0.190   8.263 -0.0758 -0.5617 -0.0229
 3342SOL    HW121662   1.579   0.228   8.176 -0.1913  1.7571  1.0266
 3342SOL    HW221663   1.675   0.147   8.259  2.1068  3.8287 -0.6044
 3343SOL     OW21664   2.995   3.540  11.775  0.1518 -0.4607 -0.4990
 3343SOL    HW121665   3.081   3.514  11.744 -0.0096  1.7771 -2.7781
 3343SOL    HW221666   2.979   3.623  11.730  0.5511  1.4570  2.9337
 3344SOL     OW21667   0.845   0.984   1.772  0.1299  0.0066 -0.6711
 3344SOL    HW121668   0.853   1.002   1.865  0.7182 -0.3733 -0.6493
 3344SOL    HW221669   0.929   0.943   1.753  0.6087  0.9810 -0.6793
 3345SOL     OW21670   2.151   1.468   0.449  0.2477  0.3056  0.1653
 3345SOL    HW121671   2.242   1.447   0.471  0.5654  0.7542 -0.7436
 3345SOL    HW221672   2.138   1.457   0.355 -0.5125 -0.9916  0.4185
 3346SOL     OW21673   3.394   3.756   0.163  0.7598  0.3164 -0.5283
 3346SOL    HW121674   3.468   3.696   0.154 -0.3164 -1.2510  1.0275
 3346SOL    HW221675   3.442   3.831   0.129  1.1389 -0.9819 -2.8507
 3347SOL     OW21676   0.341   0.075   4.566  0.0548 -0.0094  0.4000
 3347SOL    HW121677   0.347   0.164   4.602  1.0984  0.3142 -0.5723
 3347SOL    HW221678   0.434   0.055   4.559  0.6744  2.5930  0.9369
 3348SOL     OW21679   3.627   2.331   8.465  0.0265  0.9096  0.5406
 3348SOL    HW121680   3.685   2.355   8.392  0.1100  1.3679  0.7554
 3348SOL    HW221681   3.551   2.388   8.457 -1.6181 -1.3499  0.4189
 3349SOL     OW21682   1.436   1.302   5.355 -0.0553  0.3131  0.2871
 3349SOL    HW121683   1.452   1.295   5.450  1.5260  1.5349  0.1184
 3349SOL    HW221684   1.447   1.397   5.345 -0.7810  0.4251  0.5881
 3350SOL     OW21685   1.891   1.198   3.609  0.4964 -0.0049 -0.7462
 3350SOL    HW121686   1.820   1.145   3.646  1.9661 -1.8735 -0.5843
 3350SOL    HW221687   1.948   1.144   3.554  1.0422  0.8113 -0.9818
 3351SOL     OW21688   1.305   4.157   0.986  0.0485 -0.3075 -0.3807
 3351SOL    HW121689   1.284   4.134   0.895  0.5596 -1.9314 -0.0722
 3351SOL    HW221690   1.396   4.130   0.980  0.7024  2.0073 -0.9054
 3352SOL     OW21691   1.250   3.963   3.653 -0.1609 -0.2703 -0.2255
 3352SOL    HW121692   1.328   3.982   3.705 -0.4601  1.0027 -0.2446
 3352SOL    HW221693   1.273   4.015   3.576 -2.8291  0.4538 -0.5170
 3353SOL     OW21694   2.105   3.260   9.411  0.3769 -0.3229 -0.5224
 3353SOL    HW121695   2.075   3.332   9.467 -1.3647 -0.4420 -1.3143
 3353SOL    HW221696   2.182   3.228   9.458  1.0322  1.3584 -0.4461
 3354SOL     OW21697   2.910   0.209   5.477 -0.1448 -0.2801  0.3425
 3354SOL    HW121698   2.909   0.114   5.469 -0.9467 -0.2200 -0.3096
 3354SOL    HW221699   2.818   0.224   5.502 -0.3369 -2.0140  0.7039
 3355SOL     OW21700   3.230   3.121   7.625 -0.2246  0.1655 -0.4354
 3355SOL    HW121701   3.217   3.072   7.706 -2.8155 -0.0745 -0.9808
 3355SOL    HW221702   3.284   3.056   7.579  0.4313  0.8112 -0.5623
 3356SOL     OW21703   0.903   3.724   0.692 -0.6723  0.4119 -0.1332
 3356SOL    HW121704   0.954   3.744   0.613 -1.0682  0.7962 -0.2957
 3356SOL    HW221705   0.966   3.749   0.760 -0.2154  0.9479 -0.7487
 3357SOL     OW21706   0.662   2.415   6.658 -0.5489  0.4525 -0.0332
 3357SOL    HW121707   0.740   2.359   6.655 -0.0700  1.0578  1.1302
 3357SOL    HW221708   0.607   2.370   6.722 -1.4643 -1.9955 -2.5675
 3358SOL     OW21709   3.818   0.523   6.386 -0.1199  0.1802  0.1024
 3358SOL    HW121710   3.740   0.569   6.354 -0.0123  0.0899 -0.2840
 3358SOL    HW221711   3.830   0.469   6.308  1.0054 -0.0328  0.4189
 3359SOL     OW21712   4.425   2.250   7.868  0.0129 -0.2813 -0.4244
 3359SOL    HW121713   4.510   2.262   7.911 -1.4076  2.8404  1.5404
 3359SOL    HW221714   4.453   2.262   7.778 -1.6496 -0.2082 -0.9282
 3360SOL     OW21715   2.685   0.950   0.716  0.0676 -0.7942 -0.3314
 3360SOL    HW121716   2.599   0.957   0.758  0.7429 -0.0283  0.9188
 3360SOL    HW221717   2.693   1.031   0.666 -3.1759 -1.4430 -1.8824
 3361SOL     OW21718   4.110   1.165  16.399  0.3502  0.4233 -0.4358
 3361SOL    HW121719   4.172   1.092  16.407 -0.4640 -0.3558 -1.2828
 3361SOL    HW221720   4.159   1.209  16.330  0.8348 -0.5953 -0.7348
 3362SOL     OW21721   4.686   2.080   6.742 -0.4990 -0.2015 -0.5110
 3362SOL    HW121722   4.652   2.167   6.721  1.8363  0.5499 -1.0746
 3362SOL    HW221723   4.659   2.072   6.834  2.8234  0.7783  0.5262
 3363SOL     OW21724   1.761   2.804   2.374  0.0758  0.0563 -0.4892
 3363SOL    HW121725   1.773   2.730   2.433 -0.3543  0.2196 -0.1974
 3363SOL    HW221726   1.738   2.875   2.434 -0.4329  0.1255 -0.7684
 3364SOL     OW21727   3.562   3.226   9.870  0.5928 -0.1727  0.0363
 3364SOL    HW121728   3.582   3.308   9.824 -2.2575 -0.0273 -0.9085
 3364SOL    HW221729   3.478   3.249   9.910  0.1558 -5.0440  1.8639
 3365SOL     OW21730   2.954   3.379   9.825  0.1560  0.2654 -0.1829
 3365SOL    HW121731   2.912   3.385   9.910  0.1315  0.4334 -0.2073
 3365SOL    HW221732   2.918   3.460   9.789 -0.5361 -0.6006 -1.4389
 3366SOL     OW21733   2.069   3.646   5.856  0.4024  0.1024  0.3575
 3366SOL    HW121734   2.070   3.644   5.760  0.3448 -2.5195  0.4134
 3366SOL    HW221735   2.094   3.559   5.885 -0.2505  0.2611  1.3934
 3367SOL     OW21736   3.923   3.507  11.457  0.4171 -0.0033  0.1282
 3367SOL    HW121737   3.878   3.451  11.393  0.4081  0.8334 -0.5944
 3367SOL    HW221738   3.924   3.453  11.536 -1.7877  2.5825  1.9221
 3368SOL     OW21739   4.535   3.084   3.901  0.0948  0.1194 -0.3624
 3368SOL    HW121740   4.566   2.994   3.907  1.7122  0.6281 -1.0302
 3368SOL    HW221741   4.478   3.080   3.825 -0.7655  0.6865  0.2463
 3369SOL     OW21742   1.334   1.938  11.482  0.4235  0.2880  0.1657
 3369SOL    HW121743   1.417   1.894  11.499  0.2919  0.0896  0.2968
 3369SOL    HW221744   1.335   1.993  11.560 -0.7746 -0.4046  0.6773
 3370SOL     OW21745   4.351   2.193   4.754 -0.5066 -0.1758 -0.1890
 3370SOL    HW121746   4.328   2.275   4.798 -0.6706 -1.1582  1.5919
 3370SOL    HW221747   4.341   2.208   4.660  1.9827 -1.7186 -0.6991
 3371SOL     OW21748   3.774   0.260   8.979 -0.7646 -0.1117  0.2773
 3371SOL    HW121749   3.792   0.250   8.886 -0.1110 -1.0579  0.5094
 3371SOL    HW221750   3.856   0.282   9.024 -0.3601  0.4773 -0.7344
 3372SOL     OW21751   3.312   0.117   5.636  0.2474 -0.5788 -0.1786
 3372SOL    HW121752   3.313   0.036   5.687 -0.0818 -0.0440  0.6833
 3372SOL    HW221753   3.284   0.085   5.550 -0.8155 -0.6396  0.1955
 3373SOL     OW21754   0.498   1.482  11.178 -0.1734  0.8438  0.0677
 3373SOL    HW121755   0.567   1.510  11.238  1.6810 -2.2408 -0.6609
 3373SOL    HW221756   0.535   1.400  11.145  2.4631  1.9783  0.2179
 3374SOL     OW21757   0.384   2.010   3.008  0.2035 -0.4223  0.2132
 3374SOL    HW121758   0.370   1.999   2.914 -0.3025 -1.2325  0.3907
 3374SOL    HW221759   0.379   1.919   3.037 -1.5188 -0.2433  0.4659
 3375SOL     OW21760   2.024   2.034   8.203  0.0947 -0.6092  0.2301
 3375SOL    HW121761   1.928   2.029   8.208  0.0403  2.1015  1.4247
 3375SOL    HW221762   2.053   2.069   8.287  0.7599 -1.1121  0.2115
 3376SOL     OW21763   2.625   4.363   6.317  0.1815  0.3055 -0.4994
 3376SOL    HW121764   2.538   4.399   6.301  0.8038  0.4974 -3.4195
 3376SOL    HW221765   2.598   4.279   6.356 -0.5174  0.4553 -0.6658
 3377SOL     OW21766   3.723   1.248  12.123  0.6394  0.8249 -0.0798
 3377SOL    HW121767   3.743   1.315  12.058 -1.2825 -1.5697 -3.1105
 3377SOL    HW221768   3.802   1.193  12.117 -0.7890 -1.2979  0.6900
 3378SOL     OW21769   2.438   2.234   7.376  0.2656  0.1775  0.4045
 3378SOL    HW121770   2.344   2.249   7.387  0.1160 -0.4457 -0.0263
 3378SOL    HW221771   2.442   2.140   7.363 -0.2199  0.2442 -0.2184
 3379SOL     OW21772   1.125   0.944   3.608  0.0908  0.4902  0.3697
 3379SOL    HW121773   1.127   1.015   3.672  1.1992 -0.3224  1.2267
 3379SOL    HW221774   1.052   0.893   3.643  0.1285  0.5406  0.5230
 3380SOL     OW21775   1.822   1.411  16.048  0.3919  0.3103  0.0885
 3380SOL    HW121776   1.824   1.482  15.984 -2.2425  1.7050  1.5472
 3380SOL    HW221777   1.896   1.440  16.102  2.3769 -2.5086 -1.1261
 3381SOL     OW21778   4.108   2.640   3.741  0.3566 -0.5017 -0.2437
 3381SOL    HW121779   4.180   2.679   3.693  0.4512 -0.2692  0.0859
 3381SOL    HW221780   4.034   2.651   3.681 -1.0685  0.2253  1.6296
 3382SOL     OW21781   4.724   2.601   6.128 -0.0644  0.2453  0.2770
 3382SOL    HW121782   4.645   2.549   6.143  1.7946 -1.1342  5.2362
 3382SOL    HW221783   4.725   2.654   6.208 -0.8232  1.9361 -0.8235
 3383SOL     OW21784   3.848   3.559   6.379  0.4752  0.3214 -0.6637
 3383SOL    HW121785   3.802   3.492   6.429  0.7519  0.8171  0.2496
 3383SOL    HW221786   3.901   3.510   6.315  0.0279 -1.1735  0.1096
 3384SOL     OW21787   2.142   2.258   8.752 -0.0191 -0.3491 -0.1828
 3384SOL    HW121788   2.229   2.274   8.787  0.0663  0.4645 -0.7654
 3384SOL    HW221789   2.099   2.213   8.824 -1.6574  0.6805 -0.5277
 3385SOL     OW21790   4.328   2.464   4.756  0.1939  0.3147 -0.5864
 3385SOL    HW121791   4.286   2.507   4.831 -0.3455 -0.2315 -0.5780
 3385SOL    HW221792   4.261   2.481   4.690 -1.8728  0.3904  1.5464
 3386SOL     OW21793   1.365   1.543  10.873 -0.1264 -0.1451  0.4405
 3386SOL    HW121794   1.270   1.535  10.872 -0.3065  2.1165  0.3016
 3386SOL    HW221795   1.386   1.472  10.934  3.4834 -1.2389 -2.0485
 3387SOL     OW21796   4.011   0.250   9.407 -1.0242  0.3640  0.0564
 3387SOL    HW121797   4.072   0.291   9.346  1.3640 -1.1945  1.4141
 3387SOL    HW221798   3.979   0.328   9.453 -0.2477 -0.7233  2.4259
 3388SOL     OW21799   4.435   0.982   4.905  0.1280 -0.1839 -0.6245
 3388SOL    HW121800   4.364   1.046   4.901 -0.2128 -0.3677  2.5328
 3388SOL    HW221801   4.454   0.959   4.996  0.6151 -0.4983 -0.8059
 3389SOL     OW21802   0.218   0.022   2.025 -0.1706  0.2511  0.0220
 3389SOL    HW121803   0.257   4.688   2.076  1.0392  0.7136 -0.2706
 3389SOL    HW221804   0.127   0.021   2.057  0.5811  0.7047  2.1480
 3390SOL     OW21805   1.930   3.902   0.040  0.1799 -0.5688  0.0066
 3390SOL    HW121806   1.874   3.824   0.041 -1.5732  0.7019  1.3002
 3390SOL    HW221807   1.886   3.946  17.715  0.1814 -1.1252 -0.3309
 3391SOL     OW21808   2.754   1.074  10.070 -0.1665 -0.1100 -0.2904
 3391SOL    HW121809   2.734   1.000  10.127  1.6069 -1.7762 -1.8275
 3391SOL    HW221810   2.825   1.122  10.112 -0.4855  0.6006 -0.5540
 3392SOL     OW21811   2.599   4.683   1.920  0.6268 -0.9017  0.3754
 3392SOL    HW121812   2.616   4.628   1.844 -0.2733 -0.1577 -0.3706
 3392SOL    HW221813   2.537   4.634   1.973  0.4531  0.6810  1.6585
 3393SOL     OW21814   2.264   1.044   5.064 -0.0891 -0.3340  0.2418
 3393SOL    HW121815   2.330   1.086   5.119  0.5111  1.2029 -1.6243
 3393SOL    HW221816   2.316   1.003   4.994 -0.2694  1.8245 -1.1485
 3394SOL     OW21817   4.428   3.754   7.128  0.0661 -0.0205 -0.0129
 3394SOL    HW121818   4.450   3.832   7.078  0.6413 -0.1135  0.0884
 3394SOL    HW221819   4.349   3.721   7.085 -1.1757  0.5183  1.8768
 3395SOL     OW21820   0.318   0.574   8.252  0.6570  0.3513  0.4103
 3395SOL    HW121821   0.394   0.630   8.263 -0.6002  1.8739  1.3509
 3395SOL    HW221822   0.269   0.623   8.187  1.0299  0.2078  0.0235
 3396SOL     OW21823   1.965   1.317   5.383  0.0619  0.5899 -0.0060
 3396SOL    HW121824   1.908   1.353   5.450 -0.1269  0.3759 -0.0532
 3396SOL    HW221825   1.899   1.269   5.333  1.8117 -0.8239 -0.9873
 3397SOL     OW21826   4.532   2.096   1.583 -0.2270  0.6081 -0.3654
 3397SOL    HW121827   4.602   2.031   1.588 -1.9476 -1.2746 -0.9971
 3397SOL    HW221828   4.457   2.052   1.544  1.9651 -0.9338 -2.8458
 3398SOL     OW21829   3.655   4.137  17.283 -0.0203  0.2360  0.0172
 3398SOL    HW121830   3.693   4.182  17.358 -0.3814  0.0886  0.2882
 3398SOL    HW221831   3.648   4.211  17.222  1.6948  0.4432  0.0921
 3399SOL     OW21832   1.427   1.562   3.169 -0.1009 -0.9603  0.0879
 3399SOL    HW121833   1.482   1.494   3.130  1.1459  0.2910 -0.3471
 3399SOL    HW221834   1.496   1.620   3.202 -0.3892  0.2449 -1.4230
 3400SOL     OW21835   3.341   4.396   2.192 -0.0310 -0.4448  0.2269
 3400SOL    HW121836   3.320   4.340   2.266  0.0029 -0.2995  0.3471
 3400SOL    HW221837   3.254   4.436   2.186 -0.6304 -2.1561 -2.5026
 3401SOL     OW21838   1.369   0.171   5.553  0.1836  0.4299  0.3423
 3401SOL    HW121839   1.393   0.228   5.480  0.6366  0.6781  0.6837
 3401SOL    HW221840   1.386   0.084   5.518  0.5372  0.1010  1.3124
 3402SOL     OW21841   1.620   3.129   6.538  0.5242 -0.1017  0.5843
 3402SOL    HW121842   1.616   3.209   6.590 -4.7001  0.8571 -1.2794
 3402SOL    HW221843   1.663   3.159   6.458 -0.9983  1.4173  0.3319
 3403SOL     OW21844   2.121   3.702   6.191  0.1811 -0.1312 -0.0606
 3403SOL    HW121845   2.051   3.759   6.160  0.9741 -0.0125 -1.6128
 3403SOL    HW221846   2.068   3.632   6.230 -1.4505  1.1994  0.0957
 3404SOL     OW21847   3.104   4.408   6.534  0.0148 -0.3568 -0.4277
 3404SOL    HW121848   3.009   4.416   6.528  0.1317  1.2832 -0.0171
 3404SOL    HW221849   3.107   4.332   6.592  1.4358  0.2989  0.3699
 3405SOL     OW21850   3.600   3.811   4.571  0.2258  0.4301  0.1759
 3405SOL    HW121851   3.633   3.897   4.596 -0.4772  0.2207  1.8125
 3405SOL    HW221852   3.529   3.803   4.634  1.4832 -1.4045  1.3601
 3406SOL     OW21853   2.023   4.039   6.681  0.0346  0.0124  0.6483
 3406SOL    HW121854   1.958   3.998   6.624  0.8981 -0.8361  0.2906
 3406SOL    HW221855   2.048   4.108   6.620  0.8613 -0.8771 -0.0096
 3407SOL     OW21856   2.190   1.679   7.635  0.1163 -0.0777 -0.3413
 3407SOL    HW121857   2.220   1.644   7.719  0.8058 -0.2969 -0.6698
 3407SOL    HW221858   2.256   1.640   7.576  0.5795  2.2238 -1.3346
 3408SOL     OW21859   2.569   2.230   4.844 -1.0107  0.3724  0.2343
 3408SOL    HW121860   2.607   2.175   4.912  1.2094 -1.5977 -2.5825
 3408SOL    HW221861   2.571   2.165   4.774  2.5324  1.6762 -0.9265
 3409SOL     OW21862   2.056   1.882   0.742  0.3788 -0.0006 -0.4436
 3409SOL    HW121863   1.994   1.955   0.743  0.1524 -0.2422  2.0292
 3409SOL    HW221864   2.130   1.938   0.764 -0.4633 -0.3499  3.1944
 3410SOL     OW21865   3.877   3.078   7.527  0.0561  0.0873  0.0027
 3410SOL    HW121866   3.939   3.071   7.454 -0.7716 -0.2341 -0.6807
 3410SOL    HW221867   3.823   3.156   7.517  0.4119  0.3495  0.1377
 3411SOL     OW21868   3.843   3.687   3.485 -0.2575 -0.0010 -0.9432
 3411SOL    HW121869   3.779   3.664   3.552  1.3625  0.7380  0.8817
 3411SOL    HW221870   3.850   3.776   3.520 -0.9597 -0.3326  0.0299
 3412SOL     OW21871   3.290   2.881  13.122  0.4285 -0.4128  0.5435
 3412SOL    HW121872   3.241   2.962  13.134  0.4256 -0.0558 -1.7958
 3412SOL    HW221873   3.257   2.825  13.193 -0.8961  0.5616  0.7023
 3413SOL     OW21874   1.588   3.003   2.247 -0.3314  0.5903 -0.1674
 3413SOL    HW121875   1.516   3.025   2.305  1.6695  4.2420  0.9192
 3413SOL    HW221876   1.634   2.935   2.298 -2.0235 -0.3323  0.1233
 3414SOL     OW21877   1.471   2.077   8.247 -0.6880  0.2458  0.0285
 3414SOL    HW121878   1.407   2.135   8.204  0.0015  1.7660  1.0225
 3414SOL    HW221879   1.466   2.102   8.340 -1.0564 -1.5171  0.4712
 3415SOL     OW21880   4.302   3.733   9.820  0.2629 -0.2963 -0.1537
 3415SOL    HW121881   4.285   3.669   9.750  2.1742 -1.0906  0.1181
 3415SOL    HW221882   4.269   3.818   9.791  1.2518  0.9921  2.4514
 3416SOL     OW21883   2.115   1.186   0.172 -0.1321 -0.4459 -0.4192
 3416SOL    HW121884   2.092   1.277   0.150 -0.4647 -0.0044  1.7809
 3416SOL    HW221885   2.168   1.187   0.251  0.5454  0.8654 -0.8744
 3417SOL     OW21886   3.871   4.673   4.415 -0.5611  0.0779 -0.1253
 3417SOL    HW121887   3.798   4.632   4.460 -1.5705  1.2297 -0.7056
 3417SOL    HW221888   3.954   4.675   4.463  0.7797 -0.1545 -2.4211
 3418SOL     OW21889   3.549   0.820   8.161 -0.6213  0.5485 -0.2312
 3418SOL    HW121890   3.555   0.915   8.174  0.0007  0.3264  1.0730
 3418SOL    HW221891   3.556   0.776   8.245  1.1969  1.1420 -0.0773
 3419SOL     OW21892   3.437   3.686   7.970 -0.1891  0.5421  0.7696
 3419SOL    HW121893   3.394   3.605   7.944 -0.4043  0.9058 -0.0113
 3419SOL    HW221894   3.458   3.669   8.062 -1.1505 -0.7869  0.7448
 3420SOL     OW21895   1.956   1.704  15.922  0.4006 -0.3899 -0.2650
 3420SOL    HW121896   1.981   1.744  15.839 -0.8187 -0.6964 -0.7802
 3420SOL    HW221897   2.038   1.698  15.971 -0.9817  1.5140  2.2288
 3421SOL     OW21898   1.988   3.670   8.248 -0.1123  0.0641  0.5891
 3421SOL    HW121899   1.995   3.652   8.154 -0.7761 -2.6052  1.0520
 3421SOL    HW221900   1.956   3.583   8.275  0.1023  0.1294  1.0458
 3422SOL     OW21901   3.358   2.259   8.699 -0.5684  0.2254  0.0679
 3422SOL    HW121902   3.304   2.286   8.625 -1.7660 -1.1492  0.4456
 3422SOL    HW221903   3.369   2.166   8.682 -3.6358 -0.2216  0.5369
 3423SOL     OW21904   2.555   1.603   6.111  0.0502  0.4247 -0.1124
 3423SOL    HW121905   2.478   1.565   6.153 -1.1009  0.8192 -1.8634
 3423SOL    HW221906   2.559   1.556   6.027  1.2194  0.6509 -0.1848
 3424SOL     OW21907   3.724   0.435   2.994 -0.3002  0.4949 -0.2478
 3424SOL    HW121908   3.633   0.465   2.994  0.0528  1.5712 -1.3449
 3424SOL    HW221909   3.736   0.397   2.907 -1.5439 -0.6843  0.0947
 3425SOL     OW21910   3.536   2.206   9.769  0.0855  0.7003 -0.4650
 3425SOL    HW121911   3.601   2.236   9.832 -2.3686  0.5403  2.1607
 3425SOL    HW221912   3.556   2.112   9.767 -1.5114  0.3370  0.6740
 3426SOL     OW21913   4.256   0.708   4.965  0.2001  0.2153  0.2787
 3426SOL    HW121914   4.305   0.734   4.887 -1.4334  0.9815 -0.5062
 3426SOL    HW221915   4.193   0.654   4.917  0.9506 -0.4353  0.0192
 3427SOL     OW21916   0.662   3.788   7.337  0.3342  0.5332 -0.1448
 3427SOL    HW121917   0.593   3.777   7.402  1.3436 -0.8209  0.7026
 3427SOL    HW221918   0.672   3.881   7.356  3.7198 -0.1326  1.1497
 3428SOL     OW21919   0.587   2.906   3.159 -0.2511  0.1588  0.8624
 3428SOL    HW121920   0.561   2.819   3.189  1.2564 -0.3951  0.5774
 3428SOL    HW221921   0.521   2.917   3.091 -0.2030  1.5568  1.0549
 3429SOL     OW21922   0.197   4.374   0.208  0.4413 -0.6129  0.4595
 3429SOL    HW121923   0.161   4.448   0.159  1.2886 -0.4519  0.0890
 3429SOL    HW221924   0.237   4.331   0.133  0.3436  2.7926 -1.5385
 3430SOL     OW21925   4.083   0.593  14.933 -0.5144  0.3465  0.4008
 3430SOL    HW121926   4.090   0.504  14.967  3.0557  0.2348 -0.6478
 3430SOL    HW221927   4.035   0.641  15.001 -1.4256 -1.3297  0.9322
 3431SOL     OW21928   1.152   2.427   8.332 -0.1944  0.0710 -0.2077
 3431SOL    HW121929   1.241   2.457   8.309 -0.3053 -0.6036 -1.5171
 3431SOL    HW221930   1.117   2.419   8.243 -0.8840 -1.9664  0.2434
 3432SOL     OW21931   3.267   2.419   5.057 -0.5950  0.3124  0.2913
 3432SOL    HW121932   3.358   2.392   5.054 -0.9447 -0.7163 -0.8894
 3432SOL    HW221933   3.274   2.513   5.043  0.8332  0.6180  2.9506
 3433SOL     OW21934   2.612   0.155   4.744  0.4171 -0.1706  0.0644
 3433SOL    HW121935   2.608   0.093   4.671 -0.5260  0.2898 -0.2705
 3433SOL    HW221936   2.518   0.170   4.753  0.2930  0.2254 -1.9642
 3434SOL     OW21937   0.229   2.891   7.776 -0.0467 -0.7983 -0.5369
 3434SOL    HW121938   0.302   2.861   7.829 -0.4598  0.6498  0.8484
 3434SOL    HW221939   0.156   2.858   7.828  0.4485  1.4045  1.5680
 3435SOL     OW21940   1.326   2.473   5.563  0.2584 -0.3392 -0.4393
 3435SOL    HW121941   1.233   2.461   5.549  0.3184 -0.5054 -0.6872
 3435SOL    HW221942   1.327   2.465   5.659  0.9088  2.0796 -0.2317
 3436SOL     OW21943   4.178   3.056   2.514 -0.1766 -0.3460 -0.0971
 3436SOL    HW121944   4.217   3.136   2.547 -0.4759  0.4776 -1.7507
 3436SOL    HW221945   4.086   3.082   2.514 -0.3008 -0.7824 -0.8872
 3437SOL     OW21946   3.030   0.775  10.421 -0.3207 -0.1774 -0.6165
 3437SOL    HW121947   2.978   0.756  10.499  1.7529  4.1713  1.8934
 3437SOL    HW221948   3.117   0.759  10.458 -0.5696 -0.9770 -0.3833
 3438SOL     OW21949   2.817   3.279   0.009  0.1644  0.3850 -0.4441
 3438SOL    HW121950   2.883   3.325  17.704 -0.7687  1.6057 -0.5624
 3438SOL    HW221951   2.741   3.335  17.741  0.2184  0.3107 -0.9971
 3439SOL     OW21952   2.362   0.578  11.386 -0.4621 -0.0953 -0.6720
 3439SOL    HW121953   2.434   0.635  11.411  0.4263 -0.4800 -2.3393
 3439SOL    HW221954   2.291   0.615  11.438 -0.2465  0.3676 -0.7068
 3440SOL     OW21955   0.156   2.634   3.725  0.1093  0.0015 -0.2075
 3440SOL    HW121956   0.158   2.564   3.790  0.4356  0.5248  0.3404
 3440SOL    HW221957   0.199   2.701   3.778 -0.0695  1.4495 -1.9175
 3441SOL     OW21958   3.836   4.331   8.003  0.3877  0.3660  0.4824
 3441SOL    HW121959   3.822   4.362   8.092 -1.0841  0.2365  0.2984
 3441SOL    HW221960   3.751   4.351   7.963  0.3500 -0.0616  0.3488
 3442SOL     OW21961   1.191   4.535  11.873  0.2425 -0.1329 -0.1666
 3442SOL    HW121962   1.267   4.535  11.815  1.0949 -1.0206  0.9506
 3442SOL    HW221963   1.129   4.473  11.836 -0.5420  1.6769 -1.8845
 3443SOL     OW21964   3.952   3.135   1.207  0.5216 -0.2542  0.0482
 3443SOL    HW121965   3.924   3.219   1.171 -0.7031 -1.5931 -2.0765
 3443SOL    HW221966   3.896   3.076   1.159 -2.1052  2.3796 -0.1350
 3444SOL     OW21967   2.440   3.672   3.118  0.1285  0.1490 -0.2345
 3444SOL    HW121968   2.507   3.674   3.187  1.1513 -1.6654 -1.1709
 3444SOL    HW221969   2.444   3.577   3.106 -1.2075  0.4114 -2.5184
 3445SOL     OW21970   1.034   4.138   9.166 -0.1315  0.1503  0.0374
 3445SOL    HW121971   0.948   4.124   9.206  0.2835 -4.6953 -0.7757
 3445SOL    HW221972   1.014   4.196   9.093 -0.5266  1.0698  0.8695
 3446SOL     OW21973   0.923   1.419  16.366 -0.0019  0.2882 -0.0177
 3446SOL    HW121974   0.962   1.465  16.441  2.1259 -1.0820 -0.2845
 3446SOL    HW221975   0.868   1.487  16.328 -1.6240 -1.5548 -0.9635
 3447SOL     OW21976   0.574   2.135   5.793 -0.4035  0.4018 -0.1441
 3447SOL    HW121977   0.537   2.103   5.711  1.0235 -1.9232  0.1114
 3447SOL    HW221978   0.574   2.050   5.837  0.8977 -0.2347 -1.3869
 3448SOL     OW21979   1.808   1.199   9.672 -0.1915  0.2371 -0.3201
 3448SOL    HW121980   1.718   1.185   9.643  0.4390 -0.0797 -2.1285
 3448SOL    HW221981   1.790   1.232   9.760  3.0155 -0.4940  0.6218
 3449SOL     OW21982   0.871   1.323   7.637 -0.1183  0.6391  0.1806
 3449SOL    HW121983   0.875   1.228   7.644 -0.0382  0.6233 -0.0585
 3449SOL    HW221984   0.881   1.333   7.542  3.5002  1.3301  0.6143
 3450SOL     OW21985   4.663   2.272   9.601 -0.2534 -0.3849  0.5062
 3450SOL    HW121986   4.727   2.236   9.662 -2.0819  0.9605  3.1940
 3450SOL    HW221987   4.714   2.348   9.573 -0.8870  0.2226  1.0187
 3451SOL     OW21988   0.154   0.778   2.018  0.3068  0.1432  0.5849
 3451SOL    HW121989   0.159   0.711   1.951 -1.0826 -0.4259  1.0336
 3451SOL    HW221990   0.238   0.823   2.015 -0.1908  1.0594  0.1609
 3452SOL     OW21991   3.264   0.085   5.067  0.0234  0.1477  0.0800
 3452SOL    HW121992   3.303   0.166   5.100 -1.3230  0.7651  0.1237
 3452SOL    HW221993   3.193   0.109   5.008 -1.0249 -0.0612  1.2594
 3453SOL     OW21994   3.910   0.440   1.830 -0.2077 -0.4887  0.2789
 3453SOL    HW121995   3.948   0.406   1.911 -2.3523 -0.9112  1.1203
 3453SOL    HW221996   3.862   0.519   1.854  1.1724  0.3166  0.3908
 3454SOL     OW21997   0.145   2.859   8.671 -0.1696 -0.0441 -0.6483
 3454SOL    HW121998   0.176   2.933   8.619 -1.7452  1.3160  0.3378
 3454SOL    HW221999   0.213   2.796   8.646  1.4083  0.2454  2.9498
 3455SOL     OW22000   2.022   2.862   7.097 -0.1784 -0.4905 -0.4322
 3455SOL    HW122001   1.956   2.858   7.028 -0.2149  1.4661 -0.5041
 3455SOL    HW222002   2.046   2.770   7.107 -3.4642 -1.5054 -2.1257
 3456SOL     OW22003   2.903   2.507   6.975 -0.5294  1.1451 -0.1207
 3456SOL    HW122004   2.868   2.545   6.894  1.1507  0.6965 -1.0505
 3456SOL    HW222005   2.828   2.513   7.035  0.4037  1.8700  0.9556
 3457SOL     OW22006   3.174   2.023   6.054 -0.0068  0.5487  0.4079
 3457SOL    HW122007   3.204   1.992   5.969 -0.1508  1.6476 -0.0486
 3457SOL    HW222008   3.209   1.952   6.108  0.0183 -1.0561 -1.7084
 3458SOL     OW22009   1.789   3.085   3.013 -0.3679  0.5683  0.1533
 3458SOL    HW122010   1.836   3.078   3.096  1.2745 -0.7250 -0.8670
 3458SOL    HW222011   1.852   3.053   2.948 -0.0992  1.6874 -0.1365
 3459SOL     OW22012   3.872   1.480   2.178  0.7351  0.1689 -0.0305
 3459SOL    HW122013   3.866   1.507   2.270 -0.5484  0.6293 -0.2432
 3459SOL    HW222014   3.934   1.542   2.141 -0.4613  2.2461  1.4516
 3460SOL     OW22015   3.678   1.873   6.724 -0.1508  0.0704  0.1863
 3460SOL    HW122016   3.641   1.833   6.803  1.8913  1.2171  1.7172
 3460SOL    HW222017   3.772   1.861   6.737 -0.0260  3.2662  2.0310
 3461SOL     OW22018   1.896   0.251   7.773 -0.2868 -0.1659  0.6405
 3461SOL    HW122019   1.982   0.293   7.784 -0.4131  0.7327 -1.8511
 3461SOL    HW222020   1.927   0.160   7.768  0.1398  0.0298 -0.3256
 3462SOL     OW22021   0.721   2.779   4.641 -0.2726  0.7292 -0.1078
 3462SOL    HW122022   0.732   2.822   4.726  2.1817  0.0299 -0.0452
 3462SOL    HW222023   0.727   2.849   4.576 -1.1741 -0.4175 -1.4116
 3463SOL     OW22024   3.222   1.668   7.052 -0.3481  0.1715 -0.0762
 3463SOL    HW122025   3.191   1.746   7.007  1.4372  1.1237  0.3327
 3463SOL    HW222026   3.138   1.625   7.069 -0.1635  0.4033  1.4313
 3464SOL     OW22027   3.730   2.482  11.635 -0.8092  0.6960 -0.6298
 3464SOL    HW122028   3.779   2.560  11.611  0.3936  0.2950  0.4892
 3464SOL    HW222029   3.680   2.502  11.714 -1.3372 -0.0411 -0.7729
 3465SOL     OW22030   0.756   2.090   3.567 -0.0736 -0.2835  0.4891
 3465SOL    HW122031   0.797   2.138   3.495  0.1458  0.5455  1.1722
 3465SOL    HW222032   0.789   2.148   3.635 -1.1294  2.7395 -1.5579
 3466SOL     OW22033   4.393   1.978  14.486  0.2857 -0.3390  0.4570
 3466SOL    HW122034   4.363   2.036  14.556  1.8230  1.1202 -0.0756
 3466SOL    HW222035   4.473   2.022  14.456 -0.1969  0.9342  1.0342
 3467SOL     OW22036   3.370   4.706   8.921  0.2196  0.6116 -0.3702
 3467SOL    HW122037   3.464   4.694   8.935  0.3016 -0.2446 -1.5866
 3467SOL    HW222038   3.331   4.727   9.006  0.2796  0.4263 -0.2978
 3468SOL     OW22039   1.878   4.227  16.194 -0.0088 -0.5124 -0.0746
 3468SOL    HW122040   1.801   4.244  16.140  1.2891  0.3054 -1.6661
 3468SOL    HW222041   1.875   4.288  16.267 -0.1194  0.5127 -0.9395
 3469SOL     OW22042   2.083   1.828   4.482 -0.2145 -0.3007  0.4154
 3469SOL    HW122043   2.094   1.912   4.526 -0.5451  0.6523 -1.3323
 3469SOL    HW222044   2.142   1.778   4.539  2.8236  0.0658 -2.3692
 3470SOL     OW22045   3.465   3.053   6.005  0.1427  0.6634  0.1011
 3470SOL    HW122046   3.526   3.121   6.034  0.2971  1.1547 -1.3706
 3470SOL    HW222047   3.402   3.063   6.076  1.4971  0.2311  1.3612
 3471SOL     OW22048   3.821   2.618  14.600  0.0552 -0.0630 -0.1464
 3471SOL    HW122049   3.905   2.636  14.644 -0.4280  2.1811 -0.1471
 3471SOL    HW222050   3.767   2.679  14.649  0.9957 -0.3452  1.2333
 3472SOL     OW22051   1.202   3.719   3.950  0.3215  0.2289  0.1793
 3472SOL    HW122052   1.193   3.665   4.029  0.3863 -0.5226 -0.3289
 3472SOL    HW222053   1.272   3.671   3.908  0.0337  0.9456 -1.1228
 3473SOL     OW22054   0.206   0.007   6.185  0.4996 -0.8468  0.1556
 3473SOL    HW122055   0.140   0.077   6.194  0.5195 -0.7077 -0.7734
 3473SOL    HW222056   0.226   4.731   6.277 -0.2272  2.7261  0.8646
 3474SOL     OW22057   1.698   4.266   7.752 -0.3858  0.6191  0.4112
 3474SOL    HW122058   1.608   4.273   7.723 -0.7139  0.9499  1.5159
 3474SOL    HW222059   1.687   4.265   7.847  0.1457 -2.5077  0.4662
 3475SOL     OW22060   1.304   1.971  15.988  0.3173 -0.2490  0.4973
 3475SOL    HW122061   1.305   1.879  16.016 -0.5083 -0.9921 -1.8986
 3475SOL    HW222062   1.218   1.994  15.953  0.7409  1.1164  0.3675
 3476SOL     OW22063   1.692   3.959   7.718  0.4936  1.0490  0.3936
 3476SOL    HW122064   1.783   3.954   7.748 -0.2601 -0.6045  2.4445
 3476SOL    HW222065   1.687   3.886   7.657 -0.4842  2.4163 -1.1430
 3477SOL     OW22066   3.954   0.505   1.263 -0.3926 -0.1099  0.0004
 3477SOL    HW122067   4.047   0.506   1.242 -0.0077 -3.0988  1.5347
 3477SOL    HW222068   3.960   0.493   1.358 -1.0427  1.0876  0.1905
 3478SOL     OW22069   4.579   4.541   2.012 -0.0420  0.2121 -0.1203
 3478SOL    HW122070   4.649   4.603   1.994  1.2180 -1.1760  0.0462
 3478SOL    HW222071   4.530   4.559   1.932  0.7237 -2.3065 -1.1483
 3479SOL     OW22072   1.082   2.251   2.202 -0.0750  0.2604  0.3052
 3479SOL    HW122073   1.034   2.242   2.120 -0.8158 -1.4031  0.9216
 3479SOL    HW222074   1.019   2.217   2.266 -0.1444  1.4753  0.8911
 3480SOL     OW22075   2.299   4.406  13.300 -0.0040  0.3700  0.0578
 3480SOL    HW122076   2.387   4.440  13.311 -0.2366  0.8186  0.5163
 3480SOL    HW222077   2.285   4.430  13.208  0.4452  0.8889  0.1282
 3481SOL     OW22078   2.839   2.235  12.902 -0.0300 -0.5639 -0.5112
 3481SOL    HW122079   2.805   2.322  12.879 -0.0218  0.1978  2.3710
 3481SOL    HW222080   2.838   2.203  12.812  1.6039  0.4043 -0.8634
 3482SOL     OW22081   3.147   1.325   8.940  0.2464 -0.1654 -0.0128
 3482SOL    HW122082   3.171   1.374   9.019 -1.2275  0.2727  0.1683
 3482SOL    HW222083   3.236   1.291   8.932 -0.8926 -2.2543 -3.7812
 3483SOL     OW22084   0.541   2.844  14.834  0.0491  0.1252 -0.0507
 3483SOL    HW122085   0.581   2.782  14.895 -0.6136 -0.1438  0.1100
 3483SOL    HW222086   0.456   2.869  14.870  0.2135  1.2345 -0.4441
 3484SOL     OW22087   0.699   0.341   6.836  0.5522 -0.6890  0.4927
 3484SOL    HW122088   0.734   0.265   6.788 -0.6693  1.6398 -4.0336
 3484SOL    HW222089   0.656   0.391   6.767  0.0968  0.8416  1.9063
 3485SOL     OW22090   0.231   2.884  13.369 -0.0371 -0.4878 -0.3987
 3485SOL    HW122091   0.312   2.886  13.420  0.3500  0.8727 -1.0805
 3485SOL    HW222092   0.279   2.867  13.288  2.3875  1.3611  0.6626
 3486SOL     OW22093   3.450   4.268  10.610 -0.2743 -0.2599 -0.1807
 3486SOL    HW122094   3.428   4.179  10.637  0.2250  0.2142  1.7480
 3486SOL    HW222095   3.429   4.248  10.518 -1.3736  0.5891 -0.1118
 3487SOL     OW22096   2.036   0.962   2.347 -0.0211  1.2157 -0.0684
 3487SOL    HW122097   1.955   1.009   2.327 -1.1384 -1.4783 -1.8879
 3487SOL    HW222098   2.051   0.902   2.274 -2.9200  0.1294  0.2126
 3488SOL     OW22099   0.894   0.861   8.996 -0.9235 -0.0367 -0.0761
 3488SOL    HW122100   0.836   0.919   9.045  0.5589  0.4706  1.0934
 3488SOL    HW222101   0.906   0.895   8.908  1.2076  0.5609  0.4360
 3489SOL     OW22102   0.803   2.870   4.896 -0.4551 -0.4036  0.0430
 3489SOL    HW122103   0.859   2.795   4.915 -0.4527 -1.1177 -2.6950
 3489SOL    HW222104   0.861   2.946   4.906 -1.5028  0.2814  0.8286
 3490SOL     OW22105   1.792   4.449   8.836  0.0823  0.1653 -0.0764
 3490SOL    HW122106   1.885   4.432   8.818 -0.0248 -0.8891  0.3675
 3490SOL    HW222107   1.803   4.454   8.931  2.3538  0.6846 -0.3505
 3491SOL     OW22108   0.636   2.358   6.098 -0.1241  0.1522 -0.0614
 3491SOL    HW122109   0.604   2.441   6.062 -3.2418 -1.1670 -0.3035
 3491SOL    HW222110   0.676   2.382   6.181 -1.5089  2.9865 -0.2010
 3492SOL     OW22111   1.603   3.887  11.921  0.2473  0.2017 -0.1034
 3492SOL    HW122112   1.617   3.857  12.011  0.4486 -1.7103 -0.7685
 3492SOL    HW222113   1.630   3.806  11.878  0.3955 -0.5991  1.4958
 3493SOL     OW22114   3.269   0.352  10.863  0.1152  0.2706 -0.3258
 3493SOL    HW122115   3.280   0.338  10.957  2.0688 -0.4324 -0.6721
 3493SOL    HW222116   3.358   0.353  10.829  0.8822  0.3973  1.6975
 3494SOL     OW22117   1.464   2.824   8.808 -0.3510 -0.3278 -0.2553
 3494SOL    HW122118   1.405   2.897   8.794  0.2196  0.1541 -0.1442
 3494SOL    HW222119   1.537   2.866   8.854 -1.3634  1.2159 -0.0879
 3495SOL     OW22120   4.353   0.959   6.405  0.7207  0.3820 -0.6100
 3495SOL    HW122121   4.334   1.039   6.453 -2.1635 -0.4424 -0.3829
 3495SOL    HW222122   4.442   0.972   6.374  0.6674 -2.2205 -1.9009
 3496SOL     OW22123   2.381   2.810  17.700  0.2066  0.3661  0.3429
 3496SOL    HW122124   2.450   2.874  17.719 -1.0075  1.6551  0.4345
 3496SOL    HW222125   2.409   2.731  17.745 -0.3774 -0.2796 -0.4337
 3497SOL     OW22126   2.049   3.140  15.564 -0.2046 -0.3237 -0.1178
 3497SOL    HW122127   1.981   3.104  15.621  0.4387  0.7746  1.3341
 3497SOL    HW222128   2.034   3.233  15.578  0.1769 -0.1549 -0.8743
 3498SOL     OW22129   2.834   3.949   8.027 -1.2338  0.0640  0.1682
 3498SOL    HW122130   2.811   3.870   8.076  1.8312  0.0314  1.5888
 3498SOL    HW222131   2.793   4.017   8.081 -3.0657 -1.6863  0.9514
 3499SOL     OW22132   0.376   2.688  16.006  0.3976 -0.3666 -0.1626
 3499SOL    HW122133   0.312   2.629  16.047  1.0524 -1.9854 -1.4403
 3499SOL    HW222134   0.360   2.770  16.051  0.0016  0.9159 -2.6344
 3500SOL     OW22135   0.844   2.412  11.288  0.0999 -0.0308  0.4737
 3500SOL    HW122136   0.778   2.432  11.354 -2.0016 -2.6159 -0.8401
 3500SOL    HW222137   0.836   2.317  11.290 -0.7470  0.0405  0.6442
 3501SOL     OW22138   3.575   2.437   1.625  0.5834 -0.8275  0.0218
 3501SOL    HW122139   3.661   2.469   1.652 -0.2947  2.0395 -0.6731
 3501SOL    HW222140   3.566   2.381   1.703  2.5304  0.3576  1.0891
 3502SOL     OW22141   1.255   2.887   7.767 -0.0450 -0.2770 -0.0457
 3502SOL    HW122142   1.343   2.868   7.736  0.3319 -1.0038  1.4342
 3502SOL    HW222143   1.195   2.847   7.703 -0.6754 -1.2353  1.1172
 3503SOL     OW22144   4.244   4.353  17.611  0.5036  0.0046 -0.8690
 3503SOL    HW122145   4.275   4.440  17.586 -0.3652  0.7628  0.6929
 3503SOL    HW222146   4.323   4.299  17.621 -0.4336 -1.6613 -2.3948
 3504SOL     OW22147   0.940   4.000   7.940  0.2715  0.0404 -0.1897
 3504SOL    HW122148   0.853   3.968   7.967 -0.5794  2.0430 -0.5302
 3504SOL    HW222149   0.970   4.041   8.021 -2.3487 -0.0213  0.8304
 3505SOL     OW22150   3.525   3.258   0.319  0.9141 -0.0180 -0.8940
 3505SOL    HW122151   3.614   3.223   0.311  1.0288  0.5849 -2.3015
 3505SOL    HW222152   3.494   3.192   0.381 -0.4183 -0.4267 -1.9960
 3506SOL     OW22153   3.240   3.753   3.435  0.1873 -0.1138 -0.1175
 3506SOL    HW122154   3.319   3.769   3.383 -0.2050 -1.5015 -1.1434
 3506SOL    HW222155   3.275   3.719   3.517 -2.3290 -2.4005 -0.0171
 3507SOL     OW22156   3.895   1.227   3.032  0.1929 -0.8807 -0.1620
 3507SOL    HW122157   3.925   1.225   3.122 -0.7576 -0.0285  0.1687
 3507SOL    HW222158   3.963   1.260   2.974 -2.3816  3.4527 -0.6787
 3508SOL     OW22159   3.102   4.017   3.461 -0.0393  0.2077  0.4362
 3508SOL    HW122160   3.138   3.929   3.446 -0.4045  0.4968 -2.1382
 3508SOL    HW222161   3.177   4.063   3.422  1.2275 -0.6572  1.8409
 3509SOL     OW22162   2.740   4.307   0.634  0.1393 -0.6543  0.4761
 3509SOL    HW122163   2.833   4.326   0.624 -0.4751  0.4667 -2.9448
 3509SOL    HW222164   2.704   4.396   0.627 -0.2696 -0.7120  1.8476
 3510SOL     OW22165   1.626   0.313   1.432  0.5677 -0.3460  0.2188
 3510SOL    HW122166   1.585   0.299   1.347  1.3274 -1.7684  0.0958
 3510SOL    HW222167   1.556   0.291   1.494  0.6544  2.0259  1.1560
 3511SOL     OW22168   3.151   1.505   3.140  0.1858 -0.4523 -0.2570
 3511SOL    HW122169   3.236   1.527   3.178 -0.2465 -1.2419  1.1720
 3511SOL    HW222170   3.135   1.426   3.192 -1.0393 -0.0422 -0.0026
 3512SOL     OW22171   2.036   0.823   3.503  0.4644  0.4389  0.6865
 3512SOL    HW122172   1.985   0.797   3.580 -0.2288  0.7778  0.3434
 3512SOL    HW222173   2.083   0.745   3.474 -1.0375 -0.2867  0.1821
 3513SOL     OW22174   1.548   0.600   1.301  0.1004  0.1448  0.2656
 3513SOL    HW122175   1.521   0.526   1.356 -0.3360  0.8289  0.9633
 3513SOL    HW222176   1.531   0.667   1.366 -0.2567 -0.5567  0.8963
 3514SOL     OW22177   2.134   4.595   6.782 -0.0756  0.0747 -0.8601
 3514SOL    HW122178   2.128   4.536   6.707  2.6349 -1.3226  0.0248
 3514SOL    HW222179   2.068   4.553   6.836  1.3633 -0.9092  0.1186
 3515SOL     OW22180   3.725   0.057  17.317 -0.3560  0.1808  0.2724
 3515SOL    HW122181   3.784   0.132  17.315  1.1168 -1.0055 -0.2458
 3515SOL    HW222182   3.641   0.103  17.328 -0.3914  0.1621  0.0816
 3516SOL     OW22183   2.240   3.519   8.326 -0.1285  0.5321 -0.2097
 3516SOL    HW122184   2.225   3.556   8.239 -1.4112 -0.4592 -0.4069
 3516SOL    HW222185   2.336   3.517   8.324 -0.1361 -1.4191  0.9671
 3517SOL     OW22186   0.926   1.635   7.250 -0.7741 -0.3149  0.4266
 3517SOL    HW122187   1.014   1.655   7.218 -1.3071 -1.9618 -2.0818
 3517SOL    HW222188   0.915   1.673   7.337 -2.0750 -0.6539  0.4017
 3518SOL     OW22189   2.936   1.514   6.103  0.3688 -0.2677  0.3727
 3518SOL    HW122190   2.882   1.541   6.028  0.5366  0.8852  0.6564
 3518SOL    HW222191   3.022   1.526   6.062  0.6196 -0.7203  0.7690
 3519SOL     OW22192   0.060   3.281   3.535  0.8336 -0.2287 -0.3536
 3519SOL    HW122193   0.006   3.330   3.473 -2.0820 -2.9898 -0.0125
 3519SOL    HW222194   0.117   3.353   3.563  1.0635  0.3251 -2.3099
 3520SOL     OW22195   0.170   1.653  13.208  0.5747  0.2875  0.1619
 3520SOL    HW122196   0.095   1.609  13.168 -0.6649  2.2888  0.2915
 3520SOL    HW222197   0.146   1.645  13.300 -1.0975  0.5594 -0.2568
 3521SOL     OW22198   0.747   1.524   5.644 -0.1430  0.2513  0.1162
 3521SOL    HW122199   0.668   1.471   5.658 -0.8693  1.3619  0.2542
 3521SOL    HW222200   0.727   1.599   5.701 -1.7647 -0.0546 -0.0549
 3522SOL     OW22201   0.752   3.345  10.303 -0.8219 -0.6346 -0.4546
 3522SOL    HW122202   0.790   3.326  10.217  0.5873 -3.9258  0.8832
 3522SOL    HW222203   0.782   3.260  10.337  1.1895 -0.0259 -0.7157
 3523SOL     OW22204   0.263   2.346   9.215  0.2188  0.1214  0.7380
 3523SOL    HW122205   0.269   2.377   9.305  0.6425  0.2901  0.6543
 3523SOL    HW222206   0.352   2.370   9.187  0.3215  0.8262  1.6627
 3524SOL     OW22207   2.377   0.958   5.851  0.1803  0.1682 -0.2274
 3524SOL    HW122208   2.415   1.001   5.775  1.6032 -0.8020 -0.0633
 3524SOL    HW222209   2.319   0.895   5.810  0.3316  0.2753 -0.6056
 3525SOL     OW22210   0.822   1.799  11.737  0.3953 -0.2595  0.3127
 3525SOL    HW122211   0.893   1.843  11.691 -0.5568  0.0862 -0.8400
 3525SOL    HW222212   0.787   1.869  11.792  0.7758 -1.8460  2.5758
 3526SOL     OW22213   2.571   4.517  10.249  0.0421  0.0635 -0.0876
 3526SOL    HW122214   2.640   4.584  10.243  0.0537  0.0666  0.0822
 3526SOL    HW222215   2.493   4.572  10.255  0.0435  0.3828 -2.9883
 3527SOL     OW22216   3.633   4.319   3.202  0.1560  0.2213 -0.7251
 3527SOL    HW122217   3.609   4.328   3.294 -0.5385  2.4117 -1.1367
 3527SOL    HW222218   3.712   4.264   3.203 -1.6615 -2.3821 -0.2672
 3528SOL     OW22219   0.155   4.121   7.682  0.0890  0.2556 -0.4371
 3528SOL    HW122220   0.220   4.162   7.625 -1.3885  0.4838 -1.9266
 3528SOL    HW222221   0.147   4.036   7.640  4.3843 -0.9265  1.0899
 3529SOL     OW22222   3.580   4.178   5.551  0.5900 -0.1446 -0.3395
 3529SOL    HW122223   3.615   4.109   5.496 -0.6581  0.9951 -2.5734
 3529SOL    HW222224   3.598   4.254   5.496  0.8557 -0.5056 -0.7460
 3530SOL     OW22225   2.774   0.090  10.596 -0.0476  0.1222  0.3070
 3530SOL    HW122226   2.864   0.122  10.589 -0.3973  0.4261 -3.1419
 3530SOL    HW222227   2.750   0.089  10.503  1.3498 -1.6476 -0.0366
 3531SOL     OW22228   3.049   3.532   0.129 -0.9692  0.5659  0.5077
 3531SOL    HW122229   3.023   3.507   0.040  2.0443 -0.8728  0.0052
 3531SOL    HW222230   3.073   3.624   0.125  2.1850 -0.1345  3.9614
 3532SOL     OW22231   4.283   3.977   4.185 -0.5004 -0.1036  0.2414
 3532SOL    HW122232   4.243   4.044   4.131  0.4572 -1.4734 -2.1385
 3532SOL    HW222233   4.258   3.896   4.141  1.5172 -0.5986 -0.0042
 3533SOL     OW22234   0.798   4.468   7.035 -0.1588  0.0882  0.0480
 3533SOL    HW122235   0.740   4.438   7.105 -0.8686  2.1460  0.3540
 3533SOL    HW222236   0.764   4.419   6.960 -0.8423  1.3159 -0.4528
 3534SOL     OW22237   0.395   3.390   0.460  0.1774 -0.0044 -0.0994
 3534SOL    HW122238   0.301   3.373   0.454 -0.4857  3.4845  0.3826
 3534SOL    HW222239   0.395   3.483   0.482 -0.6005 -0.3690  1.4502
 3535SOL     OW22240   4.667   0.139   9.152 -0.6191  0.0433 -0.0914
 3535SOL    HW122241   4.608   0.204   9.114  0.3466  0.4223 -0.9469
 3535SOL    HW222242   4.647   0.055   9.109 -0.2741 -0.1549  0.1339
 3536SOL     OW22243   1.590   0.274  14.563  0.2070  0.2074  0.0305
 3536SOL    HW122244   1.646   0.275  14.485  0.0537  1.9688 -0.0663
 3536SOL    HW222245   1.610   0.357  14.606  1.9350 -0.2185  0.0551
 3537SOL     OW22246   1.364   3.217   4.480 -0.0332 -0.0478 -0.6477
 3537SOL    HW122247   1.427   3.148   4.499  0.2856  0.3696 -0.2062
 3537SOL    HW222248   1.392   3.230   4.390  1.8876  2.8431  0.4015
 3538SOL     OW22249   1.393   1.569   5.304 -0.0377  0.4001  0.1565
 3538SOL    HW122250   1.302   1.574   5.336 -0.1380 -0.5665  0.0276
 3538SOL    HW222251   1.399   1.650   5.255  2.7617  1.5513  2.4383
 3539SOL     OW22252   1.439   0.706   6.863  0.0164 -0.4585  0.2107
 3539SOL    HW122253   1.532   0.725   6.867 -0.1934  0.4960  0.6257
 3539SOL    HW222254   1.420   0.739   6.775 -0.5821 -0.9262  0.1608
 3540SOL     OW22255   3.851   4.508   1.495  0.1979  0.5189  0.2621
 3540SOL    HW122256   3.946   4.512   1.501  0.0496  2.0406  1.7212
 3540SOL    HW222257   3.834   4.571   1.426 -4.1750  1.7986  2.4931
 3541SOL     OW22258   2.043   2.596   7.100 -0.4937  0.9612 -0.5549
 3541SOL    HW122259   1.978   2.537   7.139  0.3475  0.2170 -0.3083
 3541SOL    HW222260   2.057   2.549   7.018  2.7069 -0.6592  0.9652
 3542SOL     OW22261   1.534   2.282  10.809  0.6135  0.6357 -0.4617
 3542SOL    HW122262   1.617   2.235  10.821 -1.2897 -2.3665  0.8840
 3542SOL    HW222263   1.522   2.307  10.901  2.7851  1.0733 -0.3009
 3543SOL     OW22264   3.620   1.628   3.088  0.1217  0.3088 -0.4287
 3543SOL    HW122265   3.682   1.700   3.078  0.0342  0.6066  1.1414
 3543SOL    HW222266   3.649   1.570   3.158  2.0640  0.2730 -1.2425
 3544SOL     OW22267   1.420   2.518   8.297 -0.6594 -0.0751 -0.4812
 3544SOL    HW122268   1.481   2.446   8.314 -1.7754 -1.3675 -1.8417
 3544SOL    HW222269   1.447   2.554   8.213  0.4717  3.8770  1.5822
 3545SOL     OW22270   4.158   3.069   3.871 -0.1832 -0.2204  0.3601
 3545SOL    HW122271   4.230   3.082   3.810 -0.1130  1.0834  0.7168
 3545SOL    HW222272   4.182   2.987   3.914 -0.1692  0.4053  1.5452
 3546SOL     OW22273   4.029   2.680   9.088  0.2641  0.6535 -0.3956
 3546SOL    HW122274   4.009   2.744   9.155 -4.8693 -0.2990 -0.9384
 3546SOL    HW222275   4.123   2.693   9.076  0.3345 -1.1879 -1.9648
 3547SOL     OW22276   3.326   3.361   4.248  0.1547  0.5182  0.4237
 3547SOL    HW122277   3.247   3.309   4.263  0.4245  0.3196  1.1600
 3547SOL    HW222278   3.311   3.389   4.158 -2.5616  1.6017  1.2252
 3548SOL     OW22279   1.541   2.771   7.749  0.2905 -0.4321  0.5079
 3548SOL    HW122280   1.606   2.802   7.686  0.2282 -2.1849 -0.3895
 3548SOL    HW222281   1.589   2.717   7.811  1.4880 -0.7989 -0.7513
 3549SOL     OW22282   4.402   3.852   8.136  0.1241  0.4937 -0.2069
 3549SOL    HW122283   4.401   3.888   8.225 -1.2286  1.2120 -0.5133
 3549SOL    HW222284   4.495   3.830   8.131  0.0035  0.4453 -2.4442
 3550SOL     OW22285   0.637   1.522   7.013  0.3106 -0.2887  0.2277
 3550SOL    HW122286   0.625   1.548   7.105 -0.0409  0.1883  0.0487
 3550SOL    HW222287   0.556   1.470   7.006  0.6415 -0.4846 -1.9348
 3551SOL     OW22288   4.220   0.627   6.171 -0.6473 -0.4419 -0.0854
 3551SOL    HW122289   4.157   0.626   6.099  1.0956 -0.7544 -1.5749
 3551SOL    HW222290   4.200   0.720   6.181 -2.2452 -0.9245  1.4122
 3552SOL     OW22291   4.077   2.035   9.208 -0.1255  0.5114 -0.5631
 3552SOL    HW122292   4.142   1.979   9.251  2.1429  2.4228 -1.4940
 3552SOL    HW222293   4.108   2.125   9.222  0.5238  0.2559 -0.3659
 3553SOL     OW22294   2.090   0.357  12.857  0.7679 -0.4241  0.5214
 3553SOL    HW122295   2.097   0.449  12.881  1.5837  0.1029 -1.7749
 3553SOL    HW222296   2.161   0.363  12.793 -1.1466  1.9591 -1.3745
 3554SOL     OW22297   1.827   0.001   6.215 -0.2024 -0.2557 -0.0201
 3554SOL    HW122298   1.775   0.006   6.296  0.6164  0.2219  0.4753
 3554SOL    HW222299   1.915   4.733   6.252 -0.3623 -1.6435  0.1445
 3555SOL     OW22300   2.940   1.452   6.855  0.1111  0.2302  0.7386
 3555SOL    HW122301   2.921   1.470   6.763 -1.6468 -0.5864  0.9392
 3555SOL    HW222302   2.904   1.530   6.898  3.5602  1.7837  0.8065
 3556SOL     OW22303   2.334   3.264   2.726 -0.5789  0.2303  0.7367
 3556SOL    HW122304   2.281   3.225   2.657 -1.1529  0.2693  1.1507
 3556SOL    HW222305   2.413   3.210   2.731  1.2241  2.8675  0.6935
 3557SOL     OW22306   0.361   1.746   2.568  0.0086  0.0453 -0.0792
 3557SOL    HW122307   0.340   1.658   2.597  1.2198  0.7218  2.7945
 3557SOL    HW222308   0.421   1.729   2.495  0.5451  0.5152  0.2537
 3558SOL     OW22309   2.083   2.048   3.094 -0.2559  0.1141 -0.1181
 3558SOL    HW122310   2.065   2.042   3.000 -1.9017  1.2218  0.1271
 3558SOL    HW222311   2.071   1.959   3.127  1.1240 -0.6095 -1.5564
 3559SOL     OW22312   3.902   1.447   9.044  0.0402  0.3247  0.0152
 3559SOL    HW122313   3.941   1.523   9.087 -1.7837  1.2778 -0.0446
 3559SOL    HW222314   3.961   1.374   9.065 -0.4369 -0.1140 -0.1829
 3560SOL     OW22315   0.067   3.902  15.663 -0.0034 -0.0402  0.0989
 3560SOL    HW122316   0.154   3.886  15.700 -1.0418  0.3455  2.6921
 3560SOL    HW222317   0.044   3.986  15.703 -3.5532 -0.8367 -0.3083
 3561SOL     OW22318   1.154   2.223   6.170 -0.0724  1.0896  0.2463
 3561SOL    HW122319   1.211   2.234   6.246 -0.1855 -0.4567  0.5482
 3561SOL    HW222320   1.192   2.297   6.123  0.8127 -0.3016 -1.2362
 3562SOL     OW22321   1.886   3.236   1.147 -0.1655  0.3516  0.5267
 3562SOL    HW122322   1.853   3.315   1.105  2.2065  1.4971  0.8086
 3562SOL    HW222323   1.967   3.258   1.193 -0.3789  0.1692  0.9885
 3563SOL     OW22324   2.719   2.473  15.651  0.0121 -0.0170  0.5801
 3563SOL    HW122325   2.812   2.456  15.662 -0.1251 -1.3653 -0.4065
 3563SOL    HW222326   2.694   2.507  15.737 -0.8409 -0.0573  0.3463
 3564SOL     OW22327   0.842   3.829   1.470  0.4005 -0.3357  0.4347
 3564SOL    HW122328   0.931   3.829   1.504  1.4820 -0.6870 -2.4610
 3564SOL    HW222329   0.850   3.781   1.388  1.2516  0.9591 -0.2492
 3565SOL     OW22330   2.260   2.241  14.348 -0.2684  0.2773 -0.1041
 3565SOL    HW122331   2.313   2.310  14.308  0.3784 -0.2333 -0.1286
 3565SOL    HW222332   2.306   2.218  14.428  1.3891  0.2802 -1.0638
 3566SOL     OW22333   1.922   0.209   6.873  0.2669 -0.2868 -0.3205
 3566SOL    HW122334   1.987   0.186   6.939  1.1551  0.9412 -0.7840
 3566SOL    HW222335   1.940   0.142   6.807 -1.0100 -0.0434 -0.9221
 3567SOL     OW22336   0.814   4.430   2.371  0.3495 -0.3106  0.3750
 3567SOL    HW122337   0.868   4.369   2.423  1.1709 -0.9741 -1.2481
 3567SOL    HW222338   0.730   4.395   2.400  1.9464 -0.5279  4.7186
 3568SOL     OW22339   4.458   2.488  17.276  0.1958 -0.2803  0.4414
 3568SOL    HW122340   4.386   2.453  17.224  0.0700 -0.2871  0.6240
 3568SOL    HW222341   4.448   2.438  17.356 -1.2369  0.0153  0.4358
 3569SOL     OW22342   2.061   2.016   3.822  0.1396  0.5139 -0.2447
 3569SOL    HW122343   2.045   2.025   3.728 -0.4385  1.9070 -0.0118
 3569SOL    HW222344   2.088   1.924   3.824  0.7099  0.6585 -1.7403
 3570SOL     OW22345   3.723   2.036   2.143  0.0708 -0.7102  0.1963
 3570SOL    HW122346   3.689   2.016   2.230  2.2961 -0.5783  1.0836
 3570SOL    HW222347   3.641   2.058   2.098 -0.2006  1.0095  1.5140
 3571SOL     OW22348   2.743   1.593   3.455  0.0816  0.1691 -0.1621
 3571SOL    HW122349   2.776   1.567   3.369  0.0551 -4.2160  1.1497
 3571SOL    HW222350   2.774   1.520   3.509  0.0063  0.0375 -0.2947
 3572SOL     OW22351   4.606   0.736   4.832  0.7528 -0.1348  0.3730
 3572SOL    HW122352   4.547   0.798   4.873  1.9984  0.3919  1.3543
 3572SOL    HW222353   4.604   0.659   4.889 -0.1888 -0.0340  0.4702
 3573SOL     OW22354   0.469   4.144  17.319 -0.2325 -0.5434 -0.3564
 3573SOL    HW122355   0.455   4.236  17.298 -0.9152 -0.7782 -0.9423
 3573SOL    HW222356   0.530   4.125  17.248 -0.8411  1.4513 -1.3951
 3574SOL     OW22357   1.721   0.721   9.669  0.3764  0.6491  0.4737
 3574SOL    HW122358   1.743   0.650   9.729  1.0225 -1.6149 -2.4412
 3574SOL    HW222359   1.809   0.757   9.659  0.2911  1.3134  2.0628
 3575SOL     OW22360   0.859   4.708   6.924  0.0330 -0.3018  0.2731
 3575SOL    HW122361   0.829   0.034   6.989 -0.3305  0.8144 -0.9606
 3575SOL    HW222362   0.844   4.625   6.969  2.1174 -2.0322 -2.2373
 3576SOL     OW22363   4.441   2.988   3.340 -0.0987  0.0149 -0.1509
 3576SOL    HW122364   4.382   3.057   3.369 -0.0042  0.5893 -1.3199
 3576SOL    HW222365   4.413   2.967   3.251  1.8533 -1.3956 -0.4400
 3577SOL     OW22366   0.096   2.908   9.600 -0.1030  0.4092 -0.3215
 3577SOL    HW122367   0.166   2.852   9.565 -1.8284  1.6336 -5.7357
 3577SOL    HW222368   0.137   2.936   9.682 -1.9375 -0.3483  0.8710
 3578SOL     OW22369   0.672   1.451  13.334  0.1236  0.3014  0.4108
 3578SOL    HW122370   0.616   1.374  13.341 -0.1565  0.6168  1.5128
 3578SOL    HW222371   0.602   1.505  13.297 -1.3259 -0.6140  1.8585
 3579SOL     OW22372   3.272   2.162  15.804  0.7480  0.1365 -0.0957
 3579SOL    HW122373   3.258   2.249  15.768  0.3076 -0.1589 -0.6265
 3579SOL    HW222374   3.184   2.126  15.798 -0.1615  2.4193 -0.2473
 3580SOL     OW22375   2.152   3.918   8.204  0.0596  0.3279  0.1080
 3580SOL    HW122376   2.105   4.001   8.202 -0.1519  0.1915 -0.6386
 3580SOL    HW222377   2.088   3.858   8.243  0.2123 -0.2045 -0.4658
 3581SOL     OW22378   3.821   4.563   3.291  0.0093 -0.0975  0.2148
 3581SOL    HW122379   3.867   4.538   3.371  2.7009 -1.8648 -1.8753
 3581SOL    HW222380   3.733   4.580   3.324 -0.7984 -3.3060 -0.3033
 3582SOL     OW22381   3.168   2.415   1.959  0.1193  0.6563  0.3922
 3582SOL    HW122382   3.104   2.402   1.888  0.5887  0.2128  0.0503
 3582SOL    HW222383   3.115   2.375   2.028  1.0062  2.4330  2.1043
 3583SOL     OW22384   2.047   1.838   9.704  0.0709  0.0056  0.1374
 3583SOL    HW122385   2.138   1.814   9.686  0.3478  0.6597  0.6866
 3583SOL    HW222386   2.053   1.907   9.770  0.0649 -1.0805  1.2784
 3584SOL     OW22387   2.001   0.475   2.953 -0.3862 -0.8929 -0.2905
 3584SOL    HW122388   2.092   0.489   2.926 -1.9780  0.6510 -4.8406
 3584SOL    HW222389   1.955   0.532   2.891 -2.0553 -0.6223  1.2201
 3585SOL     OW22390   1.399   3.860   5.661 -0.7938  0.1842  0.0444
 3585SOL    HW122391   1.374   3.782   5.712 -0.4541 -1.6683 -2.6451
 3585SOL    HW222392   1.312   3.894   5.641 -0.3027  3.5186  3.6654
 3586SOL     OW22393   4.126   2.687   1.043 -0.3301  0.0047 -0.5030
 3586SOL    HW122394   4.186   2.664   0.972 -1.2449  0.3752 -1.3955
 3586SOL    HW222395   4.121   2.782   1.033 -1.0954  0.2785  2.4707
 3587SOL     OW22396   2.265   4.486   3.425 -0.5009  0.3266  0.3538
 3587SOL    HW122397   2.324   4.537   3.370 -1.3537 -0.2766 -1.1051
 3587SOL    HW222398   2.329   4.436   3.476  0.1439 -0.9433 -1.7193
 3588SOL     OW22399   2.686   0.071   3.007 -0.2001 -0.3149  0.0593
 3588SOL    HW122400   2.674   0.144   3.068  0.6131  0.7449 -1.0378
 3588SOL    HW222401   2.727   0.120   2.935 -1.9284 -0.5722 -1.1096
 3589SOL     OW22402   0.385   3.979  12.057  0.1610 -0.0230  0.2357
 3589SOL    HW122403   0.355   3.889  12.070 -0.3201  0.2156  0.7715
 3589SOL    HW222404   0.391   3.986  11.962  1.2584 -0.1285  0.2919
 3590SOL     OW22405   2.591   4.253   5.445  0.1779  0.1644 -0.1009
 3590SOL    HW122406   2.658   4.280   5.382  0.1489  1.3189  0.3655
 3590SOL    HW222407   2.639   4.219   5.521 -0.1381  2.3140  1.0702
 3591SOL     OW22408   4.193   3.536   7.944 -0.0663  0.8106  0.0756
 3591SOL    HW122409   4.273   3.523   7.996  1.3391  2.1621 -1.7557
 3591SOL    HW222410   4.135   3.576   8.009 -0.6870  0.5754 -0.3344
 3592SOL     OW22411   1.940   2.461   6.377 -0.0129  0.3908 -0.0038
 3592SOL    HW122412   1.911   2.523   6.444 -1.6349 -0.1368 -0.2281
 3592SOL    HW222413   2.036   2.471   6.381 -0.0255 -0.7745  3.7639
 3593SOL     OW22414   3.676   1.078  14.923 -0.4256  0.1587  0.7664
 3593SOL    HW122415   3.611   1.148  14.930  0.5413  1.1336 -0.1254
 3593SOL    HW222416   3.614   1.006  14.911 -1.1298  0.6228  1.6274
 3594SOL     OW22417   3.980   0.346   7.031  0.2493 -0.2893  0.1889
 3594SOL    HW122418   3.900   0.398   7.023 -1.0175 -2.1963  0.3538
 3594SOL    HW222419   4.006   0.386   7.114  1.3821  2.1147 -1.3202
 3595SOL     OW22420   4.609   3.120   5.664 -0.4607 -0.1277 -0.4119
 3595SOL    HW122421   4.608   3.172   5.584  3.1544  0.1573 -0.2712
 3595SOL    HW222422   4.529   3.067   5.665 -1.4202  1.3214 -0.7845
 3596SOL     OW22423   2.122   0.909  15.549  0.4790 -0.5650  0.3406
 3596SOL    HW122424   2.145   0.925  15.458 -0.4094  0.7193  0.3466
 3596SOL    HW222425   2.184   0.977  15.579 -1.1896  1.6908 -1.3109
 3597SOL     OW22426   4.706   3.319   2.112  0.0403 -0.5907  0.4903
 3597SOL    HW122427   4.688   3.383   2.182 -0.4507  0.4737 -0.6129
 3597SOL    HW222428   0.061   3.336   2.093 -0.2874  1.1241  0.3638
 3598SOL     OW22429   2.552   3.004  14.464  0.4034 -0.0950  0.1755
 3598SOL    HW122430   2.467   3.009  14.509  0.8792  1.8543  0.8609
 3598SOL    HW222431   2.583   3.091  14.489 -1.4756  1.0532 -1.4499
 3599SOL     OW22432   3.344   1.165   6.403  0.1296  0.1340  0.0010
 3599SOL    HW122433   3.267   1.149   6.458  1.8431  1.6986  2.8744
 3599SOL    HW222434   3.308   1.130   6.322 -2.2274  0.4902  0.9019
 3600SOL     OW22435   0.634   2.649   8.474 -0.3653 -0.2836 -0.3750
 3600SOL    HW122436   0.694   2.723   8.462 -1.6651  0.9978  0.9559
 3600SOL    HW222437   0.693   2.582   8.510 -0.6892 -0.9976 -1.1700
 3601SOL     OW22438   3.100   3.077   5.989  0.0930  0.6119  0.6613
 3601SOL    HW122439   3.008   3.057   6.006  1.0133 -2.5383  1.8179
 3601SOL    HW222440   3.121   3.014   5.921  0.1129  0.4000  0.8642
 3602SOL     OW22441   1.118   2.021   5.989  0.1555  0.5287  0.1265
 3602SOL    HW122442   1.198   2.020   5.936  0.0929  0.8122  0.0239
 3602SOL    HW222443   1.137   2.072   6.067  1.0893 -0.3101  0.4372
 3603SOL     OW22444   0.060   3.509  10.908 -0.5342  0.0843 -0.3646
 3603SOL    HW122445   0.088   3.448  10.976  2.4403  1.1032 -0.6734
 3603SOL    HW222446   0.060   3.590  10.958  2.9718  1.2606 -2.2709
 3604SOL     OW22447   4.697   2.978   8.416  0.2739  0.3291  0.2046
 3604SOL    HW122448   0.050   2.948   8.418 -0.2809 -1.3236  0.6098
 3604SOL    HW222449   4.698   3.009   8.326  0.4326  1.4849  0.6070
 3605SOL     OW22450   0.204   1.221   1.639 -0.2971 -0.3467 -0.9203
 3605SOL    HW122451   0.134   1.248   1.699 -0.7524 -0.1636 -1.5350
 3605SOL    HW222452   0.193   1.126   1.641 -0.6051 -0.2743  0.7840
 3606SOL     OW22453   2.274   0.281   6.470  0.0961  0.4352 -0.3705
 3606SOL    HW122454   2.247   0.371   6.456  0.7388  0.7520  0.4240
 3606SOL    HW222455   2.235   0.258   6.554 -0.8404 -0.8378 -1.1448
 3607SOL     OW22456   0.339   2.794   3.878 -0.1581 -0.4910  0.3610
 3607SOL    HW122457   0.430   2.802   3.908  0.1339  1.9788 -1.1446
 3607SOL    HW222458   0.296   2.867   3.923 -1.8868 -0.4849 -1.3322
 3608SOL     OW22459   4.281   4.024   1.191  0.0869 -0.5328 -0.2682
 3608SOL    HW122460   4.202   4.071   1.164  0.1309  1.2471  2.6181
 3608SOL    HW222461   4.235   3.967   1.254  0.5558 -1.8540 -1.1102
 3609SOL     OW22462   0.206   2.351  13.015  0.7334 -0.2986  0.1305
 3609SOL    HW122463   0.249   2.282  12.966  1.2530  0.2655 -0.1986
 3609SOL    HW222464   0.159   2.291  13.073 -0.3038  0.6641  0.2875
 3610SOL     OW22465   0.814   3.643  14.834 -0.6276 -0.2569 -0.0673
 3610SOL    HW122466   0.870   3.570  14.863 -0.6764  0.4799  1.8990
 3610SOL    HW222467   0.803   3.698  14.911 -0.2369  0.3898 -0.4658
 3611SOL     OW22468   1.870   1.783   5.204  0.2252 -0.6248  0.5410
 3611SOL    HW122469   1.798   1.754   5.261  1.2630 -1.6114  1.3460
 3611SOL    HW222470   1.853   1.876   5.211 -0.1543 -0.5768 -1.1002
 3612SOL     OW22471   0.669   3.711   1.924  0.4184  0.1672  0.7242
 3612SOL    HW122472   0.663   3.707   1.829  0.0042 -0.6949  0.7824
 3612SOL    HW222473   0.720   3.634   1.950  0.9408  1.0863  2.3953
 3613SOL     OW22474   4.214   3.615  17.412  0.5842  0.1965  0.3146
 3613SOL    HW122475   4.203   3.677  17.340  0.4977 -1.7011 -1.3152
 3613SOL    HW222476   4.138   3.632  17.467  0.1054 -0.2274 -0.2168
 3614SOL     OW22477   4.567   4.321   6.440  0.0715  0.1784 -0.3663
 3614SOL    HW122478   4.619   4.321   6.520 -1.0424 -0.9625  0.3557
 3614SOL    HW222479   4.488   4.367   6.469  0.7488  0.7746  0.5329
 3615SOL     OW22480   3.188   3.035   3.362  0.1532 -0.1421 -0.1554
 3615SOL    HW122481   3.145   2.996   3.285 -2.2682 -1.2078  1.7228
 3615SOL    HW222482   3.131   3.018   3.437 -2.5672 -0.0638 -2.1879
 3616SOL     OW22483   2.962   4.389  13.186 -0.1365 -0.0041 -0.2119
 3616SOL    HW122484   2.935   4.478  13.209  0.0342 -0.0303  0.0921
 3616SOL    HW222485   3.055   4.398  13.169 -0.2275  1.0555 -0.1394
 3617SOL     OW22486   3.599   3.994   7.358  0.0904  0.3987  0.1989
 3617SOL    HW122487   3.508   3.992   7.388 -0.0428  1.9105 -0.1320
 3617SOL    HW222488   3.629   3.926   7.418 -1.5714 -1.4561 -1.0778
 3618SOL     OW22489   1.414   2.234   1.582 -0.5945  0.0401  0.1375
 3618SOL    HW122490   1.475   2.288   1.532 -1.4180  0.5367 -0.3292
 3618SOL    HW222491   1.466   2.203   1.656 -1.5482 -1.8795  0.0033
 3619SOL     OW22492   1.769   1.152  14.628  0.0281  0.9116 -0.4354
 3619SOL    HW122493   1.692   1.146  14.571 -0.0739  0.8307 -0.2916
 3619SOL    HW222494   1.738   1.094  14.698  2.4385  1.1628  0.8248
 3620SOL     OW22495   0.937   0.017  11.766 -0.5269  0.1351 -0.5922
 3620SOL    HW122496   0.879   4.723  11.835 -0.8040 -1.0471 -1.3700
 3620SOL    HW222497   1.023   4.724  11.796 -1.7016 -1.4611  1.1804
 3621SOL     OW22498   4.659   3.827   0.373  0.0187 -0.4504 -0.1257
 3621SOL    HW122499   0.004   3.876   0.369  0.7916 -1.6187  1.4317
 3621SOL    HW222500   4.666   3.767   0.447  0.6365  1.1701  1.1393
 3622SOL     OW22501   2.704   1.419   1.378 -0.5610  0.1491  0.6471
 3622SOL    HW122502   2.610   1.425   1.358 -0.9900 -0.5595  2.4489
 3622SOL    HW222503   2.718   1.506   1.415  0.4393  0.3809 -0.2782
 3623SOL     OW22504   4.143   2.164  17.094  0.2979  0.4158  0.9522
 3623SOL    HW122505   4.193   2.148  17.014 -4.3921 -0.7755 -1.6965
 3623SOL    HW222506   4.147   2.078  17.136  2.1536  0.0729  0.1148
 3624SOL     OW22507   0.254   1.408   1.458  0.4751 -0.3982  0.0592
 3624SOL    HW122508   0.247   1.357   1.539 -1.6301 -1.2092 -0.6396
 3624SOL    HW222509   0.348   1.391   1.447  0.4766 -1.2002  1.2654
 3625SOL     OW22510   0.184   2.075   2.332  0.4397  0.6743 -0.7349
 3625SOL    HW122511   0.144   1.991   2.353 -1.1807  2.4691  3.0948
 3625SOL    HW222512   0.278   2.055   2.327  0.1877 -0.2082 -1.9544
 3626SOL     OW22513   4.533   2.038   3.243 -0.4241 -0.4662  0.0648
 3626SOL    HW122514   4.514   2.123   3.203  1.5675 -0.3215 -0.5984
 3626SOL    HW222515   4.474   1.984   3.190 -0.1543 -0.9192  0.2286
 3627SOL     OW22516   1.114   1.614   3.166  0.6442  0.6442 -0.3417
 3627SOL    HW122517   1.133   1.535   3.216 -2.7239  0.1370  0.1170
 3627SOL    HW222518   1.195   1.662   3.186  0.7192  0.3406  0.0684
 3628SOL     OW22519   0.674   1.971  17.593 -0.7065 -0.3681 -0.2319
 3628SOL    HW122520   0.618   1.941  17.522  0.4126  2.0848 -2.1497
 3628SOL    HW222521   0.681   2.062  17.565  0.2863  0.6717  3.2904
 3629SOL     OW22522   4.141   0.427   4.218 -0.1714 -0.1535 -0.4141
 3629SOL    HW122523   4.085   0.350   4.230  1.6946 -1.2908  1.0498
 3629SOL    HW222524   4.118   0.472   4.299 -0.5002 -0.3680 -0.3888
 3630SOL     OW22525   1.333   2.752  15.972  0.0470 -0.2405 -0.8145
 3630SOL    HW122526   1.405   2.791  15.924 -0.4602 -1.1230 -2.2760
 3630SOL    HW222527   1.367   2.679  16.023  0.6419  0.9924  0.5568
 3631SOL     OW22528   0.302   3.334   2.446 -0.3602  0.2585  0.9768
 3631SOL    HW122529   0.271   3.244   2.431  0.1798  0.1347  0.5874
 3631SOL    HW222530   0.395   3.330   2.423 -0.7946  1.4121 -1.0180
 3632SOL     OW22531   0.699   4.092   0.047 -0.0053  0.8282 -0.1357
 3632SOL    HW122532   0.649   4.116  17.717  0.7107 -0.9517 -1.1563
 3632SOL    HW222533   0.743   4.175   0.067  2.0375 -0.4983  0.9712
 3633SOL     OW22534   4.457   0.873   5.944 -0.0934 -0.8663 -0.0248
 3633SOL    HW122535   4.377   0.834   5.907  0.4953 -2.1958  0.0823
 3633SOL    HW222536   4.526   0.818   5.907 -0.3246 -0.8949 -0.4120
 3634SOL     OW22537   3.096   3.710  14.898  0.1320 -0.1210 -0.0833
 3634SOL    HW122538   3.070   3.713  14.806 -2.2708  1.5176  0.6689
 3634SOL    HW222539   3.165   3.644  14.894 -0.7810 -1.1394  1.2867
 3635SOL     OW22540   4.721   0.024   2.167 -0.3928  0.3597 -0.4194
 3635SOL    HW122541   4.669   4.705   2.223  1.0237 -0.0254  0.5178
 3635SOL    HW222542   4.709   0.113   2.201  0.7920  1.6911 -3.3882
 3636SOL     OW22543   2.039   3.496   3.214  0.2059 -0.1843 -0.8683
 3636SOL    HW122544   2.094   3.566   3.247 -1.7761  1.3843 -0.9166
 3636SOL    HW222545   2.055   3.507   3.120  0.4485  1.7799 -0.5866
 3637SOL     OW22546   3.464   3.509   3.481  0.1690 -0.3576 -0.9739
 3637SOL    HW122547   3.465   3.497   3.386  0.5314  2.1539 -1.2915
 3637SOL    HW222548   3.413   3.434   3.512  0.6550 -0.6259 -0.8209
 3638SOL     OW22549   2.970   1.559   4.626  0.4870  0.3897 -0.2820
 3638SOL    HW122550   2.934   1.570   4.538  2.9369 -1.0575 -1.4910
 3638SOL    HW222551   3.057   1.524   4.605  0.8969  3.8135 -4.2592
 3639SOL     OW22552   4.386   1.878   3.064  0.2015  0.1980 -0.0478
 3639SOL    HW122553   4.301   1.915   3.087  0.1843 -0.1877  0.5102
 3639SOL    HW222554   4.379   1.789   3.098 -0.2807  0.6395  0.9725
 3640SOL     OW22555   4.034   3.458   6.143  0.1011  0.2775  0.0742
 3640SOL    HW122556   4.022   3.521   6.072 -4.5232 -0.7076 -0.0142
 3640SOL    HW222557   4.116   3.413   6.123 -0.5446 -0.9209  0.1324
 3641SOL     OW22558   2.976   3.410  17.597 -0.3684  0.5195  0.4090
 3641SOL    HW122559   2.959   3.446  17.510  2.0804 -0.2069 -0.3807
 3641SOL    HW222560   3.068   3.385  17.584 -0.2106 -0.5607  3.5413
 3642SOL     OW22561   3.641   1.701   7.596  0.3019 -0.5888 -0.2426
 3642SOL    HW122562   3.566   1.644   7.611 -1.0968  0.6973 -2.3249
 3642SOL    HW222563   3.614   1.776   7.649  0.2927 -0.0346 -1.0234
 3643SOL     OW22564   0.914   3.339   2.314 -0.1701  0.0122  0.4341
 3643SOL    HW122565   0.853   3.272   2.345 -2.1740  1.7689  0.2408
 3643SOL    HW222566   0.972   3.333   2.390 -0.6647 -1.4239  0.6972
 3644SOL     OW22567   2.310   1.278   1.885 -0.3340 -0.7022  0.2418
 3644SOL    HW122568   2.322   1.357   1.939 -3.6927 -0.4876  0.6920
 3644SOL    HW222569   2.399   1.254   1.861 -1.0611 -1.8193 -1.3203
 3645SOL     OW22570   0.892   3.710   3.583  0.4887 -0.0512  0.2682
 3645SOL    HW122571   0.967   3.711   3.643 -0.3015  0.3905  1.2479
 3645SOL    HW222572   0.935   3.727   3.499 -1.3993 -0.8613 -0.8540
 3646SOL     OW22573   4.468   2.588   4.369  0.4934 -0.0807  0.2883
 3646SOL    HW122574   4.432   2.505   4.339  1.7871 -1.1865  1.8412
 3646SOL    HW222575   4.547   2.574   4.316  1.0474  1.3823  0.7253
 3647SOL     OW22576   4.187   3.457   1.456 -0.2391  0.2192  0.5378
 3647SOL    HW122577   4.224   3.371   1.438  1.1106  0.8423  0.3777
 3647SOL    HW222578   4.254   3.515   1.491 -0.4963 -0.3371  1.9906
 3648SOL     OW22579   3.313   3.631  17.081 -0.1773 -0.3834  0.4778
 3648SOL    HW122580   3.350   3.595  17.162  1.8103 -0.4015 -0.4419
 3648SOL    HW222581   3.319   3.553  17.025  2.4106 -0.4077  0.7810
 3649SOL     OW22582   2.832   3.946   7.031  0.7287 -0.3755  0.7721
 3649SOL    HW122583   2.857   3.876   6.971  1.4437  0.0133  0.6173
 3649SOL    HW222584   2.877   3.913   7.109  1.9477 -0.3086  0.0931
 3650SOL     OW22585   3.535   3.432   5.228  0.2592  0.1218  0.3527
 3650SOL    HW122586   3.514   3.463   5.140  2.5337 -1.2370 -0.6595
 3650SOL    HW222587   3.451   3.427   5.274 -1.4569  1.7253 -2.6173
 3651SOL     OW22588   0.586   3.997   8.981  0.0318 -0.3996  0.0231
 3651SOL    HW122589   0.492   3.977   8.981 -0.6888  3.0225  1.8670
 3651SOL    HW222590   0.594   4.050   8.903  1.6758 -0.1613  0.3652
 3652SOL     OW22591   0.225   0.040   4.161  0.1999 -0.4675 -0.1809
 3652SOL    HW122592   0.144   0.026   4.211  0.4946  3.2576  1.3613
 3652SOL    HW222593   0.280   0.087   4.223  1.8154 -2.3371 -0.2155
 3653SOL     OW22594   3.370   2.340   7.504 -0.9115  0.2494  0.5478
 3653SOL    HW122595   3.309   2.269   7.522  1.0494 -1.8215 -1.0163
 3653SOL    HW222596   3.460   2.308   7.500 -0.3039  1.8268  1.7275
 3654SOL     OW22597   4.484   2.507   5.889 -0.5479 -0.5567 -0.0211
 3654SOL    HW122598   4.490   2.597   5.920 -2.8081 -0.1490 -0.8193
 3654SOL    HW222599   4.487   2.523   5.795 -2.9200 -3.0028 -0.4939
 3655SOL     OW22600   0.845   2.912  14.112  0.2001  0.3602 -1.0004
 3655SOL    HW122601   0.848   2.817  14.122 -1.6824  0.3171 -0.8991
 3655SOL    HW222602   0.832   2.937  14.204  0.9766 -0.0947 -0.7652
 3656SOL     OW22603   2.558   1.715   1.647 -0.3279  0.2529  0.5146
 3656SOL    HW122604   2.573   1.808   1.633 -1.4064  0.2125 -0.9807
 3656SOL    HW222605   2.588   1.680   1.564 -0.3444 -1.3239  1.1653
 3657SOL     OW22606   1.846   2.539   0.345 -0.7013  0.2465  0.2355
 3657SOL    HW122607   1.822   2.466   0.287 -0.2020 -1.6183  2.3962
 3657SOL    HW222608   1.903   2.587   0.285  0.0452 -1.3908 -0.3543
 3658SOL     OW22609   2.110   2.017  13.166  0.6295  0.3318  0.1670
 3658SOL    HW122610   2.184   2.015  13.228  0.6213 -2.3898  0.0905
 3658SOL    HW222611   2.032   2.013  13.221 -0.2927  3.2180 -0.8877
 3659SOL     OW22612   1.322   4.387   3.882  0.0758  0.3543 -0.0488
 3659SOL    HW122613   1.238   4.341   3.882  0.2319  0.1150  2.3200
 3659SOL    HW222614   1.364   4.350   3.959  0.2138  2.4001  0.8443
 3660SOL     OW22615   2.401   4.598  11.421  0.6297 -0.0726 -0.6850
 3660SOL    HW122616   2.408   4.693  11.429  2.2055 -0.2226 -0.1747
 3660SOL    HW222617   2.320   4.601  11.370  1.6059 -0.0395 -2.2386
 3661SOL     OW22618   1.984   4.141   8.266  0.7313 -0.0364 -0.0079
 3661SOL    HW122619   1.917   4.106   8.325  0.2270 -2.5317 -2.0716
 3661SOL    HW222620   1.951   4.115   8.180  0.0091 -0.0525  0.2785
 3662SOL     OW22621   2.421   1.515   9.274 -0.1701  0.2558 -0.4258
 3662SOL    HW122622   2.366   1.521   9.352 -0.2736  1.5203 -0.5924
 3662SOL    HW222623   2.474   1.439   9.297 -0.4244 -0.5254 -2.4200
 3663SOL     OW22624   3.963   0.969   3.730  0.1581  0.8411 -0.5328
 3663SOL    HW122625   3.900   0.943   3.797 -1.0446 -0.1028 -2.0208
 3663SOL    HW222626   4.040   0.913   3.739 -1.0550 -0.8162 -0.4377
 3664SOL     OW22627   1.355   3.804   1.735  0.4454  0.6811  0.0665
 3664SOL    HW122628   1.335   3.806   1.828  2.8993  2.3742  0.5537
 3664SOL    HW222629   1.388   3.893   1.721  0.5090  0.6218 -0.1537
 3665SOL     OW22630   2.678   4.401   7.994 -0.0846  0.0185  0.0416
 3665SOL    HW122631   2.731   4.388   7.915 -2.5846 -1.1325 -1.4763
 3665SOL    HW222632   2.614   4.333   7.973  0.6163 -0.2602 -1.2087
 3666SOL     OW22633   0.985   0.544   2.997 -0.4291  0.0970  0.3611
 3666SOL    HW122634   0.955   0.559   3.086 -1.0521 -0.2100  0.2002
 3666SOL    HW222635   0.925   0.473   2.976 -0.1336 -0.0270 -0.0766
 3667SOL     OW22636   0.054   2.416   0.353 -0.1159  0.1997 -0.2142
 3667SOL    HW122637   0.066   2.336   0.404  1.4356  0.9834  0.6495
 3667SOL    HW222638   0.146   2.429   0.327  0.1880  0.2138  0.8700
 3668SOL     OW22639   4.387   4.223   3.117 -0.4247 -0.2210  0.3954
 3668SOL    HW122640   4.296   4.251   3.109  0.1152  1.8943  1.5995
 3668SOL    HW222641   4.427   4.287   3.176  1.4278 -2.0042  1.1011
 3669SOL     OW22642   2.982   0.360   6.788 -0.0867  0.2583  0.0679
 3669SOL    HW122643   3.071   0.337   6.761 -0.3504  0.3442 -0.9090
 3669SOL    HW222644   2.934   0.328   6.712 -0.3645 -1.3151  0.9130
 3670SOL     OW22645   2.315   2.424   3.169  0.5577  0.5293 -0.2225
 3670SOL    HW122646   2.325   2.330   3.181  0.9775  0.4245 -1.4850
 3670SOL    HW222647   2.394   2.472   3.193 -0.2413  0.7401  2.0007
 3671SOL     OW22648   2.334   4.602   5.493 -0.0827  0.6223  0.7304
 3671SOL    HW122649   2.350   4.518   5.536  0.1599  0.8170  1.0194
 3671SOL    HW222650   2.426   4.625   5.475  0.5456 -1.7342  0.9967
 3672SOL     OW22651   2.254   3.305   3.648  0.6704  0.1000 -0.5843
 3672SOL    HW122652   2.177   3.297   3.705  0.2648  1.4873 -0.9183
 3672SOL    HW222653   2.318   3.280   3.715  0.5639  0.9056 -0.1754
 3673SOL     OW22654   2.330   1.240   1.536 -0.0802 -0.5152  0.4229
 3673SOL    HW122655   2.388   1.216   1.608 -1.7219 -1.0508  1.5577
 3673SOL    HW222656   2.253   1.183   1.540 -0.4585 -0.1631 -1.4707
 3674SOL     OW22657   3.260   2.968  10.660 -0.2975 -0.6363 -0.5825
 3674SOL    HW122658   3.282   2.987  10.569 -2.0044  1.2378 -0.5925
 3674SOL    HW222659   3.349   2.953  10.691 -0.6237  0.4215  0.8888
 3675SOL     OW22660   1.518   2.628   3.638 -0.6163  0.1036 -0.2818
 3675SOL    HW122661   1.561   2.712   3.621  0.8245 -0.6981 -0.5784
 3675SOL    HW222662   1.593   2.572   3.653  0.5512  1.8101  0.1781
 3676SOL     OW22663   3.943   0.852   7.843 -0.1178 -0.1745  0.1894
 3676SOL    HW122664   3.971   0.905   7.918  1.6631 -1.9239  0.7635
 3676SOL    HW222665   3.851   0.865   7.865  0.3347 -0.4989  2.3073
 3677SOL     OW22666   4.045   1.656   9.129 -0.1147 -0.3164 -0.3243
 3677SOL    HW122667   4.132   1.658   9.168  0.2647  0.2282 -1.2092
 3677SOL    HW222668   4.053   1.721   9.059  1.6463 -0.0673  0.1187
 3678SOL     OW22669   1.228   3.499  16.669 -0.2524 -0.2325  0.1586
 3678SOL    HW122670   1.186   3.492  16.583  1.3284 -0.0812 -0.6301
 3678SOL    HW222671   1.305   3.443  16.659 -0.0612  0.4440 -2.1605
 3679SOL     OW22672   1.982   0.661  15.529 -0.0392  0.0008 -0.3814
 3679SOL    HW122673   2.033   0.742  15.525 -1.6333  1.2785  4.8611
 3679SOL    HW222674   1.998   0.626  15.617  0.6850 -1.7652 -1.2204
 3680SOL     OW22675   1.280   1.188   1.128 -0.0990 -0.2754  0.6173
 3680SOL    HW122676   1.242   1.271   1.159  0.7715 -0.4779  2.2238
 3680SOL    HW222677   1.243   1.135   1.199 -0.8899  2.6993  2.4253
 3681SOL     OW22678   4.461   0.286   9.454 -0.0815 -0.0672 -0.1537
 3681SOL    HW122679   4.468   0.315   9.364 -0.8958  1.2688  0.2121
 3681SOL    HW222680   4.384   0.339   9.474  0.6862  2.3421 -3.5284
 3682SOL     OW22681   1.182   4.017   8.315 -0.2592  0.3924 -0.4819
 3682SOL    HW122682   1.249   4.071   8.273 -0.4518  0.4089 -0.7739
 3682SOL    HW222683   1.199   4.037   8.407  0.2742 -0.2111 -0.4460
 3683SOL     OW22684   0.714   0.169  11.168  0.1204  0.5436 -0.4111
 3683SOL    HW122685   0.660   0.105  11.214  1.4284  0.1033  0.4857
 3683SOL    HW222686   0.713   0.133  11.079 -2.1667 -0.1638 -0.1080
 3684SOL     OW22687   3.836   2.673   2.401 -0.1100  0.2045  0.0748
 3684SOL    HW122688   3.904   2.724   2.445  1.6477 -0.3294 -2.0158
 3684SOL    HW222689   3.820   2.598   2.458  1.7542 -0.2826 -0.0193
 3685SOL     OW22690   4.353   0.029  10.266  0.3351  0.8734 -0.2094
 3685SOL    HW122691   4.358   0.070  10.179  0.8693 -0.4875 -0.8241
 3685SOL    HW222692   4.319   0.105  10.313  1.1802  1.6721 -0.8650
 3686SOL     OW22693   2.145   0.296   3.203 -0.2017  0.2719  0.0781
 3686SOL    HW122694   2.236   0.320   3.186 -0.7817  1.5068 -1.2498
 3686SOL    HW222695   2.126   0.244   3.124 -0.3582 -0.2156  0.4329
 3687SOL     OW22696   3.868   2.180   3.497 -0.1822 -0.2398  0.0401
 3687SOL    HW122697   3.880   2.098   3.544  1.3756  1.4094  2.5269
 3687SOL    HW222698   3.950   2.216   3.533  0.3022 -2.1799  0.8618
 3688SOL     OW22699   3.157   2.760   2.230 -0.1268  0.5944 -0.0769
 3688SOL    HW122700   3.226   2.695   2.245 -0.1882  0.5844  0.1606
 3688SOL    HW222701   3.120   2.726   2.148  1.5057  0.0452 -0.5881
 3689SOL     OW22702   0.083   4.623   0.142 -0.1720  0.4902  0.4674
 3689SOL    HW122703   0.033   4.673   0.076 -0.7572 -1.4735 -0.5917
 3689SOL    HW222704   0.006   4.579   0.179 -1.0628  0.2852 -1.6079
 3690SOL     OW22705   0.367   1.253  13.115 -0.4599 -0.5004  0.7144
 3690SOL    HW122706   0.325   1.314  13.053 -0.9821  0.7592  2.2972
 3690SOL    HW222707   0.419   1.203  13.052  0.5547  2.5721 -0.8975
 3691SOL     OW22708   2.188   4.089  14.837  0.1083  0.0183 -0.0244
 3691SOL    HW122709   2.228   4.049  14.760 -0.0095 -0.0688 -0.0400
 3691SOL    HW222710   2.238   4.042  14.904 -0.6302 -1.0621 -0.2257
 3692SOL     OW22711   2.972   0.727   0.482  0.8330  0.8058 -0.4290
 3692SOL    HW122712   3.040   0.775   0.529  0.6643  0.2340  0.3902
 3692SOL    HW222713   2.957   0.778   0.402 -0.0399  0.7170 -0.3244
 3693SOL     OW22714   3.608   1.560   7.122 -0.0581  0.5085  0.3146
 3693SOL    HW122715   3.526   1.524   7.156  0.4651  0.2692  1.3372
 3693SOL    HW222716   3.645   1.591   7.205  1.0499 -0.3345  0.1345
 3694SOL     OW22717   0.600   3.315  11.539  0.2899  0.2301 -0.6338
 3694SOL    HW122718   0.509   3.330  11.564 -0.1232 -0.0428 -1.9953
 3694SOL    HW222719   0.575   3.234  11.495  0.2552 -0.3765  0.5016
 3695SOL     OW22720   4.343   1.244  12.690  0.3182 -0.4384 -0.2793
 3695SOL    HW122721   4.376   1.334  12.691  0.0445 -0.3393 -0.0627
 3695SOL    HW222722   4.334   1.221  12.783  1.4422  2.8300  0.6172
 3696SOL     OW22723   3.763   2.627   9.310  0.8379  0.5703 -0.6766
 3696SOL    HW122724   3.851   2.594   9.292  0.7360 -0.7654  1.2448
 3696SOL    HW222725   3.784   2.716   9.282  3.4639  0.0352 -0.3982
 3697SOL     OW22726   3.439   3.407   5.937  0.2331  0.1610 -0.0221
 3697SOL    HW122727   3.413   3.398   6.028 -2.3913 -2.3491 -1.0215
 3697SOL    HW222728   3.521   3.457   5.944  2.6847 -3.6558 -1.5696
 3698SOL     OW22729   4.581   3.722   6.414 -0.3490 -0.3095 -0.1291
 3698SOL    HW122730   4.623   3.807   6.419 -2.0691  0.6166 -1.2865
 3698SOL    HW222731   4.532   3.737   6.333  0.7835  1.8144 -0.4176
 3699SOL     OW22732   0.141   1.972   3.238 -0.2579  0.2907 -0.2183
 3699SOL    HW122733   0.054   1.944   3.266 -0.0516 -0.3381 -0.2133
 3699SOL    HW222734   0.144   1.969   3.143  2.3241  0.6840 -0.1615
 3700SOL     OW22735   3.434   1.447   1.673  0.2488 -0.0230  0.2809
 3700SOL    HW122736   3.400   1.431   1.585 -0.1722  1.9880  0.0776
 3700SOL    HW222737   3.442   1.542   1.665  0.1331 -0.1970 -2.0011
 3701SOL     OW22738   3.322   3.324  10.601 -0.2669 -0.0889 -0.1359
 3701SOL    HW122739   3.376   3.400  10.579 -0.8823 -0.1761 -2.0095
 3701SOL    HW222740   3.240   3.369  10.622 -1.2939 -2.2423  0.4956
 3702SOL     OW22741   3.143   1.356  12.361  0.1665 -0.9858  0.2659
 3702SOL    HW122742   3.187   1.271  12.372 -0.6021 -1.7857 -2.9548
 3702SOL    HW222743   3.182   1.416  12.424 -0.4671  0.0948 -0.3728
 3703SOL     OW22744   0.456   1.236  12.674 -0.3108  0.4784 -0.2298
 3703SOL    HW122745   0.384   1.195  12.722  0.3662 -0.7674 -0.2823
 3703SOL    HW222746   0.494   1.154  12.643 -2.7274 -0.7041 -0.0647
 3704SOL     OW22747   3.886   2.785  10.111 -0.3868  0.2175  0.2789
 3704SOL    HW122748   3.792   2.803  10.109 -0.3011  0.9750  3.3613
 3704SOL    HW222749   3.907   2.783  10.017  0.7008  0.5546  0.5162
 3705SOL     OW22750   1.830   3.931   6.525 -0.3858 -0.8654  0.2486
 3705SOL    HW122751   1.794   3.858   6.577 -1.2068 -0.1094  0.7428
 3705SOL    HW222752   1.754   3.981   6.495  1.3459  1.8783  0.5023
 3706SOL     OW22753   2.930   0.288   5.165  0.4261  0.1217  0.1899
 3706SOL    HW122754   2.974   0.281   5.250 -0.6748 -0.3902  0.7129
 3706SOL    HW222755   2.855   0.343   5.187 -0.4929 -0.9427 -0.3326
 3707SOL     OW22756   3.568   4.674   9.816  0.2875  0.4369 -0.1873
 3707SOL    HW122757   3.614   4.624   9.748 -0.7938 -0.8043  0.0003
 3707SOL    HW222758   3.604   0.024   9.797  1.6890 -0.1171 -0.1000
 3708SOL     OW22759   0.700   2.162   8.803 -0.6865  0.5816  0.0833
 3708SOL    HW122760   0.635   2.158   8.874  0.0087  0.2441  0.7094
 3708SOL    HW222761   0.778   2.142   8.855  0.6290  0.9221 -1.7979
 3709SOL     OW22762   1.286   1.908   5.729 -0.1653 -0.0601 -0.2611
 3709SOL    HW122763   1.315   1.969   5.796 -0.7593 -1.4743  1.3006
 3709SOL    HW222764   1.295   1.967   5.654  1.6134 -1.1262 -0.8903
 3710SOL     OW22765   1.801   3.068   2.026  0.2008  0.4087  0.1567
 3710SOL    HW122766   1.720   3.069   2.077  1.5766  0.8265  2.3347
 3710SOL    HW222767   1.830   3.157   2.044  2.2438 -0.3684  0.7267
 3711SOL     OW22768   4.020   4.454   7.144  0.6360 -0.0774  0.6244
 3711SOL    HW122769   4.059   4.373   7.177  1.7985 -0.6021 -2.0315
 3711SOL    HW222770   3.928   4.432   7.133  1.1886 -1.2057 -1.8753
 3712SOL     OW22771   1.440   4.077  17.072  0.2254 -0.1579  0.0567
 3712SOL    HW122772   1.371   4.131  17.035 -1.8819 -2.1861  1.0466
 3712SOL    HW222773   1.400   3.993  17.049 -1.0122 -0.0167  1.6750
 3713SOL     OW22774   3.016   2.209   6.948  0.7278  0.1163  0.1123
 3713SOL    HW122775   3.056   2.210   6.861 -0.1956 -0.5939 -0.3141
 3713SOL    HW222776   2.930   2.240   6.919  0.3886  0.0536  1.0649
 3714SOL     OW22777   3.581   2.200   2.430 -0.5262  0.0140 -0.2122
 3714SOL    HW122778   3.616   2.111   2.434 -0.8109 -0.0479  0.7566
 3714SOL    HW222779   3.562   2.209   2.337  0.8664  1.7878 -0.3327
 3715SOL     OW22780   1.989   1.450   2.687 -0.0630  0.4742  0.3313
 3715SOL    HW122781   1.903   1.475   2.721 -0.7866 -0.0547 -1.1243
 3715SOL    HW222782   2.044   1.513   2.734  1.0837  0.0233 -0.4228
 3716SOL     OW22783   2.217   1.608  14.657  0.1780 -0.6017  0.6880
 3716SOL    HW122784   2.282   1.658  14.707  1.5023 -1.5781 -0.0246
 3716SOL    HW222785   2.137   1.655  14.635  0.3607 -1.1769 -1.2816
 3717SOL     OW22786   0.531   3.816   2.340  0.6043  0.1584  0.2075
 3717SOL    HW122787   0.453   3.853   2.382  1.8063  2.9351 -0.0239
 3717SOL    HW222788   0.559   3.897   2.297 -0.8285 -0.2169 -1.4425
 3718SOL     OW22789   0.244   4.521  16.967  0.0776 -0.4613  0.3873
 3718SOL    HW122790   0.167   4.574  16.951 -0.4979 -0.0135  4.5769
 3718SOL    HW222791   0.196   4.453  17.014  1.6318 -0.7358  1.5886
 3719SOL     OW22792   2.572   0.462   7.650  0.0947 -0.3484 -0.2057
 3719SOL    HW122793   2.661   0.497   7.656 -0.2909  0.1904  2.2258
 3719SOL    HW222794   2.566   0.448   7.556  1.8110  1.1387 -0.5358
 3720SOL     OW22795   2.164   3.928  15.692  0.2116  0.0361  0.3514
 3720SOL    HW122796   2.113   3.993  15.741 -0.7057 -0.3490 -0.0911
 3720SOL    HW222797   2.184   3.971  15.609 -0.4264 -0.8954 -0.2860
 3721SOL     OW22798   1.557   4.604   3.499  0.2653  0.2346 -0.1987
 3721SOL    HW122799   1.590   4.530   3.549  0.1882 -0.7600 -1.6166
 3721SOL    HW222800   1.614   4.606   3.422  1.2775 -0.0152  0.5454
 3722SOL     OW22801   1.432   4.044  16.379 -0.2802 -0.0109 -0.2291
 3722SOL    HW122802   1.379   3.997  16.315 -1.1143 -0.7245  0.9767
 3722SOL    HW222803   1.399   4.016  16.465 -0.1589  1.2659  0.2324
 3723SOL     OW22804   2.064   1.084   9.923  0.1395 -0.6367 -0.0312
 3723SOL    HW122805   2.091   1.057  10.011 -0.3817  0.4254  0.4646
 3723SOL    HW222806   1.969   1.075   9.929  0.0209 -1.1871 -2.9208
 3724SOL     OW22807   0.912   4.048   8.207 -0.0984 -0.3177  0.2661
 3724SOL    HW122808   1.000   4.028   8.241 -0.4886 -0.0773  1.4014
 3724SOL    HW222809   0.869   4.078   8.287 -0.0866  1.3713 -0.3749
 3725SOL     OW22810   4.458   3.846  11.782 -0.6916  0.0970  0.4467
 3725SOL    HW122811   4.389   3.897  11.739  1.3269  2.7822  0.4515
 3725SOL    HW222812   4.412   3.766  11.809 -1.6863  1.0697  1.6214
 3726SOL     OW22813   1.552   3.497   2.083  0.2204  0.8442  0.3861
 3726SOL    HW122814   1.577   3.428   2.145  0.8341 -0.2370 -1.0858
 3726SOL    HW222815   1.501   3.551   2.144 -1.1983 -1.2793  1.0648
 3727SOL     OW22816   2.712   1.009  15.163  0.1426  0.4133 -0.2003
 3727SOL    HW122817   2.684   0.941  15.102 -1.6009  2.1227 -1.2927
 3727SOL    HW222818   2.730   1.074  15.095  2.3132  0.5471  0.5113
 3728SOL     OW22819   3.754   4.517   0.102 -0.0483  0.4788  0.6718
 3728SOL    HW122820   3.692   4.563   0.046 -1.2749 -0.5909  1.1453
 3728SOL    HW222821   3.840   4.538   0.067 -0.8044  0.5745 -1.1194
 3729SOL     OW22822   3.057   4.301   4.892 -0.6366 -0.4485  0.1305
 3729SOL    HW122823   2.997   4.368   4.923  0.7294  0.3154  1.1211
 3729SOL    HW222824   3.068   4.326   4.800  0.2444 -0.5302  0.2138
 3730SOL     OW22825   0.268   0.459   2.996  0.2426  0.7224 -0.1041
 3730SOL    HW122826   0.354   0.430   3.028 -1.0607 -1.7178  1.2278
 3730SOL    HW222827   0.203   0.414   3.050 -0.0565 -0.5708 -1.5200
 3731SOL     OW22828   3.433   0.379  13.027  0.0047  0.1533  0.0336
 3731SOL    HW122829   3.523   0.357  13.000  0.1217 -1.2590  1.5585
 3731SOL    HW222830   3.442   0.473  13.042 -0.6685  0.3628 -0.9025
 3732SOL     OW22831   1.009   2.260   1.956  0.3014 -0.5184 -0.5319
 3732SOL    HW122832   0.980   2.241   1.866 -0.1205 -2.3353 -0.0042
 3732SOL    HW222833   1.025   2.355   1.954  0.1222 -0.4244  3.0731
 3733SOL     OW22834   4.460   0.454   5.636  0.2351  0.2881  0.4215
 3733SOL    HW122835   4.405   0.484   5.708  1.7302  2.0159  0.8425
 3733SOL    HW222836   4.523   0.395   5.679  1.0539 -1.5673 -3.2677
 3734SOL     OW22837   2.128   1.629   1.166 -0.5869  0.2785  0.0871
 3734SOL    HW122838   2.071   1.562   1.129 -1.9629  0.9739  0.9614
 3734SOL    HW222839   2.206   1.574   1.156 -1.2189 -0.8052  1.1720
 3735SOL     OW22840   1.608   2.548  16.249  0.1119 -0.2943  0.0259
 3735SOL    HW122841   1.548   2.621  16.267 -0.1908 -0.4613 -0.3021
 3735SOL    HW222842   1.558   2.477  16.208  1.6488 -2.3472  1.6866
 3736SOL     OW22843   0.864   3.393   8.422  0.2505  0.3826 -0.4192
 3736SOL    HW122844   0.887   3.485   8.433  1.1250  0.0248  0.8834
 3736SOL    HW222845   0.775   3.390   8.458  0.0564  2.7829 -0.7377
 3737SOL     OW22846   2.883   3.244   6.281 -0.5150 -0.0304  0.0484
 3737SOL    HW122847   2.961   3.282   6.240 -1.8839  2.5449 -0.1452
 3737SOL    HW222848   2.824   3.259   6.207  0.4997  0.2384 -0.7136
 3738SOL     OW22849   0.288   4.282   7.209  0.4759  0.7798 -0.3321
 3738SOL    HW122850   0.290   4.378   7.203 -1.6009  0.7494 -1.8497
 3738SOL    HW222851   0.200   4.264   7.242  0.2088 -1.1672 -2.0967
 3739SOL     OW22852   0.221   3.855   0.331 -0.3483 -0.4696  0.6336
 3739SOL    HW122853   0.299   3.834   0.279 -0.7875 -0.3275 -0.0871
 3739SOL    HW222854   0.240   3.808   0.412 -0.9355  0.5255  1.3560
 3740SOL     OW22855   3.959   0.808   4.173  0.2174 -0.1483 -0.1626
 3740SOL    HW122856   3.972   0.745   4.103 -1.4931 -1.2784  0.5506
 3740SOL    HW222857   4.033   0.791   4.232 -1.1866  2.3115  2.2979
 3741SOL     OW22858   3.061   1.198  16.328  0.6031 -0.7289  0.3594
 3741SOL    HW122859   3.018   1.262  16.385 -1.6784 -2.6622  0.7720
 3741SOL    HW222860   3.076   1.254  16.252 -0.5377 -0.0808  0.6113
 3742SOL     OW22861   2.167   0.707  10.029 -0.2518 -0.4618  0.7592
 3742SOL    HW122862   2.206   0.767   9.966 -1.1050  1.5644  2.1462
 3742SOL    HW222863   2.178   0.617   9.998 -2.6162 -0.0562 -1.2452
 3743SOL     OW22864   4.342   0.594   2.175 -0.2700  0.2419  0.5123
 3743SOL    HW122865   4.435   0.589   2.197 -0.2702 -0.5024  0.3474
 3743SOL    HW222866   4.305   0.523   2.227  0.5463 -1.0700 -0.7028
 3744SOL     OW22867   4.571   0.801   2.152 -0.3775 -0.3938  0.3058
 3744SOL    HW122868   4.582   0.717   2.196 -1.4667 -1.2148 -1.0157
 3744SOL    HW222869   4.515   0.845   2.217  0.0617  0.0275  0.4081
 3745SOL     OW22870   0.532   2.294   6.864  0.2624 -0.4041  0.2207
 3745SOL    HW122871   0.449   2.274   6.908  0.9588 -0.3916  1.5342
 3745SOL    HW222872   0.570   2.344   6.936  0.3410 -2.5514  1.6632
 3746SOL     OW22873   1.592   3.144   8.737  0.1194 -0.1626  0.5207
 3746SOL    HW122874   1.528   3.136   8.807 -1.4455  1.6173 -0.7035
 3746SOL    HW222875   1.670   3.158   8.790 -0.3414  1.6129  0.7364
 3747SOL     OW22876   2.845   2.712  16.080  0.1617 -0.0313  0.2752
 3747SOL    HW122877   2.915   2.658  16.118 -2.3355 -2.9721  0.6729
 3747SOL    HW222878   2.818   2.764  16.155 -0.6872 -1.1234  0.7228
 3748SOL     OW22879   3.670   2.457   2.211 -0.3521  0.2168  0.5918
 3748SOL    HW122880   3.674   2.542   2.166 -0.4216  1.5764  3.1382
 3748SOL    HW222881   3.760   2.428   2.205 -0.7110 -0.5693 -1.0285
 3749SOL     OW22882   4.524   0.530  10.219  0.0984  0.1077  0.6485
 3749SOL    HW122883   4.544   0.446  10.179 -0.9432 -0.0605  0.4666
 3749SOL    HW222884   4.604   0.578  10.240  0.4621  0.5458 -1.7298
 3750SOL     OW22885   3.868   4.286   5.140  0.4646  0.5731  0.0034
 3750SOL    HW122886   3.955   4.246   5.146 -0.6830 -2.1482 -1.2823
 3750SOL    HW222887   3.866   4.305   5.046 -0.4052  0.9424  0.0971
 3751SOL     OW22888   1.923   0.476   6.932  0.6719  0.2552 -0.4025
 3751SOL    HW122889   1.892   0.396   6.890 -0.1460  0.1989  0.2879
 3751SOL    HW222890   1.861   0.481   7.005  0.3306 -1.7555 -0.5429
 3752SOL     OW22891   4.398   4.546   2.864 -0.4039  0.1375  0.6278
 3752SOL    HW122892   4.463   4.559   2.933 -0.6710  1.4390  0.6263
 3752SOL    HW222893   4.366   4.636   2.872 -0.2396  0.2077  0.4971
 3753SOL     OW22894   3.782   1.581   7.336 -0.0226  0.0050  0.3551
 3753SOL    HW122895   3.749   1.626   7.414 -0.5199  0.4507 -0.1132
 3753SOL    HW222896   3.854   1.530   7.374 -0.4288 -0.0303  1.0687
 3754SOL     OW22897   3.034   2.877  16.852  0.2430 -0.2090  0.5571
 3754SOL    HW122898   3.038   2.847  16.943  0.5706  1.2920  1.0258
 3754SOL    HW222899   2.974   2.812  16.817 -0.2699 -0.3742  1.7370
 3755SOL     OW22900   4.361   0.738  13.408  0.1316 -0.8068 -0.1258
 3755SOL    HW122901   4.419   0.791  13.462 -2.0348 -1.1202  2.4619
 3755SOL    HW222902   4.356   0.787  13.326 -0.6137 -0.5210  0.0931
 3756SOL     OW22903   0.072   4.496   4.320  0.5116  0.1158 -0.2780
 3756SOL    HW122904   0.096   4.517   4.410  2.1185  1.2564 -0.9805
 3756SOL    HW222905   4.722   4.462   4.342  1.8958 -1.7343  2.2771
 3757SOL     OW22906   4.404   1.610   1.833 -0.0787  0.5140  0.6828
 3757SOL    HW122907   4.448   1.693   1.817  1.7250 -0.8073 -1.1483
 3757SOL    HW222908   4.418   1.581   1.743  3.2389  2.0415  0.7098
 3758SOL     OW22909   4.100   1.202  17.518  0.1027 -0.3340  0.3646
 3758SOL    HW122910   4.055   1.219  17.436  1.1284 -0.3884 -0.2054
 3758SOL    HW222911   4.098   1.287  17.562 -1.3821  0.2258 -0.7792
 3759SOL     OW22912   2.651   0.609  11.816 -0.2276  0.3203  0.3886
 3759SOL    HW122913   2.734   0.652  11.838 -1.6972  4.0183 -1.2883
 3759SOL    HW222914   2.679   0.524  11.782 -0.8717  0.1794  0.2159
 3760SOL     OW22915   3.535   0.180   3.834  0.0017  0.0438  0.2843
 3760SOL    HW122916   3.598   0.245   3.804 -0.7769  1.5166  1.8476
 3760SOL    HW222917   3.477   0.226   3.894 -2.2537 -0.8502 -1.1916
 3761SOL     OW22918   2.995   3.490   8.995  0.1903 -0.5062  0.9749
 3761SOL    HW122919   2.971   3.567   9.047  2.3151  0.3437  0.6912
 3761SOL    HW222920   2.905   3.469   8.969 -0.6917  4.2872  0.0784
 3762SOL     OW22921   4.402   3.961   3.500  0.5851 -0.2319  0.3763
 3762SOL    HW122922   4.409   4.045   3.547 -1.4715 -0.2100  0.6351
 3762SOL    HW222923   4.407   3.981   3.407  0.3932 -0.4715  0.3177
 3763SOL     OW22924   3.715   0.749  17.510 -0.1427 -0.4347  0.2480
 3763SOL    HW122925   3.775   0.700  17.567  2.8023  2.0918 -0.6719
 3763SOL    HW222926   3.777   0.782  17.445 -2.2897  5.0184  1.0242
 3764SOL     OW22927   2.159   2.340  16.030  0.8056 -0.8534 -0.6411
 3764SOL    HW122928   2.106   2.290  15.968  1.0021 -0.1836 -1.3474
 3764SOL    HW222929   2.243   2.340  15.984  1.0708  1.3480 -0.1697
 3765SOL     OW22930   0.878   1.506   8.685 -0.1270  0.8854 -0.1647
 3765SOL    HW122931   0.867   1.558   8.605  1.7014  1.9599  0.2813
 3765SOL    HW222932   0.914   1.425   8.650 -3.7081 -0.5864 -0.3888
 3766SOL     OW22933   0.332   3.189   4.173  0.5395 -0.0335 -0.5081
 3766SOL    HW122934   0.294   3.277   4.172  2.9024  0.9886  0.3996
 3766SOL    HW222935   0.379   3.182   4.255 -0.8627  1.7742  0.4346
 3767SOL     OW22936   1.079   3.760   8.206  0.0606 -0.3380 -0.2863
 3767SOL    HW122937   1.168   3.772   8.237  1.4991 -3.0028 -3.2715
 3767SOL    HW222938   1.066   3.844   8.162 -0.9499 -1.1859 -1.6391
 3768SOL     OW22939   2.704   0.202   6.730  0.2161 -0.3388 -0.1050
 3768SOL    HW122940   2.785   0.157   6.756 -0.1940  0.2826  2.2032
 3768SOL    HW222941   2.670   0.224   6.816  0.2973  0.9495 -0.4056
 3769SOL     OW22942   4.447   1.823   2.270  0.1665  0.5799 -0.1793
 3769SOL    HW122943   4.355   1.824   2.297  0.2473  0.5220  0.0999
 3769SOL    HW222944   4.480   1.857   2.353  2.8402  0.6432 -1.2572
 3770SOL     OW22945   0.913   2.512   0.959 -0.1216 -0.1947  0.1219
 3770SOL    HW122946   0.823   2.535   0.981 -0.0312  0.4582 -0.1799
 3770SOL    HW222947   0.963   2.521   1.040  1.1836 -0.1925 -0.6822
 3771SOL     OW22948   0.595   2.012   2.510 -0.2267 -0.5093 -0.2203
 3771SOL    HW122949   0.614   2.080   2.445 -0.9983  1.0041  1.1261
 3771SOL    HW222950   0.512   2.033   2.553  0.7690  2.4797  0.2448
 3772SOL     OW22951   3.729   4.277   7.625 -0.7925 -0.0010 -0.3476
 3772SOL    HW122952   3.742   4.183   7.637  0.2735  0.2088  0.1798
 3772SOL    HW222953   3.817   4.301   7.594  0.5834 -0.4875  3.1493
 3773SOL     OW22954   3.908   4.673  10.700  0.3982  0.2367 -0.3749
 3773SOL    HW122955   4.002   4.659  10.688  0.1725 -2.6574  1.3400
 3773SOL    HW222956   3.873   0.008  10.648  1.1447 -0.8207 -2.3436
 3774SOL     OW22957   3.087   2.553   6.659  0.0198  0.0109  0.5074
 3774SOL    HW122958   3.085   2.645   6.685 -0.5100  0.7179 -2.0534
 3774SOL    HW222959   3.097   2.510   6.744 -0.2847 -1.4649 -0.2025
 3775SOL     OW22960   1.379   2.507   4.723  0.6578  0.2491 -0.0438
 3775SOL    HW122961   1.408   2.482   4.635 -3.2477 -2.4985 -0.5915
 3775SOL    HW222962   1.283   2.512   4.723  0.7796  2.2243 -0.4907
 3776SOL     OW22963   1.376   3.075   0.224 -0.4542  0.1967 -0.4817
 3776SOL    HW122964   1.364   3.062   0.318  1.3698  1.1486 -0.1182
 3776SOL    HW222965   1.465   3.108   0.227  0.3252 -1.9374 -0.1397
 3777SOL     OW22966   4.638   1.727   7.845 -0.6235  0.0357  0.1973
 3777SOL    HW122967   4.562   1.684   7.806 -0.3908 -1.1960  1.1067
 3777SOL    HW222968   4.669   1.788   7.778  1.0296  1.2170  2.0256
 3778SOL     OW22969   1.234   4.045   0.175 -0.2804 -0.5221 -0.7165
 3778SOL    HW122970   1.166   4.091   0.125 -0.4688  2.1355  1.9707
 3778SOL    HW222971   1.228   4.097   0.255  2.1076 -0.2878 -0.6841
 3779SOL     OW22972   2.301   4.656   7.524  0.0728  0.7926 -0.7989
 3779SOL    HW122973   2.372   4.721   7.521  0.1921  0.4785 -4.7873
 3779SOL    HW222974   2.310   4.649   7.619 -0.3616  0.4629 -0.7846
 3780SOL     OW22975   4.387   0.119   8.267 -0.6165  0.1648 -0.0216
 3780SOL    HW122976   4.394   0.029   8.298 -1.9589 -0.0632 -0.3611
 3780SOL    HW222977   4.432   0.164   8.338 -1.0805 -0.1194  0.4539
 3781SOL     OW22978   2.076   1.379   7.762  0.2125  0.3517 -0.2861
 3781SOL    HW122979   2.105   1.446   7.824 -0.0066  0.8824 -0.7530
 3781SOL    HW222980   2.122   1.304   7.800  1.3683  0.2387 -1.8961
 3782SOL     OW22981   0.342   4.723   6.661  0.4170  0.3515  0.2767
 3782SOL    HW122982   0.368   0.019   6.575  1.7211  0.8053  0.8456
 3782SOL    HW222983   0.418   0.009   6.715 -0.3384 -2.6850  2.6138
 3783SOL     OW22984   4.641   4.305   8.745  0.4454 -0.4440 -0.5268
 3783SOL    HW122985   4.635   4.383   8.800  0.8534 -0.3184 -0.6606
 3783SOL    HW222986   4.569   4.254   8.781 -2.4599  2.8577 -1.6149
 3784SOL     OW22987   0.769   3.173   6.625 -0.6317 -0.3031  0.3773
 3784SOL    HW122988   0.674   3.167   6.615 -0.6604  0.5986  0.0806
 3784SOL    HW222989   0.782   3.268   6.619  2.0497 -0.4117  4.6027
 3785SOL     OW22990   3.195   4.573   4.423  0.7537  0.5508  0.7712
 3785SOL    HW122991   3.189   4.612   4.335 -0.7835 -2.0769 -0.3126
 3785SOL    HW222992   3.232   4.650   4.466  2.9187  0.2457 -0.5427
 3786SOL     OW22993   0.334   0.060  10.617 -0.2001 -0.3508  0.2445
 3786SOL    HW122994   0.355   0.112  10.695 -1.2456 -1.7448  1.4768
 3786SOL    HW222995   0.258   0.012  10.651 -1.3490  0.1902 -1.5670
 3787SOL     OW22996   2.462   1.301   8.335 -0.4208  0.4320  0.4090
 3787SOL    HW122997   2.410   1.278   8.412  0.9738  0.2725  1.2970
 3787SOL    HW222998   2.503   1.221   8.302  2.4121  1.2406  2.0514
 3788SOL     OW22999   1.089   3.490   8.007  0.3470  0.5491  0.4179
 3788SOL    HW123000   1.174   3.455   8.035 -0.5182 -2.8134 -1.1633
 3788SOL    HW223001   1.074   3.566   8.063 -0.8974  0.7423 -0.1853
 3789SOL     OW23002   0.085   1.192   7.088  0.1312 -0.1783  0.2533
 3789SOL    HW123003   0.058   1.253   7.020  3.1475 -0.7262 -1.4486
 3789SOL    HW223004   0.011   1.132   7.097 -0.3704  0.2422 -1.2108
 3790SOL     OW23005   4.493   2.817   4.536  0.2878 -0.1103  0.6528
 3790SOL    HW123006   4.552   2.786   4.605  1.1927 -1.0017 -0.5292
 3790SOL    HW223007   4.474   2.737   4.488  0.3179 -0.2048  0.7967
 3791SOL     OW23008   3.544   4.005   2.831 -0.0361 -0.1266  0.7832
 3791SOL    HW123009   3.633   4.029   2.803 -0.2329  0.4398  0.6397
 3791SOL    HW223010   3.494   4.083   2.807  1.3122  0.8797  1.2577
 3792SOL     OW23011   4.552   2.094   7.259 -0.0163  0.0726 -0.0934
 3792SOL    HW123012   4.543   2.001   7.277 -0.3116  0.1899  0.3537
 3792SOL    HW223013   4.490   2.136   7.319 -1.3021  0.1582 -1.4615
 3793SOL     OW23014   2.150   4.620   5.309 -0.0209  0.3644  0.3261
 3793SOL    HW123015   2.080   4.669   5.352 -0.4365  2.0629 -2.2939
 3793SOL    HW223016   2.215   4.623   5.379  0.5043  0.3263 -0.1667
 3794SOL     OW23017   0.739   1.456  15.432 -0.3551 -0.2643 -0.2084
 3794SOL    HW123018   0.709   1.513  15.361 -1.4866  0.6233  1.0126
 3794SOL    HW223019   0.777   1.515  15.497 -2.2794 -2.0768  2.5521
 3795SOL     OW23020   3.108   0.435   1.029  0.3563  0.3986 -0.3084
 3795SOL    HW123021   3.047   0.377   0.984  1.9483 -1.1338 -0.4859
 3795SOL    HW223022   3.079   0.521   0.998 -0.4205 -0.9520 -3.3275
 3796SOL     OW23023   2.270   3.973   7.366 -0.6448 -0.1074  0.2141
 3796SOL    HW123024   2.313   4.030   7.429 -0.3636 -0.5172  0.3905
 3796SOL    HW223025   2.329   3.908   7.328  1.1652 -0.6049  3.8555
 3797SOL     OW23026   0.881   2.643  15.049  0.3975  0.6352 -0.0907
 3797SOL    HW123027   0.818   2.641  14.977 -0.7890 -2.0721  1.0523
 3797SOL    HW223028   0.962   2.634  14.998  0.0341  1.4091 -0.8054
 3798SOL     OW23029   2.823   2.424   1.574  0.0283 -0.0259  0.0540
 3798SOL    HW123030   2.739   2.395   1.610 -0.2475 -1.3803 -1.6872
 3798SOL    HW223031   2.885   2.354   1.592 -0.7783 -0.3471  1.5156
 3799SOL     OW23032   1.536   2.169   5.611  0.4103  0.1363 -0.1834
 3799SOL    HW123033   1.455   2.181   5.563  0.2141 -2.3510 -0.4626
 3799SOL    HW223034   1.577   2.092   5.572  1.6990 -0.2666  1.9753
 3800SOL     OW23035   1.917   0.999  17.290 -0.1453  0.1519 -0.0406
 3800SOL    HW123036   1.848   0.982  17.226 -0.6655 -1.0522  0.8416
 3800SOL    HW223037   1.920   0.913  17.331  0.4009  0.4901  0.6215
 3801SOL     OW23038   0.511   3.860   8.207 -0.2195  0.0727 -0.7356
 3801SOL    HW123039   0.556   3.798   8.264 -0.7889  0.5412  0.2209
 3801SOL    HW223040   0.501   3.934   8.267  0.5533 -0.9617  0.6720
 3802SOL     OW23041   4.657   2.370   8.890  0.3467  0.1317  0.0488
 3802SOL    HW123042   4.609   2.320   8.956  0.2800  1.0953  0.7342
 3802SOL    HW223043   4.607   2.450   8.874 -0.6769 -0.6698 -0.7340
 3803SOL     OW23044   0.865   3.044   7.398 -0.1859 -0.3102 -0.0737
 3803SOL    HW123045   0.945   3.073   7.442  0.4735 -0.6840 -1.0387
 3803SOL    HW223046   0.874   2.949   7.407  2.5411 -0.1512 -1.0449
 3804SOL     OW23047   3.903   1.329   4.007 -0.4000 -0.4637 -0.9774
 3804SOL    HW123048   3.975   1.281   3.966  1.4386  1.5114 -0.1140
 3804SOL    HW223049   3.852   1.257   4.043 -1.9835  1.0675 -0.1291
 3805SOL     OW23050   0.870   4.253   4.580  0.1628  0.2630  0.1135
 3805SOL    HW123051   0.842   4.303   4.503  1.9452  0.0776 -0.6410
 3805SOL    HW223052   0.814   4.177   4.566  0.1666  0.4071 -0.6991
 3806SOL     OW23053   3.527   0.930   7.117  0.1377  0.3039 -0.0474
 3806SOL    HW123054   3.481   1.010   7.142  2.2299  1.1666  1.1029
 3806SOL    HW223055   3.505   0.875   7.193  1.2565 -1.4727 -1.0137
 3807SOL     OW23056   1.512   4.264   5.295 -0.0223  0.0885 -0.2998
 3807SOL    HW123057   1.423   4.264   5.259  0.2904  4.3334 -1.0740
 3807SOL    HW223058   1.511   4.175   5.330 -0.5917  0.6238  1.0661
 3808SOL     OW23059   1.834   2.250   3.825 -0.5183 -0.0002  0.2886
 3808SOL    HW123060   1.889   2.229   3.750  0.5443  1.6554  0.6168
 3808SOL    HW223061   1.755   2.202   3.800  1.0525 -0.6552 -3.3093
 3809SOL     OW23062   2.225   1.035  12.624 -0.4202 -0.0976 -0.8091
 3809SOL    HW123063   2.294   1.101  12.636 -0.6375  0.1021 -0.6569
 3809SOL    HW223064   2.148   1.065  12.671 -1.1331 -0.5262 -1.7131
 3810SOL     OW23065   1.534   3.787   8.628 -0.1279  0.5316 -0.1115
 3810SOL    HW123066   1.569   3.705   8.662 -1.1835  0.3948  0.6169
 3810SOL    HW223067   1.504   3.844   8.698  1.1744  2.3700 -1.0287
 3811SOL     OW23068   4.470   4.535   1.729 -0.2828  0.1550  0.3505
 3811SOL    HW123069   4.459   4.448   1.690  0.8947  1.0165 -1.8877
 3811SOL    HW223070   4.556   4.560   1.696  0.2657 -0.9644  0.9235
 3812SOL     OW23071   0.750   1.727   5.813  0.0641  0.3025  0.1946
 3812SOL    HW123072   0.669   1.775   5.832 -0.2022 -0.1740  0.2786
 3812SOL    HW223073   0.813   1.797   5.830 -1.1710  0.5206  3.9503
 3813SOL     OW23074   1.519   3.726  16.090 -0.2985  0.2290 -0.5986
 3813SOL    HW123075   1.537   3.632  16.091 -1.8421 -0.0582  0.0873
 3813SOL    HW223076   1.496   3.728  15.997 -0.4295 -0.8752 -0.5872
 3814SOL     OW23077   1.971   0.565   2.700 -0.0875 -0.0618 -0.0977
 3814SOL    HW123078   1.971   0.641   2.642 -0.5581 -0.5708 -0.7720
 3814SOL    HW223079   2.061   0.534   2.689 -0.1939  0.0306 -1.1668
 3815SOL     OW23080   1.078   4.326   2.776 -0.2100 -0.2119 -0.0255
 3815SOL    HW123081   1.074   4.421   2.789  0.0483  0.1420 -2.5871
 3815SOL    HW223082   1.173   4.317   2.776 -0.2750 -0.8839  0.0326
 3816SOL     OW23083   0.252   3.630  13.761 -0.1373  0.0443  0.1035
 3816SOL    HW123084   0.229   3.686  13.835  1.3806 -0.0302  0.6218
 3816SOL    HW223085   0.299   3.686  13.699  0.7598  0.0958  0.8346
 3817SOL     OW23086   1.637   3.337   0.567  0.4132 -0.8058 -0.4522
 3817SOL    HW123087   1.682   3.416   0.538  0.3594 -0.7703 -0.4369
 3817SOL    HW223088   1.571   3.368   0.629  2.6334  1.2272  0.9131
 3818SOL     OW23089   2.020   1.222   8.157  0.2433  0.0606 -0.1876
 3818SOL    HW123090   1.930   1.198   8.133  0.3833 -0.7787  0.1267
 3818SOL    HW223091   2.040   1.289   8.092 -1.3062 -0.0106 -0.7460
 3819SOL     OW23092   0.740   4.582   4.227 -0.1220 -0.2391 -0.4006
 3819SOL    HW123093   0.778   4.631   4.154 -0.3901  0.0803 -0.3266
 3819SOL    HW223094   0.651   4.616   4.218  0.7095  1.8815 -0.7553
 3820SOL     OW23095   1.490   4.456   4.709  0.1163  0.5240  0.7300
 3820SOL    HW123096   1.560   4.476   4.771 -0.1256  1.0970  0.8242
 3820SOL    HW223097   1.415   4.461   4.769  0.2259 -2.9882  1.1269
 3821SOL     OW23098   2.003   0.384   8.951  0.2232  0.9092  0.3328
 3821SOL    HW123099   1.908   0.389   8.950  0.1880 -0.1272 -2.4130
 3821SOL    HW223100   2.027   0.471   8.918  1.4574  0.3862 -0.1606
 3822SOL     OW23101   2.744   1.980  13.953 -0.1457 -0.6111 -0.4015
 3822SOL    HW123102   2.653   1.966  13.926 -0.8528  1.1568  1.0417
 3822SOL    HW223103   2.735   1.934  14.036  0.9665  0.2495  0.1813
 3823SOL     OW23104   3.169   1.030   9.089 -0.3215 -0.3264 -0.2457
 3823SOL    HW123105   3.197   0.939   9.096  0.7675  0.1151  1.1163
 3823SOL    HW223106   3.194   1.056   9.178  0.4959  2.1437 -1.2150
 3824SOL     OW23107   2.653   1.286   0.873 -0.3216 -0.1171 -0.5875
 3824SOL    HW123108   2.667   1.205   0.922  2.1997 -0.3762 -1.7560
 3824SOL    HW223109   2.707   1.345   0.927  0.6421 -2.2803  0.8043
 3825SOL     OW23110   2.438   0.971   4.562  0.1241 -0.1669 -0.6329
 3825SOL    HW123111   2.458   1.040   4.625 -0.7443  0.2727 -0.8375
 3825SOL    HW223112   2.366   0.920   4.599  0.0799  1.0833  0.9752
 3826SOL     OW23113   3.670   1.371   7.823  0.4370 -0.4954 -0.0095
 3826SOL    HW123114   3.720   1.289   7.817 -1.4242 -1.6507  0.3006
 3826SOL    HW223115   3.611   1.370   7.747  1.3240  1.4874 -0.7465
 3827SOL     OW23116   2.619   2.731   0.638 -0.4221  0.9039 -0.4833
 3827SOL    HW123117   2.537   2.705   0.680 -0.7405  0.0753 -1.6043
 3827SOL    HW223118   2.670   2.777   0.705  3.5768 -0.7341 -2.3664
 3828SOL     OW23119   3.672   2.781  17.588  0.4723 -0.4028 -0.4308
 3828SOL    HW123120   3.598   2.739  17.632 -1.1582  2.4070 -0.4602
 3828SOL    HW223121   3.673   2.873  17.614  2.6899 -0.4188 -0.4639
 3829SOL     OW23122   4.084   1.758   5.791 -0.1683  0.1435  0.5146
 3829SOL    HW123123   4.161   1.813   5.801 -0.4756  0.1402  2.7915
 3829SOL    HW223124   4.019   1.801   5.846 -0.6042  1.1692 -0.7984
 3830SOL     OW23125   4.439   1.184   2.235 -0.1713 -0.1938 -0.0811
 3830SOL    HW123126   4.380   1.113   2.210  0.3895 -1.6829  2.8241
 3830SOL    HW223127   4.373   1.247   2.265 -0.8501  0.0227 -2.0647
 3831SOL     OW23128   2.331   4.418  14.486 -0.2921  0.4077 -0.0158
 3831SOL    HW123129   2.309   4.500  14.441  0.1146  0.8441  0.5689
 3831SOL    HW223130   2.277   4.424  14.565 -2.5977  0.6837 -1.6148
 3832SOL     OW23131   0.400   4.209   4.582 -0.0858  0.7353 -0.2667
 3832SOL    HW123132   0.369   4.211   4.673  4.2478  2.6019  1.1647
 3832SOL    HW223133   0.482   4.256   4.592  0.1957  0.1035  0.4307
 3833SOL     OW23134   4.343   2.384   8.610  0.0371 -0.4080  0.3244
 3833SOL    HW123135   4.351   2.384   8.514  0.3953 -2.2174  0.3697
 3833SOL    HW223136   4.423   2.337   8.632  0.9118  0.9900  0.1509
 3834SOL     OW23137   2.991   4.358   2.642 -0.1591 -0.4540 -0.0079
 3834SOL    HW123138   3.064   4.332   2.698 -0.4948 -0.3976  0.4597
 3834SOL    HW223139   2.925   4.300   2.680  0.3461 -1.7204 -1.0524
 3835SOL     OW23140   4.287   2.232   5.290 -0.0378 -0.2594  0.0907
 3835SOL    HW123141   4.382   2.223   5.290  0.0054  0.2235 -0.2260
 3835SOL    HW223142   4.270   2.139   5.303 -1.5255  0.3079  2.2465
 3836SOL     OW23143   3.729   3.564   5.601  0.1387  0.7435  0.4730
 3836SOL    HW123144   3.785   3.636   5.629 -0.0339  1.2146 -0.3804
 3836SOL    HW223145   3.725   3.559   5.505 -0.3625 -1.1550  0.5909
 3837SOL     OW23146   2.449   0.855   6.098 -0.1958  0.3066  0.0706
 3837SOL    HW123147   2.428   0.762   6.094  0.4446  0.1388  0.5412
 3837SOL    HW223148   2.435   0.876   6.006  0.1963  0.0987 -0.0349
 3838SOL     OW23149   4.609   3.154   9.849  0.1574  0.2538 -0.1384
 3838SOL    HW123150   4.683   3.097   9.869 -1.3236 -1.4770  0.4012
 3838SOL    HW223151   4.535   3.095   9.837  0.0860  0.9318 -2.8969
 3839SOL     OW23152   2.803   1.357  15.329 -1.0288 -0.3326  0.5967
 3839SOL    HW123153   2.738   1.289  15.348 -0.5656 -0.5157  1.5142
 3839SOL    HW223154   2.859   1.358  15.407  1.1430  0.9317 -0.9919
 3840SOL     OW23155   1.980   1.482   0.657  0.3303 -0.7126 -0.0004
 3840SOL    HW123156   2.028   1.428   0.720  1.4518 -1.4318 -1.4814
 3840SOL    HW223157   2.044   1.482   0.587  0.2856 -1.7877 -0.0420
 3841SOL     OW23158   0.441   1.858   2.137  0.0489  0.3041  0.2114
 3841SOL    HW123159   0.479   1.882   2.052 -0.1194 -0.8811 -0.1942
 3841SOL    HW223160   0.349   1.866   2.112  0.3088 -1.4136 -1.2641
 3842SOL     OW23161   4.542   4.493  14.057  0.1770  0.3346 -0.3585
 3842SOL    HW123162   4.497   4.447  13.986 -0.1656  0.8953 -0.5028
 3842SOL    HW223163   4.579   4.574  14.022  1.2205 -0.6161 -1.4606
 3843SOL     OW23164   1.252   1.608   8.817 -0.3751  0.2571 -0.0994
 3843SOL    HW123165   1.269   1.515   8.805 -1.3363 -0.2772  2.7132
 3843SOL    HW223166   1.251   1.646   8.729  0.8506 -0.9050 -0.6256
 3844SOL     OW23167   0.963   4.283   8.939  0.3336 -0.2869  0.0962
 3844SOL    HW123168   0.975   4.354   8.875 -0.8666 -1.6160 -1.6175
 3844SOL    HW223169   0.869   4.264   8.929  0.6622 -1.3508 -0.9611
 3845SOL     OW23170   1.559   2.462  15.190 -0.8390  0.2809 -0.4016
 3845SOL    HW123171   1.498   2.449  15.263 -0.7044  3.3672  0.2692
 3845SOL    HW223172   1.564   2.370  15.165 -0.1327 -0.7447  3.5840
 3846SOL     OW23173   4.555   4.420   4.353 -0.0440  0.3774  0.6969
 3846SOL    HW123174   4.475   4.466   4.329  0.1479 -0.1489 -0.9677
 3846SOL    HW223175   4.540   4.328   4.331 -1.7264  0.4666  1.4886
 3847SOL     OW23176   2.266   2.749   1.832  0.4267  0.2568  0.5134
 3847SOL    HW123177   2.260   2.801   1.752 -1.8744  1.2040  1.2858
 3847SOL    HW223178   2.235   2.660   1.814  2.0901 -0.6205  1.9759
 3848SOL     OW23179   2.970   2.489   8.235  0.0847 -0.0132  0.0147
 3848SOL    HW123180   2.960   2.487   8.330  0.2464  1.5405  0.0581
 3848SOL    HW223181   2.883   2.520   8.211  1.0835  2.4636 -0.3699
 3849SOL     OW23182   3.482   4.133   2.523  0.6779  0.5840  0.0823
 3849SOL    HW123183   3.575   4.134   2.545  0.6737 -0.8605  0.1899
 3849SOL    HW223184   3.462   4.040   2.516 -0.5922  1.1086 -3.2713
 3850SOL     OW23185   2.352   2.642   1.503  0.0176  0.5096  0.4014
 3850SOL    HW123186   2.276   2.679   1.458  0.5034  0.2302 -0.6708
 3850SOL    HW223187   2.312   2.592   1.574 -0.7361 -1.6497 -1.5281
 3851SOL     OW23188   0.767   3.167   1.829  0.2688  0.3496 -0.1969
 3851SOL    HW123189   0.701   3.151   1.897  0.6561  0.3963  0.1872
 3851SOL    HW223190   0.847   3.151   1.879  0.1124 -2.1366 -0.7318
 3852SOL     OW23191   2.459   4.261   1.516 -0.0262 -0.7241 -0.7584
 3852SOL    HW123192   2.394   4.205   1.474 -1.9742 -0.0402  1.3324
 3852SOL    HW223193   2.415   4.261   1.601 -1.1529  2.4383 -1.3104
 3853SOL     OW23194   2.611   3.567   3.837  0.3251  0.6442 -0.4474
 3853SOL    HW123195   2.552   3.641   3.851  0.3953  0.7812 -0.8791
 3853SOL    HW223196   2.560   3.515   3.776  2.4098 -1.1398 -0.6707
 3854SOL     OW23197   2.678   3.345   7.340  0.4568  0.0759  0.2358
 3854SOL    HW123198   2.723   3.370   7.259 -1.9325  1.5203 -0.6718
 3854SOL    HW223199   2.597   3.303   7.310 -0.2677  1.3118  0.4542
 3855SOL     OW23200   0.660   2.291   7.454  0.0830  0.0006  0.2111
 3855SOL    HW123201   0.755   2.302   7.445  0.0408  0.8828  0.8122
 3855SOL    HW223202   0.629   2.365   7.403  0.0205  0.7405  1.3073
 3856SOL     OW23203   2.559   1.429   9.793  0.0648 -0.5370 -0.1225
 3856SOL    HW123204   2.481   1.384   9.826 -1.8618  1.9546 -1.3946
 3856SOL    HW223205   2.582   1.481   9.870  1.0661  0.3515 -1.0287
 3857SOL     OW23206   1.815   1.023   6.185  0.4155  0.0425 -0.1128
 3857SOL    HW123207   1.778   1.109   6.165 -1.2629 -0.4121  1.0233
 3857SOL    HW223208   1.909   1.045   6.186  0.1372  1.2809 -1.1611
 3858SOL     OW23209   2.322   0.180   0.701  0.2069 -0.0729  0.0356
 3858SOL    HW123210   2.254   0.246   0.715  1.8381  1.2016  1.8374
 3858SOL    HW223211   2.393   0.219   0.752 -0.6806  0.1597  1.0958
 3859SOL     OW23212   2.543   4.645   4.476  0.5942 -0.1975 -0.0433
 3859SOL    HW123213   2.633   4.664   4.449  0.4583 -0.8280 -0.9228
 3859SOL    HW223214   2.491   4.657   4.396 -1.6706 -1.0920  1.2842
 3860SOL     OW23215   3.511   3.312   2.192  0.1375 -0.3354 -0.5092
 3860SOL    HW123216   3.547   3.273   2.112 -0.5065  1.3960 -1.6269
 3860SOL    HW223217   3.479   3.395   2.157 -5.7429 -1.8116  1.5133
 3861SOL     OW23218   2.772   0.360  11.742 -0.3948  0.0071 -0.2521
 3861SOL    HW123219   2.695   0.303  11.734 -1.0609  1.0424 -1.2707
 3861SOL    HW223220   2.846   0.299  11.750 -0.7714 -0.3296  0.6674
 3862SOL     OW23221   0.707   0.004   1.944  0.0458 -0.4191 -0.1889
 3862SOL    HW123222   0.733   4.688   2.020  2.0430  0.0355 -0.5559
 3862SOL    HW223223   0.789   0.025   1.899 -1.7486  0.7352 -2.8974
 3863SOL     OW23224   3.077   1.995   8.683  0.5517 -0.0950  0.1466
 3863SOL    HW123225   3.062   1.993   8.778 -0.2427 -1.3201 -0.0102
 3863SOL    HW223226   3.036   1.911   8.664 -2.1093  1.3882 -0.5750
 3864SOL     OW23227   2.295   3.400   8.923 -0.5801 -0.0968 -0.3378
 3864SOL    HW123228   2.245   3.345   8.983  2.4187 -0.6228  1.6784
 3864SOL    HW223229   2.379   3.396   8.970 -1.8153 -0.9682  1.7926
 3865SOL     OW23230   0.060   4.237  12.863  0.0508 -0.0167 -0.1112
 3865SOL    HW123231   0.145   4.211  12.898 -1.2505  0.2262  3.2255
 3865SOL    HW223232   0.024   4.150  12.850  1.7632 -0.7841  0.3289
 3866SOL     OW23233   2.938   2.909  16.494  0.0806 -0.1148 -0.1492
 3866SOL    HW123234   2.933   2.840  16.560  1.4554  0.5639  0.6769
 3866SOL    HW223235   2.992   2.979  16.533  1.7733 -0.9982 -0.9208
 3867SOL     OW23236   3.741   4.289  14.654 -0.1011  0.0592  0.2231
 3867SOL    HW123237   3.785   4.257  14.732  1.8885  0.2869 -0.8171
 3867SOL    HW223238   3.714   4.378  14.674 -0.0927  0.3036 -0.8635
 3868SOL     OW23239   4.012   3.944  14.662  0.0509  0.4379  0.0457
 3868SOL    HW123240   4.034   3.857  14.630  0.5278 -0.3422  2.4929
 3868SOL    HW223241   3.960   3.928  14.741 -0.7193 -0.3713 -0.6262
 3869SOL     OW23242   3.118   1.640   9.145  0.2823 -0.3471 -0.4184
 3869SOL    HW123243   3.206   1.613   9.171  1.0412  1.5176 -1.0801
 3869SOL    HW223244   3.073   1.631   9.230  0.7912  0.1158 -0.1049
 3870SOL     OW23245   4.460   2.631   5.629  0.1592 -0.5317 -0.2012
 3870SOL    HW123246   4.500   2.704   5.582  3.2199 -0.8836  1.8133
 3870SOL    HW223247   4.473   2.565   5.561  0.2321 -1.1503  0.4044
 3871SOL     OW23248   1.741   4.618  15.742 -0.8573  0.2897  0.3607
 3871SOL    HW123249   1.757   4.711  15.753  2.0175 -0.3165  1.5254
 3871SOL    HW223250   1.776   4.610  15.654 -0.8187 -1.9040  0.5562
 3872SOL     OW23251   2.026   1.669   6.543 -0.2813  0.5290 -0.0396
 3872SOL    HW123252   2.070   1.603   6.596 -1.1517 -0.5060 -0.6237
 3872SOL    HW223253   1.954   1.617   6.509  0.2615  0.0580 -0.4675
 3873SOL     OW23254   0.088   2.039   3.976 -0.2998 -0.1196  0.0030
 3873SOL    HW123255   0.114   2.071   4.063 -0.5256 -1.7780  0.6920
 3873SOL    HW223256   0.092   2.115   3.919 -0.8397 -1.7327 -2.1910
 3874SOL     OW23257   0.723   3.423  17.323  0.1082  0.0905  0.4491
 3874SOL    HW123258   0.779   3.380  17.258 -0.8358 -1.2016  0.4833
 3874SOL    HW223259   0.665   3.347  17.332 -0.0665  0.2107  0.3222
 3875SOL     OW23260   3.117   3.721  10.611 -0.0426 -0.2623 -0.2474
 3875SOL    HW123261   3.172   3.720  10.690  0.7639  0.9200 -0.7839
 3875SOL    HW223262   3.110   3.627  10.600  1.8395 -0.4207 -0.0268
 3876SOL     OW23263   1.288   0.586   6.165  0.5513  0.2825 -0.2642
 3876SOL    HW123264   1.307   0.545   6.081  2.5360 -0.8504  0.7562
 3876SOL    HW223265   1.208   0.629   6.134 -0.1451 -1.8891 -1.4736
 3877SOL     OW23266   3.271   3.266   3.505 -0.2966  0.2097 -0.2441
 3877SOL    HW123267   3.185   3.308   3.501  0.0983  1.1097  0.8871
 3877SOL    HW223268   3.245   3.186   3.458 -0.6071  0.5268 -0.6094
 3878SOL     OW23269   1.673   1.879   6.573  0.1345 -0.0492  0.6334
 3878SOL    HW123270   1.764   1.909   6.564  0.1744 -0.3669  0.0220
 3878SOL    HW223271   1.661   1.850   6.483 -2.3605  1.6880  0.4161
 3879SOL     OW23272   1.627   3.313   7.053 -0.5176  0.4546 -0.4163
 3879SOL    HW123273   1.610   3.400   7.088  1.1218 -0.0122  1.5621
 3879SOL    HW223274   1.719   3.329   7.032 -0.7365  0.6512 -1.2272
 3880SOL     OW23275   2.142   0.343   7.776 -0.3389  0.4549  0.7360
 3880SOL    HW123276   2.195   0.421   7.758  0.1465 -0.0671 -0.1080
 3880SOL    HW223277   2.213   0.281   7.756 -0.2345 -0.1638  2.9961
 3881SOL     OW23278   1.987   3.526   4.016 -0.5863  0.5390  0.4985
 3881SOL    HW123279   2.025   3.440   4.038 -0.3324  0.6484  0.4905
 3881SOL    HW223280   2.000   3.568   4.101 -1.1241 -0.9248  1.3087
 3882SOL     OW23281   2.314   2.880   5.369 -0.1237  0.0654 -0.3076
 3882SOL    HW123282   2.389   2.896   5.311 -1.3337 -1.0337 -2.1884
 3882SOL    HW223283   2.246   2.931   5.324  0.5907  2.0090  0.8255
 3883SOL     OW23284   3.960   3.089   2.859  0.2536 -0.0658  0.1789
 3883SOL    HW123285   3.884   3.148   2.859 -0.0140 -0.4098 -1.5844
 3883SOL    HW223286   3.984   3.093   2.951  2.9511  0.1172 -0.5267
 3884SOL     OW23287   2.845   0.025   6.871 -0.2171  0.8266 -0.0565
 3884SOL    HW123288   2.884   4.676   6.859 -1.2197  0.4570 -0.7153
 3884SOL    HW223289   2.808   0.027   6.960  0.0764  1.6759  0.0404
 3885SOL     OW23290   2.544   2.629   3.520 -0.0667 -0.5492  0.3016
 3885SOL    HW123291   2.546   2.718   3.556  2.5451  0.1759 -1.5995
 3885SOL    HW223292   2.520   2.582   3.599  1.4723  1.0512  1.7429
 3886SOL     OW23293   4.265   3.277   1.760  0.5138  0.2365 -0.8658
 3886SOL    HW123294   4.173   3.269   1.739  0.7673  0.2359 -1.9388
 3886SOL    HW223295   4.267   3.357   1.813  0.0209  0.0131 -0.5184
 3887SOL     OW23296   1.157   3.945   5.614  0.3120  0.1702 -0.2554
 3887SOL    HW123297   1.106   3.869   5.587 -0.1615  0.0719  0.9445
 3887SOL    HW223298   1.121   4.013   5.556 -0.4098 -0.7315 -0.8666
 3888SOL     OW23299   4.639   0.729   6.753  0.0440  0.1097  0.0305
 3888SOL    HW123300   4.724   0.769   6.734  0.1152  0.0685  0.2510
 3888SOL    HW223301   4.582   0.781   6.697 -0.0221 -0.1563 -0.1508
 3889SOL     OW23302   0.979   3.359   7.790  0.5156  0.2873  0.1146
 3889SOL    HW123303   1.010   3.419   7.858 -2.0727  1.1917  0.4767
 3889SOL    HW223304   1.053   3.359   7.728  0.5604  1.0127  0.1682
 3890SOL     OW23305   0.443   2.019   6.735  0.2699  0.3207  0.3902
 3890SOL    HW123306   0.408   2.106   6.752 -1.1247  0.1153 -1.4440
 3890SOL    HW223307   0.459   1.986   6.823 -0.1280  0.7321  0.6145
 3891SOL     OW23308   3.611   3.605   0.851  0.0575 -0.1271 -0.1023
 3891SOL    HW123309   3.565   3.613   0.768 -1.4674  0.2761  0.7822
 3891SOL    HW223310   3.702   3.584   0.831 -0.6583 -4.4405  1.2956
 3892SOL     OW23311   0.915   4.569   2.860  0.1895  0.3790  0.4279
 3892SOL    HW123312   0.877   4.559   2.947  0.2156 -0.5551  0.3282
 3892SOL    HW223313   1.004   4.603   2.874  0.0031  2.3930 -3.1614
 3893SOL     OW23314   3.749   0.030   3.029  0.1262 -0.1997  0.0323
 3893SOL    HW123315   3.726   4.676   3.016  0.7859 -0.3879  0.2042
 3893SOL    HW223316   3.665   0.073   3.012  0.8789  1.4465  0.4762
 3894SOL     OW23317   2.229   0.382   8.048  0.0606  0.2274 -0.2565
 3894SOL    HW123318   2.182   0.387   7.965  0.7360 -4.1657 -0.8834
 3894SOL    HW223319   2.173   0.330   8.105  1.0035  1.6644  1.9725
 3895SOL     OW23320   0.408   3.417   3.838 -0.0988 -0.4409  0.4369
 3895SOL    HW123321   0.392   3.368   3.757  0.3100 -0.3731  0.3179
 3895SOL    HW223322   0.496   3.389   3.861  0.3460  1.5106  1.1110
 3896SOL     OW23323   0.149   3.707  12.650  0.2957  0.3042  0.2814
 3896SOL    HW123324   0.168   3.800  12.661  0.1600  0.2281  1.2287
 3896SOL    HW223325   0.130   3.671  12.737  2.0776 -1.1576  0.0806
 3897SOL     OW23326   0.514   0.371   2.955  0.4551 -0.4154  0.6274
 3897SOL    HW123327   0.539   0.451   2.907  0.3133 -1.3692 -1.0299
 3897SOL    HW223328   0.464   0.329   2.885 -0.4857 -0.5138  1.3611
 3898SOL     OW23329   1.151   1.152   3.805 -0.1153  0.2564  0.2471
 3898SOL    HW123330   1.239   1.159   3.842 -0.3968  0.4132  0.8917
 3898SOL    HW223331   1.148   1.237   3.762 -0.9180 -0.3798 -0.9516
 3899SOL     OW23332   1.298   3.691   3.183  0.5263  0.2053 -0.2188
 3899SOL    HW123333   1.277   3.776   3.221  2.8987  0.0089  1.5452
 3899SOL    HW223334   1.392   3.694   3.199  0.8076  0.3023 -1.9114
 3900SOL     OW23335   4.141   1.025   6.787  0.4237  0.3145  0.4018
 3900SOL    HW123336   4.112   0.986   6.704  0.4892 -2.0155  1.4797
 3900SOL    HW223337   4.076   1.092   6.810 -0.3369 -0.0539 -0.6449
 3901SOL     OW23338   3.465   1.373   6.587 -0.1334  0.0191  0.6461
 3901SOL    HW123339   3.427   1.461   6.591 -0.5208 -0.0697 -1.5171
 3901SOL    HW223340   3.417   1.331   6.517  1.4860  1.1349 -1.1364
 3902SOL     OW23341   4.021   1.001   4.522  0.0329  0.0278  0.1464
 3902SOL    HW123342   3.964   0.934   4.558 -0.2357  0.4465  0.4934
 3902SOL    HW223343   3.965   1.040   4.455 -0.1890 -0.7459 -0.1197
 3903SOL     OW23344   0.726   3.705   5.869  0.2342 -0.6163 -0.4433
 3903SOL    HW123345   0.671   3.660   5.804 -0.2184 -1.8979  0.8408
 3903SOL    HW223346   0.740   3.645   5.942 -0.3831  0.2675  0.3963
 3904SOL     OW23347   3.436   3.715  12.828 -0.2331  0.2310  0.5163
 3904SOL    HW123348   3.484   3.640  12.863  0.2407 -0.6991 -2.1398
 3904SOL    HW223349   3.393   3.735  12.911 -2.4361 -0.5133 -0.4397
 3905SOL     OW23350   3.226   2.020   4.967  0.1258  0.2038  0.2378
 3905SOL    HW123351   3.204   1.932   4.997 -1.7267  0.8277  0.6972
 3905SOL    HW223352   3.295   2.001   4.904  0.9539  1.0253  0.8818
 3906SOL     OW23353   2.114   1.744   3.746 -0.6941  0.4069 -0.2306
 3906SOL    HW123354   2.095   1.693   3.824 -0.3562  1.5796  0.6245
 3906SOL    HW223355   2.046   1.703   3.692 -1.0907 -0.0305  0.6002
 3907SOL     OW23356   3.607   2.261   4.804  0.3798  0.3562 -0.4947
 3907SOL    HW123357   3.521   2.266   4.763 -0.5810 -0.6075  1.3654
 3907SOL    HW223358   3.647   2.341   4.771  0.5389  0.0539 -1.0325
 3908SOL     OW23359   1.932   2.877   4.167  0.1947  0.0827  0.2124
 3908SOL    HW123360   1.945   2.909   4.078  1.3173  1.0835  0.7266
 3908SOL    HW223361   1.848   2.833   4.159 -0.7559  2.0551 -0.6761
 3909SOL     OW23362   3.550   1.369  13.244  0.4941  0.0253  0.6288
 3909SOL    HW123363   3.481   1.374  13.309 -0.5729  0.3990 -0.5292
 3909SOL    HW223364   3.556   1.456  13.203 -1.2600  0.8456  2.1352
 3910SOL     OW23365   4.641   4.059   8.978 -0.4616  0.5840  0.1493
 3910SOL    HW123366   4.553   4.081   9.009 -0.6705 -0.5756  0.3817
 3910SOL    HW223367   4.613   4.039   8.888 -0.0970 -0.9630  0.3827
 3911SOL     OW23368   0.444   4.308   7.463 -0.4315  0.7894 -0.4795
 3911SOL    HW123369   0.399   4.285   7.382 -4.5732  0.6441  1.8625
 3911SOL    HW223370   0.374   4.336   7.522 -0.7870 -0.2964 -0.3915
 3912SOL     OW23371   3.559   0.739   6.928 -0.2416  0.3375  0.2257
 3912SOL    HW123372   3.539   0.776   6.842 -2.7964 -0.2399  0.5894
 3912SOL    HW223373   3.567   0.813   6.989 -2.3285  2.6338 -2.3233
 3913SOL     OW23374   1.600   2.859   7.230 -0.0637 -0.5850 -0.0402
 3913SOL    HW123375   1.660   2.793   7.265 -1.5029 -1.0120  1.5786
 3913SOL    HW223376   1.630   2.936   7.278 -0.6166  1.2004 -2.5929
 3914SOL     OW23377   1.812   3.012   1.744  0.6049  0.5504  0.0600
 3914SOL    HW123378   1.807   2.996   1.839 -1.3862 -2.5485 -0.5528
 3914SOL    HW223379   1.724   3.045   1.727  1.6355  2.2865 -1.8050
 3915SOL     OW23380   1.820   3.342  16.557 -0.5171 -0.1696  0.2726
 3915SOL    HW123381   1.784   3.336  16.468 -0.4531 -1.7479  0.3711
 3915SOL    HW223382   1.835   3.436  16.568 -1.4199  0.2052 -1.5705
 3916SOL     OW23383   1.120   0.778  13.874 -0.5989  0.2750  0.1290
 3916SOL    HW123384   1.105   0.711  13.940 -1.8140  1.2119  0.7916
 3916SOL    HW223385   1.158   0.847  13.927 -1.3265  0.6870  0.1080
 3917SOL     OW23386   0.791   0.979   3.417  0.5693  0.9077 -0.4017
 3917SOL    HW123387   0.838   0.915   3.364  0.0754 -0.5157  0.8630
 3917SOL    HW223388   0.858   1.047   3.419  1.3340  0.1304  0.0297
 3918SOL     OW23389   4.530   3.127  13.530  0.8307  0.4738 -0.0365
 3918SOL    HW123390   4.610   3.176  13.546 -1.2115  3.3371  1.4788
 3918SOL    HW223391   4.558   3.039  13.503 -0.0587 -0.1707  1.1077
 3919SOL     OW23392   3.491   3.921  11.724  0.1877  0.5413  0.4577
 3919SOL    HW123393   3.574   3.901  11.768  1.2045  0.6639 -1.3809
 3919SOL    HW223394   3.518   4.007  11.691 -0.1983  0.3347 -0.3912
 3920SOL     OW23395   2.938   1.669   4.890 -0.0650 -0.1579  0.7409
 3920SOL    HW123396   2.927   1.636   4.800 -2.5561 -0.2506  1.0761
 3920SOL    HW223397   2.962   1.592   4.941 -2.0303  0.3745  2.4343
 3921SOL     OW23398   3.256   1.920   8.372  0.3142  0.3603 -0.2548
 3921SOL    HW123399   3.222   1.944   8.285  0.8738  0.4702 -0.4460
 3921SOL    HW223400   3.287   2.007   8.398  0.2945  0.6430 -1.1513
 3922SOL     OW23401   1.705   4.218   6.122 -0.4814 -0.2584 -0.8546
 3922SOL    HW123402   1.621   4.264   6.133  0.3583  0.9996  0.2041
 3922SOL    HW223403   1.760   4.245   6.196 -0.3385 -2.6815 -0.0955
 3923SOL     OW23404   1.101   0.706   1.812  0.0981  0.0145  0.9498
 3923SOL    HW123405   1.123   0.687   1.903 -1.1526 -0.2447  1.1966
 3923SOL    HW223406   1.185   0.691   1.767 -0.9849 -0.8419 -0.7611
 3924SOL     OW23407   1.881   1.195   5.834 -0.1811  0.3470 -0.4061
 3924SOL    HW123408   1.877   1.100   5.838  1.7828  0.3529  1.3742
 3924SOL    HW223409   1.966   1.205   5.877 -0.5781 -2.3616  1.0271
 3925SOL     OW23410   3.913   1.577   2.717 -0.6249  0.5108 -0.7393
 3925SOL    HW123411   3.890   1.663   2.681 -1.1778  0.6855  0.0218
 3925SOL    HW223412   4.002   1.582   2.683 -0.2284 -0.4796  0.1652
 3926SOL     OW23413   0.184   3.649   7.184 -0.3949 -0.0765 -0.8672
 3926SOL    HW123414   0.240   3.643   7.106 -0.6584  0.3754 -1.0890
 3926SOL    HW223415   0.097   3.655   7.146  0.0095  2.1559 -1.4172
 3927SOL     OW23416   3.329   0.649  14.949 -0.4968 -0.2125 -0.4589
 3927SOL    HW123417   3.396   0.613  14.891  0.9032  1.5335  0.0608
 3927SOL    HW223418   3.378   0.732  14.952  2.2172 -1.7648 -1.4303
 3928SOL     OW23419   1.360   3.123   3.017  0.0227 -0.6007 -0.3032
 3928SOL    HW123420   1.419   3.174   2.962  0.3820  0.0988  0.7252
 3928SOL    HW223421   1.367   3.035   2.981  0.4752  0.0512 -1.7958
 3929SOL     OW23422   1.379   4.448  12.210  0.5557 -0.5085 -0.1823
 3929SOL    HW123423   1.419   4.472  12.293  1.7384  0.0316 -0.8902
 3929SOL    HW223424   1.364   4.355  12.225  0.0581 -0.3042  0.5465
 3930SOL     OW23425   0.279   0.792   8.789 -0.3346 -0.1004 -0.2130
 3930SOL    HW123426   0.241   0.709   8.762  1.7190 -1.3605  0.7536
 3930SOL    HW223427   0.199   0.842   8.772 -0.6209 -0.9620 -1.3235
 3931SOL     OW23428   0.258   2.471  17.457 -0.6985 -0.3071 -0.1064
 3931SOL    HW123429   0.224   2.559  17.441 -0.1752 -0.0394  0.2233
 3931SOL    HW223430   0.185   2.417  17.427 -1.0611 -0.3165  0.7733
 3932SOL     OW23431   0.348   0.751   3.483  0.4422 -0.1027 -0.3659
 3932SOL    HW123432   0.398   0.813   3.536 -2.0135  1.4545  0.1220
 3932SOL    HW223433   0.384   0.770   3.397 -0.1815 -0.1237 -0.6362
 3933SOL     OW23434   1.651   2.817   3.220 -0.0968  0.2359  0.7559
 3933SOL    HW123435   1.737   2.817   3.262 -0.3801 -1.2566  1.3471
 3933SOL    HW223436   1.680   2.770   3.142  0.1863  1.0456  0.3756
 3934SOL     OW23437   0.018   0.484   5.119  0.1443  0.1852  0.3297
 3934SOL    HW123438   4.720   0.441   5.197 -0.5404 -1.0129 -0.6409
 3934SOL    HW223439   4.677   0.490   5.064  1.2207  1.3610 -1.0669
 3935SOL     OW23440   3.872   1.284   6.222  0.7080 -0.1189  0.1954
 3935SOL    HW123441   3.791   1.235   6.213  0.4145  0.8999 -2.5889
 3935SOL    HW223442   3.917   1.232   6.289  0.4721 -0.6225 -0.0364
 3936SOL     OW23443   4.576   2.997   0.848  0.2728 -0.0821 -0.0801
 3936SOL    HW123444   4.518   3.073   0.840  0.9459  0.2868 -1.4369
 3936SOL    HW223445   4.566   2.947   0.768 -0.5391  1.0112 -0.6638
 3937SOL     OW23446   3.028   4.359   0.643 -0.2948 -0.1633 -0.0696
 3937SOL    HW123447   2.995   4.444   0.672  1.5502  0.8716 -1.0405
 3937SOL    HW223448   3.120   4.385   0.645  0.1886 -1.9092  1.3407
 3938SOL     OW23449   1.320   1.147   6.062 -0.1019  0.4047 -0.1929
 3938SOL    HW123450   1.246   1.086   6.074  0.6766 -0.6859 -0.9471
 3938SOL    HW223451   1.299   1.212   6.129 -2.2720 -0.2147 -0.2511
 3939SOL     OW23452   1.068   4.348  15.304 -0.0368  0.2230 -0.7882
 3939SOL    HW123453   1.013   4.314  15.233 -0.3211  0.1062 -0.5116
 3939SOL    HW223454   1.007   4.335  15.376 -0.3726  0.3560 -1.0503
 3940SOL     OW23455   0.455   3.598   9.780  0.3744 -0.3597  0.0522
 3940SOL    HW123456   0.464   3.637   9.867  1.7532 -1.1774  0.2711
 3940SOL    HW223457   0.416   3.671   9.731  0.7965  0.6344  1.1751
 3941SOL     OW23458   0.835   4.128  13.087 -0.0857  0.1902 -0.2303
 3941SOL    HW123459   0.864   4.058  13.029  1.3719 -0.2979  1.0828
 3941SOL    HW223460   0.903   4.190  13.059  0.5816  0.7344  2.5000
 3942SOL     OW23461   0.455   0.415   7.436  0.0370 -0.2248 -0.0437
 3942SOL    HW123462   0.431   0.507   7.453  0.5366 -0.0805 -0.1120
 3942SOL    HW223463   0.399   0.376   7.503  1.4696 -0.0071  1.2728
 3943SOL     OW23464   3.776   2.169   6.786 -0.0124  0.9973 -0.1527
 3943SOL    HW123465   3.742   2.094   6.738  2.5041  0.5068 -1.1580
 3943SOL    HW223466   3.871   2.156   6.784 -0.4763 -2.0832 -1.4642
 3944SOL     OW23467   1.096   3.809  13.698  0.6334 -0.4226 -0.0428
 3944SOL    HW123468   1.187   3.821  13.723  0.6109  0.8798 -0.5852
 3944SOL    HW223469   1.094   3.822  13.603 -0.2817 -0.8984 -0.0955
 3945SOL     OW23470   2.314   4.678  17.391 -1.1376 -0.0235 -0.3873
 3945SOL    HW123471   2.290   4.598  17.439 -0.8315  0.7463  1.0509
 3945SOL    HW223472   2.368   4.633  17.325 -1.5155 -1.4595  0.2885
 3946SOL     OW23473   3.818   2.685   1.502  0.2393  0.1847  0.5209
 3946SOL    HW123474   3.834   2.629   1.578  0.2063  0.0352  0.4191
 3946SOL    HW223475   3.789   2.759   1.555 -1.0156 -1.0184  1.5440
 3947SOL     OW23476   1.454   3.924   8.842  0.1022 -0.1946  0.2494
 3947SOL    HW123477   1.487   4.005   8.804 -0.2310 -0.3382 -0.3361
 3947SOL    HW223478   1.384   3.953   8.901 -1.1037  1.2361 -1.8978
 3948SOL     OW23479   3.537   2.818   4.795 -0.3844  0.4394  0.1967
 3948SOL    HW123480   3.481   2.889   4.827 -0.3657  0.4961  0.1006
 3948SOL    HW223481   3.513   2.819   4.703 -1.1337  1.3530  0.3979
 3949SOL     OW23482   2.548   2.136   8.786 -0.0338 -0.0039 -0.5494
 3949SOL    HW123483   2.458   2.123   8.816  0.5283 -0.1731  1.0701
 3949SOL    HW223484   2.598   2.094   8.856 -0.2406 -0.0232 -0.4137
 3950SOL     OW23485   1.426   4.311   7.706 -0.1756 -0.6525  0.1250
 3950SOL    HW123486   1.415   4.342   7.796  0.6312 -0.6074  0.2107
 3950SOL    HW223487   1.337   4.323   7.675  0.3267  1.9932 -0.2971
 3951SOL     OW23488   1.225   3.318  17.372  0.5755 -0.2865 -0.0722
 3951SOL    HW123489   1.140   3.277  17.390  0.7549 -0.5602  0.1705
 3951SOL    HW223490   1.287   3.245  17.368 -0.3752 -1.3056  3.0246
 3952SOL     OW23491   2.132   4.379  10.405  0.0905 -0.4172 -0.2008
 3952SOL    HW123492   2.170   4.292  10.396  0.1323 -0.4137 -0.0466
 3952SOL    HW223493   2.126   4.397  10.311 -1.2997  0.8668  0.1455
 3953SOL     OW23494   4.235   0.021   9.625 -0.1484  0.1472  0.0350
 3953SOL    HW123495   4.157   0.014   9.569 -1.0213  0.3541  1.2300
 3953SOL    HW223496   4.275   4.674   9.603  0.8659  1.1615 -2.0416
 3954SOL     OW23497   1.881   1.382   6.998  0.1855 -0.0782 -0.3910
 3954SOL    HW123498   1.833   1.328   7.062  1.8753 -0.5052  0.5311
 3954SOL    HW223499   1.812   1.424   6.948 -0.2350  0.9365  1.0292
 3955SOL     OW23500   2.254   0.944   2.048 -0.1372  0.1460 -0.4637
 3955SOL    HW123501   2.339   0.987   2.047  0.7433 -1.5163  3.2006
 3955SOL    HW223502   2.212   1.009   1.993 -0.7013  0.0262 -0.1760
 3956SOL     OW23503   0.648   3.414   8.574 -0.0227 -0.2788  0.2966
 3956SOL    HW123504   0.552   3.406   8.572  0.0388 -1.0707  0.4132
 3956SOL    HW223505   0.669   3.459   8.656 -1.4529  0.9823 -0.0105
 3957SOL     OW23506   0.531   1.741   0.703 -0.6240  0.3734 -0.2349
 3957SOL    HW123507   0.524   1.821   0.755  0.8657 -0.0223  0.5908
 3957SOL    HW223508   0.598   1.766   0.639  0.4020 -2.9259 -0.4780
 3958SOL     OW23509   3.837   2.825   5.910 -0.2357 -0.4731  0.2362
 3958SOL    HW123510   3.847   2.792   5.999 -1.0767  0.8535  0.8098
 3958SOL    HW223511   3.821   2.917   5.927 -0.7176 -0.2205 -1.5231
 3959SOL     OW23512   2.561   2.037   2.468 -0.7152 -0.2106 -0.3268
 3959SOL    HW123513   2.521   2.122   2.487 -0.1670  0.2386 -1.1417
 3959SOL    HW223514   2.538   1.997   2.551  2.3028 -0.7215  0.2613
 3960SOL     OW23515   3.554   4.338  15.460 -0.0940  0.5925 -0.0247
 3960SOL    HW123516   3.634   4.324  15.510  1.5777 -0.5498 -2.9646
 3960SOL    HW223517   3.529   4.429  15.475  0.4482  0.6052  0.7800
 3961SOL     OW23518   2.729   0.690   0.617 -0.2225  0.5268  0.4009
 3961SOL    HW123519   2.806   0.696   0.560 -0.2385 -1.4563  0.1606
 3961SOL    HW223520   2.707   0.780   0.639 -0.4286  0.9095 -1.3297
 3962SOL     OW23521   0.060   0.108  10.464 -0.2313 -0.3941  0.1751
 3962SOL    HW123522   4.715   0.069  10.434 -0.8571  1.5583 -0.6865
 3962SOL    HW223523   0.122   0.036  10.459  1.7019  1.2025  1.1909
 3963SOL     OW23524   3.962   0.368  14.053 -0.0734  0.7770 -0.0540
 3963SOL    HW123525   3.958   0.343  13.961  0.9586  2.6339 -0.6080
 3963SOL    HW223526   3.904   0.444  14.057 -0.4226  0.5327 -0.4671
 3964SOL     OW23527   3.023   3.861   5.028 -0.2816 -0.2317  0.5048
 3964SOL    HW123528   3.018   3.915   4.949  1.7431 -0.8071 -0.0196
 3964SOL    HW223529   3.101   3.902   5.066  1.5735 -1.3043 -2.1718
 3965SOL     OW23530   1.597   3.222   2.869 -0.4897  0.5045  0.1884
 3965SOL    HW123531   1.659   3.156   2.902 -2.2371 -1.8433 -1.2138
 3965SOL    HW223532   1.624   3.303   2.912 -1.9016  0.9668  0.1809
 3966SOL     OW23533   1.910   0.537   3.942 -0.0776 -0.1158  0.4235
 3966SOL    HW123534   1.986   0.497   3.983 -1.1024 -1.4149  1.0677
 3966SOL    HW223535   1.887   0.600   4.009 -0.1844 -0.8141  1.0465
 3967SOL     OW23536   4.080   3.110  17.466 -0.2462  1.1589  0.6892
 3967SOL    HW123537   4.034   3.054  17.528  2.4758 -1.4173  0.3770
 3967SOL    HW223538   4.011   3.173  17.446  0.1401  1.2379 -0.3988
 3968SOL     OW23539   3.931   2.383   6.466  0.4149 -0.3166 -0.0117
 3968SOL    HW123540   3.841   2.352   6.478  0.7495 -1.6777 -1.0211
 3968SOL    HW223541   3.912   2.474   6.492  0.1836 -0.6540  1.0134
 3969SOL     OW23542   4.510   4.541   0.561  0.4203  0.3584  0.2712
 3969SOL    HW123543   4.592   4.583   0.586  0.8662 -0.3456 -0.0036
 3969SOL    HW223544   4.486   4.483   0.634 -1.1913 -2.2876 -2.3377
 3970SOL     OW23545   2.577   3.406  17.747 -0.4118  0.4160  0.0028
 3970SOL    HW123546   2.523   3.427   0.076  0.0607 -0.0425  0.4658
 3970SOL    HW223547   2.539   3.459  17.677 -0.3963 -1.5515 -1.4831
 3971SOL     OW23548   4.625   4.525   3.474  0.0915 -0.1431  0.1543
 3971SOL    HW123549   4.571   4.603   3.462  1.9957  0.9642 -1.1833
 3971SOL    HW223550   4.619   4.496   3.383 -1.8254 -0.0664  0.2413
 3972SOL     OW23551   0.962   4.257   2.526  0.4687  0.3121 -0.9749
 3972SOL    HW123552   0.896   4.191   2.546  1.1024 -0.2064 -0.5699
 3972SOL    HW223553   0.996   4.260   2.615  0.2293 -0.3697 -0.8588
 3973SOL     OW23554   4.227   3.882   6.071 -0.8437  0.1549  0.0240
 3973SOL    HW123555   4.182   3.957   6.111  0.7173  1.9638 -1.5854
 3973SOL    HW223556   4.319   3.905   6.085 -1.4562  2.5041  0.1769
 3974SOL     OW23557   1.453   0.083   2.433 -0.1403  0.1374  0.0318
 3974SOL    HW123558   1.370   0.053   2.395 -0.1975  1.4158 -0.8584
 3974SOL    HW223559   1.498   4.737   2.415 -1.2121 -0.5376  0.4979
 3975SOL     OW23560   0.679   3.704   2.716 -0.1646 -0.2890 -0.3158
 3975SOL    HW123561   0.711   3.781   2.669 -0.8769  0.1269 -0.1378
 3975SOL    HW223562   0.610   3.733   2.777  0.9963 -0.5244  1.0898
 3976SOL     OW23563   3.841   1.094  16.473 -0.7251  0.1034 -0.0013
 3976SOL    HW123564   3.927   1.125  16.446 -0.4505 -1.5651 -1.0376
 3976SOL    HW223565   3.791   1.172  16.496 -1.6805  0.5306 -3.4952
 3977SOL     OW23566   2.961   4.634   1.616  0.5058 -0.2756  0.3320
 3977SOL    HW123567   2.878   4.644   1.663  0.4674  0.6783  0.0572
 3977SOL    HW223568   3.002   4.567   1.672 -2.4225 -0.7335  1.9398
 3978SOL     OW23569   0.179   2.272   8.926  0.0458  0.3144  0.0237
 3978SOL    HW123570   0.087   2.287   8.901 -0.0356 -3.0318 -1.5491
 3978SOL    HW223571   0.183   2.315   9.012 -0.9984  1.4607 -0.4851
 3979SOL     OW23572   4.411   2.887   5.279 -0.0320  0.2658  0.1039
 3979SOL    HW123573   4.423   2.839   5.197 -1.1645 -0.1348  0.1758
 3979SOL    HW223574   4.448   2.826   5.343 -1.9064 -0.0010  0.9401
 3980SOL     OW23575   2.768   1.418   5.051  0.4826  0.1845 -0.1145
 3980SOL    HW123576   2.795   1.397   4.962 -0.4010 -0.8917 -0.1156
 3980SOL    HW223577   2.692   1.361   5.064  0.8196 -0.6861 -2.0253
 3981SOL     OW23578   0.316   0.575  12.299  0.2309  0.6589  0.1123
 3981SOL    HW123579   0.229   0.585  12.259  0.0057 -0.6225  0.2974
 3981SOL    HW223580   0.351   0.664  12.294 -0.6117  0.9654 -0.3402
 3982SOL     OW23581   3.126   1.420   6.456 -0.0572  0.2814  0.1679
 3982SOL    HW123582   3.108   1.326   6.460  0.4638  0.1149 -1.3046
 3982SOL    HW223583   3.068   1.453   6.525  0.4726  1.5150  0.0207
 3983SOL     OW23584   2.946   1.409   4.177  0.2339 -0.5842  0.9642
 3983SOL    HW123585   3.026   1.459   4.160  0.3671 -1.2639 -0.3563
 3983SOL    HW223586   2.884   1.480   4.191  1.2109  0.1412  1.6695
 3984SOL     OW23587   0.404   0.008  11.808  0.1160  0.3003 -1.0212
 3984SOL    HW123588   0.434   4.654  11.817 -1.3214 -0.1168 -0.5903
 3984SOL    HW223589   0.372   0.043  11.891  3.2632  0.2803  0.2021
 3985SOL     OW23590   4.534   1.421   4.633 -0.2525  0.1213 -0.5783
 3985SOL    HW123591   4.531   1.416   4.728 -0.0689 -2.3009 -0.7048
 3985SOL    HW223592   4.457   1.471   4.607 -0.4767  0.0115 -0.1184
 3986SOL     OW23593   4.586   1.741   7.482  0.2792  0.2633  0.0073
 3986SOL    HW123594   4.506   1.783   7.513  1.0482  1.5027  0.2697
 3986SOL    HW223595   4.584   1.747   7.387  1.0160  0.8696  0.0297
 3987SOL     OW23596   1.551   1.906   7.669  0.2084 -0.2524 -0.2859
 3987SOL    HW123597   1.616   1.851   7.625  1.4494 -0.2985  1.5704
 3987SOL    HW223598   1.476   1.848   7.655 -0.9304  1.4105 -1.1076
 3988SOL     OW23599   3.285   0.264   9.078  0.3869  0.1182  0.3613
 3988SOL    HW123600   3.374   0.253   9.112  0.9134 -2.7045 -1.9116
 3988SOL    HW223601   3.235   0.190   9.113 -1.2283  0.2119 -1.7507
 3989SOL     OW23602   4.587   3.087   3.567  0.1501  0.3780 -0.3310
 3989SOL    HW123603   4.547   3.085   3.481 -0.5551 -1.3855  0.0400
 3989SOL    HW223604   4.648   3.161   3.565  0.1541  0.3833 -0.0150
 3990SOL     OW23605   0.144   0.409   0.544  0.1430  0.0649 -0.1678
 3990SOL    HW123606   0.178   0.438   0.629  0.0067 -1.4273  0.3958
 3990SOL    HW223607   0.051   0.429   0.542  0.7164  2.9447  1.2064
 3991SOL     OW23608   2.803   0.305   4.290  0.2417  0.1328  0.1314
 3991SOL    HW123609   2.889   0.311   4.333 -0.0444 -0.6536  0.7984
 3991SOL    HW223610   2.742   0.340   4.355 -2.5262 -1.7157 -1.5146
 3992SOL     OW23611   4.365   1.294   3.033  0.7531  0.7471 -0.1865
 3992SOL    HW123612   4.424   1.222   3.012  1.1718  0.9192  0.3914
 3992SOL    HW223613   4.284   1.245   3.050 -0.0858  1.3472 -2.4207
 3993SOL     OW23614   1.713   1.235   2.705 -0.5502 -0.8478  0.1141
 3993SOL    HW123615   1.625   1.253   2.670 -1.2622 -1.6058  1.4746
 3993SOL    HW223616   1.762   1.188   2.638  1.2814 -0.7583  1.4003
 3994SOL     OW23617   0.999   1.918  14.782 -0.0647  0.4995  0.0579
 3994SOL    HW123618   0.945   1.881  14.712 -1.0409 -1.8259  2.0575
 3994SOL    HW223619   0.972   1.860  14.853 -0.8479 -0.0389 -0.6809
 3995SOL     OW23620   4.586   4.703  16.001 -0.2719  0.6853  0.6974
 3995SOL    HW123621   4.574   4.658  15.918 -0.5409  1.1885  0.4597
 3995SOL    HW223622   4.668   4.661  16.024 -0.6101  0.3965  1.3770
 3996SOL     OW23623   3.504   2.824   7.288 -0.2226 -0.4229 -0.1368
 3996SOL    HW123624   3.510   2.773   7.208  1.5204  1.3034 -1.0881
 3996SOL    HW223625   3.559   2.901   7.274 -0.7926  0.1404  0.6994
 3997SOL     OW23626   4.256   2.190  16.856 -0.3390  1.2426  0.2940
 3997SOL    HW123627   4.231   2.250  16.786 -0.9799  0.5803 -0.0476
 3997SOL    HW223628   4.326   2.134  16.821 -0.7474  0.7650  0.2450
 3998SOL     OW23629   1.269   1.957   7.449 -0.1968 -0.2107 -0.0069
 3998SOL    HW123630   1.231   1.875   7.418 -0.5619  1.0273 -2.8032
 3998SOL    HW223631   1.216   1.976   7.527 -0.9784  0.7549 -0.7604
 3999SOL     OW23632   1.446   2.123   9.231  0.1965 -0.2791  0.2542
 3999SOL    HW123633   1.447   2.042   9.282  2.2376 -1.5315 -1.7646
 3999SOL    HW223634   1.413   2.078   9.153 -1.7584 -0.5428  1.2583
 4000SOL     OW23635   1.841   1.870   3.198 -0.1516 -0.3358  0.3616
 4000SOL    HW123636   1.855   1.787   3.153  2.2945 -0.0531  0.6311
 4000SOL    HW223637   1.794   1.918   3.130 -1.1664 -3.5697 -1.2087
 4001SOL     OW23638   1.821   0.007   9.708  0.5501 -0.1795 -0.5070
 4001SOL    HW123639   1.803   4.708   9.621  1.0077 -0.9492 -0.2848
 4001SOL    HW223640   1.916   0.011   9.706  0.6265 -1.8877 -0.5346
 4002SOL     OW23641   3.294   3.223   3.116 -0.0694  0.3287  0.3298
 4002SOL    HW123642   3.232   3.220   3.189  1.2609 -1.5300  1.3740
 4002SOL    HW223643   3.293   3.132   3.085 -2.2569 -0.2396  2.0920
 4003SOL     OW23644   0.197   2.446  15.090  0.2832 -0.3337 -0.2706
 4003SOL    HW123645   0.202   2.428  15.184 -2.0930  0.4443  0.0111
 4003SOL    HW223646   0.124   2.397  15.051 -0.6577  1.4855 -0.8171
 4004SOL     OW23647   1.305   3.807  16.259  0.2823  0.0513  0.0040
 4004SOL    HW123648   1.382   3.765  16.222 -0.3032 -0.7206 -0.3272
 4004SOL    HW223649   1.232   3.769  16.210  1.8692 -0.4654 -1.9529
 4005SOL     OW23650   3.589   2.516   0.831  0.1743 -0.1237  1.1465
 4005SOL    HW123651   3.646   2.559   0.895  0.9830  2.3954 -1.2838
 4005SOL    HW223652   3.544   2.578   0.774  0.0862 -0.2663  1.0602
 4006SOL     OW23653   4.624   3.804  16.202  0.2984  0.9410 -0.0097
 4006SOL    HW123654   4.632   3.753  16.283  0.0405  1.1142  0.1254
 4006SOL    HW223655   4.711   3.836  16.180 -0.3022  1.0007 -2.3189
 4007SOL     OW23656   0.941   1.899   5.811  0.5490  0.0787 -0.8207
 4007SOL    HW123657   0.931   1.937   5.724  2.8028 -0.9996 -1.5575
 4007SOL    HW223658   0.993   1.966   5.855  2.5525 -0.7866 -1.9031
 4008SOL     OW23659   1.569   3.489  16.719 -0.8921  0.3221  0.4245
 4008SOL    HW123660   1.503   3.544  16.763  0.3846  2.5339 -0.4216
 4008SOL    HW223661   1.522   3.425  16.665  2.8796 -2.6317  0.6661
 4009SOL     OW23662   1.619   3.515   9.014  0.5628 -0.1582  0.0003
 4009SOL    HW123663   1.639   3.547   8.926  1.6771 -3.2299 -0.8617
 4009SOL    HW223664   1.696   3.533   9.069  0.6345  1.6963 -0.6841
 4010SOL     OW23665   1.936   0.291   6.460  0.0303 -0.0034 -0.0398
 4010SOL    HW123666   1.987   0.241   6.396  0.8525 -0.3254  0.8614
 4010SOL    HW223667   1.847   0.256   6.463 -0.1447  0.3319 -1.6084
 4011SOL     OW23668   0.120   0.283   6.113  0.3684  0.2851  0.0511
 4011SOL    HW123669   0.188   0.344   6.085  0.9652 -1.4655 -2.2997
 4011SOL    HW223670   0.067   0.344   6.164 -0.3241 -0.9823  0.8603
 4012SOL     OW23671   2.462   3.761   2.389  0.2128  0.0650  0.2030
 4012SOL    HW123672   2.429   3.686   2.440 -1.8270  0.9723  0.2294
 4012SOL    HW223673   2.521   3.714   2.331 -0.9992 -1.8272  0.4630
 4013SOL     OW23674   3.711   0.326   1.478 -0.3537 -0.0561 -0.2655
 4013SOL    HW123675   3.632   0.371   1.507  0.9421  0.6612  2.1432
 4013SOL    HW223676   3.719   0.360   1.389  0.7251 -0.1833 -0.2197
 4014SOL     OW23677   3.724   4.016   4.713 -0.3440  0.1896  0.7383
 4014SOL    HW123678   3.792   4.055   4.658  1.3370 -0.7038  2.1710
 4014SOL    HW223679   3.688   4.091   4.761 -0.4022  0.7252 -0.1328
 4015SOL     OW23680   2.003   1.046   5.079 -0.1634 -0.1292 -0.2640
 4015SOL    HW123681   1.983   0.958   5.111  1.3515 -0.9708 -1.5825
 4015SOL    HW223682   2.097   1.058   5.092  0.2309  1.0810 -4.2417
 4016SOL     OW23683   4.312   2.922   6.955 -0.1363  0.0963 -0.5394
 4016SOL    HW123684   4.396   2.967   6.951  0.2720 -0.5921  0.3504
 4016SOL    HW223685   4.307   2.888   6.865 -0.1080  2.7067 -1.5234
 4017SOL     OW23686   1.595   2.012   8.958  0.0649  0.9926  0.5965
 4017SOL    HW123687   1.504   2.039   8.954  0.7203  3.5089  2.9121
 4017SOL    HW223688   1.638   2.078   9.012 -1.0937  2.9613 -0.9135
 4018SOL     OW23689   3.468   3.419   3.191 -0.3036  0.0668 -0.1811
 4018SOL    HW123690   3.462   3.488   3.126 -2.8350 -0.9992 -1.0652
 4018SOL    HW223691   3.397   3.367   3.154  0.9382  0.1698 -2.7187
 4019SOL     OW23692   4.410   0.833   6.636  0.3390  0.4757  0.3715
 4019SOL    HW123693   4.393   0.821   6.542  1.0603 -0.6423  0.3766
 4019SOL    HW223694   4.331   0.784   6.660 -0.1062  1.2747  0.5346
 4020SOL     OW23695   2.541   3.422   9.080 -0.2238  0.2782 -0.4580
 4020SOL    HW123696   2.492   3.388   9.154  2.6662 -2.1056  0.3652
 4020SOL    HW223697   2.580   3.499   9.122 -0.8348 -0.8153  2.0849
 4021SOL     OW23698   0.060   3.041   2.224  0.2880  0.0455  0.0168
 4021SOL    HW123699   0.088   3.118   2.175  0.4792 -0.2691 -0.3757
 4021SOL    HW223700   4.708   3.065   2.246 -0.2127 -2.1888  0.4464
 4022SOL     OW23701   4.621   4.212  15.106 -0.1311  0.2120  0.1548
 4022SOL    HW123702   4.594   4.120  15.104  0.1526  0.1332 -0.2238
 4022SOL    HW223703   4.714   4.210  15.130 -0.3275  0.3460  0.8953
 4023SOL     OW23704   3.857   1.130   5.487 -0.2729  0.0605  0.1429
 4023SOL    HW123705   3.859   1.140   5.582 -1.5410  2.6519 -0.1110
 4023SOL    HW223706   3.926   1.065   5.472 -1.9320 -1.2344 -1.7549
 4024SOL     OW23707   3.568   0.791   1.438 -0.0006  0.4743  0.1191
 4024SOL    HW123708   3.645   0.755   1.481 -0.7595  0.0082  1.0995
 4024SOL    HW223709   3.540   0.853   1.505  0.4134 -0.4175  1.1099
 4025SOL     OW23710   1.274   3.797   0.075  0.2532  0.9785 -0.2397
 4025SOL    HW123711   1.183   3.768   0.088  0.6589 -0.3197 -0.3322
 4025SOL    HW223712   1.265   3.885   0.113 -0.5690  0.1154  1.5419
 4026SOL     OW23713   3.629   1.423   4.890  0.5544 -0.2030 -0.0998
 4026SOL    HW123714   3.624   1.384   4.977  1.1100 -0.8206 -0.3544
 4026SOL    HW223715   3.571   1.498   4.905 -0.6368 -0.8195 -1.6627
 4027SOL     OW23716   3.710   2.051   4.947 -0.0756  0.2224  0.0790
 4027SOL    HW123717   3.759   2.123   4.988  0.0595 -0.8388  1.7684
 4027SOL    HW223718   3.650   2.095   4.887  1.1850  0.1512 -1.2278
 4028SOL     OW23719   3.498   4.486   3.868 -0.1315  0.1435 -0.6526
 4028SOL    HW123720   3.553   4.409   3.877  0.3813  0.6168  0.2802
 4028SOL    HW223721   3.433   4.454   3.805 -0.0172 -1.7241  0.2000
 4029SOL     OW23722   1.983   2.775   4.775  0.3292  0.3074  0.0068
 4029SOL    HW123723   1.894   2.749   4.750  0.1425  2.1354 -1.2255
 4029SOL    HW223724   2.009   2.691   4.813 -2.8415 -1.8722 -2.6120
 4030SOL     OW23725   3.197   0.805   2.484  0.3140  0.1736 -0.4658
 4030SOL    HW123726   3.283   0.763   2.475  0.4770  0.2605  0.6690
 4030SOL    HW223727   3.203   0.839   2.573  2.2403 -2.4346  0.4036
 4031SOL     OW23728   4.592   3.010   2.557  0.6079  0.1629 -0.0670
 4031SOL    HW123729   4.606   3.008   2.462 -0.5681  2.3015 -0.2949
 4031SOL    HW223730   4.506   2.973   2.573  0.9651  0.0739  1.6332
 4032SOL     OW23731   0.418   3.081   3.957 -0.4561 -0.6354  0.0367
 4032SOL    HW123732   0.383   3.134   4.029  2.8066  5.3081 -2.6750
 4032SOL    HW223733   0.499   3.048   3.995  0.6299  0.4295 -1.3493
 4033SOL     OW23734   1.419   2.169  17.621 -0.7764  0.1471 -0.0072
 4033SOL    HW123735   1.324   2.169  17.609 -0.9273  3.9507  1.1163
 4033SOL    HW223736   1.460   2.205  17.543 -1.3909  0.3869 -0.2209
 4034SOL     OW23737   2.979   4.065  12.044  0.2337 -0.1734 -0.1315
 4034SOL    HW123738   3.027   4.029  11.969  1.2479 -3.6787  2.2140
 4034SOL    HW223739   2.932   4.140  12.007  2.1753  1.5736  0.9427
 4035SOL     OW23740   0.862   0.831   7.028 -0.2886  0.4330 -0.5719
 4035SOL    HW123741   0.843   0.811   6.937  0.9776 -0.9591 -0.5353
 4035SOL    HW223742   0.785   0.885   7.049 -1.1942 -0.8967 -0.4837
 4036SOL     OW23743   3.269   4.123  16.772  0.0536  0.1795 -0.5069
 4036SOL    HW123744   3.206   4.193  16.790 -1.4947 -1.2900 -0.1172
 4036SOL    HW223745   3.275   4.124  16.677  0.7092 -0.6907 -0.4740
 4037SOL     OW23746   0.600   3.856   4.748  0.6635  0.0557 -0.4577
 4037SOL    HW123747   0.662   3.784   4.765 -0.3202 -0.4650  0.8745
 4037SOL    HW223748   0.519   3.810   4.726  0.8028 -1.2995  1.8476
 4038SOL     OW23749   1.774   1.636   1.157  0.1690  0.0125  0.4968
 4038SOL    HW123750   1.817   1.551   1.161  0.4253  0.1895  1.4040
 4038SOL    HW223751   1.804   1.684   1.234  0.7168 -1.0731  0.9562
 4039SOL     OW23752   2.103   1.802   2.653  0.8271 -0.3118 -0.0076
 4039SOL    HW123753   2.030   1.854   2.621  0.3073 -1.7971 -1.2371
 4039SOL    HW223754   2.154   1.819   2.573  1.2858 -1.3521  0.0507
 4040SOL     OW23755   0.479   3.216   8.460 -0.0860 -0.1744  0.0707
 4040SOL    HW123756   0.548   3.235   8.396  2.2178 -1.8910  2.0399
 4040SOL    HW223757   0.530   3.193   8.538  1.5759  0.7671 -0.7377
 4041SOL     OW23758   0.363   1.502   1.932 -0.4316 -0.2741  0.1111
 4041SOL    HW123759   0.339   1.475   1.843  0.0174 -2.3758  0.6447
 4041SOL    HW223760   0.282   1.487   1.980  0.7371  0.9335  2.4598
 4042SOL     OW23761   1.889   4.321   6.313 -0.5966  0.6306  0.2646
 4042SOL    HW123762   1.955   4.286   6.373 -0.2224  2.0974  0.7111
 4042SOL    HW223763   1.838   4.365   6.381  0.0179  1.1442  0.3969
 4043SOL     OW23764   2.736   4.230   9.637 -0.0483 -0.0655 -0.2753
 4043SOL    HW123765   2.725   4.232   9.732  1.0451  0.0035 -0.1592
 4043SOL    HW223766   2.785   4.310   9.624  0.9320 -0.4616  1.0277
 4044SOL     OW23767   3.991   1.343   5.400 -0.0828  0.4334  0.0941
 4044SOL    HW123768   3.957   1.255   5.419 -0.1975  0.7784  1.5204
 4044SOL    HW223769   3.984   1.352   5.305 -1.1998  0.3990  0.1717
 4045SOL     OW23770   1.662   4.668  10.806  0.0266 -0.0153  0.0233
 4045SOL    HW123771   1.590   4.617  10.770 -1.2172  0.3973  1.9409
 4045SOL    HW223772   1.628   4.674  10.895 -2.2939 -1.1026 -0.8031
 4046SOL     OW23773   4.524   1.389   5.224 -0.2098  0.8852  0.2194
 4046SOL    HW123774   4.516   1.422   5.134  1.9006 -0.7204 -0.5597
 4046SOL    HW223775   4.434   1.388   5.258 -0.3724  1.2801 -0.1941
 4047SOL     OW23776   0.564   1.157   2.767  0.2599 -0.3978  0.2350
 4047SOL    HW123777   0.564   1.230   2.705  1.8600 -0.6619 -0.0754
 4047SOL    HW223778   0.495   1.193   2.822  2.0639  0.1502  2.1485
 4048SOL     OW23779   4.561   2.191   5.434 -0.1969  0.2109  0.2282
 4048SOL    HW123780   4.524   2.129   5.497  0.1364 -0.3981 -0.1733
 4048SOL    HW223781   4.610   2.129   5.380  2.6507  1.4504  1.4069
 4049SOL     OW23782   0.098   4.152  11.021 -0.0183 -0.0890  0.6807
 4049SOL    HW123783   0.077   4.058  11.026  0.4164 -0.1792  0.8351
 4049SOL    HW223784   0.100   4.168  11.115 -1.2319 -0.6264  0.7963
 4050SOL     OW23785   2.427   2.107   8.481  0.8507  0.0524 -0.0735
 4050SOL    HW123786   2.336   2.093   8.508  0.4691  1.5063 -0.5905
 4050SOL    HW223787   2.412   2.073   8.393 -0.8516  0.5028  0.0280
 4051SOL     OW23788   1.282   4.440  14.037 -0.0243 -0.3765  0.5396
 4051SOL    HW123789   1.228   4.361  14.041  0.1749 -0.5934 -0.8915
 4051SOL    HW223790   1.224   4.510  14.067  0.0044  0.7213 -2.0240
 4052SOL     OW23791   1.059   0.307   2.436  0.4001  0.4135 -0.0406
 4052SOL    HW123792   1.012   0.234   2.398  0.9569  0.0484 -0.0312
 4052SOL    HW223793   0.991   0.334   2.497  0.3071  1.2927 -0.5329
 4053SOL     OW23794   1.466   2.264   6.896 -0.0575  0.0574 -0.0717
 4053SOL    HW123795   1.385   2.243   6.850  1.0652 -0.4506 -1.8115
 4053SOL    HW223796   1.464   2.195   6.962 -1.3124 -1.2873 -1.5236
 4054SOL     OW23797   1.469   2.305  12.431  0.5301 -0.5284  0.0026
 4054SOL    HW123798   1.473   2.395  12.399 -1.7293 -0.8664 -1.2325
 4054SOL    HW223799   1.516   2.316  12.513  1.4046  2.9705 -0.9969
 4055SOL     OW23800   4.629   3.905  14.846 -0.3699  0.3202  0.0985
 4055SOL    HW123801   4.610   3.920  14.939  0.0987 -1.7592  0.5197
 4055SOL    HW223802   4.570   3.830  14.835  0.7611 -0.5631  0.1171
 4056SOL     OW23803   2.573   4.207  12.829  0.1249 -0.1231  0.1704
 4056SOL    HW123804   2.523   4.218  12.910 -0.3402 -0.2533 -0.1036
 4056SOL    HW223805   2.633   4.282  12.833  0.2920 -0.2817  0.6822
 4057SOL     OW23806   2.605   0.735  15.167  0.2953  0.7144 -0.1298
 4057SOL    HW123807   2.559   0.705  15.245 -1.7384 -1.0754 -2.0146
 4057SOL    HW223808   2.692   0.704  15.193 -0.9336 -2.6125 -0.0021
 4058SOL     OW23809   1.219   0.173   0.824  0.4654 -0.3229  0.0795
 4058SOL    HW123810   1.285   0.120   0.779 -0.9997 -1.5649 -0.5905
 4058SOL    HW223811   1.223   0.248   0.765  1.0262  0.7604  1.4808
 4059SOL     OW23812   3.984   1.418   7.415 -0.3884 -0.3039 -0.1371
 4059SOL    HW123813   4.073   1.417   7.381 -0.2661  0.2456  0.1759
 4059SOL    HW223814   3.999   1.408   7.509 -1.0359 -1.4397 -0.1509
 4060SOL     OW23815   4.503   1.830   6.074  0.2127  0.2644 -0.4889
 4060SOL    HW123816   4.505   1.772   5.998 -0.1656  0.6444 -0.7874
 4060SOL    HW223817   4.457   1.906   6.039 -1.0537 -1.1147 -1.8361
 4061SOL     OW23818   3.246   3.887  15.840 -0.5251 -0.7152 -0.9058
 4061SOL    HW123819   3.219   3.960  15.784  1.4658  1.7402  1.2901
 4061SOL    HW223820   3.328   3.925  15.871 -1.9649  1.7876 -0.1828
 4062SOL     OW23821   2.667   0.866   3.028  0.0101  0.5925 -0.4742
 4062SOL    HW123822   2.734   0.804   3.057  0.2350  1.6534  1.2516
 4062SOL    HW223823   2.630   0.902   3.108 -0.2609 -0.8731  0.0704
 4063SOL     OW23824   2.940   0.604  17.135  0.3454 -0.2734  0.7127
 4063SOL    HW123825   2.885   0.673  17.170  1.6395  0.2847  1.6408
 4063SOL    HW223826   2.879   0.542  17.095 -0.9629  0.7505  1.1426
 4064SOL     OW23827   0.678   2.019   6.132  0.4560  0.1832  0.0686
 4064SOL    HW123828   0.657   2.111   6.114  0.2203 -0.0972 -1.0843
 4064SOL    HW223829   0.764   2.031   6.173  0.3414  1.2091  0.0127
 4065SOL     OW23830   2.440   0.671   5.414 -0.1972 -0.0050  0.2602
 4065SOL    HW123831   2.361   0.638   5.371 -0.2508  1.1657 -0.5586
 4065SOL    HW223832   2.413   0.763   5.420  0.0712  0.1009 -0.1827
 4066SOL     OW23833   0.860   1.767  17.239  0.1605 -0.4864  0.4036
 4066SOL    HW123834   0.904   1.708  17.300  1.0768  0.1242  0.3370
 4066SOL    HW223835   0.833   1.708  17.169  0.6941 -0.2927  0.0360
 4067SOL     OW23836   3.287   1.882   1.743  0.7073 -0.0416  0.5532
 4067SOL    HW123837   3.224   1.832   1.691  0.7784  0.6033 -0.1539
 4067SOL    HW223838   3.265   1.846   1.829  0.7878 -1.3624  0.0208
 4068SOL     OW23839   1.368   2.786   8.404  0.2010  0.2525 -0.3255
 4068SOL    HW123840   1.376   2.714   8.343 -1.7292  1.0864 -1.5704
 4068SOL    HW223841   1.346   2.859   8.346  3.3287  0.3761 -1.3189
 4069SOL     OW23842   0.182   4.699  12.264  0.1465 -0.1983 -0.0039
 4069SOL    HW123843   0.225   4.640  12.326  1.3807 -1.4080 -2.0107
 4069SOL    HW223844   0.097   4.713  12.306  0.2223  0.3038 -0.0277
 4070SOL     OW23845   2.430   2.936   7.337 -0.3212  0.2210 -0.3884
 4070SOL    HW123846   2.371   3.005   7.305 -0.6250  0.5032  0.8059
 4070SOL    HW223847   2.393   2.859   7.293 -0.2276 -0.0335 -0.0121
 4071SOL     OW23848   0.589   2.974   5.050  0.2379 -0.3292 -0.2114
 4071SOL    HW123849   0.648   2.967   4.974 -0.3332  0.3751 -0.7086
 4071SOL    HW223850   0.595   2.884   5.085  0.9613  0.0369  0.6089
 4072SOL     OW23851   1.537   2.266   6.056 -0.5309 -0.3389  0.1008
 4072SOL    HW123852   1.547   2.260   6.151 -0.3193 -0.6205  0.0572
 4072SOL    HW223853   1.624   2.233   6.038 -0.2827  0.4849 -0.2177
 4073SOL     OW23854   0.485   4.397   1.906  0.2360 -0.7397  0.4456
 4073SOL    HW123855   0.515   4.370   1.992 -0.6244 -1.1807  0.6067
 4073SOL    HW223856   0.437   4.478   1.923  1.6588  0.2554 -0.1842
 4074SOL     OW23857   1.968   0.160  11.246  0.3431 -0.7374  0.0623
 4074SOL    HW123858   1.945   0.090  11.308 -1.1695  0.7032  1.1266
 4074SOL    HW223859   2.039   0.117  11.199  2.0533  0.4925  1.5479
 4075SOL     OW23860   0.230   2.307   4.707  0.0931 -0.3707  0.4600
 4075SOL    HW123861   0.135   2.306   4.715  0.0338  1.3391 -0.0768
 4075SOL    HW223862   0.253   2.367   4.636  0.7462  0.0437  1.0197
 4076SOL     OW23863   3.451   0.071  10.944 -0.2551  0.0102 -0.3999
 4076SOL    HW123864   3.544   0.059  10.965 -0.2781  0.5003 -0.0048
 4076SOL    HW223865   3.441   0.161  10.976  1.0958 -0.5352  1.5909
 4077SOL     OW23866   3.394   3.114   4.631 -0.1214 -0.4930  0.0467
 4077SOL    HW123867   3.373   3.092   4.722 -0.9955 -1.5511 -0.4084
 4077SOL    HW223868   3.476   3.160   4.647 -1.4195  2.4084 -1.7121
 4078SOL     OW23869   4.615   3.569  10.083 -0.1301  0.3288  0.0244
 4078SOL    HW123870   4.598   3.645  10.139  0.9481  0.1931  0.5424
 4078SOL    HW223871   4.683   3.547  10.147 -1.9037  0.6677  2.0531
 4079SOL     OW23872   0.031   3.860   2.390 -0.4666  0.0589  0.2849
 4079SOL    HW123873   4.690   3.914   2.381 -1.3545 -1.2390  0.2523
 4079SOL    HW223874   0.057   3.851   2.298 -0.1247  1.5125  0.2384
 4080SOL     OW23875   2.704   3.455  13.632 -0.3412 -0.1495  0.1408
 4080SOL    HW123876   2.664   3.442  13.717  2.9466 -1.0056  1.5461
 4080SOL    HW223877   2.787   3.409  13.645  1.7972  2.7691 -3.1063
 4081SOL     OW23878   2.972   1.341   7.502  0.5659  0.4902  0.2410
 4081SOL    HW123879   2.936   1.428   7.520  1.2249  1.0877 -1.2677
 4081SOL    HW223880   3.037   1.345   7.573  0.4212  0.0648  0.3951
 4082SOL     OW23881   2.043   0.200   4.500 -0.2998 -0.7466 -0.1498
 4082SOL    HW123882   2.132   0.170   4.518  0.6382  1.7485 -0.5597
 4082SOL    HW223883   1.992   0.160   4.571 -0.3275 -0.5349 -0.0470
 4083SOL     OW23884   4.562   4.235   5.131  0.3346  0.2450  0.3864
 4083SOL    HW123885   4.595   4.240   5.041 -0.8383 -2.4064 -0.1915
 4083SOL    HW223886   4.556   4.328   5.153  0.1231  0.6407 -1.3345
 4084SOL     OW23887   0.153   2.435   3.909  0.3661 -0.4418 -0.1550
 4084SOL    HW123888   0.164   2.502   3.977  1.0900 -0.1572 -0.5591
 4084SOL    HW223889   0.079   2.394   3.955  2.4702 -0.6617  3.0477
 4085SOL     OW23890   0.025   0.718  10.216  0.0668 -0.3919  0.1860
 4085SOL    HW123891   0.057   0.803  10.247  1.7597 -0.6318 -0.9387
 4085SOL    HW223892   0.094   0.652  10.216  0.4815  0.0548 -1.2990
 4086SOL     OW23893   2.652   3.296   3.352  0.1286  0.0330  0.2557
 4086SOL    HW123894   2.609   3.226   3.402  1.0103 -0.4709  0.3146
 4086SOL    HW223895   2.611   3.281   3.266  0.7840  0.1796 -0.0836
 4087SOL     OW23896   4.623   1.890   9.825  0.1786  0.0524  0.7008
 4087SOL    HW123897   4.674   1.969   9.844  0.8630 -0.1446 -0.3250
 4087SOL    HW223898   4.571   1.884   9.905 -0.2691  3.1359  0.6563
 4088SOL     OW23899   4.467   1.467   3.373  0.1098 -0.3030  0.0083
 4088SOL    HW123900   4.503   1.403   3.435  1.9366 -0.5837 -1.3109
 4088SOL    HW223901   4.453   1.543   3.429 -3.4021 -0.6120 -0.4723
 4089SOL     OW23902   0.315   1.355  16.664 -0.0953 -0.4385  0.0030
 4089SOL    HW123903   0.221   1.343  16.678 -0.1345 -1.4339 -1.0426
 4089SOL    HW223904   0.340   1.408  16.740 -2.9636  2.4214 -1.0721
 4090SOL     OW23905   3.610   1.714   9.446 -0.1900  0.4274 -0.5554
 4090SOL    HW123906   3.698   1.708   9.408 -1.5645 -0.6139 -3.6046
 4090SOL    HW223907   3.633   1.664   9.524  0.7028  1.6372 -0.0340
 4091SOL     OW23908   0.487   0.767   9.532  0.0339  0.3569 -0.9552
 4091SOL    HW123909   0.473   0.775   9.437 -1.2565 -0.6858 -0.8505
 4091SOL    HW223910   0.397   0.790   9.556  0.4138  1.4064 -0.5433
 4092SOL     OW23911   4.591   0.468  11.708 -0.2508  0.2714  0.0388
 4092SOL    HW123912   4.539   0.470  11.627  1.3924  1.3606 -0.9804
 4092SOL    HW223913   4.535   0.416  11.766  0.2063 -0.3525 -0.0807
 4093SOL     OW23914   3.925   3.525   3.284  0.2506 -0.3896 -0.4705
 4093SOL    HW123915   3.991   3.593   3.299  0.4511 -0.4473 -1.0786
 4093SOL    HW223916   3.871   3.538   3.362  0.7845 -0.1104 -0.1525
 4094SOL     OW23917   2.297   1.493   6.187  0.7221 -0.5960  0.3145
 4094SOL    HW123918   2.250   1.570   6.155 -0.7550 -1.7837 -0.4047
 4094SOL    HW223919   2.260   1.475   6.274  0.4148  1.1583  0.5628
 4095SOL     OW23920   2.480   4.163   2.273 -0.0127 -0.1269 -0.5622
 4095SOL    HW123921   2.463   4.146   2.366 -0.6221  0.7125 -0.5238
 4095SOL    HW223922   2.575   4.162   2.270 -0.0032  1.1768 -0.3464
 4096SOL     OW23923   3.126   0.699   1.976  0.5851  0.3509 -0.1656
 4096SOL    HW123924   3.067   0.749   2.032 -0.1493 -0.4012 -0.2749
 4096SOL    HW223925   3.073   0.623   1.951  0.2822  0.7205 -0.6415
 4097SOL     OW23926   0.645   2.588   0.985  0.0883 -0.1182  0.3839
 4097SOL    HW123927   0.576   2.649   1.011  0.8894  1.3469 -0.8645
 4097SOL    HW223928   0.595   2.511   0.960 -1.2738  0.3541  1.6829
 4098SOL     OW23929   3.773   3.336   4.109 -0.2430  0.3328  0.2878
 4098SOL    HW123930   3.712   3.360   4.040 -0.1644  1.4859  0.6285
 4098SOL    HW223931   3.705   3.307   4.170  0.4672  0.1388  0.9974
 4099SOL     OW23932   1.118   0.553   4.067 -0.1399 -0.7385  0.3160
 4099SOL    HW123933   1.037   0.571   4.115 -0.8385 -1.9488 -0.4229
 4099SOL    HW223934   1.161   0.639   4.066  1.1810 -1.4064  0.7373
 4100SOL     OW23935   0.715   2.617  12.176 -0.5094  0.0353 -0.2538
 4100SOL    HW123936   0.765   2.694  12.149 -1.3637  0.9505  0.8093
 4100SOL    HW223937   0.745   2.604  12.267 -1.1817  0.4971  0.0308
 4101SOL     OW23938   4.292   3.985   7.712 -0.5128  0.0030 -0.1558
 4101SOL    HW123939   4.261   3.898   7.738  1.2990 -0.4227  0.5477
 4101SOL    HW223940   4.379   3.970   7.747 -0.9490  1.1813  1.4381
 4102SOL     OW23941   2.355   1.642   3.013 -0.1568 -0.5414 -0.0301
 4102SOL    HW123942   2.338   1.558   3.055 -1.2761  0.4538  1.5082
 4102SOL    HW223943   2.268   1.650   2.975 -0.2601  0.2196  0.3769
 4103SOL     OW23944   2.040   2.174  11.924  0.0156 -0.0110  0.1396
 4103SOL    HW123945   2.100   2.133  11.861  0.0490 -0.1582  0.2704
 4103SOL    HW223946   2.040   2.116  12.000 -1.0136 -0.6277 -0.3267
 4104SOL     OW23947   2.393   0.229  15.837 -0.0873 -0.3867  0.6807
 4104SOL    HW123948   2.373   0.298  15.900  2.2040 -0.8928  1.9540
 4104SOL    HW223949   2.307   0.188  15.824 -0.5484  0.5266  0.8386
 4105SOL     OW23950   2.555   2.985   6.643  0.1852 -0.1763  0.2573
 4105SOL    HW123951   2.535   3.000   6.551 -1.4654 -4.1978 -0.0065
 4105SOL    HW223952   2.600   2.900   6.642  2.4718  1.0349 -1.6593
 4106SOL     OW23953   3.929   3.341   4.855 -0.7714  0.4027  0.3229
 4106SOL    HW123954   3.879   3.420   4.874 -0.9242  0.0699  1.3496
 4106SOL    HW223955   3.983   3.368   4.781 -0.3195  2.0337  1.2612
 4107SOL     OW23956   0.339   2.038   9.829 -0.5299  0.7430 -0.6804
 4107SOL    HW123957   0.411   2.043   9.892 -0.1995 -0.5351 -0.9601
 4107SOL    HW223958   0.275   1.985   9.879 -1.0123  1.1435 -0.8708
 4108SOL     OW23959   0.303   1.842   6.050 -0.3131  0.4347  0.5331
 4108SOL    HW123960   0.218   1.810   6.021  1.6200 -3.8259 -0.4110
 4108SOL    HW223961   0.283   1.908   6.117  0.4792  1.0574  0.1576
 4109SOL     OW23962   3.107   0.552  10.785 -0.4653  0.0508 -0.0674
 4109SOL    HW123963   3.173   0.484  10.798 -0.7231 -0.1236  0.3122
 4109SOL    HW223964   3.134   0.613  10.853 -1.9310  0.4430  0.1656
 4110SOL     OW23965   2.151   1.467   6.672 -0.5465 -0.1281 -0.3048
 4110SOL    HW123966   2.088   1.403   6.706 -1.8447  0.7521 -1.0496
 4110SOL    HW223967   2.227   1.419   6.705 -1.4935 -2.1411 -1.0144
 4111SOL     OW23968   3.444   2.136   8.367 -0.0850  0.0033 -0.2527
 4111SOL    HW123969   3.502   2.208   8.393 -0.4699  0.9510 -2.0449
 4111SOL    HW223970   3.493   2.095   8.296 -0.0915  0.6036 -0.6062
 4112SOL     OW23971   1.912   3.570  14.863 -0.4771  0.1646  0.3525
 4112SOL    HW123972   1.871   3.493  14.824  2.3119 -2.2826  2.2378
 4112SOL    HW223973   1.824   3.605  14.876 -0.4412  0.3378  0.1382
 4113SOL     OW23974   1.685   3.278   5.158  0.5719 -0.6057  0.1063
 4113SOL    HW123975   1.597   3.263   5.192  0.6398 -0.3891  0.3804
 4113SOL    HW223976   1.669   3.310   5.069  1.1947  2.4598  1.0858
 4114SOL     OW23977   0.032   4.103   1.417 -0.4524 -0.3512 -0.3497
 4114SOL    HW123978   4.700   4.049   1.380  0.4275 -1.7311  0.0338
 4114SOL    HW223979   0.091   4.105   1.342  1.6574  0.0909  1.3215
 4115SOL     OW23980   2.112   0.680   1.413  0.2625  0.3507  0.1788
 4115SOL    HW123981   2.049   0.623   1.458  2.2352 -0.3055  2.0859
 4115SOL    HW223982   2.196   0.648   1.444  0.2439 -0.1969 -0.3463
 4116SOL     OW23983   2.061   3.604   0.891  0.3927  0.5779 -0.4852
 4116SOL    HW123984   2.092   3.566   0.809 -0.3985  0.9755 -0.9710
 4116SOL    HW223985   2.019   3.679   0.849  0.0772  1.0647  0.7000
 4117SOL     OW23986   0.738   2.700   6.644 -0.9377 -0.0397 -0.1396
 4117SOL    HW123987   0.654   2.731   6.612 -1.0304 -1.0875 -0.9102
 4117SOL    HW223988   0.716   2.608   6.654 -3.9794  0.7823  0.6651
 4118SOL     OW23989   1.704   2.071   2.449 -0.6793 -0.2050  0.4552
 4118SOL    HW123990   1.660   2.154   2.465  0.9992  1.0087 -1.1160
 4118SOL    HW223991   1.682   2.041   2.361  2.4723  1.2162 -0.8046
 4119SOL     OW23992   4.532   0.721  11.486 -0.2364 -0.0607 -0.2881
 4119SOL    HW123993   4.512   0.748  11.397  2.2186 -1.3010 -1.2464
 4119SOL    HW223994   4.501   0.630  11.483  1.0539 -0.5778  1.2783
 4120SOL     OW23995   1.825   1.741   1.887 -0.4647  0.0412  0.3693
 4120SOL    HW123996   1.880   1.778   1.956  1.3793  0.9194 -1.5824
 4120SOL    HW223997   1.869   1.760   1.804  3.7277 -0.9925  2.3761
 4121SOL     OW23998   0.579   1.374   6.625 -0.5909  0.1384  0.1444
 4121SOL    HW123999   0.626   1.370   6.542  2.5345 -0.6442  1.9389
 4121SOL    HW224000   0.500   1.325   6.603 -1.1151 -0.0374  2.3364
 4122SOL     OW24001   0.146   2.368  15.343  0.1919 -0.4482  0.0547
 4122SOL    HW124002   0.149   2.273  15.333 -2.5782 -0.4851 -0.2732
 4122SOL    HW224003   0.215   2.371  15.409 -0.6524 -0.6614  0.9346
 4123SOL     OW24004   1.755   2.510   1.801  0.0625  0.2520  0.3011
 4123SOL    HW124005   1.689   2.440   1.806  0.2278  0.1165  0.6101
 4123SOL    HW224006   1.690   2.579   1.817 -1.2326 -0.8961  0.0829
 4124SOL     OW24007   3.666   4.529  17.410 -0.1859  0.2447 -0.0248
 4124SOL    HW124008   3.629   4.476  17.340 -1.0722 -0.6041  1.0779
 4124SOL    HW224009   3.674   4.616  17.372  1.6091 -0.4401 -1.1736
 4125SOL     OW24010   3.198   1.701  16.328 -0.6241 -0.1118  0.6228
 4125SOL    HW124011   3.208   1.732  16.418 -0.6603  0.8485  0.2885
 4125SOL    HW224012   3.242   1.616  16.331  1.4624  1.0100  1.8995
 4126SOL     OW24013   1.950   2.359   6.651 -0.3987 -0.3769  0.1633
 4126SOL    HW124014   1.957   2.325   6.561 -0.6283  1.3058 -0.4919
 4126SOL    HW224015   1.931   2.275   6.691 -1.8713  0.3354  0.9427
 4127SOL     OW24016   2.402   3.999   9.019  0.5426  0.0860 -0.0696
 4127SOL    HW124017   2.496   3.987   9.006  0.5341  1.1512 -1.1162
 4127SOL    HW224018   2.381   4.062   8.950  2.0133 -0.7634 -1.2932
 4128SOL     OW24019   2.519   0.378   4.184  0.0476 -0.1547  0.7295
 4128SOL    HW124020   2.432   0.340   4.168  0.3545 -0.3581 -0.5025
 4128SOL    HW224021   2.532   0.353   4.275 -1.2919  2.5769  1.6509
 4129SOL     OW24022   3.339   0.051  13.307 -0.0440  0.0244 -0.3154
 4129SOL    HW124023   3.327   4.693  13.306 -0.2143  0.0317  0.4993
 4129SOL    HW224024   3.250   0.083  13.296  0.3723  1.6731  1.0813
 4130SOL     OW24025   0.943   1.310   5.734 -0.2390  1.0588  0.1901
 4130SOL    HW124026   0.903   1.245   5.675  3.3684  0.6898 -1.8650
 4130SOL    HW224027   0.877   1.379   5.724 -2.1737 -0.6859  0.9413
 4131SOL     OW24028   1.074   0.171   5.766 -0.0125  0.0474  0.3324
 4131SOL    HW124029   1.041   0.181   5.856  0.0769 -1.0809  0.4946
 4131SOL    HW224030   1.089   0.076   5.772  0.9175  0.2014  0.5817
 4132SOL     OW24031   2.858   2.871   1.604  0.1047 -0.4753 -0.1362
 4132SOL    HW124032   2.885   2.788   1.644 -0.1676  0.8228  2.7467
 4132SOL    HW224033   2.774   2.845   1.566  0.3325 -0.1203 -0.8801
 4133SOL     OW24034   1.912   3.591   1.330 -0.4616 -0.8234  0.7430
 4133SOL    HW124035   1.858   3.569   1.254 -0.4032 -0.0903  0.4893
 4133SOL    HW224036   1.886   3.513   1.379  0.0476  0.8880  3.7225
 4134SOL     OW24037   0.402   1.321   3.395 -0.7297 -0.4206  0.3569
 4134SOL    HW124038   0.407   1.400   3.448 -0.0994 -0.6711  0.6703
 4134SOL    HW224039   0.481   1.287   3.437 -0.0790 -1.3249 -1.5764
 4135SOL     OW24040   2.333   0.050   2.279  0.4639  0.4423  0.4340
 4135SOL    HW124041   2.416   0.003   2.269  0.6120  1.0381 -1.0947
 4135SOL    HW224042   2.332   0.110   2.204 -0.8212 -0.3694 -0.1988
 4136SOL     OW24043   1.865   3.314   1.947  0.1587  0.2605 -0.6154
 4136SOL    HW124044   1.877   3.235   1.893  2.0522 -0.0068  0.1771
 4136SOL    HW224045   1.817   3.372   1.888 -0.1552 -1.2069 -1.7891
 4137SOL     OW24046   1.385   1.205  15.862  0.0689 -0.1573  0.6148
 4137SOL    HW124047   1.341   1.129  15.823  0.7220  0.3517 -1.1143
 4137SOL    HW224048   1.359   1.200  15.954  1.2469 -0.3471  0.9325
 4138SOL     OW24049   1.998   4.664   8.925 -0.1592  0.2249 -1.1329
 4138SOL    HW124050   1.958   4.657   9.012  2.8083 -1.5870  0.0986
 4138SOL    HW224051   2.051   0.006   8.933 -0.1949 -0.2547  3.9628
 4139SOL     OW24052   3.728   4.193   2.637 -0.6620 -0.1659 -0.1489
 4139SOL    HW124053   3.813   4.182   2.680 -0.9373  0.1768  0.4906
 4139SOL    HW224054   3.744   4.286   2.622 -0.0521 -0.2757 -0.1873
 4140SOL     OW24055   2.791   0.571   9.019  0.3535 -0.1971 -0.0851
 4140SOL    HW124056   2.798   0.640   8.954 -1.2055  0.1135  0.0750
 4140SOL    HW224057   2.867   0.520   8.992  0.8351  0.9157 -0.8150
 4141SOL     OW24058   4.294   2.887   8.969 -0.4738  0.1283  0.2144
 4141SOL    HW124059   4.348   2.964   8.953  0.1993 -0.6609 -1.3289
 4141SOL    HW224060   4.256   2.874   8.882 -1.0126  0.9380  0.3306
 4142SOL     OW24061   0.161   3.686  11.866 -0.3280  0.0678  0.1771
 4142SOL    HW124062   0.139   3.701  11.958  0.8569  3.4731 -0.0973
 4142SOL    HW224063   0.232   3.746  11.845 -0.2696 -0.5278 -1.3019
 4143SOL     OW24064   0.430   1.104   7.748 -0.3445 -0.1544 -0.4791
 4143SOL    HW124065   0.426   1.035   7.814  0.5183  0.3083  0.0560
 4143SOL    HW224066   0.466   1.174   7.802 -0.3575 -0.8825  0.4608
 4144SOL     OW24067   2.540   3.801  17.212 -0.0841 -0.6059 -0.2881
 4144SOL    HW124068   2.542   3.724  17.156  2.7781 -2.0652  1.8168
 4144SOL    HW224069   2.604   3.774  17.278 -0.3116  1.5537  0.8412
 4145SOL     OW24070   1.151   1.982   7.696  0.1671 -0.6831  0.6953
 4145SOL    HW124071   1.056   1.982   7.689  0.2302 -2.2454 -0.1470
 4145SOL    HW224072   1.178   1.935   7.775 -2.2990 -0.5321  1.6299
 4146SOL     OW24073   1.699   2.171   3.226 -0.1468 -0.3526  0.1641
 4146SOL    HW124074   1.694   2.263   3.254  1.3031  0.1335 -1.1808
 4146SOL    HW224075   1.608   2.174   3.194 -0.0735  1.7043  0.0998
 4147SOL     OW24076   1.317   0.943   5.352 -0.1053 -0.1793 -0.3270
 4147SOL    HW124077   1.261   0.883   5.403  0.3254 -1.0227 -0.8495
 4147SOL    HW224078   1.402   0.899   5.359 -0.9382 -1.8959 -0.8985
 4148SOL     OW24079   4.088   1.241   4.642  0.1637 -0.0086 -0.0104
 4148SOL    HW124080   4.021   1.275   4.701 -0.5603 -0.3473 -0.6512
 4148SOL    HW224081   4.053   1.154   4.626 -2.8280  0.7202  2.5749
 4149SOL     OW24082   0.847   4.351   4.313 -0.2289 -0.4038  0.5025
 4149SOL    HW124083   0.914   4.330   4.248  1.3976  0.7302  1.7836
 4149SOL    HW224084   0.810   4.434   4.283  0.0597 -0.2243  0.6338
 4150SOL     OW24085   1.295   4.571   8.948 -0.1781 -0.0421 -0.5578
 4150SOL    HW124086   1.388   4.586   8.968 -0.0333 -1.5022 -0.1744
 4150SOL    HW224087   1.308   4.517   8.870 -1.2911 -1.6483  0.3835
 4151SOL     OW24088   2.901   2.159   5.538 -0.5399  0.0394  0.0674
 4151SOL    HW124089   2.926   2.070   5.516 -1.0597  0.2688 -1.4705
 4151SOL    HW224090   2.964   2.166   5.610 -0.5419 -1.7160  0.2313
 4152SOL     OW24091   1.050   1.540  12.779 -0.1538  0.1815  0.6142
 4152SOL    HW124092   1.130   1.492  12.800 -0.6103  0.3968  2.8431
 4152SOL    HW224093   0.996   1.522  12.856 -0.8887 -1.2158 -0.2375
 4153SOL     OW24094   1.465   0.182   8.967  0.1799 -0.0585  0.3485
 4153SOL    HW124095   1.450   0.236   8.889 -0.0906  2.2135  1.9711
 4153SOL    HW224096   1.528   0.116   8.936 -1.2538 -0.6953 -1.2528
 4154SOL     OW24097   3.819   2.513   3.014  0.0635 -0.3070  0.3376
 4154SOL    HW124098   3.748   2.574   3.033  1.8723  2.0422 -0.4346
 4154SOL    HW224099   3.776   2.439   2.972  0.1385  0.7671 -1.6412
 4155SOL     OW24100   2.932   3.363   2.047  0.6070  0.0590 -0.3069
 4155SOL    HW124101   2.977   3.286   2.083  1.5739  0.3986 -0.7636
 4155SOL    HW224102   2.865   3.374   2.114 -1.7884 -2.5527 -2.2918
 4156SOL     OW24103   3.971   0.097   8.289  1.0783 -0.0842 -0.0310
 4156SOL    HW124104   4.041   0.034   8.271 -0.2814 -1.6805  0.2758
 4156SOL    HW224105   3.899   0.062   8.236  1.3334 -0.8574  0.1285
 4157SOL     OW24106   0.566   2.333   0.973 -0.1740 -0.2019 -0.8009
 4157SOL    HW124107   0.489   2.332   1.029 -0.3035 -2.0204 -1.0244
 4157SOL    HW224108   0.595   2.242   0.981  1.3902  0.1847 -1.9559
 4158SOL     OW24109   0.091   3.915   9.954  0.0482 -0.9317  0.1271
 4158SOL    HW124110   0.008   3.957   9.930  0.2539  0.1583  1.3190
 4158SOL    HW224111   0.093   3.939  10.047  1.4024  1.1126 -0.4408
 4159SOL     OW24112   4.468   2.757   3.041  0.1951 -0.1905 -0.1470
 4159SOL    HW124113   4.546   2.795   3.000  0.5203 -1.5915 -0.8279
 4159SOL    HW224114   4.419   2.835   3.065 -1.9527 -1.2466 -1.1826
 4160SOL     OW24115   0.857   0.833   3.190 -0.3928 -0.1172 -0.4743
 4160SOL    HW124116   0.776   0.802   3.151 -0.5341  0.7159 -0.8301
 4160SOL    HW224117   0.906   0.750   3.189  0.0210  0.1323 -0.6938
 4161SOL     OW24118   0.959   2.305   7.519  0.6190 -0.1165 -0.1137
 4161SOL    HW124119   0.955   2.317   7.614  1.3764 -0.6590 -0.0106
 4161SOL    HW224120   1.052   2.325   7.507 -0.4301  3.7116 -1.7339
 4162SOL     OW24121   0.773   1.226   4.843  0.5992  0.3593  0.3754
 4162SOL    HW124122   0.819   1.144   4.823 -0.0743  0.0779 -0.0561
 4162SOL    HW224123   0.832   1.256   4.912  0.7065  1.3905 -0.1698
 4163SOL     OW24124   2.848   0.878   9.746  0.0096  0.1806 -0.1083
 4163SOL    HW124125   2.885   0.854   9.661  1.7335  1.4818  0.2672
 4163SOL    HW224126   2.917   0.931   9.785 -2.1226  0.8481  2.7674
 4164SOL     OW24127   3.013   0.794   3.468  0.2533 -0.3085  0.6059
 4164SOL    HW124128   2.980   0.722   3.522  0.5684 -0.6935  0.2852
 4164SOL    HW224129   3.109   0.792   3.471  0.3795  2.9345 -1.3050
 4165SOL     OW24130   0.472   4.692  13.338 -0.0845  0.2023  0.0361
 4165SOL    HW124131   0.416   4.690  13.415  4.9990  0.2896  3.6668
 4165SOL    HW224132   0.417   4.637  13.281  1.3484 -0.8845 -0.3092
 4166SOL     OW24133   3.394   2.954   2.750 -0.3971 -0.1318  0.7817
 4166SOL    HW124134   3.299   2.966   2.756 -0.7150 -1.4403 -1.6437
 4166SOL    HW224135   3.405   2.890   2.820 -1.9343 -0.6289  0.5649
 4167SOL     OW24136   2.058   3.583  11.665 -0.4057  0.2178 -0.4407
 4167SOL    HW124137   2.094   3.495  11.668  2.2791  1.3610  0.2049
 4167SOL    HW224138   2.049   3.598  11.759  1.3816 -1.4406 -0.0143
 4168SOL     OW24139   4.108   0.701   2.063  0.4411 -0.3706  0.1827
 4168SOL    HW124140   4.138   0.760   1.994 -2.5096 -0.7895 -1.4318
 4168SOL    HW224141   4.186   0.665   2.106  0.1886  0.4040  1.2867
 4169SOL     OW24142   1.473   2.996   7.910  0.9170  0.2369  0.6637
 4169SOL    HW124143   1.391   3.006   7.862 -0.4377  0.7078  3.0430
 4169SOL    HW224144   1.528   2.967   7.838 -0.2957  0.0812 -0.2019
 4170SOL     OW24145   4.241   4.477   1.881 -0.0761  0.0766 -0.4980
 4170SOL    HW124146   4.292   4.516   1.810 -0.1350  0.2303 -0.4540
 4170SOL    HW224147   4.152   4.482   1.847  0.9549  0.2323 -3.2385
 4171SOL     OW24148   4.615   3.897   4.689  0.2404  0.0379 -0.3546
 4171SOL    HW124149   4.620   3.903   4.593  0.6115  0.8545 -0.2882
 4171SOL    HW224150   4.654   3.811   4.702  0.1424 -0.0259 -0.4755
 4172SOL     OW24151   1.795   0.685   4.116 -0.3696  0.1309  0.0239
 4172SOL    HW124152   1.872   0.737   4.138 -0.4137  0.1846  0.0520
 4172SOL    HW224153   1.728   0.713   4.178 -0.4729 -0.2014  0.0634
 4173SOL     OW24154   4.598   0.065  13.710  0.8222 -0.0067  0.2333
 4173SOL    HW124155   4.632   0.154  13.712  1.3497 -0.1306 -3.8323
 4173SOL    HW224156   4.522   0.086  13.656  0.6574  2.3910  1.3844
 4174SOL     OW24157   3.262   2.439   8.016 -0.2150 -0.4081 -0.0241
 4174SOL    HW124158   3.295   2.521   7.979 -0.8407  0.2493  0.8824
 4174SOL    HW224159   3.243   2.462   8.107 -2.5817  0.0713 -0.6507
 4175SOL     OW24160   1.285   3.919   4.376 -0.1488  0.0411 -0.2089
 4175SOL    HW124161   1.341   3.996   4.371  2.0084 -1.4219  1.8581
 4175SOL    HW224162   1.200   3.951   4.407 -0.6775 -0.4346 -1.1537
 4176SOL     OW24163   2.353   0.301   8.992 -0.3399 -0.6857  0.4650
 4176SOL    HW124164   2.445   0.303   9.020 -0.1030 -1.5317 -0.2260
 4176SOL    HW224165   2.337   0.392   8.968  3.0529  0.2452  1.7440
 4177SOL     OW24166   0.721   0.509  13.359  0.4225  0.0640 -0.3952
 4177SOL    HW124167   0.731   0.600  13.387 -0.0683  0.1010 -0.3518
 4177SOL    HW224168   0.627   0.513  13.342  0.0574  2.7171  2.3999
 4178SOL     OW24169   0.514   3.344   2.129  0.1680 -0.2989  0.8650
 4178SOL    HW124170   0.525   3.438   2.114 -2.5138  0.1086  1.3705
 4178SOL    HW224171   0.543   3.337   2.220 -0.7772 -1.3294  1.0857
 4179SOL     OW24172   0.039   1.921   9.065  0.5481 -0.2778  0.7637
 4179SOL    HW124173   0.130   1.934   9.040  0.6876 -1.6900  0.5374
 4179SOL    HW224174   0.029   2.000   9.118 -2.4506  1.5249 -2.4392
 4180SOL     OW24175   0.540   1.645   9.502  0.0231  0.4513 -0.2419
 4180SOL    HW124176   0.501   1.566   9.463  1.8226 -2.3642  3.6997
 4180SOL    HW224177   0.477   1.672   9.569 -1.0962 -1.3915 -0.5395
 4181SOL     OW24178   0.754   3.248  15.751  0.1573 -0.2369 -0.1154
 4181SOL    HW124179   0.675   3.194  15.749  0.4386 -0.6123 -1.2162
 4181SOL    HW224180   0.797   3.232  15.667  0.3562 -0.7660  0.0889
 4182SOL     OW24181   3.858   3.232   9.270  0.1000 -0.1918 -0.1450
 4182SOL    HW124182   3.831   3.140   9.272 -2.3784  0.5258  0.1165
 4182SOL    HW224183   3.868   3.227   9.175 -1.0973  0.1896 -0.2958
 4183SOL     OW24184   4.510   1.923   8.037 -0.4947 -0.5720  0.1170
 4183SOL    HW124185   4.417   1.902   8.041 -1.5621  4.1828  0.0903
 4183SOL    HW224186   4.537   1.865   7.965 -0.8112 -0.7417  0.1355
 4184SOL     OW24187   1.369   4.075  12.839 -0.4854  0.0835  0.2508
 4184SOL    HW124188   1.409   4.158  12.863 -1.0336  0.1037  1.0646
 4184SOL    HW224189   1.396   4.021  12.913  3.1492  1.5348 -0.0375
 4185SOL     OW24190   1.334   0.546   8.798  0.5738  0.1248  0.0361
 4185SOL    HW124191   1.242   0.528   8.816  0.8744  0.3224  1.7790
 4185SOL    HW224192   1.362   0.603   8.870 -1.7366  1.1220  0.1298
 4186SOL     OW24193   0.932   3.836   7.378  0.0361  0.3557 -0.2939
 4186SOL    HW124194   0.943   3.799   7.290  2.1717 -1.3265  0.6877
 4186SOL    HW224195   0.854   3.788   7.405 -0.9552  0.7083 -2.4626
 4187SOL     OW24196   2.327   2.745   7.169  0.1585 -0.0143 -0.1140
 4187SOL    HW124197   2.245   2.695   7.176 -0.6213  1.1587 -0.9034
 4187SOL    HW224198   2.315   2.800   7.092 -0.9971  0.5596  0.4682
 4188SOL     OW24199   1.251   2.814   8.135  0.1065 -0.1581  0.1598
 4188SOL    HW124200   1.155   2.808   8.131  0.1728 -0.8644 -0.3065
 4188SOL    HW224201   1.282   2.904   8.135 -1.6579  0.4498  2.8354
 4189SOL     OW24202   1.849   0.865   8.067 -0.2335  0.3757  0.4392
 4189SOL    HW124203   1.942   0.886   8.063  0.2703 -1.9029  0.0304
 4189SOL    HW224204   1.823   0.850   7.976 -0.1524 -0.6340  0.5799
 4190SOL     OW24205   0.816   0.568   1.886 -0.4260  0.0895  0.3433
 4190SOL    HW124206   0.904   0.607   1.890 -0.6822  0.7030  0.1008
 4190SOL    HW224207   0.765   0.631   1.836  0.9048 -0.1208 -1.2957
 4191SOL     OW24208   4.493   3.849   2.024  0.1117 -0.0929  0.1184
 4191SOL    HW124209   4.398   3.864   2.024  0.3524  1.5094 -0.3089
 4191SOL    HW224210   4.504   3.811   2.111  3.4530  1.6184  0.4579
 4192SOL     OW24211   0.637   0.857   2.806  0.6351  0.9888  0.1582
 4192SOL    HW124212   0.613   0.872   2.898 -1.0033  2.3788 -0.5101
 4192SOL    HW224213   0.633   0.945   2.770 -1.8985 -0.4650 -3.1005
 4193SOL     OW24214   4.553   3.006   7.033  0.6167  0.0354 -0.6551
 4193SOL    HW124215   4.601   3.088   7.042  0.0919  0.2785 -0.0499
 4193SOL    HW224216   4.551   2.977   7.124 -2.5634 -1.4560 -1.1910
 4194SOL     OW24217   0.565   2.706   9.565  0.3834 -0.3922  0.1176
 4194SOL    HW124218   0.601   2.679   9.481  0.7886  2.1174 -0.5234
 4194SOL    HW224219   0.638   2.763   9.590  0.5848 -1.6877  2.4806
 4195SOL     OW24220   0.689   3.026   8.619  0.2601 -0.2152  0.1992
 4195SOL    HW124221   0.682   2.943   8.666 -0.0350  0.2902  1.0414
 4195SOL    HW224222   0.776   3.019   8.579 -0.5002 -1.0349 -1.2791
 4196SOL     OW24223   4.550   1.785   9.188  0.2240  0.1422  0.0393
 4196SOL    HW124224   4.547   1.861   9.131 -1.7857  0.5944  0.7735
 4196SOL    HW224225   4.642   1.777   9.215  0.5607 -0.6959 -1.3052
 4197SOL     OW24226   3.707   2.713   8.861  0.2268  0.1896 -0.2154
 4197SOL    HW124227   3.793   2.747   8.836  0.8267 -2.2217 -1.4534
 4197SOL    HW224228   3.696   2.755   8.946 -0.1133  0.2982 -0.3150
 4198SOL     OW24229   0.959   3.391   4.399  0.5717  0.7793 -0.0347
 4198SOL    HW124230   0.975   3.303   4.366  0.7582  0.1804  1.6406
 4198SOL    HW224231   0.864   3.400   4.393  0.3262 -0.3240  1.9801
 4199SOL     OW24232   0.930   1.559   8.087  0.1512 -0.2099  0.0286
 4199SOL    HW124233   0.909   1.472   8.122  2.4973 -0.5969  0.4860
 4199SOL    HW224234   0.946   1.535   7.996  0.1799 -0.8543  0.2033
 4200SOL     OW24235   2.626   0.906   7.518  0.1164  0.5306 -0.0985
 4200SOL    HW124236   2.646   0.999   7.515  0.4270  0.5367  2.2177
 4200SOL    HW224237   2.618   0.889   7.424  1.3526 -0.1619 -0.0849
 4201SOL     OW24238   1.052   0.345   1.505 -0.3926 -0.8387  0.0153
 4201SOL    HW124239   1.014   0.368   1.420 -0.3325  0.5309  0.3581
 4201SOL    HW224240   0.995   0.404   1.554 -1.3884  0.1313 -2.2904
 4202SOL     OW24241   1.934   2.438   1.386 -0.4638 -0.5957  0.2333
 4202SOL    HW124242   1.840   2.433   1.370 -0.3021 -0.2005 -0.8288
 4202SOL    HW224243   1.922   2.459   1.479  0.6447  2.1909 -0.2495
 4203SOL     OW24244   1.701   2.642  15.985 -0.4858 -0.1927 -0.3798
 4203SOL    HW124245   1.788   2.661  16.021 -0.9566 -0.0528  0.6831
 4203SOL    HW224246   1.635   2.657  16.053 -2.1049  0.2190 -2.0550
 4204SOL     OW24247   0.793   0.367   2.927  0.3760 -0.1903 -0.2085
 4204SOL    HW124248   0.703   0.352   2.955  0.8975  1.8366  2.5151
 4204SOL    HW224249   0.782   0.338   2.836 -0.7049 -1.4243  0.3338
 4205SOL     OW24250   2.848   3.831   6.333  0.4404  0.3485 -0.2431
 4205SOL    HW124251   2.867   3.750   6.287 -1.0133 -0.8733  1.2958
 4205SOL    HW224252   2.872   3.895   6.266 -2.7563  3.7352  1.7676
 4206SOL     OW24253   0.585   0.508   9.174  0.0699 -0.0275 -0.3896
 4206SOL    HW124254   0.623   0.466   9.096 -0.0863 -0.8238 -0.0397
 4206SOL    HW224255   0.501   0.540   9.141  0.8649  2.0369 -0.4089
 4207SOL     OW24256   3.864   4.335  15.170 -0.2310  0.3905  0.0463
 4207SOL    HW124257   3.867   4.365  15.261 -0.3591  1.8858 -0.4471
 4207SOL    HW224258   3.932   4.384  15.125  1.3587 -0.4926  1.4809
 4208SOL     OW24259   2.398   3.719   0.951 -0.7833  0.3742  0.0703
 4208SOL    HW124260   2.401   3.643   0.892 -0.4068  0.4172  0.0323
 4208SOL    HW224261   2.450   3.776   0.895 -1.0096  0.1193 -0.3978
 4209SOL     OW24262   0.523   1.693   4.831 -0.5377  0.2232 -0.4248
 4209SOL    HW124263   0.585   1.703   4.760  1.3460 -0.4547  1.1270
 4209SOL    HW224264   0.513   1.787   4.846  0.7730  0.7118 -2.6281
 4210SOL     OW24265   1.641   1.035   0.880 -0.4823 -0.3634 -0.2890
 4210SOL    HW124266   1.634   0.969   0.811  0.9827  1.1340 -1.8620
 4210SOL    HW224267   1.657   0.973   0.950 -1.1727 -0.2573 -0.0355
 4211SOL     OW24268   2.310   1.691   5.062 -0.2147 -0.6106 -0.0533
 4211SOL    HW124269   2.333   1.760   5.000 -0.6926 -2.0082 -1.7946
 4211SOL    HW224270   2.226   1.715   5.100 -0.9792  0.3627 -2.3591
 4212SOL     OW24271   0.857   2.362   4.621  0.4088 -0.3192 -0.0372
 4212SOL    HW124272   0.924   2.369   4.553  0.7060  0.6521  0.3485
 4212SOL    HW224273   0.820   2.450   4.614  0.4620 -0.3477 -0.6697
 4213SOL     OW24274   1.418   3.141   1.930  0.4957  0.2016 -0.1156
 4213SOL    HW124275   1.469   3.187   1.997 -0.5826  2.2104 -0.6768
 4213SOL    HW224276   1.437   3.193   1.852 -0.3692  2.3736  1.1239
 4214SOL     OW24277   2.282   0.816  13.157  0.0296 -0.6327  0.3850
 4214SOL    HW124278   2.196   0.808  13.199 -0.5587  2.2202 -0.2689
 4214SOL    HW224279   2.335   0.827  13.236  0.5047 -2.0348  0.2607
 4215SOL     OW24280   0.775   0.501   7.993 -0.0726  0.5482 -0.6313
 4215SOL    HW124281   0.739   0.536   7.911  1.3616  0.8681 -1.1132
 4215SOL    HW224282   0.862   0.483   7.959  0.2860 -2.4477  1.9060
 4216SOL     OW24283   0.534   0.575   4.848  0.2511  0.3468 -0.1848
 4216SOL    HW124284   0.450   0.560   4.892  0.0391  0.3571 -0.5853
 4216SOL    HW224285   0.528   0.665   4.817  2.1112  0.7396  0.6010
 4217SOL     OW24286   3.914   1.776   6.931 -0.0391 -0.1004  0.8007
 4217SOL    HW124287   3.832   1.756   6.977 -0.6379 -0.8170 -0.5668
 4217SOL    HW224288   3.969   1.706   6.966 -0.8584 -0.8503  0.5868
 4218SOL     OW24289   4.408   1.608   3.933 -0.6767 -0.2088 -0.1536
 4218SOL    HW124290   4.444   1.552   3.864 -2.6135 -1.0862 -0.4499
 4218SOL    HW224291   4.452   1.691   3.914 -2.4919  0.9109  0.5513
 4219SOL     OW24292   4.256   2.810   3.952 -0.3086  0.3817 -0.2860
 4219SOL    HW124293   4.322   2.757   3.908 -2.2075  0.1770 -2.9277
 4219SOL    HW224294   4.178   2.788   3.902  1.2791 -1.9033 -1.7508
 4220SOL     OW24295   2.570   4.666   2.264  0.0276  0.1126 -0.8072
 4220SOL    HW124296   2.601   4.600   2.326 -0.4976  1.1017  0.5248
 4220SOL    HW224297   2.647   4.710   2.227 -0.9541  1.6050 -1.0722
 4221SOL     OW24298   4.542   4.129   7.667  0.4945 -0.3372 -0.3583
 4221SOL    HW124299   4.527   4.057   7.607 -1.4336 -1.0102  0.9366
 4221SOL    HW224300   4.579   4.085   7.744 -0.6573  0.5550  0.7068
 4222SOL     OW24301   1.064   4.125  13.536  0.3476 -0.3604  0.0126
 4222SOL    HW124302   1.096   4.051  13.483  0.2969  0.4021 -1.0716
 4222SOL    HW224303   0.982   4.137  13.488 -0.5138 -1.0578  1.2777
 4223SOL     OW24304   4.576   2.237   5.938 -0.4335 -0.3993  0.2472
 4223SOL    HW124305   4.653   2.254   5.884 -0.8660 -2.0920 -0.8804
 4223SOL    HW224306   4.535   2.321   5.917  0.9702 -0.1201 -1.3720
 4224SOL     OW24307   4.049   2.034   4.001 -0.2703 -0.3227  0.1912
 4224SOL    HW124308   4.141   2.047   4.022  0.2633  0.8200 -2.9170
 4224SOL    HW224309   4.017   2.121   4.023  1.1088  0.6469 -1.6138
 4225SOL     OW24310   0.674   3.947   3.004 -0.0907  0.2561 -0.2762
 4225SOL    HW124311   0.687   3.875   3.066  1.4382  0.2613 -0.5718
 4225SOL    HW224312   0.762   3.986   2.998 -0.4086  1.0939  0.4735
 4226SOL     OW24313   0.934   3.642  13.995 -0.6037  0.4123  0.0817
 4226SOL    HW124314   0.927   3.547  13.984  2.2044 -0.1324  2.9397
 4226SOL    HW224315   1.000   3.641  14.065  1.0359  2.6746 -1.4357
 4227SOL     OW24316   2.736   0.189  13.655  0.2163 -0.1263  0.0724
 4227SOL    HW124317   2.694   0.252  13.596 -2.0193 -0.1208  1.6808
 4227SOL    HW224318   2.651   0.185  13.698  0.3172 -1.3895  0.1543
 4228SOL     OW24319   2.331   3.367   2.299 -0.0035  0.0865 -0.6234
 4228SOL    HW124320   2.335   3.423   2.222  1.7717  1.7221  0.6868
 4228SOL    HW224321   2.280   3.293   2.265  1.7699 -0.5122 -1.9922
 4229SOL     OW24322   1.498   0.022   3.899  0.2410  0.1862 -0.4540
 4229SOL    HW124323   1.412   4.727   3.871  0.3120 -0.0773 -0.3680
 4229SOL    HW224324   1.473   0.086   3.966  0.5619  0.4356 -0.5778
 4230SOL     OW24325   2.381   1.273   0.867  0.0195  0.7152  0.3594
 4230SOL    HW124326   2.380   1.177   0.876 -2.0696  0.5309 -1.8084
 4230SOL    HW224327   2.475   1.279   0.880  0.3747  0.8896 -2.2379
 4231SOL     OW24328   1.630   0.654   3.227 -0.1832 -0.2157 -0.3090
 4231SOL    HW124329   1.663   0.740   3.253  3.2547 -0.6437 -3.2491
 4231SOL    HW224330   1.715   0.609   3.221 -1.1451 -1.3873 -5.3012
 4232SOL     OW24331   1.774   0.879   3.355  0.0725 -0.4487 -0.1072
 4232SOL    HW124332   1.862   0.852   3.379 -0.1317  0.0924  1.2759
 4232SOL    HW224333   1.749   0.933   3.431 -1.0405 -1.3528  0.1715
 4233SOL     OW24334   0.175   3.449  16.228  0.2017  0.5854  0.2317
 4233SOL    HW124335   0.192   3.356  16.246 -1.3717  0.1816 -0.3666
 4233SOL    HW224336   0.088   3.454  16.188  0.9177 -2.6009 -1.7531
 4234SOL     OW24337   4.492   1.010   1.028 -0.7414 -0.2596  0.2517
 4234SOL    HW124338   4.442   1.001   1.109 -1.2229  1.6777  0.1562
 4234SOL    HW224339   4.416   1.018   0.969 -0.7015  1.0878  0.3883
 4235SOL     OW24340   3.274   3.043   8.246 -0.1985 -0.4849 -0.0492
 4235SOL    HW124341   3.203   3.099   8.280  0.3783  0.3461 -0.2058
 4235SOL    HW224342   3.336   3.050   8.318 -0.7549  0.4662  0.3485
 4236SOL     OW24343   2.777   2.373   3.305  0.3081 -0.0782 -0.2113
 4236SOL    HW124344   2.721   2.298   3.327  1.7570 -0.2889  2.7410
 4236SOL    HW224345   2.855   2.327   3.273  0.8074  0.8090 -0.2592
 4237SOL     OW24346   4.018   4.588  12.465 -0.2888  0.5580  0.6933
 4237SOL    HW124347   3.966   4.510  12.485 -0.6962  0.1270 -2.0865
 4237SOL    HW224348   3.954   4.652  12.495 -2.7368 -0.8722 -1.4863
 4238SOL     OW24349   2.872   3.532   5.764 -0.2568 -0.5612 -0.6946
 4238SOL    HW124350   2.845   3.578   5.685 -0.6504  2.5748  1.2530
 4238SOL    HW224351   2.908   3.452   5.727  1.1120  0.8766 -2.4927
 4239SOL     OW24352   3.538   4.310   3.555 -0.5794 -0.5585 -0.2216
 4239SOL    HW124353   3.446   4.298   3.579  0.4745 -3.1376  2.5422
 4239SOL    HW224354   3.535   4.375   3.485 -3.4569 -1.5460 -1.0437
 4240SOL     OW24355   4.599   3.510   7.821 -0.1775  0.1070  0.0140
 4240SOL    HW124356   4.678   3.538   7.868 -0.2890  0.2615  0.1059
 4240SOL    HW224357   4.645   3.486   7.740  0.9656  0.2864  0.6084
 4241SOL     OW24358   4.300   4.520   2.128 -0.0874 -0.4157 -0.4734
 4241SOL    HW124359   4.276   4.508   2.035 -1.2520  0.4505 -0.2918
 4241SOL    HW224360   4.392   4.540   2.114 -0.2854 -0.4183 -1.7966
 4242SOL     OW24361   2.084   1.708   8.687 -0.0336  0.6058 -0.0625
 4242SOL    HW124362   2.153   1.722   8.623 -1.2402 -0.0569 -1.5154
 4242SOL    HW224363   2.129   1.693   8.770  2.0688 -1.3881 -1.5527
 4243SOL     OW24364   2.764   4.730   4.958  0.2616 -0.6837 -0.0995
 4243SOL    HW124365   2.740   0.074   4.914 -0.4906 -1.4640 -1.1376
 4243SOL    HW224366   2.676   4.697   4.975  0.9587 -2.5031 -0.0432
 4244SOL     OW24367   1.422   1.865   1.684  0.4087 -0.1498  0.3779
 4244SOL    HW124368   1.508   1.869   1.641  0.4162 -1.7256  0.2209
 4244SOL    HW224369   1.378   1.813   1.616  0.4867 -1.3645  1.2416
 4245SOL     OW24370   2.515   2.485  16.839  0.2915  0.4829 -0.0681
 4245SOL    HW124371   2.455   2.496  16.913  2.0442 -2.5359  1.7990
 4245SOL    HW224372   2.450   2.470  16.771 -1.4494  2.1557  1.2268
 4246SOL     OW24373   3.064   3.629  11.161 -0.8752 -0.0420  0.0340
 4246SOL    HW124374   3.056   3.644  11.255 -0.6599 -0.9859  0.1959
 4246SOL    HW224375   3.159   3.633  11.152 -0.9450  1.4773 -0.0205
 4247SOL     OW24376   0.139   1.379   2.020 -0.2062  0.0631 -0.6041
 4247SOL    HW124377   0.105   1.347   2.104  0.9335  0.4038 -0.0211
 4247SOL    HW224378   0.136   1.300   1.966  2.4308 -1.8759  2.1483
 4248SOL     OW24379   0.905   1.917  10.903  0.0930  0.2773  0.1227
 4248SOL    HW124380   0.958   1.957  10.834 -0.2706 -1.9483 -1.4501
 4248SOL    HW224381   0.934   1.827  10.885 -2.9924 -0.4618 -1.0493
 4249SOL     OW24382   2.975   2.329   2.142  0.2646  0.0523 -0.5832
 4249SOL    HW124383   2.909   2.348   2.076  0.6128  2.3913 -0.2667
 4249SOL    HW224384   2.961   2.391   2.214 -0.7640  1.3329 -1.8953
 4250SOL     OW24385   3.983   1.421   2.438 -0.3386 -0.5252  0.3214
 4250SOL    HW124386   3.889   1.437   2.448 -0.1215  1.9575 -1.5142
 4250SOL    HW224387   4.027   1.447   2.518 -0.9906 -0.6707  0.7238
 4251SOL     OW24388   2.777   2.824   5.384  0.2860 -0.6475 -0.2855
 4251SOL    HW124389   2.696   2.822   5.333 -0.9789  3.3419  1.5442
 4251SOL    HW224390   2.783   2.919   5.396  0.8664 -0.8810  1.1977
 4252SOL     OW24391   2.253   0.938  13.742  0.3157  0.4033  0.5545
 4252SOL    HW124392   2.218   0.854  13.772 -1.9460  0.5923 -1.6396
 4252SOL    HW224393   2.276   0.977  13.827  2.6749 -1.4620  0.7947
 4253SOL     OW24394   2.492   4.371   3.551 -0.0627  0.3930 -0.2864
 4253SOL    HW124395   2.587   4.384   3.546 -0.2074  2.1766  1.3221
 4253SOL    HW224396   2.484   4.276   3.554  0.6820  0.3090 -1.3119
 4254SOL     OW24397   3.961   2.758   8.638  0.2249  0.1900 -0.8740
 4254SOL    HW124398   4.028   2.723   8.696 -2.2730  0.6676  2.3174
 4254SOL    HW224399   3.997   2.724   8.556 -2.0823 -0.9147 -1.4435
 4255SOL     OW24400   1.840   1.600   6.296 -0.3816 -0.1141  0.2616
 4255SOL    HW124401   1.879   1.542   6.231  1.4005 -0.6870  1.8435
 4255SOL    HW224402   1.819   1.672   6.236 -0.5641  0.9206  1.5505
 4256SOL     OW24403   1.631   3.423   3.629  1.1372 -0.4423  0.1881
 4256SOL    HW124404   1.688   3.427   3.553  0.8906 -0.0319  0.0257
 4256SOL    HW224405   1.625   3.514   3.659  0.3819 -0.4543  0.0851
 4257SOL     OW24406   1.157   3.983   2.358  0.0219 -0.1848  0.5034
 4257SOL    HW124407   1.158   4.057   2.298  2.9576 -0.0183  0.7906
 4257SOL    HW224408   1.077   3.936   2.334  0.0182 -0.3222  0.7826
 4258SOL     OW24409   0.966   2.641   2.792  0.4170 -0.3619 -0.5311
 4258SOL    HW124410   0.876   2.618   2.816  0.8336 -1.8801 -0.4682
 4258SOL    HW224411   0.979   2.570   2.729  1.6724  0.4583 -1.2089
 4259SOL     OW24412   0.399   3.995   7.358 -0.3382  0.1267  0.6963
 4259SOL    HW124413   0.339   4.026   7.289 -1.3689  0.6500  1.8330
 4259SOL    HW224414   0.485   4.030   7.332 -0.3408  0.5459  1.2506
 4260SOL     OW24415   2.746   2.013   8.958  0.2892 -0.2590  0.3406
 4260SOL    HW124416   2.807   1.940   8.968  2.8517  1.7466 -0.6269
 4260SOL    HW224417   2.807   2.084   8.978  2.6798 -2.1162 -0.3313
 4261SOL     OW24418   4.117   4.345  10.177 -0.0403  0.1061 -0.2450
 4261SOL    HW124419   4.079   4.333  10.264 -0.7835  0.4679 -0.5219
 4261SOL    HW224420   4.191   4.403  10.196  1.6806 -2.2321  0.1424
 4262SOL     OW24421   4.117   3.821  17.282 -0.5956  0.2779  0.2751
 4262SOL    HW124422   4.026   3.791  17.272 -0.6343  0.5309 -0.1070
 4262SOL    HW224423   4.145   3.825  17.191  0.9074  1.9807  0.8125
 4263SOL     OW24424   3.693   0.307   8.508 -0.2708 -0.2096 -0.2597
 4263SOL    HW124425   3.629   0.263   8.452 -1.3144  1.2900 -0.2453
 4263SOL    HW224426   3.675   0.257   8.588 -0.9900  0.6469  0.1071
 4264SOL     OW24427   0.829   2.886   8.347 -0.1502 -0.1361 -0.3877
 4264SOL    HW124428   0.840   2.953   8.279 -1.5040 -0.2596 -0.7289
 4264SOL    HW224429   0.863   2.949   8.411 -0.9619  0.2486 -0.3277
 4265SOL     OW24430   1.158   3.668   1.582  0.0016 -0.5425  0.0754
 4265SOL    HW124431   1.133   3.748   1.537  0.8176 -1.5245 -2.1215
 4265SOL    HW224432   1.218   3.703   1.648  0.4217  0.2638 -0.7412
 4266SOL     OW24433   4.554   3.283  17.698  0.1399 -0.2086  0.1969
 4266SOL    HW124434   4.495   3.223  17.653 -1.4935  0.8018  1.0102
 4266SOL    HW224435   4.491   3.338  17.744 -0.6398 -0.6421 -0.3392
 4267SOL     OW24436   3.979   1.744   8.768  0.4037  0.3056 -0.4905
 4267SOL    HW124437   3.961   1.794   8.847 -1.5516 -0.8478 -0.2055
 4267SOL    HW224438   3.899   1.691   8.768  0.8702 -0.4062  1.2591
 4268SOL     OW24439   4.660   1.338  12.860  0.1742 -0.5001  0.1331
 4268SOL    HW124440   4.582   1.291  12.891 -0.0080 -1.4306 -1.7692
 4268SOL    HW224441   4.671   1.291  12.778  0.6372  1.3663 -0.8535
 4269SOL     OW24442   2.750   1.331  16.476  0.3414  0.4152 -0.5477
 4269SOL    HW124443   2.683   1.323  16.544 -0.0226 -0.1838 -0.9736
 4269SOL    HW224444   2.708   1.383  16.407 -1.3700  2.7903  2.2991
 4270SOL     OW24445   3.664   2.590   6.236 -0.7931 -0.2835  0.3341
 4270SOL    HW124446   3.685   2.510   6.187  2.9504  0.2167  1.1278
 4270SOL    HW224447   3.753   2.626   6.233  0.1600 -2.5707  1.4164
 4271SOL     OW24448   0.664   1.277  11.099  0.0230 -0.3746  0.0274
 4271SOL    HW124449   0.675   1.188  11.066 -0.1480 -0.6316  0.6584
 4271SOL    HW224450   0.701   1.266  11.186  0.6393  0.4142 -0.1438
 4272SOL     OW24451   2.191   3.216   8.255 -0.4666  0.3594 -0.4931
 4272SOL    HW124452   2.178   3.307   8.283 -2.7410  0.7247 -2.6823
 4272SOL    HW224453   2.147   3.164   8.323  1.3617  0.2651  0.6031
 4273SOL     OW24454   2.674   3.815   1.139  0.2649 -0.3155 -0.9268
 4273SOL    HW124455   2.716   3.740   1.098 -2.0252 -0.6395 -2.6549
 4273SOL    HW224456   2.634   3.856   1.063 -0.4008 -0.6679 -0.7740
 4274SOL     OW24457   3.047   0.752  12.562 -0.0854 -0.4367 -0.1386
 4274SOL    HW124458   3.108   0.750  12.635 -1.5042  2.8861  1.1643
 4274SOL    HW224459   3.103   0.764  12.485  0.1808  3.0047  0.5584
 4275SOL     OW24460   1.939   1.834   7.373  0.1067  0.2162 -0.0533
 4275SOL    HW124461   1.934   1.917   7.327 -1.3874  0.0781 -0.1596
 4275SOL    HW224462   1.979   1.856   7.457  1.0878 -0.1457 -0.4317
 4276SOL     OW24463   1.376   0.902   9.274  0.0038 -0.0887 -0.6419
 4276SOL    HW124464   1.465   0.875   9.296 -0.4023 -1.0936 -0.2251
 4276SOL    HW224465   1.375   0.998   9.268 -0.4008 -0.0678 -0.2738
 4277SOL     OW24466   0.582   0.746   8.355 -0.1058 -0.5175  0.3403
 4277SOL    HW124467   0.641   0.738   8.280 -1.0870 -1.3620 -0.3431
 4277SOL    HW224468   0.602   0.837   8.378 -0.4079 -0.8269  1.8075
 4278SOL     OW24469   0.074   3.728   8.847  0.2242 -0.0673 -0.2163
 4278SOL    HW124470   0.019   3.754   8.921 -0.3636  0.9879 -1.0303
 4278SOL    HW224471   0.074   3.798   8.782 -1.0455  0.4974  0.3945
 4279SOL     OW24472   3.522   4.645   5.609  0.4214  0.3440  0.2717
 4279SOL    HW124473   3.522   4.679   5.699  0.1886  0.7675  0.1140
 4279SOL    HW224474   3.565   4.562   5.629 -4.0093 -1.6042  1.9043
 4280SOL     OW24475   0.162   1.130   2.644  0.3097  0.2220 -0.2040
 4280SOL    HW124476   0.083   1.165   2.604  0.9068  0.1416 -1.4599
 4280SOL    HW224477   0.188   1.074   2.570 -1.5758 -3.3444  1.8130
 4281SOL     OW24478   0.834   3.215  11.406  0.9975 -0.2401 -0.3435
 4281SOL    HW124479   0.834   3.266  11.325  2.3470 -1.7278 -1.2878
 4281SOL    HW224480   0.776   3.262  11.466 -0.0423 -0.2422 -1.3446
 4282SOL     OW24481   2.044   0.090  12.924 -0.4541 -0.5055 -0.1051
 4282SOL    HW124482   1.975   0.079  12.858 -0.8672  0.9936  0.0623
 4282SOL    HW224483   2.071   0.182  12.915  1.8340 -1.1867 -0.2027
 4283SOL     OW24484   3.020   3.024   4.148 -0.3313  0.6971  0.2524
 4283SOL    HW124485   2.997   3.037   4.240 -0.2813 -3.0971  0.8204
 4283SOL    HW224486   3.029   2.928   4.147 -1.2359  0.6234 -0.3484
 4284SOL     OW24487   3.346   2.985   8.510  0.0821  0.0045  0.4140
 4284SOL    HW124488   3.387   2.950   8.590  1.2757 -2.2404 -1.1525
 4284SOL    HW224489   3.320   3.069   8.546  0.5041 -0.7354  2.4631
 4285SOL     OW24490   1.427   4.584   4.244 -0.1359 -0.1439  0.4663
 4285SOL    HW124491   1.337   4.604   4.217 -0.0839  1.3267  1.4085
 4285SOL    HW224492   1.429   4.489   4.228 -1.4845 -0.4382  2.0037
 4286SOL     OW24493   2.952   0.275   7.587 -0.5449  0.4280  0.3955
 4286SOL    HW124494   3.042   0.300   7.566 -0.4820 -0.9780 -1.0479
 4286SOL    HW224495   2.934   0.327   7.665 -1.1980  0.0044  0.5240
 4287SOL     OW24496   1.572   1.271   7.691  0.3374 -0.0726 -0.1511
 4287SOL    HW124497   1.572   1.317   7.607  0.8039  0.9556  0.4158
 4287SOL    HW224498   1.661   1.280   7.725 -0.4703 -1.7434  2.4141
 4288SOL     OW24499   2.462   0.489   2.873  0.0617  0.3808 -0.0878
 4288SOL    HW124500   2.501   0.560   2.822 -1.3555  0.5810 -0.8901
 4288SOL    HW224501   2.388   0.450   2.825  1.4036 -1.9174 -0.3092
 4289SOL     OW24502   3.963   3.540   4.486 -0.3486  0.4569 -0.1337
 4289SOL    HW124503   3.927   3.583   4.408 -1.2288 -0.6605 -0.3327
 4289SOL    HW224504   3.941   3.603   4.554  0.1103 -1.5688  1.8822
 4290SOL     OW24505   0.480   0.746   8.985 -0.6188  0.0869  0.1749
 4290SOL    HW124506   0.414   0.744   8.915 -0.4637 -0.9731  0.0487
 4290SOL    HW224507   0.548   0.697   8.939  1.4381  2.4802  0.7317
 4291SOL     OW24508   2.085   2.668  17.505  0.6867  0.1523 -0.1767
 4291SOL    HW124509   2.035   2.640  17.582  0.0584 -0.9285 -0.9956
 4291SOL    HW224510   2.026   2.633  17.439  1.2165  0.3170 -0.7359
 4292SOL     OW24511   3.404   3.360   7.456  0.3202 -0.4077 -0.3550
 4292SOL    HW124512   3.381   3.453   7.461  1.2067 -0.1989 -0.1258
 4292SOL    HW224513   3.349   3.331   7.529  0.4782  2.1405  0.8026
 4293SOL     OW24514   4.400   2.174   2.240 -0.3254  0.6408 -0.2321
 4293SOL    HW124515   4.467   2.181   2.308 -0.0201 -0.7639 -0.4020
 4293SOL    HW224516   4.424   2.095   2.191 -1.8474  1.6146 -2.5544
 4294SOL     OW24517   1.437   2.338   4.501 -0.3078  0.9771  0.1647
 4294SOL    HW124518   1.427   2.286   4.421 -0.4782 -0.3660  1.0552
 4294SOL    HW224519   1.532   2.324   4.499 -0.4081  0.5256 -1.7510
 4295SOL     OW24520   4.169   0.797   3.798 -0.1906  0.0123 -0.4520
 4295SOL    HW124521   4.146   0.780   3.889  0.8499 -2.5570 -0.6742
 4295SOL    HW224522   4.254   0.840   3.801 -1.1086  1.7112  0.9216
 4296SOL     OW24523   2.959   2.426   2.468 -0.0169  0.5557  0.2837
 4296SOL    HW124524   3.013   2.369   2.523  0.5128 -1.4272 -2.3177
 4296SOL    HW224525   2.935   2.495   2.530  1.9631  0.5602  1.0695
 4297SOL     OW24526   2.800   4.129   7.796 -0.1432  0.0060  0.1754
 4297SOL    HW124527   2.797   4.091   7.884  0.6601  3.4672  1.6942
 4297SOL    HW224528   2.720   4.098   7.753  0.2242 -2.0332  0.9577
 4298SOL     OW24529   4.015   3.800   6.925 -0.2186 -0.1302 -0.0700
 4298SOL    HW124530   4.047   3.887   6.951 -1.6613 -0.0179  1.3845
 4298SOL    HW224531   3.922   3.824   6.934 -1.0569 -3.1387 -0.7383
 4299SOL     OW24532   1.979   2.871  17.252 -0.6109  0.2147 -0.3522
 4299SOL    HW124533   1.915   2.905  17.314 -1.3944  0.8647 -1.5213
 4299SOL    HW224534   1.971   2.929  17.177  2.9747  0.0969 -0.8415
 4300SOL     OW24535   1.676   0.776   8.656  0.3181 -0.1425  0.2902
 4300SOL    HW124536   1.667   0.737   8.743  2.0163  2.4016  1.6175
 4300SOL    HW224537   1.591   0.751   8.620  0.3958  1.9119 -1.3154
 4301SOL     OW24538   1.957   1.973   2.189 -0.5292  0.2790 -0.2382
 4301SOL    HW124539   1.979   1.880   2.181 -0.4876  0.1893  0.9315
 4301SOL    HW224540   1.870   1.975   2.149  0.2356 -0.3957 -1.9299
 4302SOL     OW24541   2.297   0.522   9.228 -0.0183 -0.0006  0.4014
 4302SOL    HW124542   2.330   0.450   9.174  0.3732  0.3674  0.1521
 4302SOL    HW224543   2.281   0.479   9.312 -1.5693 -0.8247 -0.3300
 4303SOL     OW24544   4.106   4.066   6.363  0.3329 -0.3796  0.1857
 4303SOL    HW124545   4.077   4.135   6.422  0.1164  0.5756 -1.0321
 4303SOL    HW224546   4.192   4.097   6.335  0.4146 -0.8742 -0.1190
 4304SOL     OW24547   0.774   2.060   3.112 -0.9123 -0.5466  0.4987
 4304SOL    HW124548   0.700   2.119   3.095 -0.8859  0.0333  2.3543
 4304SOL    HW224549   0.734   1.974   3.122  1.9849 -1.4164  4.2949
 4305SOL     OW24550   4.075   1.798   8.294  0.2849  0.1215  0.4045
 4305SOL    HW124551   4.105   1.884   8.263  2.1103 -0.0916  1.5556
 4305SOL    HW224552   3.989   1.802   8.336 -0.1791 -0.0337 -0.5360
 4306SOL     OW24553   1.205   2.237   8.504 -0.0491 -0.0313 -0.5152
 4306SOL    HW124554   1.159   2.286   8.572 -1.3944 -1.3723 -0.4484
 4306SOL    HW224555   1.196   2.293   8.428 -1.7810 -2.9871 -2.5052
 4307SOL     OW24556   4.170   0.263   8.003  0.3537 -0.5070  0.0699
 4307SOL    HW124557   4.194   0.329   7.938 -0.2367  0.7046  1.1036
 4307SOL    HW224558   4.121   0.199   7.951  0.5604  1.6944 -2.8577
 4308SOL     OW24559   1.399   0.908   2.886 -0.3979 -0.1512 -0.1532
 4308SOL    HW124560   1.377   0.905   2.793 -0.8001 -0.2881 -0.0551
 4308SOL    HW224561   1.340   0.839   2.917  0.4449  0.0484  1.8887
 4309SOL     OW24562   0.176   0.129   0.493  0.3480 -0.2849  0.2353
 4309SOL    HW124563   0.146   0.219   0.503  2.5105  0.6747 -1.9333
 4309SOL    HW224564   0.261   0.142   0.535 -0.5034 -0.1409  1.9529
 4310SOL     OW24565   3.649   2.051   3.061 -0.3504 -0.1277  0.0335
 4310SOL    HW124566   3.726   2.108   3.067 -0.7649  0.4414 -0.0509
 4310SOL    HW224567   3.654   2.009   3.147  1.5921 -0.1508 -0.0914
 4311SOL     OW24568   0.829   0.107   9.149  0.1810 -0.3499  0.1894
 4311SOL    HW124569   0.873   0.025   9.170 -0.5991 -0.8901 -0.2670
 4311SOL    HW224570   0.770   0.111   9.224  2.1795  1.8789  1.6524
 4312SOL     OW24571   0.712   4.413   1.697 -0.1000 -0.8700 -0.0578
 4312SOL    HW124572   0.652   4.444   1.765  0.8547 -0.3037  0.5248
 4312SOL    HW224573   0.742   4.496   1.661  0.1089 -0.4876  1.0321
 4313SOL     OW24574   4.061   0.542   4.864 -0.4202  0.1269 -0.3189
 4313SOL    HW124575   4.090   0.458   4.900  0.0641  1.1868  1.7710
 4313SOL    HW224576   3.982   0.556   4.915 -0.5617 -1.2274 -0.1665
 4314SOL     OW24577   2.390   0.414   3.138  0.2455  0.1624 -0.6812
 4314SOL    HW124578   2.463   0.357   3.163 -0.7523 -0.3167  1.2061
 4314SOL    HW224579   2.411   0.438   3.048 -0.9226  3.2273 -0.1611
 4315SOL     OW24580   0.000   3.018   6.726  0.3157  0.1897  0.3102
 4315SOL    HW124581   0.002   2.944   6.666 -1.1142  0.1214  0.3374
 4315SOL    HW224582   4.666   2.999   6.787  2.6888 -3.3392  1.9602
 4316SOL     OW24583   3.249   1.848   4.237  0.4185 -0.0103 -0.3908
 4316SOL    HW124584   3.278   1.870   4.326  0.8953  0.4679 -0.6600
 4316SOL    HW224585   3.323   1.876   4.183 -0.8559  1.2764 -1.4665
 4317SOL     OW24586   1.611   4.573  15.970  0.3249  0.0119  0.2743
 4317SOL    HW124587   1.636   4.606  15.883 -2.7132  0.9770 -0.2611
 4317SOL    HW224588   1.522   4.607  15.984  0.1660  0.3062 -1.3995
 4318SOL     OW24589   3.448   2.240   8.042  0.2005 -0.3092  0.6343
 4318SOL    HW124590   3.433   2.186   7.965  1.2057  0.5246 -0.1423
 4318SOL    HW224591   3.391   2.313   8.019 -0.6147 -0.5315  1.9645
 4319SOL     OW24592   3.203   0.990   9.652 -0.4416 -0.2550 -0.5126
 4319SOL    HW124593   3.162   0.959   9.733  0.1887 -1.7870 -0.7856
 4319SOL    HW224594   3.133   0.979   9.588 -1.7948  1.3217  0.6875
 4320SOL     OW24595   4.617   3.215   4.882  0.3581  0.2023  0.8083
 4320SOL    HW124596   4.543   3.197   4.825  1.0913  1.1897 -0.4437
 4320SOL    HW224597   4.685   3.156   4.849 -2.0883 -2.0761 -0.1329
 4321SOL     OW24598   1.994   2.609   2.545 -0.1169 -0.8586  0.1046
 4321SOL    HW124599   2.047   2.682   2.577  0.8831 -1.6904  0.3438
 4321SOL    HW224600   2.034   2.540   2.599 -0.5840 -1.4531 -0.3153
 4322SOL     OW24601   1.940   2.156   1.899  0.6335 -0.2655 -0.2160
 4322SOL    HW124602   1.927   2.237   1.949 -1.7621 -0.1461 -1.0327
 4322SOL    HW224603   2.003   2.112   1.957 -0.9317  0.2723  1.8908
 4323SOL     OW24604   1.705   0.086   6.483  0.1571 -0.0344  0.3483
 4323SOL    HW124605   1.754   0.098   6.565  1.4213 -1.9757 -0.1187
 4323SOL    HW224606   1.681   0.175   6.459  1.5852 -0.1078 -1.3797
 4324SOL     OW24607   0.275   1.518  11.355 -0.3491 -0.4723 -0.4000
 4324SOL    HW124608   0.206   1.540  11.293  0.7093  1.6523 -0.8272
 4324SOL    HW224609   0.347   1.493  11.297  1.4163  0.8488  1.2043
 4325SOL     OW24610   0.032   3.999   3.009  0.2496  0.1109  0.1183
 4325SOL    HW124611   0.082   4.053   2.949  0.2407  1.6431  1.5026
 4325SOL    HW224612   0.106   3.953   3.048  0.8056 -0.9207 -2.1644
 4326SOL     OW24613   2.699   0.440   5.214  0.0586  0.4830  0.1721
 4326SOL    HW124614   2.713   0.489   5.295  1.1903 -0.5421  0.5979
 4326SOL    HW224615   2.625   0.383   5.234  2.3406 -1.9096  1.6748
 4327SOL     OW24616   4.465   1.168   1.912 -0.4227  0.3741 -0.4453
 4327SOL    HW124617   4.448   1.206   1.999  0.1122  0.5388 -0.4129
 4327SOL    HW224618   4.376   1.173   1.877 -0.8824 -0.0549  0.6552
 4328SOL     OW24619   3.624   0.770   9.368  0.0566  0.2698  0.3648
 4328SOL    HW124620   3.540   0.801   9.400 -0.4021  0.4794 -1.0528
 4328SOL    HW224621   3.676   0.847   9.390  0.5215  0.3353 -0.9704
 4329SOL     OW24622   4.300   3.568   6.447 -0.1405  0.4126  0.0168
 4329SOL    HW124623   4.242   3.638   6.419 -1.3172 -0.6745 -0.2617
 4329SOL    HW224624   4.356   3.569   6.370 -1.7380 -0.5382 -1.1640
 4330SOL     OW24625   0.507   0.156   5.052 -0.3202 -0.6285  0.5889
 4330SOL    HW124626   0.503   0.082   4.992  1.8696 -1.0595  0.9819
 4330SOL    HW224627   0.435   0.133   5.111 -2.3734 -0.7801 -1.9818
 4331SOL     OW24628   1.886   2.608  17.687 -0.0441  0.2227  0.7133
 4331SOL    HW124629   1.791   2.608  17.692 -0.0453  2.3412  0.8108
 4331SOL    HW224630   1.921   2.649   0.020 -0.0183  0.0371  0.7960
 4332SOL     OW24631   0.875   2.532   2.071  0.2585 -0.1160  0.0484
 4332SOL    HW124632   0.826   2.523   1.990 -0.9888  1.2906  0.6513
 4332SOL    HW224633   0.967   2.527   2.044  0.4855 -1.3640  1.0357
 4333SOL     OW24634   2.471   1.062   5.620 -0.1300 -0.1335  0.2426
 4333SOL    HW124635   2.534   1.133   5.613 -0.6194  0.0864 -1.7995
 4333SOL    HW224636   2.398   1.097   5.569 -1.9444  0.1119  2.9780
 4334SOL     OW24637   3.494   2.823   6.831 -0.6003  0.0098 -0.2265
 4334SOL    HW124638   3.539   2.870   6.901  2.3360 -1.0688 -1.4123
 4334SOL    HW224639   3.452   2.900   6.793 -0.2049  0.5578  0.4488
 4335SOL     OW24640   1.035   4.717   7.486  0.3340 -0.4451 -0.4365
 4335SOL    HW124641   1.054   0.016   7.573  0.3116 -1.6695  0.0883
 4335SOL    HW224642   1.039   0.053   7.425 -2.0641  0.0526  0.0119
 4336SOL     OW24643   1.605   0.305  17.300 -0.4294  0.0948 -0.4774
 4336SOL    HW124644   1.599   0.235  17.365  1.3953 -0.2738 -0.7135
 4336SOL    HW224645   1.537   0.363  17.333  1.3372  2.7109 -1.3847
 4337SOL     OW24646   4.039   3.256   2.153 -0.4201  0.5217  0.0906
 4337SOL    HW124647   4.010   3.176   2.110  0.8340  0.9293 -1.5030
 4337SOL    HW224648   3.995   3.320   2.097 -2.8411 -1.0509  0.1654
 4338SOL     OW24649   2.571   2.596   5.818  0.2210  0.0872  0.6892
 4338SOL    HW124650   2.573   2.501   5.828  1.0935 -0.1400 -1.6868
 4338SOL    HW224651   2.536   2.603   5.730 -0.3070  1.0009  0.9663
 4339SOL     OW24652   1.212   2.218   9.410  0.1915 -0.1648  0.3844
 4339SOL    HW124653   1.301   2.193   9.386 -0.5739  0.8495 -3.4813
 4339SOL    HW224654   1.223   2.224   9.505 -1.6251  1.3500  0.4957
 4340SOL     OW24655   3.399   3.894   6.119  0.5079 -0.3380  0.5832
 4340SOL    HW124656   3.334   3.955   6.085 -0.3046 -1.2388  0.5144
 4340SOL    HW224657   3.420   3.846   6.039 -1.1968 -2.0617  1.1782
 4341SOL     OW24658   3.960   2.875   5.348  0.0404 -0.0164 -0.3791
 4341SOL    HW124659   4.035   2.871   5.407  0.0049 -1.1508 -0.4121
 4341SOL    HW224660   3.889   2.878   5.413  0.5607 -1.0692  0.2324
 4342SOL     OW24661   0.920   3.904   5.074 -0.2618  0.5814 -0.0685
 4342SOL    HW124662   0.858   3.963   5.116 -1.5524  1.2025 -2.7945
 4342SOL    HW224663   0.886   3.910   4.984 -1.2516 -0.0968  0.2523
 4343SOL     OW24664   2.723   4.509   4.191  0.3245 -0.3321  0.1399
 4343SOL    HW124665   2.806   4.477   4.226  0.0758  1.4910  2.4022
 4343SOL    HW224666   2.735   4.504   4.096 -0.3452  1.9557 -0.0724
 4344SOL     OW24667   3.619   4.242   4.854 -0.2459  0.4056 -0.3178
 4344SOL    HW124668   3.554   4.272   4.918 -0.2455  1.5403 -0.8521
 4344SOL    HW224669   3.672   4.317   4.827 -3.0801  2.0504 -1.3068
 4345SOL     OW24670   3.727   2.588   5.109 -0.2263  0.1843 -0.6601
 4345SOL    HW124671   3.686   2.544   5.184  0.7985  0.2014 -0.0967
 4345SOL    HW224672   3.698   2.679   5.115  0.1892  0.2960 -0.4107
 4346SOL     OW24673   2.653   2.343   3.764  0.2041 -0.1858 -0.5421
 4346SOL    HW124674   2.602   2.394   3.701  1.4843  0.2130 -1.2411
 4346SOL    HW224675   2.737   2.342   3.720 -0.5209 -3.7293 -1.8255
 4347SOL     OW24676   1.148   1.275   7.900 -0.5872  0.3905  0.4048
 4347SOL    HW124677   1.231   1.229   7.884 -0.4682  0.9665 -0.5892
 4347SOL    HW224678   1.178   1.365   7.896 -0.8228  0.4742  0.5175
 4348SOL     OW24679   4.452   4.310   8.506 -0.1967  0.2801  0.0370
 4348SOL    HW124680   4.500   4.341   8.430 -1.2351  0.3509 -0.5910
 4348SOL    HW224681   4.517   4.319   8.576 -0.4427  2.4955 -0.0127
 4349SOL     OW24682   1.239   3.167   5.583 -0.8867 -0.3475  0.1082
 4349SOL    HW124683   1.252   3.094   5.643  0.3348 -0.6985 -0.5957
 4349SOL    HW224684   1.275   3.132   5.501  1.0197  2.1260 -0.0932
 4350SOL     OW24685   1.752   0.363   1.698 -0.1396  0.2104 -0.0993
 4350SOL    HW124686   1.821   0.296   1.704  1.2933  1.5472 -1.5364
 4350SOL    HW224687   1.719   0.342   1.611  0.7970 -0.2297 -0.3424
 4351SOL     OW24688   1.790   1.178   5.233  0.0450  0.4398 -0.5841
 4351SOL    HW124689   1.856   1.126   5.186 -0.0111 -0.6604  0.5484
 4351SOL    HW224690   1.740   1.112   5.281  0.4287 -0.6976 -1.7525
 4352SOL     OW24691   3.634   4.028  16.663  0.2042  0.6301  0.5845
 4352SOL    HW124692   3.621   4.123  16.658  0.1346  0.5138 -1.7253
 4352SOL    HW224693   3.697   4.026  16.734  2.0562 -2.0843 -1.1211
 4353SOL     OW24694   0.446   3.104  15.033  0.0884 -0.6457 -0.0666
 4353SOL    HW124695   0.396   3.023  15.038  0.2068 -0.6740  0.6842
 4353SOL    HW224696   0.401   3.151  14.962  1.5829 -1.8036 -1.7843
 4354SOL     OW24697   3.018   3.778  11.642  0.1719  0.0089  0.7677
 4354SOL    HW124698   2.984   3.867  11.652 -0.3611 -0.1868  0.6916
 4354SOL    HW224699   3.106   3.793  11.678  1.7199  0.2635 -3.1647
 4355SOL     OW24700   1.929   3.398  15.542 -0.7516  0.3735 -0.1920
 4355SOL    HW124701   1.838   3.413  15.569 -0.5292 -1.2137  1.4591
 4355SOL    HW224702   1.927   3.439  15.456  0.9663 -2.0738 -1.3846
 4356SOL     OW24703   1.434   1.337  14.592 -0.1147  0.0888 -0.3107
 4356SOL    HW124704   1.457   1.304  14.678  2.6646  0.1756 -1.0211
 4356SOL    HW224705   1.442   1.259  14.537  1.2136 -1.3245  1.8939
 4357SOL     OW24706   4.205   1.380   7.265 -0.0316  0.2368  0.6202
 4357SOL    HW124707   4.252   1.431   7.199  1.6225 -1.4761  0.4718
 4357SOL    HW224708   4.260   1.302   7.276 -0.4552 -0.1558 -0.0485
 4358SOL     OW24709   3.656   0.491   3.354 -0.2917  0.4662 -0.7124
 4358SOL    HW124710   3.673   0.416   3.297 -1.2057 -0.8318  0.7199
 4358SOL    HW224711   3.741   0.517   3.390  0.0270 -0.0639 -1.0908
 4359SOL     OW24712   1.373   0.194   8.049  0.0189 -0.0391  0.7491
 4359SOL    HW124713   1.315   0.209   8.124 -0.5543 -1.0870  0.5215
 4359SOL    HW224714   1.344   0.260   7.986  0.4580 -1.4591 -0.9463
 4360SOL     OW24715   3.011   1.019   5.756  0.4289  0.1231  0.7896
 4360SOL    HW124716   2.942   1.035   5.821  2.3873 -2.4861  3.4468
 4360SOL    HW224717   3.059   0.944   5.789 -0.6824 -0.9059  0.0434
 4361SOL     OW24718   3.503   2.058   0.375  0.1351 -0.1841  0.0228
 4361SOL    HW124719   3.442   2.094   0.440 -1.4703 -0.5729 -1.2641
 4361SOL    HW224720   3.521   1.967   0.397 -2.9579 -1.2839 -1.9582
 4362SOL     OW24721   0.408   3.517   8.668 -0.5630  0.0262 -0.1305
 4362SOL    HW124722   0.326   3.503   8.715 -0.2738 -1.6145 -0.0982
 4362SOL    HW224723   0.425   3.611   8.677  0.9521 -0.0865 -1.6684
 4363SOL     OW24724   2.652   1.279   5.635 -0.4053  0.4306  1.0057
 4363SOL    HW124725   2.723   1.326   5.591 -1.0479  2.6304  2.3242
 4363SOL    HW224726   2.575   1.330   5.609  0.0315  0.2589 -0.5893
 4364SOL     OW24727   2.151   4.613   1.979  0.3850 -0.0875 -0.1230
 4364SOL    HW124728   2.242   4.611   1.949  0.3937  1.3247 -0.1614
 4364SOL    HW224729   2.129   4.706   1.972  1.6306  0.1213 -1.2532
 4365SOL     OW24730   4.407   3.296  15.309 -0.5519  0.0915  0.6715
 4365SOL    HW124731   4.389   3.384  15.275  0.1606  0.2114  0.6055
 4365SOL    HW224732   4.486   3.327  15.354 -0.9137  0.5057  1.0318
 4366SOL     OW24733   2.306   1.954  14.163 -0.0275 -0.7695  0.5072
 4366SOL    HW124734   2.353   1.956  14.080 -1.9766  1.0758 -0.5714
 4366SOL    HW224735   2.234   2.011  14.134  0.0453 -1.2303 -0.5756
 4367SOL     OW24736   0.700   1.377   1.846 -0.5157  0.0598 -0.1666
 4367SOL    HW124737   0.690   1.442   1.777  2.0854 -1.8568 -2.3535
 4367SOL    HW224738   0.644   1.426   1.906 -0.5047  1.8425 -1.6118
 4368SOL     OW24739   1.060   1.055   7.021 -0.0186  0.1028  0.2718
 4368SOL    HW124740   0.994   0.988   7.038 -1.8015  1.9923  0.9205
 4368SOL    HW224741   1.129   1.015   6.970 -0.1090  0.7225 -0.3388
 4369SOL     OW24742   2.854   0.623   2.333 -0.0705  0.3552 -0.2922
 4369SOL    HW124743   2.928   0.569   2.304 -0.2630  0.3451 -0.7659
 4369SOL    HW224744   2.842   0.686   2.262 -0.7528 -0.3716 -0.8302
 4370SOL     OW24745   2.641   1.839   5.774  0.0844  0.0721  0.6147
 4370SOL    HW124746   2.555   1.846   5.816  0.8336  2.5262  1.7420
 4370SOL    HW224747   2.681   1.926   5.781 -0.1236  0.1924  0.3740
 4371SOL     OW24748   0.202   1.046   7.597 -0.2300 -0.3840 -0.8737
 4371SOL    HW124749   0.204   1.134   7.559  1.8721  0.7206  1.7444
 4371SOL    HW224750   0.271   1.062   7.662  0.3657 -0.8580 -1.3873
 4372SOL     OW24751   1.194   1.290  13.164  0.2346  0.6518  0.3544
 4372SOL    HW124752   1.235   1.376  13.177  2.2705 -0.5056  1.6654
 4372SOL    HW224753   1.106   1.315  13.191  1.0405  1.4266  2.2398
 4373SOL     OW24754   4.315   3.019  12.887 -0.2705  0.2023  0.1037
 4373SOL    HW124755   4.287   3.050  12.973  1.6628  1.2598  0.3422
 4373SOL    HW224756   4.409   3.039  12.886  0.0939 -1.4750  0.0568
 4374SOL     OW24757   4.072   4.671   5.320 -0.5209  0.1008 -0.0804
 4374SOL    HW124758   4.038   0.020   5.344  2.5988  1.7433 -1.7116
 4374SOL    HW224759   4.137   4.683   5.252  0.3172 -2.0851  0.3449
 4375SOL     OW24760   3.067   0.097   2.099 -0.2397  0.5031 -0.3722
 4375SOL    HW124761   3.095   0.042   2.026 -0.7578 -2.3826  1.5823
 4375SOL    HW224762   3.124   0.172   2.085  0.6630 -0.6067 -2.5880
 4376SOL     OW24763   1.865   1.502   2.366 -0.4650  0.1649 -0.1075
 4376SOL    HW124764   1.796   1.448   2.328  1.3273 -0.7798 -2.0039
 4376SOL    HW224765   1.833   1.498   2.456  3.5045 -1.5383  1.1845
 4377SOL     OW24766   3.752   4.696  17.065  0.2098 -0.1933  0.5129
 4377SOL    HW124767   3.835   4.721  17.024  1.4616 -0.6027  2.7853
 4377SOL    HW224768   3.759   4.717  17.158 -1.1179  1.1779  0.2927
 4378SOL     OW24769   1.767   0.879   7.795 -0.5073 -0.4799 -0.4568
 4378SOL    HW124770   1.701   0.903   7.860 -0.2615  0.6869 -0.6459
 4378SOL    HW224771   1.717   0.826   7.733  0.7142 -1.5144 -0.5609
 4379SOL     OW24772   2.221   4.664   7.238 -0.7142 -0.1209  0.9045
 4379SOL    HW124773   2.201   4.575   7.208 -1.8536 -0.4808  2.7315
 4379SOL    HW224774   2.224   4.659   7.334 -1.2992 -0.9795  0.8839
 4380SOL     OW24775   0.982   0.914   8.729 -0.0670  0.0796  0.1383
 4380SOL    HW124776   0.889   0.893   8.723 -0.5329  2.4387 -0.7047
 4380SOL    HW224777   1.018   0.918   8.641 -0.2967  0.8074  0.0794
 4381SOL     OW24778   4.158   4.183  17.420 -0.7689  0.1248 -0.1011
 4381SOL    HW124779   4.178   4.231  17.500  1.4224 -0.7510 -0.1232
 4381SOL    HW224780   4.181   4.094  17.447  0.1726  0.4107  0.0330
 4382SOL     OW24781   2.321   2.908   6.969  0.3492 -0.7968 -0.0377
 4382SOL    HW124782   2.282   2.971   6.909  3.4965  1.7895  0.6371
 4382SOL    HW224783   2.412   2.936   6.966  0.7343 -1.7249  3.2933
 4383SOL     OW24784   3.399   3.179  13.484  0.3719  0.2767 -0.1499
 4383SOL    HW124785   3.350   3.100  13.504  1.2107 -0.2656 -0.2272
 4383SOL    HW224786   3.404   3.229  13.566 -0.3819  0.0622  0.0199
 4384SOL     OW24787   1.346   2.862   3.834 -0.2520 -0.7096  0.2361
 4384SOL    HW124788   1.381   2.942   3.794 -0.0477 -0.1271  1.5948
 4384SOL    HW224789   1.312   2.814   3.758 -0.5103  0.6354 -0.5060
 4385SOL     OW24790   3.140   3.345   8.041  0.2392  0.0059 -0.1500
 4385SOL    HW124791   3.185   3.397   7.974 -0.5955  1.7302  0.6123
 4385SOL    HW224792   3.166   3.256   8.016 -2.5151 -1.4381  2.1716
 4386SOL     OW24793   4.657   0.615  11.971 -0.1897 -0.8778  0.1701
 4386SOL    HW124794   4.648   0.707  11.947  2.8842 -0.4225  0.7852
 4386SOL    HW224795   4.670   0.581  11.883  0.6709 -0.6696  0.2185
 4387SOL     OW24796   1.046   4.653   3.175  0.3127 -0.4676 -0.0942
 4387SOL    HW124797   1.135   4.653   3.139 -0.5417  2.1936 -2.1901
 4387SOL    HW224798   1.015   0.001   3.146  0.8437  0.2808  1.5574
 4388SOL     OW24799   0.734   3.712   0.451  0.0422  0.1175  0.3931
 4388SOL    HW124800   0.802   3.721   0.518 -0.4023  2.3252  0.5245
 4388SOL    HW224801   0.761   3.760   0.373 -0.7100 -2.0198 -1.1872
 4389SOL     OW24802   1.997   0.427  11.212  0.3702  0.8304 -0.2030
 4389SOL    HW124803   1.997   0.337  11.245 -0.7677  0.7010 -0.5643
 4389SOL    HW224804   2.086   0.440  11.178 -0.0132  0.8459 -1.1937
 4390SOL     OW24805   3.288   0.070   4.528 -0.2557  0.2089 -0.0873
 4390SOL    HW124806   3.325   0.126   4.460  1.4476 -0.2511  0.4726
 4390SOL    HW224807   3.307   0.123   4.605 -0.9200  0.3202 -0.0015
 4391SOL     OW24808   0.064   0.463   3.229  0.1276 -0.4703 -0.3575
 4391SOL    HW124809   4.711   0.451   3.200 -0.1649  0.5703  0.1282
 4391SOL    HW224810   0.086   0.548   3.189 -1.3148  0.5245  0.9774
 4392SOL     OW24811   3.349   0.081  10.630  0.0918  0.2680 -0.1345
 4392SOL    HW124812   3.378   4.727  10.623  0.9174  0.5445 -0.4041
 4392SOL    HW224813   3.374   0.097  10.721 -2.9984  1.1756  0.5392
 4393SOL     OW24814   1.443   3.493   1.820 -0.0273 -0.0595 -0.4556
 4393SOL    HW124815   1.407   3.579   1.841  0.5647 -0.4151  2.1009
 4393SOL    HW224816   1.469   3.474   1.911  2.0922  0.7221 -0.9007
 4394SOL     OW24817   4.038   1.323  11.309  0.4265  0.7541  0.3799
 4394SOL    HW124818   4.066   1.265  11.380 -0.4756 -0.4696 -0.2499
 4394SOL    HW224819   4.081   1.407  11.321  4.1558 -1.1702  0.5939
 4395SOL     OW24820   2.335   1.770  16.856  0.1456 -0.6022  0.6474
 4395SOL    HW124821   2.251   1.741  16.821  1.4183 -1.9588 -1.2459
 4395SOL    HW224822   2.319   1.856  16.896 -2.3765 -0.1159 -1.4092
 4396SOL     OW24823   3.038   1.956   8.949 -0.2024 -0.0764  0.1515
 4396SOL    HW124824   3.134   1.956   8.953 -0.1725  1.9186 -0.9413
 4396SOL    HW224825   3.018   1.912   9.032  1.1947  1.2480  1.1931
 4397SOL     OW24826   4.168   2.009   3.169 -0.3164 -0.8093 -0.0930
 4397SOL    HW124827   4.080   2.039   3.148 -1.6190 -2.9287  2.4167
 4397SOL    HW224828   4.205   2.073   3.230 -1.7750  0.2232 -0.2832
 4398SOL     OW24829   4.114   1.757   6.714  0.1113  0.4533  0.6919
 4398SOL    HW124830   4.041   1.787   6.768 -1.5403  0.4602 -1.5187
 4398SOL    HW224831   4.127   1.666   6.739 -0.5823  0.4641  1.0759
 4399SOL     OW24832   4.477   3.797  17.445 -0.5675  0.0819  0.1942
 4399SOL    HW124833   4.460   3.732  17.377 -1.6187  0.9412 -0.3657
 4399SOL    HW224834   4.564   3.831  17.426 -0.9525  1.0462  0.1695
 4400SOL     OW24835   1.295   4.293  16.757 -0.3067 -0.2295 -0.0033
 4400SOL    HW124836   1.343   4.344  16.821 -2.8675  0.9472  0.9507
 4400SOL    HW224837   1.236   4.248  16.817 -1.7083  3.6309  1.5066
 4401SOL     OW24838   3.324   0.221   8.795 -0.3503 -0.4341  0.0890
 4401SOL    HW124839   3.322   0.129   8.769  0.4804  0.2716 -2.5011
 4401SOL    HW224840   3.304   0.212   8.888 -2.2330  0.5132 -0.2295
 4402SOL     OW24841   3.794   0.588  13.917 -0.3050 -0.1153 -0.3479
 4402SOL    HW124842   3.733   0.557  13.849 -2.4629  1.1194  1.0141
 4402SOL    HW224843   3.746   0.651  13.971  2.3983  0.4207  1.3844
 4403SOL     OW24844   0.213   1.347  12.905 -0.4396  0.0284 -0.3717
 4403SOL    HW124845   0.224   1.253  12.894 -0.8754 -0.3842  2.5938
 4403SOL    HW224846   0.126   1.350  12.866 -0.3911 -1.7697 -0.6074
 4404SOL     OW24847   3.214   0.100   3.268  0.0636 -0.0343 -0.3933
 4404SOL    HW124848   3.306   0.113   3.244 -0.1122  0.3239 -0.8799
 4404SOL    HW224849   3.175   0.101   3.180 -1.0153  3.3865  0.1280
 4405SOL     OW24850   1.401   1.199   3.940 -0.6073 -0.3053 -0.4963
 4405SOL    HW124851   1.343   1.191   4.016  1.1097  1.3398  0.9731
 4405SOL    HW224852   1.444   1.281   3.961  1.3894 -1.3323 -0.5581
 4406SOL     OW24853   2.781   0.222   2.404  0.3547 -0.0492  0.2731
 4406SOL    HW124854   2.811   0.312   2.387  1.3110 -0.4557 -0.1948
 4406SOL    HW224855   2.722   0.232   2.478  0.6006  1.1303  0.3050
 4407SOL     OW24856   0.304   0.371   4.654  0.4221 -0.8475 -0.0421
 4407SOL    HW124857   0.293   0.466   4.653  2.6642 -0.6053  0.3948
 4407SOL    HW224858   0.339   0.378   4.742 -0.9612  0.0079  0.4484
 4408SOL     OW24859   3.775   0.570   9.111 -0.6280  0.3614 -0.5755
 4408SOL    HW124860   3.736   0.598   9.028 -0.4825  2.6424  0.1086
 4408SOL    HW224861   3.716   0.510   9.156 -1.2010 -0.2202 -2.1048
 4409SOL     OW24862   2.624   1.328  15.760  0.2883 -0.3029  0.2177
 4409SOL    HW124863   2.540   1.323  15.714 -0.1902  1.3885  0.9282
 4409SOL    HW224864   2.654   1.237  15.769 -1.5754 -0.9491 -0.0128
 4410SOL     OW24865   2.525   3.209  12.020  0.0541 -0.1160  0.1291
 4410SOL    HW124866   2.500   3.246  11.935 -0.7470  1.0915  0.8955
 4410SOL    HW224867   2.601   3.263  12.040  0.1574  0.3945 -1.6106
 4411SOL     OW24868   3.699   0.152   9.691  0.1265 -0.6915  0.5730
 4411SOL    HW124869   3.664   0.222   9.635  1.6120  0.3690  0.9782
 4411SOL    HW224870   3.769   0.193   9.741 -0.7117  1.1668  0.2469
 4412SOL     OW24871   1.603   4.523   5.299 -0.1958 -0.0074  0.1527
 4412SOL    HW124872   1.552   4.445   5.278 -0.1827 -0.1685  0.7254
 4412SOL    HW224873   1.541   4.594   5.316 -0.3900 -0.3897  1.0414
 4413SOL     OW24874   2.079   0.121   9.696 -0.0484  0.3467 -0.7826
 4413SOL    HW124875   2.147   0.071   9.651 -2.3951 -1.4744 -2.3590
 4413SOL    HW224876   2.104   0.211   9.676  1.4050 -0.0649 -0.7791
 4414SOL     OW24877   3.524   3.859   9.663 -0.0804  0.7258 -0.2796
 4414SOL    HW124878   3.437   3.893   9.682 -0.2496  0.7309 -1.0549
 4414SOL    HW224879   3.567   3.900   9.738 -1.1324 -2.7194  2.1942
 4415SOL     OW24880   4.435   2.864   6.203  0.3324 -0.2690 -0.4912
 4415SOL    HW124881   4.362   2.845   6.263 -0.2814  1.4544 -0.6818
 4415SOL    HW224882   4.505   2.833   6.260  2.2333 -0.1391 -2.7643
 4416SOL     OW24883   0.379   3.516  16.067  1.0173 -0.9628  0.1749
 4416SOL    HW124884   0.332   3.597  16.052 -0.1822 -1.4817  1.0982
 4416SOL    HW224885   0.318   3.468  16.123  2.5499  1.5125  3.9075
 4417SOL     OW24886   0.567   1.744  13.926 -0.1286  0.3101  0.1273
 4417SOL    HW124887   0.576   1.826  13.877  4.0313  0.1369  0.5595
 4417SOL    HW224888   0.653   1.711  13.901 -0.0558  0.1115  0.6370
 4418SOL     OW24889   3.816   0.457   6.765  0.1237  0.0893 -0.3999
 4418SOL    HW124890   3.789   0.480   6.854  0.2549 -2.2096  0.2352
 4418SOL    HW224891   3.874   0.530   6.741 -0.9066  1.0511  0.0256
 4419SOL     OW24892   3.702   3.889  13.573 -0.3419  0.8754 -0.1554
 4419SOL    HW124893   3.716   3.891  13.668 -0.4763 -1.2653 -0.0859
 4419SOL    HW224894   3.640   3.817  13.561  0.3592 -0.0622  1.7192
 4420SOL     OW24895   2.138   0.285  15.707 -0.3213  0.3614 -0.0623
 4420SOL    HW124896   2.137   0.381  15.708 -0.4609  0.3608 -0.1308
 4420SOL    HW224897   2.098   0.268  15.622 -2.3187  2.1157  0.5194
 4421SOL     OW24898   0.121   0.712   2.544  0.1047 -0.5271  0.4158
 4421SOL    HW124899   0.089   0.712   2.634  0.5441  0.5082  0.5734
 4421SOL    HW224900   0.085   0.630   2.509  1.0207 -0.0997 -1.5440
 4422SOL     OW24901   0.293   2.849   5.298 -0.4703 -0.0643  0.3231
 4422SOL    HW124902   0.220   2.792   5.274 -0.1575 -0.4231  0.2285
 4422SOL    HW224903   0.371   2.796   5.285 -0.9201 -0.2528 -1.7137
 4423SOL     OW24904   1.867   1.812   2.873 -0.4191  0.0792 -0.0520
 4423SOL    HW124905   1.818   1.797   2.793 -0.6733 -0.2396  0.1658
 4423SOL    HW224906   1.802   1.874   2.905 -2.5364 -1.5644 -1.2106
 4424SOL     OW24907   2.996   0.865  14.304  0.7410  0.0816  0.3355
 4424SOL    HW124908   2.933   0.915  14.356  0.7725  0.2295  0.2329
 4424SOL    HW224909   3.076   0.918  14.302  1.1401 -0.4914  0.9478
 4425SOL     OW24910   3.832   0.192   1.692 -0.0894 -0.1719 -0.6746
 4425SOL    HW124911   3.856   0.272   1.739 -2.6362 -0.2077  0.6451
 4425SOL    HW224912   3.775   0.222   1.622 -0.5973  2.1877  0.7498
 4426SOL     OW24913   3.571   2.698   2.418  0.5929 -0.2193 -1.0220
 4426SOL    HW124914   3.529   2.782   2.439 -2.3481 -1.2000 -2.9625
 4426SOL    HW224915   3.667   2.707   2.420  0.4357  1.3834 -0.0675
 4427SOL     OW24916   3.240   0.300   2.058 -0.0996 -0.2526  0.1398
 4427SOL    HW124917   3.304   0.270   1.994  0.9003  0.8872  0.6124
 4427SOL    HW224918   3.282   0.376   2.098 -0.9558  0.7621 -0.8457
 4428SOL     OW24919   3.872   4.498   9.873  0.4240  0.6784  0.6138
 4428SOL    HW124920   3.848   4.513   9.781  2.3599 -0.3775 -0.0447
 4428SOL    HW224921   3.948   4.441   9.866 -0.4419 -0.2302 -1.5525
 4429SOL     OW24922   2.070   2.555  12.324  0.2636 -0.0173 -0.8422
 4429SOL    HW124923   1.976   2.535  12.321  0.0454  1.4568 -3.2762
 4429SOL    HW224924   2.084   2.575  12.232 -2.3425  3.2740 -0.5141
 4430SOL     OW24925   3.311   3.635   7.525 -0.4510 -0.1123 -0.3856
 4430SOL    HW124926   3.294   3.725   7.554 -0.6411 -0.1810 -0.2813
 4430SOL    HW224927   3.218   3.615   7.514 -0.9448  1.4770  0.8475
 4431SOL     OW24928   2.789   3.327   1.581  0.0840  0.2256  0.4201
 4431SOL    HW124929   2.728   3.341   1.508 -0.7141  0.5797  1.1501
 4431SOL    HW224930   2.831   3.244   1.559  0.4362  0.8404 -1.1968
 4432SOL     OW24931   4.507   1.006   3.283  0.8580  0.0150 -0.4683
 4432SOL    HW124932   4.440   0.938   3.284 -0.4942  1.3726  0.0784
 4432SOL    HW224933   4.526   1.015   3.377  2.2731  0.5262 -0.7932
 4433SOL     OW24934   0.692   3.628  13.850  0.0207 -0.0416 -0.0773
 4433SOL    HW124935   0.767   3.659  13.901 -0.6202 -0.1558  0.9423
 4433SOL    HW224936   0.738   3.612  13.768  2.0069  0.4574  0.9489
 4434SOL     OW24937   1.806   2.532  12.278 -0.2823 -0.5611 -0.1307
 4434SOL    HW124938   1.775   2.595  12.214  0.2025 -1.3477 -1.1277
 4434SOL    HW224939   1.783   2.448  12.239  2.3636 -0.6543 -1.4651
 4435SOL     OW24940   3.402   0.250   2.410 -0.1993 -0.6477  1.0376
 4435SOL    HW124941   3.406   0.168   2.361 -2.2789 -0.3577  0.3938
 4435SOL    HW224942   3.481   0.286   2.370 -0.6837  0.3683  0.9992
 4436SOL     OW24943   0.632   3.785   4.227  0.0885 -0.6304  0.6911
 4436SOL    HW124944   0.646   3.863   4.173  2.2558 -1.1185  0.5475
 4436SOL    HW224945   0.630   3.727   4.151 -2.5282  0.2583  0.1048
 4437SOL     OW24946   0.335   4.174   0.374  0.0433  0.3465 -0.1101
 4437SOL    HW124947   0.374   4.258   0.351  1.8591 -0.4728 -0.0031
 4437SOL    HW224948   0.269   4.183   0.305 -2.3244  2.5377  2.4245
 4438SOL     OW24949   3.223   3.174  10.385 -0.5883  0.5434  0.1348
 4438SOL    HW124950   3.251   3.252  10.433  4.0010 -2.1682  1.8608
 4438SOL    HW224951   3.307   3.135  10.364  0.0563  0.5656  2.6478
 4439SOL     OW24952   2.654   0.273   6.118 -0.0995  0.3096 -0.1619
 4439SOL    HW124953   2.722   0.324   6.075  1.1987  0.5960  2.2671
 4439SOL    HW224954   2.702   0.230   6.188 -0.0243  2.0108  0.8180
 4440SOL     OW24955   0.314   3.406   1.174 -0.5621 -0.2356 -0.3796
 4440SOL    HW124956   0.405   3.378   1.185 -0.1446  1.0083 -0.6413
 4440SOL    HW224957   0.297   3.471   1.242  1.0145  0.0099 -0.2255
 4441SOL     OW24958   3.608   1.432   8.090 -0.2183 -0.4324 -0.1550
 4441SOL    HW124959   3.637   1.429   7.999 -0.6725 -1.1974 -0.2644
 4441SOL    HW224960   3.683   1.392   8.134  0.0134 -1.1593 -1.2332
 4442SOL     OW24961   2.225   0.897   2.614 -0.3452  0.6213  0.0740
 4442SOL    HW124962   2.176   0.977   2.595  0.6244  1.7179  2.1710
 4442SOL    HW224963   2.162   0.827   2.598 -0.4305  1.1278 -1.7275
 4443SOL     OW24964   2.446   0.717   8.419 -0.2541  0.4308  0.0309
 4443SOL    HW124965   2.457   0.705   8.514  1.1473 -2.5060 -0.5045
 4443SOL    HW224966   2.381   0.786   8.412 -0.3866  0.2574 -0.4077
 4444SOL     OW24967   0.279   3.910   6.517 -0.4802  0.1995  0.5347
 4444SOL    HW124968   0.369   3.879   6.516 -0.7148 -0.4628  0.1713
 4444SOL    HW224969   0.239   3.858   6.587 -2.2552  1.1814  0.2482
 4445SOL     OW24970   3.410   1.962   4.788 -0.6796  0.2678  0.1170
 4445SOL    HW124971   3.492   1.992   4.825 -0.1019 -1.4753  0.2682
 4445SOL    HW224972   3.392   2.020   4.714  0.2929  1.1520  0.5927
 4446SOL     OW24973   3.452   4.264   5.879 -0.0628  0.3586  0.5217
 4446SOL    HW124974   3.372   4.313   5.897  0.6680  1.6598  0.1874
 4446SOL    HW224975   3.518   4.331   5.862 -0.9647  0.3465 -2.9320
 4447SOL     OW24976   3.298   3.952   6.693 -0.1008  0.3261  0.0509
 4447SOL    HW124977   3.231   4.018   6.674  0.5549  1.3336  1.2386
 4447SOL    HW224978   3.244   3.886   6.736  1.0079  0.3421  1.4757
 4448SOL     OW24979   1.783   2.029  14.416  0.3205 -0.4692 -0.7461
 4448SOL    HW124980   1.837   1.954  14.389 -1.6791 -1.6742 -1.3760
 4448SOL    HW224981   1.704   1.993  14.376 -0.7548  0.0826  0.9188
 4449SOL     OW24982   0.660   3.994   3.973  0.6711  0.2630  0.0995
 4449SOL    HW124983   0.722   4.017   3.904 -0.0768 -1.4977 -1.1305
 4449SOL    HW224984   0.667   4.065   4.038  1.2237  1.8525 -1.7019
 4450SOL     OW24985   2.841   3.755   0.416 -0.2981 -0.1827 -0.0699
 4450SOL    HW124986   2.926   3.799   0.412 -1.0185  1.1837 -0.6151
 4450SOL    HW224987   2.813   3.796   0.498  1.8800  0.5406  0.3064
 4451SOL     OW24988   4.723   0.421   3.539  0.2424 -0.0008 -0.1285
 4451SOL    HW124989   0.028   0.449   3.620  2.0433 -2.4771 -0.1834
 4451SOL    HW224990   4.724   0.498   3.483 -2.7570  0.6443  0.7056
 4452SOL     OW24991   3.398   2.830   5.900  0.0387 -0.1699 -0.1155
 4452SOL    HW124992   3.314   2.877   5.897  0.0441 -0.2435 -1.4842
 4452SOL    HW224993   3.456   2.903   5.919 -0.1863  0.5195 -2.1072
 4453SOL     OW24994   4.439   3.042  16.704 -0.6255  0.2801 -0.2921
 4453SOL    HW124995   4.372   3.025  16.638 -1.2476  0.0120  0.4071
 4453SOL    HW224996   4.402   3.019  16.789  3.2655 -0.9969  1.0556
 4454SOL     OW24997   2.361   0.876  13.444 -0.1640 -0.3850 -0.2781
 4454SOL    HW124998   2.366   0.958  13.493  1.6399  0.1516 -1.3572
 4454SOL    HW224999   2.412   0.810  13.490  0.7734  0.6417  0.1532
 4455SOL     OW25000   2.480   4.681   6.450 -0.1087  0.0195 -0.3048
 4455SOL    HW125001   2.446   4.696   6.538  0.6269 -0.4379  0.0554
 4455SOL    HW225002   2.428   0.014   6.410  1.5452  1.5683  0.2865
 4456SOL     OW25003   2.908   1.687  13.400  0.3452 -0.0631 -0.2378
 4456SOL    HW125004   2.846   1.674  13.328  0.2146  0.8834 -0.3021
 4456SOL    HW225005   2.855   1.736  13.464  0.2913  1.3650 -1.3746
 4457SOL     OW25006   1.233   0.443   5.190  0.1146 -0.2940  0.4677
 4457SOL    HW125007   1.252   0.421   5.281 -3.1341  0.4074  1.3272
 4457SOL    HW225008   1.221   0.360   5.146 -0.7419 -0.2514  0.6145
 4458SOL     OW25009   1.811   2.366   4.906  0.0207 -0.3108  0.1594
 4458SOL    HW125010   1.770   2.297   4.958  0.0553  1.5879  2.7095
 4458SOL    HW225011   1.820   2.440   4.967  0.0045 -0.6976  0.6262
 4459SOL     OW25012   1.127   2.196   9.101  0.5361 -0.2997 -0.1952
 4459SOL    HW125013   1.171   2.281   9.105  0.4240 -0.0755 -3.6318
 4459SOL    HW225014   1.138   2.177   9.194  0.2680  0.9940  0.1035
 4460SOL     OW25015   0.338   3.032   8.092 -0.5073 -0.9423 -0.2496
 4460SOL    HW125016   0.326   3.118   8.053 -0.2229 -0.8227 -0.0730
 4460SOL    HW225017   0.392   3.049   8.170  1.0758 -0.9976 -1.3242
 4461SOL     OW25018   3.013   2.512   5.165  0.3697 -0.0542  0.5984
 4461SOL    HW125019   2.954   2.453   5.117  0.5683  1.3628 -1.3890
 4461SOL    HW225020   3.090   2.455   5.169  0.6942  0.3270 -0.1721
 4462SOL     OW25021   2.273   4.356   2.235 -0.3016 -0.4565  0.1280
 4462SOL    HW125022   2.321   4.275   2.253  1.3022  0.6065  0.6240
 4462SOL    HW225023   2.194   4.346   2.288 -0.2262  1.7342  0.6523
 4463SOL     OW25024   4.584   3.672   5.652 -0.6462 -0.5331  0.3268
 4463SOL    HW125025   4.600   3.756   5.608  1.3448  0.0967  2.2666
 4463SOL    HW225026   4.616   3.614   5.583 -2.7420 -0.4303 -0.7289
 4464SOL     OW25027   4.665   1.017  11.507 -0.5547 -0.2517 -0.3285
 4464SOL    HW125028   4.580   1.052  11.531  0.3395  1.6785  0.0489
 4464SOL    HW225029   4.726   1.057  11.569  1.0287 -3.2690  0.0459
 4465SOL     OW25030   4.186   3.895   3.902 -0.0058  0.1796  0.0813
 4465SOL    HW125031   4.207   3.973   3.850 -1.9490  1.0744  0.6412
 4465SOL    HW225032   4.251   3.836   3.864  0.9339  1.3196 -0.0748
 4466SOL     OW25033   0.528   1.372   1.452 -0.3246 -0.1301 -0.1690
 4466SOL    HW125034   0.598   1.347   1.392 -0.1324 -0.7252  0.3078
 4466SOL    HW225035   0.528   1.306   1.521  0.5269 -0.8788 -0.8940
 4467SOL     OW25036   2.596   1.989  11.905 -0.4730 -0.2936 -0.3868
 4467SOL    HW125037   2.544   1.913  11.881 -2.1875  0.3599  1.2862
 4467SOL    HW225038   2.627   1.956  11.990  1.0870  0.8089 -0.5199
 4468SOL     OW25039   3.958   3.881  16.870  0.2702 -0.1815  0.3220
 4468SOL    HW125040   3.898   3.945  16.909  1.1497  0.7638  0.0967
 4468SOL    HW225041   3.902   3.807  16.843  0.8563 -0.8552  0.9596
 4469SOL     OW25042   3.498   4.074   6.851 -0.0637  0.5969  0.0383
 4469SOL    HW125043   3.523   3.982   6.858 -0.9190  0.5224  2.2781
 4469SOL    HW225044   3.434   4.071   6.780 -0.4927  0.3744  0.4326
 4470SOL     OW25045   0.734   3.185   4.913  0.0328  0.1528 -0.6576
 4470SOL    HW125046   0.667   3.192   4.845  0.5472  1.4120 -1.0228
 4470SOL    HW225047   0.690   3.196   4.997  1.6015  0.3508  0.1443
 4471SOL     OW25048   4.707   2.849   5.002  0.8826  0.1347 -0.8407
 4471SOL    HW125049   0.033   2.805   5.059 -2.4674 -1.8780  1.3300
 4471SOL    HW225050   4.737   2.937   4.980 -1.5552  0.9915 -0.6594
 4472SOL     OW25051   1.928   1.821  14.322  0.1422  0.1415 -0.0379
 4472SOL    HW125052   1.923   1.821  14.226 -0.9112  1.0788  0.0169
 4472SOL    HW225053   1.893   1.734  14.342  2.0152 -0.1953  1.7618
 4473SOL     OW25054   1.871   2.417   9.563  0.7661 -0.3173 -0.5032
 4473SOL    HW125055   1.840   2.435   9.474  0.6810 -0.0265 -0.4139
 4473SOL    HW225056   1.814   2.472   9.616 -0.0766  1.0588 -2.8401
 4474SOL     OW25057   0.958   3.509   1.648 -0.1522 -0.3361  0.4932
 4474SOL    HW125058   1.027   3.573   1.629 -0.9434  0.9208  1.8420
 4474SOL    HW225059   0.998   3.437   1.698 -1.6381 -1.8773 -0.5463
 4475SOL     OW25060   1.703   0.764   9.129  0.3054 -0.2253  0.5277
 4475SOL    HW125061   1.789   0.762   9.171  1.5468 -2.2931 -2.1389
 4475SOL    HW225062   1.667   0.702   9.192  0.9496 -1.8592 -0.7056
 4476SOL     OW25063   4.197   3.361   8.212  0.3169 -0.0782 -0.1743
 4476SOL    HW125064   4.152   3.439   8.182 -0.2750 -0.0080  0.9061
 4476SOL    HW225065   4.162   3.298   8.149  2.1177 -1.1111 -0.1619
 4477SOL     OW25066   2.471   4.000   6.071 -0.2813  0.2287 -0.2804
 4477SOL    HW125067   2.513   3.918   6.096  0.0712  0.0236 -1.5469
 4477SOL    HW225068   2.387   3.963   6.045 -0.2463  1.1344 -1.6859
 4478SOL     OW25069   2.449   4.109  12.603 -0.1318 -0.6333 -0.3982
 4478SOL    HW125070   2.503   4.121  12.681  1.1738 -1.6486 -1.1406
 4478SOL    HW225071   2.369   4.136  12.648  0.1869 -0.5430  0.1113
 4479SOL     OW25072   2.919   3.234   5.315 -0.0510  0.0004  0.5732
 4479SOL    HW125073   2.993   3.182   5.282 -0.7366  0.4322 -1.6174
 4479SOL    HW225074   2.961   3.308   5.360  0.7041 -1.1829  1.8314
 4480SOL     OW25075   3.869   1.053   7.017  0.0372  0.1419  0.0064
 4480SOL    HW125076   3.885   1.140   7.052 -0.6007 -0.0767  0.8674
 4480SOL    HW225077   3.801   1.085   6.957  0.2771 -1.0180 -0.8823
 4481SOL     OW25078   0.161   0.362   5.699  0.1580 -0.0284 -1.0921
 4481SOL    HW125079   0.168   0.269   5.721 -0.1369 -0.1146 -1.3657
 4481SOL    HW225080   0.235   0.382   5.642  0.5469 -1.4684 -1.1055
 4482SOL     OW25081   2.546   2.534   3.240  0.0981  0.1178  0.2991
 4482SOL    HW125082   2.524   2.567   3.327 -0.9911  1.1199 -0.3405
 4482SOL    HW225083   2.622   2.483   3.267 -1.6303 -1.0898  2.8272
 4483SOL     OW25084   1.697   4.699   3.730  0.2350  0.4695  0.4120
 4483SOL    HW125085   1.634   4.714   3.800 -1.1379  0.2386 -0.7639
 4483SOL    HW225086   1.642   4.648   3.670  0.9290 -0.4504  0.5618
 4484SOL     OW25087   3.873   3.770   0.030 -0.4623  0.2819 -0.3389
 4484SOL    HW125088   3.960   3.809   0.025  0.5782 -1.7319  1.7904
 4484SOL    HW225089   3.840   3.827   0.099  0.4457 -0.0730  0.3863
 4485SOL     OW25090   3.627   1.693   6.530 -0.0017 -0.0185 -0.3526
 4485SOL    HW125091   3.560   1.658   6.588 -1.0816  2.0464 -0.3689
 4485SOL    HW225092   3.656   1.762   6.589 -2.0133  0.7739 -0.2903
 4486SOL     OW25093   2.401   2.994  10.439 -0.0584 -0.4308 -0.0355
 4486SOL    HW125094   2.405   2.958  10.528 -0.2988 -0.9739 -0.2415
 4486SOL    HW225095   2.376   3.082  10.466  0.2459 -1.2918  3.1096
 4487SOL     OW25096   3.651   0.878   6.008 -0.2854  1.0207  0.4049
 4487SOL    HW125097   3.740   0.897   6.039 -0.1861 -1.3227  1.5668
 4487SOL    HW225098   3.607   0.958   6.035 -1.7691 -0.0937  1.2533
 4488SOL     OW25099   2.646   3.551   6.638  0.6968  0.2605  0.0414
 4488SOL    HW125100   2.681   3.538   6.550  0.8068  1.6599 -0.1283
 4488SOL    HW225101   2.575   3.487   6.638  0.5269  0.4501 -1.1464
 4489SOL     OW25102   4.451   1.901   6.460 -0.0838  0.2899  0.6729
 4489SOL    HW125103   4.404   1.825   6.427  1.2652 -0.2830  0.0549
 4489SOL    HW225104   4.386   1.968   6.442 -1.6156 -0.9956  1.3764
 4490SOL     OW25105   0.133   4.187   8.644  0.1412  0.6985 -0.3540
 4490SOL    HW125106   0.049   4.226   8.667 -0.3161 -0.2228 -0.4341
 4490SOL    HW225107   0.183   4.268   8.654 -0.2713  0.9410 -0.2728
 4491SOL     OW25108   1.416   1.772   1.400 -0.2376 -0.4416 -0.0411
 4491SOL    HW125109   1.473   1.847   1.420 -1.4175  0.6517 -0.7667
 4491SOL    HW225110   1.429   1.760   1.306  0.7533  1.8831 -0.1970
 4492SOL     OW25111   3.549   3.681   7.018  0.1882 -0.3653  0.2302
 4492SOL    HW125112   3.592   3.602   6.984  0.4429 -0.1531  0.0636
 4492SOL    HW225113   3.587   3.670   7.105  0.5456 -0.8507  0.0128
 4493SOL     OW25114   0.227   0.687   5.158 -0.0417 -0.8020  0.1559
 4493SOL    HW125115   0.208   0.750   5.088 -1.8319 -0.1832  1.1945
 4493SOL    HW225116   0.154   0.626   5.144 -0.7474  0.2870 -0.8993
 4494SOL     OW25117   0.152   0.877   7.374 -0.2782  0.2945 -0.2651
 4494SOL    HW125118   0.134   0.940   7.444  0.0314  0.3749 -0.2562
 4494SOL    HW225119   0.114   0.794   7.401 -0.6142  0.4353 -0.3112
 4495SOL     OW25120   2.362   4.426  10.533 -0.1995  0.2957  0.3168
 4495SOL    HW125121   2.292   4.457  10.476  0.6515  0.5875 -0.5645
 4495SOL    HW225122   2.333   4.444  10.623  0.6003 -1.4012  0.9021
 4496SOL     OW25123   1.956   0.380   2.230 -0.0834  0.4102 -0.3470
 4496SOL    HW125124   1.920   0.341   2.151 -0.9558  2.9679 -1.2160
 4496SOL    HW225125   2.048   0.363   2.211 -0.4449 -0.1351 -1.5888
 4497SOL     OW25126   2.026   3.786   5.232 -0.6975  0.0964 -0.5013
 4497SOL    HW125127   2.057   3.863   5.279  1.7329 -1.2431  0.1037
 4497SOL    HW225128   2.088   3.781   5.159 -1.4233 -0.4108 -1.0854
 4498SOL     OW25129   2.067   1.471  12.215 -0.1959 -0.2576 -0.0961
 4498SOL    HW125130   2.027   1.384  12.222 -0.9387  0.0609 -0.3235
 4498SOL    HW225131   2.100   1.468  12.126 -0.0466  1.5696 -0.1043
 4499SOL     OW25132   3.678   1.067  11.065  0.3014 -0.2371 -0.6528
 4499SOL    HW125133   3.737   1.081  10.991 -1.1573 -0.5490 -1.8661
 4499SOL    HW225134   3.712   1.126  11.132 -0.4020 -1.0213  0.3905
 4500SOL     OW25135   2.744   0.611  17.412  0.2229 -0.1789 -0.2619
 4500SOL    HW125136   2.779   0.692  17.376 -1.0327 -0.2617 -1.6648
 4500SOL    HW225137   2.729   0.635  17.503  1.3788  0.9095 -0.3511
 4501SOL     OW25138   4.476   1.888   3.977 -0.8501 -0.0361 -0.2230
 4501SOL    HW125139   4.400   1.945   3.987 -0.5223  0.0851  1.5145
 4501SOL    HW225140   4.540   1.956   4.000  1.6599 -2.0299 -1.3499
 4502SOL     OW25141   3.146   3.185   2.681 -0.3190  0.4636  0.1652
 4502SOL    HW125142   3.144   3.109   2.738  3.0009 -0.7421 -1.2986
 4502SOL    HW225143   3.213   3.241   2.721 -0.4830  0.1995  0.8008
 4503SOL     OW25144   2.291   1.176   0.377 -0.3190 -0.0580 -0.3592
 4503SOL    HW125145   2.329   1.237   0.440  2.5748 -2.0066 -0.2630
 4503SOL    HW225146   2.371   1.135   0.345  0.2460  0.1525  0.7912
 4504SOL     OW25147   2.507   4.232  13.109  0.3415 -0.5551  0.8874
 4504SOL    HW125148   2.601   4.237  13.125  1.1437  0.2608 -3.8333
 4504SOL    HW225149   2.485   4.322  13.084 -0.0293 -0.6517  0.8644
 4505SOL     OW25150   3.912   2.806   4.079  0.2340  0.1745 -0.3126
 4505SOL    HW125151   3.840   2.785   4.020 -0.2520 -0.1930  0.4154
 4505SOL    HW225152   3.915   2.900   4.058 -0.5587  0.1404 -0.5677
 4506SOL     OW25153   2.014   1.345  17.668  0.3626  0.3559  0.2507
 4506SOL    HW125154   2.084   1.280  17.658 -0.5713 -1.3912  4.8763
 4506SOL    HW225155   2.057   1.426  17.695  1.0489  0.0323  0.1271
 4507SOL     OW25156   2.778   2.012   6.985 -0.0404 -0.1599  0.4804
 4507SOL    HW125157   2.763   2.106   6.974  1.9734 -0.2013 -2.6117
 4507SOL    HW225158   2.729   1.990   7.064  0.7391 -1.1039  0.6910
 4508SOL     OW25159   3.467   4.535  10.917 -0.2476  0.6720  0.3207
 4508SOL    HW125160   3.561   4.536  10.930 -0.4046 -0.4994  1.5050
 4508SOL    HW225161   3.441   4.627  10.913 -1.2099  0.4445  1.2645
 4509SOL     OW25162   0.031   1.717   6.104  0.2649 -0.4627 -0.2033
 4509SOL    HW125163   4.718   1.739   6.183  1.5294  0.1736  0.4160
 4509SOL    HW225164   0.050   1.627   6.128  0.3756 -0.7691 -1.4307
 4510SOL     OW25165   2.706   3.906   5.691  0.0534  0.3939  0.2707
 4510SOL    HW125166   2.745   3.857   5.618 -0.6217  1.0039 -0.4909
 4510SOL    HW225167   2.614   3.886   5.679  0.2340 -0.3139  0.0527
 4511SOL     OW25168   2.650   1.611  10.489  0.0130  0.5160 -0.8214
 4511SOL    HW125169   2.727   1.554  10.490 -0.3466  0.0270 -1.0290
 4511SOL    HW225170   2.665   1.676  10.420  0.6430  0.3887 -0.7991
 4512SOL     OW25171   4.361   0.113   2.658 -0.2388  0.4194 -0.6365
 4512SOL    HW125172   4.375   0.044   2.593  0.1735 -1.0044  0.9641
 4512SOL    HW225173   4.289   0.163   2.619 -1.6936 -0.5770  0.7424
 4513SOL     OW25174   0.399   0.118   7.617 -0.4619  0.6834 -0.1552
 4513SOL    HW125175   0.370   0.122   7.526  1.8015 -0.9186 -0.9592
 4513SOL    HW225176   0.465   0.188   7.620  0.7088 -0.4750  1.7536
 4514SOL     OW25177   1.311   3.529  13.493 -0.2894  0.8720 -0.8961
 4514SOL    HW125178   1.370   3.578  13.550 -1.1051  0.1795  0.5583
 4514SOL    HW225179   1.242   3.509  13.557  0.1596 -0.6963 -0.9072
 4515SOL     OW25180   2.449   0.853   4.917  0.1948 -0.2550  0.2322
 4515SOL    HW125181   2.453   0.761   4.943  4.0671 -0.4575 -1.1479
 4515SOL    HW225182   2.506   0.854   4.840  1.3193  0.7162  1.0896
 4516SOL     OW25183   1.219   0.947   2.205 -0.4304  0.6259 -0.0020
 4516SOL    HW125184   1.291   0.963   2.144 -1.3497  0.2078 -1.1954
 4516SOL    HW225185   1.141   0.961   2.151 -0.6289  1.2283  0.4380
 4517SOL     OW25186   2.350   2.600  14.966 -0.0225 -0.2609 -0.0675
 4517SOL    HW125187   2.271   2.570  14.921 -0.9952 -0.6459  1.9039
 4517SOL    HW225188   2.367   2.527  15.026  1.9366  1.4241  1.4127
 4518SOL     OW25189   0.988   1.950   9.374  0.5566  0.6373 -0.0662
 4518SOL    HW125190   0.970   1.875   9.318 -1.3500 -0.5007  2.0868
 4518SOL    HW225191   1.082   1.960   9.364  0.4484  2.4319  0.6224
 4519SOL     OW25192   2.165   0.119   1.641  0.0984 -0.8536  0.1362
 4519SOL    HW125193   2.247   0.074   1.618 -0.1100 -0.5573 -1.1479
 4519SOL    HW225194   2.193   0.176   1.713 -0.3629 -0.7299  0.2132
 4520SOL     OW25195   0.338   4.648   7.816  0.0077  0.1407  0.5217
 4520SOL    HW125196   0.294   4.639   7.731 -0.9656 -1.1658  1.1730
 4520SOL    HW225197   0.403   4.714   7.789  0.7812 -0.9404 -0.2622
 4521SOL     OW25198   2.590   2.988   4.489  0.4504 -0.2508  0.3319
 4521SOL    HW125199   2.618   2.935   4.414 -0.0395 -0.1570  0.0860
 4521SOL    HW225200   2.577   3.075   4.453  2.0985 -1.3490 -2.9083
 4522SOL     OW25201   1.890   2.082   5.756  0.0394  0.0020  0.2608
 4522SOL    HW125202   1.921   2.164   5.793  2.1955 -0.8645  0.3599
 4522SOL    HW225203   1.824   2.065   5.823  1.8221  0.9343  2.2098
 4523SOL     OW25204   3.294   0.800   9.022 -0.0720 -0.0514 -0.3435
 4523SOL    HW125205   3.350   0.726   9.001  0.0059  0.1676 -0.8939
 4523SOL    HW225206   3.228   0.799   8.953 -2.4715 -0.7237  1.9316
 4524SOL     OW25207   0.126   1.004   4.624  0.1674 -0.0854 -0.2287
 4524SOL    HW125208   0.035   0.974   4.627  0.1749 -0.2781 -1.8760
 4524SOL    HW225209   0.150   1.042   4.709 -2.7268  0.2747  0.4437
 4525SOL     OW25210   2.550   3.766   1.391 -0.1280 -0.0759  0.5124
 4525SOL    HW125211   2.604   3.770   1.312 -0.6279 -2.0375  0.0539
 4525SOL    HW225212   2.526   3.673   1.385 -1.3532  0.2409  0.4778
 4526SOL     OW25213   4.570   2.885   1.641 -0.1610  0.0579  0.6317
 4526SOL    HW125214   4.642   2.930   1.685 -0.5534  0.2359  1.0959
 4526SOL    HW225215   4.546   2.946   1.572 -0.6696 -0.5504  0.2739
 4527SOL     OW25216   0.300   2.820   9.463  0.1046  0.4795 -0.5546
 4527SOL    HW125217   0.318   2.878   9.389 -0.5906  2.7082  1.0357
 4527SOL    HW225218   0.388   2.805   9.498 -0.1451  1.4756  0.4850
 4528SOL     OW25219   4.075   4.205   4.347 -0.1991  0.1541  0.4250
 4528SOL    HW125220   4.149   4.167   4.299 -0.1547  1.9069 -0.8894
 4528SOL    HW225221   4.003   4.169   4.296  1.6460 -2.0701 -0.6274
 4529SOL     OW25222   2.514   1.991   3.386  0.1325 -0.6224  0.1710
 4529SOL    HW125223   2.581   1.983   3.318 -1.2455  1.5608 -1.4150
 4529SOL    HW225224   2.494   1.902   3.416  0.5115 -1.1176 -1.0592
 4530SOL     OW25225   0.749   3.447   6.514  0.0308  0.0578 -0.1521
 4530SOL    HW125226   0.659   3.480   6.506  0.3836  1.3979  1.5032
 4530SOL    HW225227   0.811   3.512   6.480  1.1297 -1.2606 -0.6818
 4531SOL     OW25228   2.800   2.498  12.799  0.1655 -0.3673  0.8288
 4531SOL    HW125229   2.884   2.530  12.767  0.2221 -2.0427 -0.6994
 4531SOL    HW225230   2.739   2.551  12.747  1.0076  1.0113  1.2706
 4532SOL     OW25231   0.259   3.582   1.404 -0.1352  0.0034  0.0091
 4532SOL    HW125232   0.354   3.580   1.417  0.1207 -0.5009 -1.9431
 4532SOL    HW225233   0.226   3.534   1.480  0.0887 -0.6346 -0.3004
 4533SOL     OW25234   2.809   2.596  16.467  0.2141  0.3326 -0.2068
 4533SOL    HW125235   2.773   2.653  16.399 -0.4912  0.2026  0.0478
 4533SOL    HW225236   2.867   2.539  16.416  1.8487  0.5296  1.4409
 4534SOL     OW25237   2.105   0.539   0.922  0.1090  0.6431  0.2430
 4534SOL    HW125238   2.056   0.584   0.992 -1.1643 -1.0201  0.4373
 4534SOL    HW225239   2.195   0.569   0.930 -0.2741  1.9912 -0.3865
 4535SOL     OW25240   0.972   1.814   7.973  0.0774  1.0121 -0.1542
 4535SOL    HW125241   0.949   1.732   8.017 -0.2753  1.5803  0.7332
 4535SOL    HW225242   1.059   1.794   7.940 -0.2556 -0.1898 -0.3219
 4536SOL     OW25243   3.334   1.467   7.169  0.1658 -0.2221 -0.7616
 4536SOL    HW125244   3.291   1.541   7.127  1.3814  0.9324  0.0239
 4536SOL    HW225245   3.323   1.405   7.097  1.4468 -1.0700 -0.2307
 4537SOL     OW25246   2.149   3.703   0.363 -0.3157 -0.4006 -0.1239
 4537SOL    HW125247   2.139   3.785   0.313 -0.0607 -0.9418 -1.0646
 4537SOL    HW225248   2.085   3.646   0.319 -2.0340  1.8143 -0.5175
 4538SOL     OW25249   0.284   3.780  15.994 -0.2576 -0.1335 -0.0321
 4538SOL    HW125250   0.226   3.831  16.050 -0.6075 -0.9343  0.3382
 4538SOL    HW225251   0.300   3.840  15.922 -0.6646  1.4914  1.2442
 4539SOL     OW25252   0.439   1.251   8.894 -0.2217  0.0159 -0.0082
 4539SOL    HW125253   0.526   1.291   8.884 -0.1725  0.2485  1.3926
 4539SOL    HW225254   0.419   1.293   8.977 -2.4945  0.4302 -0.7711
 4540SOL     OW25255   1.906   1.365   3.131  0.0224  0.2134  0.1832
 4540SOL    HW125256   1.975   1.336   3.191  1.2888  0.6005 -1.0828
 4540SOL    HW225257   1.922   1.307   3.057  3.9936  3.2171 -1.3341
 4541SOL     OW25258   0.273   2.271   5.185  0.3916 -0.3378 -0.1177
 4541SOL    HW125259   0.194   2.229   5.151 -0.1746  0.3138  0.4011
 4541SOL    HW225260   0.239   2.338   5.244  0.2148  0.1063 -0.7241
 4542SOL     OW25261   1.040   2.868   4.202  0.1165 -0.4279 -0.2318
 4542SOL    HW125262   0.988   2.791   4.221 -0.6504  0.0652 -0.3319
 4542SOL    HW225263   1.037   2.868   4.106 -0.0034 -3.1775 -0.2193
 4543SOL     OW25264   2.015   1.017   5.399  0.2730  0.3214  0.1448
 4543SOL    HW125265   2.000   1.109   5.377  1.1281  0.8188  1.6177
 4543SOL    HW225266   1.928   0.978   5.393 -0.0067  0.8602  0.6779
 4544SOL     OW25267   0.634   3.453   9.136 -0.1715  0.4048  0.2495
 4544SOL    HW125268   0.686   3.530   9.160  1.6556 -1.1141  1.1132
 4544SOL    HW225269   0.548   3.471   9.173 -0.3119  1.8041 -0.7345
 4545SOL     OW25270   2.366   3.880   1.182 -0.4258  0.5254 -0.2307
 4545SOL    HW125271   2.391   3.807   1.238 -1.1362 -0.4503 -1.2068
 4545SOL    HW225272   2.368   3.841   1.095  1.4359  1.4203 -0.5911
 4546SOL     OW25273   0.572   0.618   5.780 -0.5455 -0.1330 -0.2975
 4546SOL    HW125274   0.608   0.643   5.695  1.9926  1.5444  1.2656
 4546SOL    HW225275   0.649   0.621   5.837 -0.4048 -3.5632 -0.3208
 4547SOL     OW25276   4.320   4.647   3.377 -0.6078 -0.1625 -0.0272
 4547SOL    HW125277   4.291   4.595   3.301  1.0204  1.8127 -1.9922
 4547SOL    HW225278   4.348   4.726   3.332  1.4398  0.1709  1.8814
 4548SOL     OW25279   2.759   0.927   8.999 -0.0648  0.4561  0.8568
 4548SOL    HW125280   2.811   0.983   9.056  1.4839 -0.3324  0.1980
 4548SOL    HW225281   2.701   0.995   8.964 -1.3232 -0.1182  1.8151
 4549SOL     OW25282   0.167   2.254   2.543 -0.2846 -0.0034  0.0285
 4549SOL    HW125283   0.145   2.197   2.470  0.4272 -0.7439  0.3939
 4549SOL    HW225284   0.084   2.300   2.550 -0.4982 -0.2744 -0.7816
 4550SOL     OW25285   3.304   0.350   6.723 -0.2115  0.4772 -0.0063
 4550SOL    HW125286   3.322   0.286   6.654  0.5326  1.0672 -0.3577
 4550SOL    HW225287   3.391   0.363   6.761  0.5724  1.1174 -2.0301
 4551SOL     OW25288   4.101   2.314   9.286  0.4939 -0.3042 -0.4713
 4551SOL    HW125289   4.113   2.408   9.303 -0.4555 -0.0979 -0.9280
 4551SOL    HW225290   4.014   2.306   9.324  0.2675  0.6804 -0.7766
 4552SOL     OW25291   2.988   1.581   9.976  0.2971  0.0731  0.2753
 4552SOL    HW125292   2.897   1.552   9.976  0.0629  0.7966  0.0177
 4552SOL    HW225293   3.013   1.588  10.068  0.1826  0.4899  0.2784
 4553SOL     OW25294   1.342   2.254   6.428  0.1227 -0.0125  0.2808
 4553SOL    HW125295   1.364   2.346   6.439 -0.2150  0.0834  0.1428
 4553SOL    HW225296   1.403   2.213   6.490  1.5925  1.0890 -0.4284
 4554SOL     OW25297   0.336   4.477  12.379  0.1575  0.0954 -0.0702
 4554SOL    HW125298   0.324   4.394  12.424  2.9976 -1.4651 -2.1778
 4554SOL    HW225299   0.432   4.485  12.374  0.0913  0.4286 -0.8023
 4555SOL     OW25300   0.735   1.065   6.579  0.3038 -0.7937 -0.6569
 4555SOL    HW125301   0.736   1.004   6.505  1.1597 -0.6480 -0.7602
 4555SOL    HW225302   0.744   1.155   6.548 -2.0144 -0.3197  0.0645
 4556SOL     OW25303   3.220   1.734  17.711 -0.3337 -0.1910  0.4017
 4556SOL    HW125304   3.264   1.796  17.652 -0.2770  1.9360  2.6793
 4556SOL    HW225305   3.205   1.661  17.651  1.7860  0.2070 -0.6057
 4557SOL     OW25306   2.401   3.580   6.826  0.2488 -0.5673  0.2734
 4557SOL    HW125307   2.386   3.611   6.915 -0.4808  0.3654 -0.1760
 4557SOL    HW225308   2.489   3.613   6.810  0.9712 -1.4591  2.4053
 4558SOL     OW25309   2.916   3.005   6.404  0.2056 -0.1013 -0.1913
 4558SOL    HW125310   2.920   3.098   6.384 -1.3667  0.0499  0.2137
 4558SOL    HW225311   2.841   2.966   6.360  1.1712 -2.8593  0.6205
 4559SOL     OW25312   0.999   2.097  17.134 -0.7903  0.3134 -0.3967
 4559SOL    HW125313   1.008   2.002  17.140  0.7778  0.5743  1.4505
 4559SOL    HW225314   0.921   2.120  17.185 -0.1236  1.6546  0.0177
 4560SOL     OW25315   2.455   0.517  13.344 -0.4470 -0.6234 -0.4227
 4560SOL    HW125316   2.449   0.605  13.381  2.0800  0.0619 -1.6421
 4560SOL    HW225317   2.382   0.477  13.392 -0.2467  1.6346  1.7874
 4561SOL     OW25318   3.469   1.237   3.060  0.3749 -0.2709 -0.1054
 4561SOL    HW125319   3.537   1.201   3.002  0.7488  0.9885 -0.4596
 4561SOL    HW225320   3.435   1.159   3.104 -0.6238 -0.3599 -1.0331
 4562SOL     OW25321   0.491   4.291   5.841 -0.2579  0.6492 -0.2260
 4562SOL    HW125322   0.569   4.306   5.789  1.8245  0.3842  2.7822
 4562SOL    HW225323   0.525   4.316   5.927 -0.1118 -0.0609 -0.0812
 4563SOL     OW25324   2.689   2.917   3.328  0.8079 -0.1026  0.4353
 4563SOL    HW125325   2.624   2.951   3.267  1.2012 -1.2568 -0.6138
 4563SOL    HW225326   2.694   2.824   3.308  3.6901  0.0268  0.6086
 4564SOL     OW25327   2.644   4.283   3.033 -0.4483  0.5224  0.6315
 4564SOL    HW125328   2.674   4.208   3.085  1.2069  0.0709 -1.0042
 4564SOL    HW225329   2.632   4.244   2.947 -0.3161 -0.8699  1.2351
 4565SOL     OW25330   0.662   4.697   7.699  0.0453 -0.4966  0.7906
 4565SOL    HW125331   0.723   4.712   7.771  0.2292 -2.2885  1.0002
 4565SOL    HW225332   0.609   0.038   7.680  1.8675  1.0782  2.1571
 4566SOL     OW25333   0.942   4.140   2.907 -0.0719 -0.1460  0.5990
 4566SOL    HW125334   0.997   4.197   2.853 -0.0650  1.0336  1.8185
 4566SOL    HW225335   0.885   4.104   2.839  0.4816  0.8147 -0.3768
 4567SOL     OW25336   4.101   1.240  15.851 -0.2633 -0.2208 -0.0719
 4567SOL    HW125337   4.072   1.174  15.787 -0.4765  0.1048 -0.3088
 4567SOL    HW225338   4.191   1.208  15.847  0.6931  2.4638  0.1666
 4568SOL     OW25339   0.138   0.999   4.273  0.1359  0.0486  0.0730
 4568SOL    HW125340   0.205   1.011   4.340  0.8348 -2.2943 -0.2031
 4568SOL    HW225341   0.097   0.921   4.311  0.0766  0.3650  0.6651
 4569SOL     OW25342   0.540   1.038   8.435  0.5327 -0.2410 -0.2881
 4569SOL    HW125343   0.479   0.996   8.496 -1.9889  1.4737 -1.6223
 4569SOL    HW225344   0.510   1.012   8.348 -1.4781  1.9621 -0.2504
 4570SOL     OW25345   0.198   0.136  13.221  0.0545 -0.3369 -0.1451
 4570SOL    HW125346   0.174   0.066  13.282  0.8517 -0.6375 -0.1795
 4570SOL    HW225347   0.265   0.176  13.277  0.8864 -2.2218  0.1808
 4571SOL     OW25348   0.473   0.793   1.568 -0.6730  0.6148  0.0450
 4571SOL    HW125349   0.464   0.703   1.597 -0.2507  0.3586 -0.6164
 4571SOL    HW225350   0.419   0.839   1.633  0.8545 -0.2201  1.9329
 4572SOL     OW25351   0.108   1.177   9.153 -0.3452 -0.1256 -0.1016
 4572SOL    HW125352   0.157   1.257   9.133 -0.7640  0.1811  0.1135
 4572SOL    HW225353   0.025   1.223   9.142 -0.3336  0.4815  2.3344
 4573SOL     OW25354   3.232   3.608  10.823  0.1915  0.1694 -0.3711
 4573SOL    HW125355   3.193   3.556  10.893 -1.1287 -0.1055 -1.3121
 4573SOL    HW225356   3.213   3.544  10.756 -2.5196 -0.3043  0.8718
 4574SOL     OW25357   2.286   1.389   3.080 -0.0318 -0.4152  1.0220
 4574SOL    HW125358   2.231   1.388   3.159 -1.2572  1.1551  0.1989
 4574SOL    HW225359   2.243   1.320   3.030  1.1153 -0.8495  0.6534
 4575SOL     OW25360   4.029   1.501  11.951 -0.3848  0.7864  0.2222
 4575SOL    HW125361   3.933   1.505  11.958 -0.4673 -1.8741  0.6806
 4575SOL    HW225362   4.034   1.456  12.035  0.6111 -0.8148 -0.6891
 4576SOL     OW25363   2.496   0.000   3.932 -0.1613  0.2515  0.6375
 4576SOL    HW125364   2.526   0.070   3.874 -1.3905  1.8718  1.9343
 4576SOL    HW225365   2.542   4.656   3.911 -0.4311 -0.3672  2.4152
 4577SOL     OW25366   3.523   0.083   7.230  0.8069  0.2060 -0.3461
 4577SOL    HW125367   3.491   0.008   7.281  0.9248  0.5720  0.2736
 4577SOL    HW225368   3.616   0.069   7.244  1.4504  1.7905 -3.1238
 4578SOL     OW25369   0.936   1.379  13.233  0.3041  0.0059 -0.0602
 4578SOL    HW125370   0.912   1.410  13.146  2.5539 -0.3416 -0.7923
 4578SOL    HW225371   0.851   1.403  13.270  0.7213  0.6237  0.5093
 4579SOL     OW25372   1.439   2.088   8.587  0.8934 -0.2362 -0.8431
 4579SOL    HW125373   1.489   2.166   8.608  0.1698 -0.2629  0.9635
 4579SOL    HW225374   1.347   2.114   8.581  1.6294  2.3584 -0.6281
 4580SOL     OW25375   2.738   0.217   4.036 -0.0039  0.8673 -0.3971
 4580SOL    HW125376   2.662   0.273   4.049  0.0737  0.3236  2.2835
 4580SOL    HW225377   2.779   0.233   4.120  2.3476 -1.9141 -0.9921
 4581SOL     OW25378   0.808   3.091  10.327  0.9729  0.2940 -0.1270
 4581SOL    HW125379   0.714   3.078  10.335  0.6488  3.1146  0.5308
 4581SOL    HW225380   0.830   2.999  10.315  1.3765  0.3468  0.2013
 4582SOL     OW25381   1.681   2.975   8.964 -0.1339 -0.3489  0.5303
 4582SOL    HW125382   1.687   3.066   8.992  0.7444 -0.3146  0.2312
 4582SOL    HW225383   1.753   2.966   8.901  2.5315 -0.0128  3.5409
 4583SOL     OW25384   1.463   1.434   1.681 -0.1461 -0.2790  0.3061
 4583SOL    HW125385   1.501   1.486   1.752 -1.0422 -0.2276  0.7539
 4583SOL    HW225386   1.482   1.348   1.720 -0.6326 -0.5001  0.0635
 4584SOL     OW25387   4.494   3.181   8.149  0.8372  0.2438 -0.2340
 4584SOL    HW125388   4.472   3.271   8.173 -1.7692 -0.8179  1.3834
 4584SOL    HW225389   4.511   3.204   8.057 -2.6036 -0.9257 -1.1234
 4585SOL     OW25390   1.714   2.078   8.186  0.0090  1.1334 -0.2126
 4585SOL    HW125391   1.620   2.060   8.193  0.0075  0.6245 -1.5321
 4585SOL    HW225392   1.717   2.127   8.268 -1.5101  0.7094  0.1143
 4586SOL     OW25393   0.994   1.884   3.396  0.3131 -0.1766 -0.2683
 4586SOL    HW125394   0.898   1.891   3.390  0.2691 -0.7484 -0.2410
 4586SOL    HW225395   1.022   1.905   3.307  4.9448  0.8015  1.4294
 4587SOL     OW25396   0.125   3.530   3.799 -0.0372  0.3192 -0.2884
 4587SOL    HW125397   0.217   3.510   3.813 -0.9181 -3.7900 -0.4246
 4587SOL    HW225398   0.127   3.562   3.709  1.3883  0.6307 -0.1500
 4588SOL     OW25399   2.470   3.820   3.642  0.7932  0.3742  0.2504
 4588SOL    HW125400   2.473   3.814   3.737 -0.9757  0.2021  0.2997
 4588SOL    HW225401   2.482   3.728   3.617 -2.2453  0.2713 -0.8303
 4589SOL     OW25402   2.665   3.322   5.108 -0.0215 -0.0503 -0.4197
 4589SOL    HW125403   2.674   3.230   5.133  0.3762  0.0698 -0.1209
 4589SOL    HW225404   2.749   3.363   5.129 -0.1600 -1.1341  2.3029
 4590SOL     OW25405   0.990   4.181   0.660 -0.4830 -0.1959  0.1958
 4590SOL    HW125406   0.956   4.168   0.748  0.9272 -3.5118  0.2744
 4590SOL    HW225407   0.990   4.277   0.663  0.6291 -0.0831 -2.7814
 4591SOL     OW25408   3.900   1.348   3.538 -0.6383  0.0656  0.3209
 4591SOL    HW125409   3.964   1.295   3.585  0.7815  1.4599 -0.0276
 4591SOL    HW225410   3.882   1.422   3.596  0.8305 -0.1004  0.9857
 4592SOL     OW25411   1.602   1.793   9.462 -0.1621  0.4359 -0.1420
 4592SOL    HW125412   1.684   1.842   9.473 -0.9501  1.5401  0.7592
 4592SOL    HW225413   1.625   1.703   9.485 -0.5535 -0.2197 -2.2721
 4593SOL     OW25414   3.714   4.553  14.670  0.5971 -0.0384  0.3956
 4593SOL    HW125415   3.669   4.629  14.633  0.5500 -0.8869 -1.2531
 4593SOL    HW225416   3.751   4.586  14.753 -1.6208  1.9505  0.5926
 4594SOL     OW25417   0.203   4.246   2.344  0.0508  0.3774 -0.4246
 4594SOL    HW125418   0.266   4.184   2.307  2.3460  2.2498  0.3465
 4594SOL    HW225419   0.249   4.321   2.382 -0.6265  0.0502  1.0742
 4595SOL     OW25420   1.860   3.574   7.611  0.2045  0.1839 -0.3754
 4595SOL    HW125421   1.868   3.657   7.564 -1.0442  0.2431 -0.4892
 4595SOL    HW225422   1.767   3.554   7.599 -0.0209  0.6672  0.5812
 4596SOL     OW25423   0.256   0.437   8.798 -0.7099  0.7511  0.9795
 4596SOL    HW125424   0.175   0.481   8.824 -1.9653 -1.4974  0.7996
 4596SOL    HW225425   0.235   0.431   8.705 -0.4875  2.0435  0.8344
 4597SOL     OW25426   3.464   0.222   1.890  0.7323  0.2425  0.0628
 4597SOL    HW125427   3.481   0.132   1.919 -0.9365  0.0828  0.5816
 4597SOL    HW225428   3.403   0.195   1.821 -0.4629  1.1733  0.7492
 4598SOL     OW25429   2.635   0.987   5.354  0.2269 -0.3385  0.3544
 4598SOL    HW125430   2.580   0.911   5.333  2.7356 -1.7878 -0.8749
 4598SOL    HW225431   2.686   0.964   5.432  0.2085 -1.7563 -0.0635
 4599SOL     OW25432   1.695   2.844  14.108 -0.2382  0.5812 -0.3072
 4599SOL    HW125433   1.684   2.864  14.015  1.0974 -0.1296 -0.6252
 4599SOL    HW225434   1.652   2.759  14.104  0.3743  0.2317  0.4688
 4600SOL     OW25435   1.745   0.112   5.298 -0.6196  0.5258 -0.0752
 4600SOL    HW125436   1.816   0.067   5.344  0.2186  2.8054  0.8449
 4600SOL    HW225437   1.783   0.193   5.265 -2.7774  1.2475 -0.8055
 4601SOL     OW25438   2.250   2.287  10.630 -0.0990  0.6945 -0.1253
 4601SOL    HW125439   2.240   2.292  10.725 -0.4620  0.4472 -0.1492
 4601SOL    HW225440   2.346   2.289  10.628 -0.1502  2.8463  0.1823
 4602SOL     OW25441   2.844   1.560   7.592 -0.1185 -0.2150  0.1361
 4602SOL    HW125442   2.775   1.626   7.600  0.9853  0.8047  1.0713
 4602SOL    HW225443   2.921   1.614   7.605 -0.1315 -0.1279 -0.1460
 4603SOL     OW25444   2.764   2.908  11.038 -0.0533 -0.5361  0.1780
 4603SOL    HW125445   2.683   2.870  11.072 -1.0302  0.7941 -0.6483
 4603SOL    HW225446   2.737   2.969  10.970  1.4412 -1.0341 -0.8599
 4604SOL     OW25447   3.009   4.462   1.896  0.1595  0.1000 -0.4577
 4604SOL    HW125448   3.033   4.372   1.917  0.6608  0.5804  1.0088
 4604SOL    HW225449   2.995   4.498   1.984 -1.9638 -0.1107 -0.7261
 4605SOL     OW25450   0.212   2.517   4.469 -0.9475  0.3201 -0.0034
 4605SOL    HW125451   0.173   2.604   4.462 -3.2765 -0.5916  1.7878
 4605SOL    HW225452   0.302   2.552   4.468  0.0483 -2.2861 -0.9139
 4606SOL     OW25453   4.423   0.261   4.584 -0.0879  0.3318 -0.3154
 4606SOL    HW125454   4.438   0.295   4.496  1.2835  1.9194  0.5443
 4606SOL    HW225455   4.501   0.212   4.608  0.1331  0.1288 -1.4470
 4607SOL     OW25456   2.506   1.110   5.155  0.5626  0.4168 -0.3433
 4607SOL    HW125457   2.508   1.204   5.136 -1.3691  0.2558 -1.3010
 4607SOL    HW225458   2.573   1.104   5.222 -0.5430 -1.5158  0.5814
 4608SOL     OW25459   0.699   4.416   8.442  0.2122  0.6192  0.0232
 4608SOL    HW125460   0.670   4.458   8.523  0.6136  1.1540 -0.1095
 4608SOL    HW225461   0.717   4.493   8.387 -0.5851  1.2930  0.6945
 4609SOL     OW25462   3.689   3.830  14.544 -0.0844 -0.1930  0.3402
 4609SOL    HW125463   3.702   3.922  14.520  1.3417  0.0938  2.2338
 4609SOL    HW225464   3.781   3.804  14.546 -1.0279 -3.2349  3.3306
 4610SOL     OW25465   1.661   4.608  13.756 -0.0148 -0.8067  0.0844
 4610SOL    HW125466   1.719   4.674  13.793 -1.4538  0.7214 -0.4238
 4610SOL    HW225467   1.721   4.585  13.685  0.6057 -0.0376  0.3595
 4611SOL     OW25468   3.511   4.694   4.042 -0.4780  0.2459 -0.2353
 4611SOL    HW125469   3.517   0.019   3.970 -0.5808  1.6571  0.9995
 4611SOL    HW225470   3.504   4.610   3.996 -1.3536  1.1227 -1.7260
 4612SOL     OW25471   2.844   0.974   1.718  0.7797 -0.2264  0.4058
 4612SOL    HW125472   2.891   0.891   1.727 -0.0553 -0.6952  0.3854
 4612SOL    HW225473   2.804   0.978   1.804  0.6670 -1.1448  0.3920
 4613SOL     OW25474   1.066   3.106  10.084  0.0478 -0.3539  0.6714
 4613SOL    HW125475   0.984   3.153  10.074  1.1842  1.5674  0.3840
 4613SOL    HW225476   1.105   3.115   9.997 -1.0654  1.0403  0.3249
 4614SOL     OW25477   1.479   1.317   6.337 -0.2515 -0.2460 -0.4029
 4614SOL    HW125478   1.565   1.358   6.338  1.3888 -3.7609  0.8923
 4614SOL    HW225479   1.494   1.229   6.371  0.7808 -0.1505 -0.6196
 4615SOL     OW25480   1.743   1.883   4.009  0.0040 -0.0309  0.2728
 4615SOL    HW125481   1.747   1.973   3.978  2.5576 -0.1257  0.2953
 4615SOL    HW225482   1.685   1.894   4.084 -0.8376  0.6358 -0.4855
 4616SOL     OW25483   0.868   1.350   7.324  0.0544  0.4803  0.2578
 4616SOL    HW125484   0.873   1.435   7.282  0.0472  1.1816  1.6910
 4616SOL    HW225485   0.950   1.307   7.299 -0.1936 -0.1258  0.4779
 4617SOL     OW25486   2.179   0.490   1.661 -0.0443 -0.8292 -0.6610
 4617SOL    HW125487   2.261   0.520   1.622  0.0758 -0.0116  0.2354
 4617SOL    HW225488   2.204   0.501   1.753 -0.3469  1.1242 -0.8208
 4618SOL     OW25489   2.309   2.900   3.373  0.7528  0.0714  0.2446
 4618SOL    HW125490   2.326   2.865   3.461 -0.9974  0.5518  0.7674
 4618SOL    HW225491   2.230   2.850   3.352 -1.0807  2.5254  1.2905
 4619SOL     OW25492   4.730   1.842   6.403 -0.1638  0.1688 -0.1053
 4619SOL    HW125493   0.014   1.837   6.497  1.0539 -1.6831 -0.4747
 4619SOL    HW225494   4.650   1.892   6.417  0.7940  1.1748  1.7441
 4620SOL     OW25495   1.088   3.518  15.175  0.3628  0.1016 -0.2738
 4620SOL    HW125496   1.096   3.424  15.160  0.7741 -0.4324  3.3702
 4620SOL    HW225497   1.035   3.547  15.100 -0.3149  0.8692  0.5024
 4621SOL     OW25498   2.116   1.667   2.890  0.3315  0.1664  0.1919
 4621SOL    HW125499   2.083   1.743   2.842  1.6678  1.2394  0.9651
 4621SOL    HW225500   2.053   1.667   2.962  0.6752 -1.2236  0.4944
 4622SOL     OW25501   1.009   3.959   3.110 -0.1733  0.1381 -0.2683
 4622SOL    HW125502   1.005   4.026   3.042  1.0743  1.0577  0.5727
 4622SOL    HW225503   1.038   3.882   3.060  0.2752 -0.2961  0.6700
 4623SOL     OW25504   2.347   1.877   5.431 -0.3595 -0.1958  0.1222
 4623SOL    HW125505   2.353   1.954   5.487 -1.1151  0.6651 -0.9619
 4623SOL    HW225506   2.313   1.816   5.497 -2.3700 -0.0359 -0.7551
 4624SOL     OW25507   0.829   1.213   3.663  0.1092  1.0480  0.1510
 4624SOL    HW125508   0.902   1.177   3.712  0.9153  1.3652 -0.8116
 4624SOL    HW225509   0.841   1.307   3.677  0.2582  0.8793  1.0984
 4625SOL     OW25510   3.725   2.252  15.402  0.8571 -0.3739 -0.4281
 4625SOL    HW125511   3.818   2.257  15.424  1.2625 -1.0965 -1.9844
 4625SOL    HW225512   3.678   2.212  15.475  2.3072 -0.3011  0.5470
 4626SOL     OW25513   2.672   2.297   5.938 -0.3495 -0.3370 -0.2849
 4626SOL    HW125514   2.727   2.239   5.885 -1.6872  1.0860 -3.2721
 4626SOL    HW225515   2.711   2.297   6.025 -0.8573  1.5973 -0.0536
 4627SOL     OW25516   0.996   3.721   3.341  0.1962 -0.0838  0.3447
 4627SOL    HW125517   1.056   3.783   3.299  0.9644 -0.0555  1.4828
 4627SOL    HW225518   0.912   3.740   3.300  0.6438  1.7896  0.2703
 4628SOL     OW25519   0.542   1.171   2.446 -0.2489 -0.0746  0.0908
 4628SOL    HW125520   0.470   1.143   2.503 -0.8089  0.7704 -0.2001
 4628SOL    HW225521   0.581   1.083   2.443  1.8333  0.8647 -0.0716
 4629SOL     OW25522   3.530   1.101   2.280  0.1700 -0.0124 -0.4261
 4629SOL    HW125523   3.601   1.165   2.287  1.0483 -0.7739 -2.3041
 4629SOL    HW225524   3.554   1.062   2.196  1.1724 -0.7152  0.1831
 4630SOL     OW25525   0.098   1.645   4.753  0.2276  0.0529  0.0811
 4630SOL    HW125526   0.086   1.558   4.715  1.1976  1.3374 -3.1476
 4630SOL    HW225527   0.065   1.620   4.840 -0.9465 -0.2792 -0.4476
 4631SOL     OW25528   3.713   3.724   7.258 -0.4441  0.0404  0.4210
 4631SOL    HW125529   3.705   3.629   7.262  1.4282 -0.1288 -0.0966
 4631SOL    HW225530   3.661   3.753   7.333  0.9837 -0.4315  1.5986
 4632SOL     OW25531   3.372   3.391  17.271  0.0321 -0.1511 -0.1394
 4632SOL    HW125532   3.376   3.480  17.307  1.7755 -0.5394  0.6184
 4632SOL    HW225533   3.288   3.382  17.225 -1.6056 -0.4507  2.8795
 4633SOL     OW25534   0.137   4.430   2.021  0.1584 -0.2541  0.1523
 4633SOL    HW125535   0.206   4.483   2.061  0.5874 -1.7688  1.3801
 4633SOL    HW225536   0.196   4.394   1.955  0.0509 -2.2918  1.1921
 4634SOL     OW25537   2.764   3.049   5.126  0.4609  0.3836  0.0532
 4634SOL    HW125538   2.746   2.978   5.064 -0.3546  1.0932 -0.5175
 4634SOL    HW225539   2.858   3.057   5.140  0.2321  0.3904  1.6171
 4635SOL     OW25540   2.503   0.348   2.263 -0.1369 -0.1380 -0.1015
 4635SOL    HW125541   2.467   0.354   2.352  2.7845 -1.9455  1.1944
 4635SOL    HW225542   2.566   0.419   2.255 -0.9058  0.4976 -0.4298
 4636SOL     OW25543   3.859   3.096   3.914 -0.0771 -0.0547  0.5855
 4636SOL    HW125544   3.860   3.181   3.958 -1.3165  0.6981 -0.8392
 4636SOL    HW225545   3.947   3.096   3.876 -0.4267  0.0741 -0.2131
 4637SOL     OW25546   4.418   3.760  11.340 -0.1853  0.0950 -0.5979
 4637SOL    HW125547   4.328   3.736  11.362  0.1713 -2.1387 -1.5924
 4637SOL    HW225548   4.441   3.824  11.408 -0.9546 -0.2960  0.0327
 4638SOL     OW25549   3.519   3.193   2.657  0.1909 -0.3516  0.3691
 4638SOL    HW125550   3.470   3.215   2.736  0.3557  0.1184  0.3436
 4638SOL    HW225551   3.500   3.100   2.662  2.2959 -0.7811  0.3093
 4639SOL     OW25552   2.888   4.347   7.420  1.1948  0.5076  0.3554
 4639SOL    HW125553   2.878   4.253   7.399 -0.7696  1.1909 -1.8523
 4639SOL    HW225554   2.982   4.362   7.416  1.3964 -0.7047  0.4298
 4640SOL     OW25555   0.756   1.839  15.264  1.2588  0.2721 -0.0047
 4640SOL    HW125556   0.712   1.762  15.229 -0.2304  0.8852  0.5394
 4640SOL    HW225557   0.714   1.904  15.208  0.7462 -2.5012 -2.8590
 4641SOL     OW25558   0.575   1.102   7.516 -0.6618 -0.1814  0.5815
 4641SOL    HW125559   0.515   1.079   7.445  2.3873 -0.5033 -1.8837
 4641SOL    HW225560   0.516   1.094   7.591 -1.0735 -1.9835  0.0763
 4642SOL     OW25561   1.134   1.218   3.011  0.3595  0.5218 -0.2751
 4642SOL    HW125562   1.192   1.208   3.087  1.5616 -3.5970 -1.7119
 4642SOL    HW225563   1.057   1.169   3.040  0.4512 -1.5494 -3.5096
 4643SOL     OW25564   1.907   4.591   2.861  0.3350 -0.2775 -0.0017
 4643SOL    HW125565   1.958   4.629   2.932 -0.9351  0.0993  0.7203
 4643SOL    HW225566   1.875   4.670   2.817  1.3930  0.3176  0.3044
 4644SOL     OW25567   2.221   2.300   5.170 -0.0693  0.4404 -0.1495
 4644SOL    HW125568   2.235   2.291   5.076 -1.1664 -0.2956 -0.2373
 4644SOL    HW225569   2.195   2.389   5.193  0.9005  0.2720  1.6106
 4645SOL     OW25570   0.673   3.607   4.853  0.1614  0.2538  0.5974
 4645SOL    HW125571   0.611   3.569   4.916  0.9280 -0.7162  0.7471
 4645SOL    HW225572   0.746   3.547   4.867  1.0894  1.2084 -0.1572
 4646SOL     OW25573   4.229   2.388   5.841  0.0267  0.1236  0.7782
 4646SOL    HW125574   4.321   2.407   5.859 -0.2735  1.3341  1.0126
 4646SOL    HW225575   4.209   2.462   5.785 -0.4051  1.1573  2.3045
 4647SOL     OW25576   3.806   0.918   2.271 -0.0324  0.5398  0.1686
 4647SOL    HW125577   3.889   0.961   2.292  0.2885  1.2828 -2.6993
 4647SOL    HW225578   3.762   0.969   2.203  0.0962 -0.3099 -0.5409
 4648SOL     OW25579   3.989   3.700   5.070 -1.1967 -0.3463  0.4225
 4648SOL    HW125580   3.972   3.774   5.011 -0.6658 -0.3438  0.2643
 4648SOL    HW225581   3.979   3.740   5.156  3.3756 -0.0362  0.8077
 4649SOL     OW25582   4.522   2.749   8.999 -0.5361  0.0385  0.1748
 4649SOL    HW125583   4.507   2.686   8.928  2.4437 -1.4236  0.8360
 4649SOL    HW225584   4.444   2.803   8.991 -0.5912  0.1299  1.3616
 4650SOL     OW25585   2.919   0.113   0.634  0.1955 -0.1183  0.4510
 4650SOL    HW125586   2.959   0.159   0.707  0.5310 -0.8445  0.7242
 4650SOL    HW225587   2.925   0.176   0.562 -1.2762 -0.2133  0.2396
 4651SOL     OW25588   2.981   4.036   2.575 -0.0813  0.3229  0.4680
 4651SOL    HW125589   2.957   4.049   2.667 -0.8519  0.0790  0.3039
 4651SOL    HW225590   3.035   3.959   2.592  1.1708  1.2045  0.4772
 4652SOL     OW25591   2.704   3.602   4.191 -0.0895 -0.3331  0.2549
 4652SOL    HW125592   2.666   3.516   4.211 -2.3400  0.8774  1.2309
 4652SOL    HW225593   2.721   3.591   4.098 -0.2679  1.7312 -0.0170
 4653SOL     OW25594   3.295   4.652   8.102 -0.4610 -0.3066 -0.1363
 4653SOL    HW125595   3.315   4.626   8.192 -0.7023  0.5860  0.1700
 4653SOL    HW225596   3.357   4.723   8.088 -1.0507  0.7710  2.5803
 4654SOL     OW25597   2.926   2.419   7.469 -0.2587  0.0112  0.0430
 4654SOL    HW125598   2.967   2.413   7.383 -0.0017 -0.2782  0.1852
 4654SOL    HW225599   2.854   2.360   7.447  0.4639 -1.1005  0.6674
 4655SOL     OW25600   3.102   2.929  15.824 -0.0956  0.3982 -1.0231
 4655SOL    HW125601   3.018   2.970  15.847  0.7199  0.9523  0.9621
 4655SOL    HW225602   3.064   2.854  15.778 -0.3339  0.6178 -1.1876
 4656SOL     OW25603   0.201   1.125  14.550  0.1853 -0.3367  0.1574
 4656SOL    HW125604   0.208   1.030  14.557 -0.4769 -0.4471 -0.8201
 4656SOL    HW225605   0.117   1.127  14.595 -0.0728 -2.7487 -0.2319
 4657SOL     OW25606   4.239   0.777  12.679 -0.8773 -0.1190  0.1903
 4657SOL    HW125607   4.304   0.760  12.747 -0.8704  0.6065  0.3600
 4657SOL    HW225608   4.160   0.807  12.724 -0.9010  0.5259 -0.2815
 4658SOL     OW25609   0.226   1.575   6.472 -0.3894 -0.2191  0.3151
 4658SOL    HW125610   0.133   1.553   6.476 -0.7318  1.3725  1.2812
 4658SOL    HW225611   0.226   1.671   6.468 -0.8947 -0.2193  0.2951
 4659SOL     OW25612   0.466   3.122  11.394  0.4590 -0.0365 -0.2052
 4659SOL    HW125613   0.455   3.059  11.465 -1.4042 -0.1942 -0.6488
 4659SOL    HW225614   0.525   3.069  11.339 -0.7928 -1.7423  0.1039
 4660SOL     OW25615   0.817   4.608   5.662  0.3399  0.0272  0.2396
 4660SOL    HW125616   0.891   4.609   5.600  0.5155 -0.0511  0.4468
 4660SOL    HW225617   0.786   4.698   5.669 -0.8717 -0.3599 -0.2033
 4661SOL     OW25618   0.432   4.332   5.416 -0.1755 -0.2110 -0.2968
 4661SOL    HW125619   0.434   4.324   5.320  2.1790  3.1093 -0.5249
 4661SOL    HW225620   0.510   4.387   5.427  1.5669 -1.7954 -4.6055
 4662SOL     OW25621   4.616   3.143  10.905 -0.0913  0.1387 -0.0230
 4662SOL    HW125622   4.538   3.196  10.922  0.6945  0.6627  1.9903
 4662SOL    HW225623   4.652   3.122  10.992 -0.4444  1.3012  0.4000
 4663SOL     OW25624   3.304   2.344   9.789 -0.2217  0.4402  0.1616
 4663SOL    HW125625   3.336   2.428   9.756  3.7610 -1.0300  0.2266
 4663SOL    HW225626   3.390   2.303   9.798  0.3316  1.4293 -0.5772
 4664SOL     OW25627   0.788   2.049  17.292  0.4552  0.1823 -0.5938
 4664SOL    HW125628   0.766   2.067  17.384 -0.8123  1.5396 -1.1676
 4664SOL    HW225629   0.810   1.955  17.295  0.8001  0.3033  0.9797
 4665SOL     OW25630   0.949   2.579   9.188 -0.1203 -0.3165 -0.3704
 4665SOL    HW125631   0.965   2.517   9.259 -0.0679  1.6776  1.3473
 4665SOL    HW225632   0.944   2.511   9.121  0.9577  1.3869 -2.1571
 4666SOL     OW25633   2.381   1.052   8.161 -0.0990 -0.2228  0.2962
 4666SOL    HW125634   2.308   1.089   8.210  0.8883  2.7610 -0.4855
 4666SOL    HW225635   2.375   0.957   8.170 -2.1876 -0.1103  0.1932
 4667SOL     OW25636   0.178   3.161   6.562  0.7422 -0.1569 -0.3829
 4667SOL    HW125637   0.222   3.102   6.624 -2.4246  0.8670  2.8698
 4667SOL    HW225638   0.086   3.165   6.589  0.4292 -0.6392 -1.3824
 4668SOL     OW25639   2.708   0.896  10.317 -0.5008  0.0012  0.2843
 4668SOL    HW125640   2.766   0.823  10.294 -0.0252  0.2098  0.8088
 4668SOL    HW225641   2.673   0.872  10.403 -4.7025 -0.8009 -1.6800
 4669SOL     OW25642   2.823   1.049  16.257  0.2060  0.1806  0.0227
 4669SOL    HW125643   2.883   1.113  16.295 -1.5684  0.6920  1.9121
 4669SOL    HW225644   2.890   0.982  16.249  1.0413  0.9605  0.4272
 4670SOL     OW25645   0.904   4.734   4.004  0.1677  0.1643 -0.2126
 4670SOL    HW125646   0.927   0.082   4.040 -0.1282  0.3029 -0.3554
 4670SOL    HW225647   0.883   0.002   3.911 -2.2428 -1.3375  0.2414
 4671SOL     OW25648   3.161   1.997   8.093  0.4443  0.5862  0.0215
 4671SOL    HW125649   3.189   2.058   8.025  1.2591  0.5576  0.3303
 4671SOL    HW225650   3.072   1.979   8.064  0.7157 -1.2664  0.3084
 4672SOL     OW25651   1.472   4.145   8.714  0.6200 -0.3130  0.2935
 4672SOL    HW125652   1.534   4.182   8.651 -1.7461 -1.1682 -2.5598
 4672SOL    HW225653   1.435   4.229   8.742  0.5640 -0.3475  0.3244
 4673SOL     OW25654   2.958   0.261   6.529  0.4695  0.2809  0.1409
 4673SOL    HW125655   2.925   0.240   6.441  0.7751  0.4707 -0.0174
 4673SOL    HW225656   3.011   0.185   6.552  0.2013  0.6293  1.8478
 4674SOL     OW25657   3.800   1.526   4.249  0.1143 -0.5829 -0.0478
 4674SOL    HW125658   3.753   1.498   4.328  0.9365  0.8730  0.9670
 4674SOL    HW225659   3.887   1.489   4.263  1.2078  0.8247 -3.1018
 4675SOL     OW25660   1.742   2.138  10.852 -0.0042  0.3526 -0.7191
 4675SOL    HW125661   1.826   2.183  10.841 -0.1642  0.8625  0.1067
 4675SOL    HW225662   1.757   2.061  10.907 -1.9214 -0.9283 -1.9994
 4676SOL     OW25663   1.593   2.722   6.319 -0.2942  0.0968 -0.3280
 4676SOL    HW125664   1.590   2.721   6.223 -1.7032  0.7352 -0.2840
 4676SOL    HW225665   1.625   2.810   6.341 -0.0681 -0.5523  1.9930
 4677SOL     OW25666   1.877   3.705   3.741  0.2667 -0.0357  0.1400
 4677SOL    HW125667   1.806   3.653   3.703  3.0985 -1.3490 -3.3181
 4677SOL    HW225668   1.940   3.702   3.670 -1.4467 -1.4325 -1.3276
 4678SOL     OW25669   4.546   1.580   2.227  0.1477 -0.4178 -0.1372
 4678SOL    HW125670   4.468   1.524   2.230  0.8368 -1.3991 -0.8497
 4678SOL    HW225671   4.505   1.667   2.232  0.8785 -0.0690 -0.3056
 4679SOL     OW25672   2.733   1.076   2.251 -0.0071 -0.4724 -0.7291
 4679SOL    HW125673   2.791   1.151   2.236 -0.8657  0.9012  2.6946
 4679SOL    HW225674   2.654   1.125   2.277  0.6263 -0.6650  1.4859
 4680SOL     OW25675   4.431   2.277   2.709  0.5633  0.2609  0.1529
 4680SOL    HW125676   4.397   2.336   2.777 -0.3669 -1.0638  0.8341
 4680SOL    HW225677   4.513   2.322   2.691  0.5463  0.3726  0.3466
 4681SOL     OW25678   1.771   2.631   5.001  0.0844 -0.4261 -0.1584
 4681SOL    HW125679   1.754   2.642   4.908 -0.8628  1.3596  0.2268
 4681SOL    HW225680   1.708   2.693   5.038 -0.3963 -0.7403 -0.4517
 4682SOL     OW25681   4.669   0.262   2.280  0.0750  0.2932  0.0928
 4682SOL    HW125682   4.673   0.250   2.374 -0.2707  0.3725  0.1197
 4682SOL    HW225683   4.724   0.340   2.274 -0.4624  0.7434  1.1790
 4683SOL     OW25684   2.667   1.117   0.480 -0.0780  0.3325  0.4575
 4683SOL    HW125685   2.605   1.156   0.418  2.2565 -0.2053 -2.2142
 4683SOL    HW225686   2.687   1.034   0.436 -1.2956  0.8274 -1.0156
 4684SOL     OW25687   2.425   2.695   6.820 -0.7416 -0.6185  0.4171
 4684SOL    HW125688   2.358   2.709   6.753 -0.5654 -3.8791 -0.4533
 4684SOL    HW225689   2.385   2.742   6.892 -0.9515 -0.7194  0.3651
 4685SOL     OW25690   1.694   3.022  16.510  0.5842 -0.3836  0.1470
 4685SOL    HW125691   1.746   3.100  16.533  0.5481 -0.5061  0.6491
 4685SOL    HW225692   1.636   3.028  16.586  0.6074  1.2414  0.0534
 4686SOL     OW25693   1.437   4.121   5.567  0.4474  0.2813 -0.6190
 4686SOL    HW125694   1.432   4.049   5.504 -0.4989  0.0466 -0.2785
 4686SOL    HW225695   1.444   4.072   5.649 -1.0814  1.1260  0.0065
 4687SOL     OW25696   3.910   3.043   6.910 -0.5060  1.0657 -0.3299
 4687SOL    HW125697   3.963   3.056   6.831 -0.4227 -1.7307 -0.7454
 4687SOL    HW225698   3.964   2.992   6.970 -0.9470 -2.2423 -2.7108
 4688SOL     OW25699   1.633   3.807   1.666  0.2775  0.5211  0.1061
 4688SOL    HW125700   1.636   3.779   1.758 -2.6575 -3.1652 -0.9044
 4688SOL    HW225701   1.649   3.900   1.683  0.9258  0.6516 -1.2245
 4689SOL     OW25702   1.909   1.163   8.951  0.2181  0.4660 -0.6408
 4689SOL    HW125703   1.823   1.159   8.908  0.0024 -0.6411 -0.1038
 4689SOL    HW225704   1.896   1.238   9.009  2.0256  0.5878 -0.3818
 4690SOL     OW25705   4.164   2.660   7.031  0.6998 -0.3057  0.1286
 4690SOL    HW125706   4.253   2.683   7.002  1.0796 -0.2738  1.3470
 4690SOL    HW225707   4.181   2.654   7.125 -0.3247  3.4966  0.5724
 4691SOL     OW25708   3.674   1.235   1.155 -0.5737 -0.3065  0.4592
 4691SOL    HW125709   3.600   1.201   1.105  0.4355 -2.5542  0.4659
 4691SOL    HW225710   3.743   1.180   1.118  0.4729  0.6319  1.0286
 4692SOL     OW25711   1.971   0.419  16.271  0.0850 -0.1247 -0.4928
 4692SOL    HW125712   1.886   0.460  16.252  0.9279  2.1508  0.5450
 4692SOL    HW225713   1.996   0.461  16.354  0.5573  1.9205 -1.6548
 4693SOL     OW25714   2.868   0.015   9.543  0.1717  0.5053  0.0354
 4693SOL    HW125715   2.937   0.074   9.514  0.1001 -0.1298 -1.4065
 4693SOL    HW225716   2.808   0.072   9.591 -2.5506 -1.4006 -1.1183
 4694SOL     OW25717   1.462   1.646  15.206  1.0902  0.1451  0.6049
 4694SOL    HW125718   1.473   1.707  15.278 -1.0496 -0.3572  1.3456
 4694SOL    HW225719   1.463   1.702  15.128 -0.3615 -1.2064 -0.4016
 4695SOL     OW25720   3.426   3.598   2.569  0.4738 -0.0142  0.6476
 4695SOL    HW125721   3.486   3.540   2.522 -1.3773 -0.4938 -1.1401
 4695SOL    HW225722   3.478   3.619   2.647 -0.9898 -5.0803  2.9542
 4696SOL     OW25723   2.537   2.383   8.218  0.0813  0.0324  0.5503
 4696SOL    HW125724   2.560   2.427   8.137  0.7081 -0.3255  0.5313
 4696SOL    HW225725   2.531   2.457   8.278 -1.0637  0.8552 -0.5832
 4697SOL     OW25726   3.965   1.538   8.177 -0.3014 -0.4487 -0.8391
 4697SOL    HW125727   3.910   1.603   8.221 -1.2345 -0.8549 -1.4292
 4697SOL    HW225728   4.015   1.505   8.252 -0.7690  1.0730  0.1473
 4698SOL     OW25729   3.419   4.606   7.392 -0.4172 -0.0238 -0.2374
 4698SOL    HW125730   3.373   4.595   7.475 -1.6126 -2.7079 -1.2484
 4698SOL    HW225731   3.381   4.551   7.324 -0.3023 -1.6297  0.9987
 4699SOL     OW25732   3.515   0.083   8.074 -0.1288 -0.1258 -0.2140
 4699SOL    HW125733   3.523   0.161   8.020 -1.0769  1.6668  2.2070
 4699SOL    HW225734   3.583   0.025   8.041 -0.1103 -0.3820  0.2668
 4700SOL     OW25735   3.595   2.114   4.275  0.1997 -0.4732  0.1415
 4700SOL    HW125736   3.623   2.149   4.190  0.9946  0.7482  0.9090
 4700SOL    HW225737   3.575   2.028   4.237  0.6546 -0.5910  0.1591
 4701SOL     OW25738   0.305   3.777   1.721 -0.5682  0.4380  0.2611
 4701SOL    HW125739   0.382   3.721   1.713  0.2332  1.5654 -0.0517
 4701SOL    HW225740   0.252   3.728   1.784 -1.1781  3.0890  1.8168
 4702SOL     OW25741   4.350   4.416   5.423 -0.1635 -0.7032 -0.5572
 4702SOL    HW125742   4.357   4.320   5.421  1.9233 -0.5484 -0.5099
 4702SOL    HW225743   4.433   4.455   5.397 -0.2801 -0.8510 -1.1548
 4703SOL     OW25744   4.424   4.285   1.153 -0.3713 -0.7128  0.0566
 4703SOL    HW125745   4.342   4.236   1.154 -0.0012 -1.3451 -0.8230
 4703SOL    HW225746   4.462   4.261   1.237  0.4467  1.0302  0.1876
 4704SOL     OW25747   3.017   1.536   7.172  0.0192  0.1950 -0.0829
 4704SOL    HW125748   2.927   1.570   7.172 -0.0949 -0.1095 -0.1783
 4704SOL    HW225749   3.009   1.443   7.194 -1.5048 -0.0323 -1.6031
 4705SOL     OW25750   2.834   0.423   7.776  0.0856 -0.0817  0.0919
 4705SOL    HW125751   2.819   0.517   7.787 -0.2489 -0.2751  1.2904
 4705SOL    HW225752   2.877   0.402   7.859  0.7557  1.0852  0.0475
 4706SOL     OW25753   0.572   4.297   2.373  0.1943  0.0331 -0.0666
 4706SOL    HW125754   0.485   4.338   2.382  0.5874  0.9206 -0.3332
 4706SOL    HW225755   0.575   4.231   2.442 -0.5684 -0.5793 -0.6210
 4707SOL     OW25756   2.076   0.118   4.903 -0.0762  0.1566 -0.0760
 4707SOL    HW125757   2.171   0.127   4.897  0.1708 -1.5036  1.4545
 4707SOL    HW225758   2.056   0.035   4.947  0.7532  1.1286  2.1316
 4708SOL     OW25759   2.541   3.346  10.888  0.5388 -0.7052  0.0386
 4708SOL    HW125760   2.535   3.393  10.804 -1.5990  2.9593  2.2353
 4708SOL    HW225761   2.593   3.267  10.872 -0.7404 -1.4044 -0.5881
 4709SOL     OW25762   0.948   0.098   0.516 -0.1114  0.2920 -0.3056
 4709SOL    HW125763   1.024   0.040   0.525 -0.7533 -0.7612 -1.7392
 4709SOL    HW225764   0.987   0.185   0.520  1.4479 -0.4272 -0.0779
 4710SOL     OW25765   2.520   2.609   8.404 -0.6317 -0.0065  0.2379
 4710SOL    HW125766   2.571   2.678   8.445 -0.6532  0.6906 -0.9185
 4710SOL    HW225767   2.432   2.648   8.402 -1.0653 -0.8913  2.3518
 4711SOL     OW25768   1.076   0.295  13.275  0.6037  0.2111  0.0258
 4711SOL    HW125769   0.983   0.275  13.264  0.0651  2.3311  0.7414
 4711SOL    HW225770   1.073   0.346  13.355 -3.5400  1.9151 -1.2147
 4712SOL     OW25771   3.633   3.483   4.731  0.1740  0.0820  0.2441
 4712SOL    HW125772   3.682   3.402   4.742  0.0269  0.0186  0.4273
 4712SOL    HW225773   3.701   3.539   4.770 -0.2595  1.7953 -1.4298
 4713SOL     OW25774   1.850   1.793  16.702  0.2995 -0.0573  0.2819
 4713SOL    HW125775   1.765   1.750  16.714 -0.6602  1.9621  0.6903
 4713SOL    HW225776   1.843   1.879  16.743 -0.4755  0.5682 -1.1791
 4714SOL     OW25777   0.414   2.713   8.650  0.7393 -0.8225  0.6437
 4714SOL    HW125778   0.482   2.747   8.709  2.7249 -1.0384 -1.5261
 4714SOL    HW225779   0.474   2.677   8.584  1.2371 -0.3727  0.8447
 4715SOL     OW25780   2.785   2.871   4.300  0.7500  0.2305  0.2704
 4715SOL    HW125781   2.829   2.792   4.331  1.4553  1.1940  1.7101
 4715SOL    HW225782   2.832   2.940   4.346 -0.8113  0.7800  1.0570
 4716SOL     OW25783   1.213   4.590  16.446 -0.2686 -0.5145  0.1798
 4716SOL    HW125784   1.204   4.597  16.541 -0.6332 -0.1912  0.1182
 4716SOL    HW225785   1.123   4.567  16.423 -0.1284  1.9952 -2.9080
 4717SOL     OW25786   2.150   3.595   1.154  0.6561 -0.6405 -0.2017
 4717SOL    HW125787   2.076   3.565   1.207  1.1548  0.9404  1.3778
 4717SOL    HW225788   2.115   3.599   1.065  1.5506 -1.2621 -0.5862
 4718SOL     OW25789   0.227   0.717   7.807  0.1058 -0.4671  0.2852
 4718SOL    HW125790   0.207   0.738   7.715 -0.9660 -1.0528  0.3918
 4718SOL    HW225791   0.145   0.734   7.853 -0.9128  0.0204 -1.7100
 4719SOL     OW25792   3.381   2.209   4.635  0.6437 -1.0405  0.0786
 4719SOL    HW125793   3.322   2.193   4.562 -0.8804  2.5735  0.5182
 4719SOL    HW225794   3.320   2.235   4.704  0.4852 -2.0831  0.3329
 4720SOL     OW25795   4.139   4.677   2.271  0.1991 -0.1163 -0.4784
 4720SOL    HW125796   4.165   0.015   2.218  1.8885  1.4356  2.5946
 4720SOL    HW225797   4.197   4.608   2.240 -0.9603 -2.0936  1.8062
 4721SOL     OW25798   2.325   0.100   6.278  0.2949 -0.0612 -0.2297
 4721SOL    HW125799   2.311   0.170   6.342 -1.3359  0.8963 -1.6262
 4721SOL    HW225800   2.349   0.160   6.207  1.0822 -1.3475 -1.0544
 4722SOL     OW25801   0.867   0.408   5.180 -0.4041  0.1949  0.0296
 4722SOL    HW125802   0.829   0.392   5.093 -1.0542 -2.4127  0.8130
 4722SOL    HW225803   0.956   0.379   5.161 -0.7476 -1.4482  0.9019
 4723SOL     OW25804   1.644   1.213   4.961  0.8798  0.2640 -0.2456
 4723SOL    HW125805   1.611   1.124   4.976  0.3786  0.0382 -2.7694
 4723SOL    HW225806   1.578   1.274   4.994  1.8952  1.2357  0.0225
 4724SOL     OW25807   0.448   2.751   7.302 -0.2129  0.3412  0.6722
 4724SOL    HW125808   0.364   2.764   7.346 -0.6793  1.7173 -0.6623
 4724SOL    HW225809   0.454   2.814   7.231 -1.2009 -1.2792 -0.8443
 4725SOL     OW25810   0.749   3.172   2.560  0.1891  0.1174 -0.1273
 4725SOL    HW125811   0.836   3.159   2.522  0.5222 -0.6254  0.8886
 4725SOL    HW225812   0.752   3.115   2.637  2.3771 -1.2494 -1.2346
 4726SOL     OW25813   0.442   2.208  10.985  0.0378  0.2978  0.0376
 4726SOL    HW125814   0.418   2.285  10.933  0.8028  0.5438  0.0515
 4726SOL    HW225815   0.390   2.142  10.938 -1.7142  0.8235  1.2376
 4727SOL     OW25816   1.955   3.967   7.782 -0.2833 -0.1822 -0.0423
 4727SOL    HW125817   2.002   3.985   7.864 -0.9631  2.1275 -0.1451
 4727SOL    HW225818   2.019   3.932   7.720 -1.8700  0.3279 -1.9500
 4728SOL     OW25819   1.774   3.387   0.875  0.1064  0.2813 -0.0270
 4728SOL    HW125820   1.828   3.403   0.798 -0.3726 -0.1658 -0.4524
 4728SOL    HW225821   1.771   3.292   0.864  1.5927 -0.0133  2.1204
 4729SOL     OW25822   0.749   0.244   2.149  0.3003 -0.1559  0.2729
 4729SOL    HW125823   0.748   0.150   2.166  1.3014 -0.2058  0.0651
 4729SOL    HW225824   0.741   0.248   2.054 -1.4375 -1.4942  0.3581
 4730SOL     OW25825   4.161   0.424   7.751 -0.3209 -0.6116 -0.8531
 4730SOL    HW125826   4.189   0.484   7.681 -0.2648  2.1573  1.5561
 4730SOL    HW225827   4.094   0.481   7.788  0.4879 -0.5527  0.5136
 4731SOL     OW25828   2.121   0.579   3.391  0.3614  0.0911 -0.2552
 4731SOL    HW125829   2.027   0.579   3.376  0.3518  1.2913 -0.2039
 4731SOL    HW225830   2.132   0.493   3.431  0.3271 -0.5889 -1.7192
 4732SOL     OW25831   0.858   1.142  11.275  0.2165 -0.1131  0.4266
 4732SOL    HW125832   0.782   1.094  11.309 -0.6461  2.1565  1.7080
 4732SOL    HW225833   0.906   1.147  11.358 -0.2307 -0.6173  0.7098
 4733SOL     OW25834   2.482   2.183   1.432  0.4003  0.6621  0.1333
 4733SOL    HW125835   2.408   2.132   1.399  1.0863 -0.6094  0.5576
 4733SOL    HW225836   2.510   2.227   1.352 -0.5121 -1.6489 -1.4311
 4734SOL     OW25837   4.124   1.592  13.787 -0.7304 -0.6945  0.5795
 4734SOL    HW125838   4.062   1.520  13.778  0.0734 -0.9404 -3.1692
 4734SOL    HW225839   4.115   1.608  13.881  0.2678  0.7405  0.4366
 4735SOL     OW25840   0.104   1.285   3.977 -0.1120 -0.1679  0.1902
 4735SOL    HW125841   0.063   1.228   3.912  0.4831 -0.3870  0.0047
 4735SOL    HW225842   0.174   1.322   3.923 -0.8636 -1.2368 -1.5377
 4736SOL     OW25843   3.093   1.247   3.243 -0.3311 -0.1422 -0.1396
 4736SOL    HW125844   3.055   1.187   3.307 -0.1344  0.9491  0.9948
 4736SOL    HW225845   3.178   1.251   3.286  0.1591  0.4764 -1.1554
 4737SOL     OW25846   2.018   4.336  10.649  0.5234  0.2600  0.6344
 4737SOL    HW125847   2.050   4.381  10.570 -1.3075 -0.1498 -0.3351
 4737SOL    HW225848   1.970   4.408  10.688  1.2616  1.2376 -0.2576
 4738SOL     OW25849   0.801   0.145   7.131 -0.2683  0.0563 -0.7231
 4738SOL    HW125850   0.892   0.157   7.157 -1.1020  1.6055  1.4899
 4738SOL    HW225851   0.747   0.203   7.186 -0.6162 -0.2594 -0.7337
 4739SOL     OW25852   2.401   1.377   3.757  0.2205 -0.1853 -0.2263
 4739SOL    HW125853   2.378   1.288   3.785  0.2014  0.0274  0.4428
 4739SOL    HW225854   2.377   1.421   3.839 -0.1580 -1.5613  0.4078
 4740SOL     OW25855   1.768   4.610  14.443 -0.5079  0.0698  0.3902
 4740SOL    HW125856   1.742   4.679  14.504 -0.7885  0.8289 -0.5987
 4740SOL    HW225857   1.729   4.650  14.366  0.8087 -1.2267 -0.9449
 4741SOL     OW25858   2.536   0.104   9.624 -0.8592  0.6411 -0.0970
 4741SOL    HW125859   2.493   0.098   9.539  0.8169  0.1507 -0.9055
 4741SOL    HW225860   2.517   0.012   9.644 -1.1852  0.8439  0.5456
 4742SOL     OW25861   0.764   3.947  11.957  0.0268  0.0459 -0.2086
 4742SOL    HW125862   0.801   3.862  11.932 -0.7920 -0.4285  0.1660
 4742SOL    HW225863   0.818   4.006  11.905  0.8448  0.2175  0.8505
 4743SOL     OW25864   1.363   1.165   2.896  0.2530  0.1120 -0.7681
 4743SOL    HW125865   1.379   1.071   2.882  0.6818 -0.0143  0.5667
 4743SOL    HW225866   1.278   1.162   2.941  0.6468 -3.4098 -0.2503
 4744SOL     OW25867   4.179   1.586   8.679 -0.3780  0.1782 -0.4883
 4744SOL    HW125868   4.110   1.640   8.717 -0.9451 -1.4935  0.8526
 4744SOL    HW225869   4.217   1.646   8.615 -1.3111  0.2625 -0.9464
 4745SOL     OW25870   1.413   3.157  16.373  0.0383 -0.5260  0.2246
 4745SOL    HW125871   1.481   3.121  16.316  1.0391  1.1751  0.3540
 4745SOL    HW225872   1.345   3.099  16.340  0.3295 -1.5752  1.4889
 4746SOL     OW25873   4.497   3.653  17.707 -0.5387  0.1487 -0.1202
 4746SOL    HW125874   4.493   3.707  17.628 -1.2988  0.3920  0.0902
 4746SOL    HW225875   4.403   3.648  17.720 -0.3142  0.7564  1.7912
 4747SOL     OW25876   2.834   2.649   3.370 -0.0952 -0.8535  0.4460
 4747SOL    HW125877   2.850   2.655   3.464  1.3757  0.2118  0.1289
 4747SOL    HW225878   2.820   2.555   3.365  0.8677 -1.0168  0.8585
 4748SOL     OW25879   3.260   3.804   2.134  0.2776 -0.4847 -0.3337
 4748SOL    HW125880   3.212   3.832   2.056  0.6234 -0.7633 -0.6440
 4748SOL    HW225881   3.342   3.852   2.120 -0.1476 -0.0363 -1.2966
 4749SOL     OW25882   2.137   2.650   1.366  0.2118  0.6105  0.0144
 4749SOL    HW125883   2.078   2.575   1.381 -2.6604  3.1459  1.5917
 4749SOL    HW225884   2.071   2.714   1.340  0.0272 -0.6197 -2.4824
 4750SOL     OW25885   0.438   3.789   8.711  0.0318  0.0300  0.4995
 4750SOL    HW125886   0.404   3.803   8.799 -0.4896  0.2535  0.2671
 4750SOL    HW225887   0.489   3.869   8.699 -0.6570  0.1587 -1.7141
 4751SOL     OW25888   1.898   0.121   1.695  0.1826  0.1560  0.1960
 4751SOL    HW125889   1.990   0.112   1.672  0.3200  1.3129  0.3089
 4751SOL    HW225890   1.895   0.052   1.762  1.1461  1.0152  1.1320
 4752SOL     OW25891   3.819   3.828  17.440 -0.2007  0.1589  0.2152
 4752SOL    HW125892   3.779   3.857  17.358 -1.5992  1.4330  1.3247
 4752SOL    HW225893   3.810   3.912  17.486 -1.2738  0.6083 -0.7904
 4753SOL     OW25894   4.444   0.643  13.773 -0.3832  0.3284  0.3659
 4753SOL    HW125895   4.411   0.611  13.857  1.0336 -2.1924 -0.0361
 4753SOL    HW225896   4.404   0.580  13.713  0.1840 -0.5632  0.9247
 4754SOL     OW25897   3.692   2.523   4.795 -0.5914  0.2592  0.7748
 4754SOL    HW125898   3.738   2.531   4.878  1.6286 -0.4459 -0.3932
 4754SOL    HW225899   3.743   2.569   4.729 -1.4620  0.9904  0.6094
 4755SOL     OW25900   0.278   1.771   6.995  0.2694  0.0811 -0.1655
 4755SOL    HW125901   0.338   1.830   6.950 -0.3574  0.0025 -1.1110
 4755SOL    HW225902   0.254   1.720   6.917 -1.1924 -0.5987  0.7225
 4756SOL     OW25903   4.162   3.888   7.980  0.2139 -0.1891  0.7518
 4756SOL    HW125904   4.220   3.862   8.051 -1.4517  0.5858  2.4105
 4756SOL    HW225905   4.164   3.983   7.985  1.4242  0.0046 -2.9992
 4757SOL     OW25906   3.072   3.321   1.693  0.1820  0.1571  0.3936
 4757SOL    HW125907   3.068   3.247   1.632  1.5044  1.1046 -0.8515
 4757SOL    HW225908   2.980   3.318   1.720  0.6191 -1.5148  1.6635
 4758SOL     OW25909   1.473   3.124   8.165 -0.5630  0.4600 -0.7000
 4758SOL    HW125910   1.554   3.104   8.212 -0.9799  0.2239 -0.0814
 4758SOL    HW225911   1.497   3.088   8.080 -0.9762  0.9509 -1.0195
 4759SOL     OW25912   3.863   3.940   2.794  0.0903 -0.0053  0.3209
 4759SOL    HW125913   3.829   3.875   2.856  1.3997  0.5034  1.5431
 4759SOL    HW225914   3.827   3.918   2.707  0.8916 -3.0930  0.7635
 4760SOL     OW25915   1.593   0.652   3.916  0.6534 -0.2534  0.0013
 4760SOL    HW125916   1.685   0.657   3.943 -0.5343  1.9836  3.4858
 4760SOL    HW225917   1.555   0.638   4.002 -1.0624  0.8445 -0.5859
 4761SOL     OW25918   1.524   0.408   3.120  0.2244  0.1312 -0.1516
 4761SOL    HW125919   1.537   0.408   3.026 -0.2524 -1.2748 -0.2200
 4761SOL    HW225920   1.534   0.500   3.147 -0.2229 -0.5847  2.5235
 4762SOL     OW25921   0.032   1.869   7.640 -0.2958 -0.7049  0.3235
 4762SOL    HW125922   4.712   1.834   7.571 -1.1727  0.1468  0.6212
 4762SOL    HW225923   0.115   1.850   7.597 -0.2636 -1.2930  0.6397
 4763SOL     OW25924   3.651   1.522   4.025  0.2301  0.4328  0.3271
 4763SOL    HW125925   3.650   1.429   4.045 -0.9067  0.3540 -0.1181
 4763SOL    HW225926   3.727   1.557   4.071  0.4065  1.3990 -0.6928
 4764SOL     OW25927   4.594   0.386   2.566 -0.4366  0.0089 -0.3978
 4764SOL    HW125928   4.555   0.329   2.632 -0.1845 -0.3719 -0.5746
 4764SOL    HW225929   4.687   0.377   2.585 -0.9365  0.5608  2.2068
 4765SOL     OW25930   1.193   3.777  15.784  0.2999  0.0051 -0.3769
 4765SOL    HW125931   1.156   3.777  15.696  2.8206  0.0397 -1.4470
 4765SOL    HW225932   1.166   3.694  15.822  0.9324  0.3369  0.8172
 4766SOL     OW25933   3.228   0.731  15.273  0.2758  0.1137 -0.8064
 4766SOL    HW125934   3.195   0.821  15.267 -0.9294 -0.2887 -0.2022
 4766SOL    HW225935   3.174   0.687  15.208  2.5084 -2.8779 -0.6293
 4767SOL     OW25936   3.957   0.544   3.105 -0.1112  0.1637 -0.1023
 4767SOL    HW125937   3.871   0.508   3.085  0.1308 -0.5713  0.1748
 4767SOL    HW225938   3.966   0.534   3.199 -1.0125 -0.1346 -0.0581
 4768SOL     OW25939   2.862   1.909   1.630 -0.0557 -0.0995  0.3982
 4768SOL    HW125940   2.821   1.944   1.709  0.4131  1.8309 -0.2109
 4768SOL    HW225941   2.796   1.920   1.562  1.0665 -1.2289 -0.8715
 4769SOL     OW25942   3.488   0.488   1.490 -0.2158  0.5563 -0.2487
 4769SOL    HW125943   3.451   0.553   1.430 -0.9894 -0.2191 -0.6200
 4769SOL    HW225944   3.539   0.550   1.542 -0.9408  1.6996 -0.9044
 4770SOL     OW25945   4.240   1.652   7.737  0.2851 -0.2822  0.3400
 4770SOL    HW125946   4.159   1.614   7.705 -1.0477  1.4423  1.6939
 4770SOL    HW225947   4.264   1.720   7.675  0.3410 -0.0246  0.6418
 4771SOL     OW25948   1.949   1.983  14.732  0.4663  0.7558 -0.0196
 4771SOL    HW125949   2.013   1.918  14.704 -0.0044  0.4136 -0.2905
 4771SOL    HW225950   1.996   2.064  14.710  0.4095  1.0231  0.8428
 4772SOL     OW25951   3.953   3.917   4.501  0.0942 -0.0784  0.1030
 4772SOL    HW125952   3.891   3.918   4.428  0.6443 -1.1429 -0.3762
 4772SOL    HW225953   3.918   3.846   4.556 -2.4041  2.0571  1.3085
 4773SOL     OW25954   1.449   1.550   4.367 -0.8922  0.1279 -0.2829
 4773SOL    HW125955   1.495   1.584   4.443 -1.8919 -1.5690  1.0791
 4773SOL    HW225956   1.530   1.541   4.317 -0.9268  1.2895 -0.5542
 4774SOL     OW25957   0.159   4.453  11.863  0.6598  0.4611 -0.0427
 4774SOL    HW125958   0.209   4.374  11.883 -1.6038 -1.3256 -1.4084
 4774SOL    HW225959   0.100   4.446  11.938 -0.8053 -0.1544 -1.2754
 4775SOL     OW25960   3.976   0.330   8.786  0.2660  0.0625 -0.0789
 4775SOL    HW125961   3.973   0.350   8.693 -0.3705 -1.8978 -0.4887
 4775SOL    HW225962   4.070   0.316   8.798 -0.0732 -1.0380  1.3271
 4776SOL     OW25963   4.666   0.225   7.685  0.0734 -0.0782 -0.0212
 4776SOL    HW125964   4.688   0.186   7.769  2.5611  0.6006 -0.3791
 4776SOL    HW225965   4.730   0.168   7.642 -0.0375 -1.0523  1.0877
 4777SOL     OW25966   4.468   1.807  10.040 -0.4505  0.8924  0.2797
 4777SOL    HW125967   4.509   1.730  10.080  1.9918  2.5182  0.8755
 4777SOL    HW225968   4.421   1.834  10.119  0.4709 -0.7084  1.3797
 4778SOL     OW25969   4.276   2.757   1.790 -0.6187 -0.5177 -0.2084
 4778SOL    HW125970   4.290   2.851   1.784 -3.2431 -0.0541  0.8432
 4778SOL    HW225971   4.203   2.755   1.852 -0.4696 -0.8215 -0.0443
 4779SOL     OW25972   2.513   3.989   2.789 -0.1442  0.7527 -0.5707
 4779SOL    HW125973   2.574   3.916   2.796 -1.6752 -0.4970 -0.5303
 4779SOL    HW225974   2.439   3.971   2.845 -0.5317  1.2174 -0.9266
 4780SOL     OW25975   0.034   0.933   8.416  0.0620 -0.1149 -0.5164
 4780SOL    HW125976   0.017   0.989   8.340 -2.2093  0.2531  0.2616
 4780SOL    HW225977   4.734   0.986   8.487 -0.9567 -0.2129 -0.9749
 4781SOL     OW25978   3.774   0.712   3.929 -0.4637  0.0835 -0.0552
 4781SOL    HW125979   3.724   0.794   3.930  1.5661  1.3002  0.8841
 4781SOL    HW225980   3.769   0.684   4.020 -0.3084  3.5983  1.0226
 4782SOL     OW25981   2.801   1.555  15.696 -0.3167  0.1113  0.3485
 4782SOL    HW125982   2.837   1.491  15.634 -2.5034  0.8970 -1.7522
 4782SOL    HW225983   2.736   1.501  15.742 -0.5838 -1.6394 -2.0474
 4783SOL     OW25984   2.850   1.532   3.169  0.4101 -0.0261  0.0733
 4783SOL    HW125985   2.925   1.513   3.113 -0.2888 -0.0682 -0.8548
 4783SOL    HW225986   2.796   1.571   3.101 -1.7894  1.8912  2.9293
 4784SOL     OW25987   2.869   3.648  12.623 -0.1244  0.3857  0.0619
 4784SOL    HW125988   2.829   3.691  12.699  3.6136 -0.0473  2.2537
 4784SOL    HW225989   2.829   3.707  12.559 -1.6885 -0.3586  0.3483
 4785SOL     OW25990   2.420   1.747  15.933 -0.0541 -0.1021 -0.3535
 4785SOL    HW125991   2.442   1.654  15.945  0.5347  0.3110  1.6301
 4785SOL    HW225992   2.500   1.795  15.952 -0.3444  1.2606 -2.5425
 4786SOL     OW25993   0.576   1.959   4.887 -0.1167  0.6031  0.6358
 4786SOL    HW125994   0.591   2.030   4.824  1.2131 -2.5443 -2.5955
 4786SOL    HW225995   0.533   2.013   4.953  1.1957 -1.3385  3.1035
 4787SOL     OW25996   4.280   4.520  10.467  0.2547  0.1293 -0.1842
 4787SOL    HW125997   4.203   4.464  10.456 -0.5095  1.2824 -0.6909
 4787SOL    HW225998   4.257   4.562  10.550  0.1176 -0.1011 -0.1068
 4788SOL     OW25999   2.231   1.652   1.426  0.1836  0.6329 -0.6786
 4788SOL    HW126000   2.243   1.649   1.331 -1.1332  0.5485 -0.8365
 4788SOL    HW226001   2.262   1.742   1.443  0.5254  0.2850  0.5691
 4789SOL     OW26002   1.520   2.545  11.751  0.1904  0.3170 -0.2692
 4789SOL    HW126003   1.601   2.576  11.791 -0.9157  1.7358  0.8922
 4789SOL    HW226004   1.486   2.622  11.707 -2.2638 -0.6898 -0.1584
 4790SOL     OW26005   4.596   0.935   9.894 -0.4566  0.0566  0.6226
 4790SOL    HW126006   4.684   0.934   9.856 -0.1364  0.7585  1.3454
 4790SOL    HW226007   4.625   0.944   9.985 -0.6036 -2.9871  0.9802
 4791SOL     OW26008   2.634   2.419   4.373  0.6456 -0.1977  0.2574
 4791SOL    HW126009   2.688   2.367   4.433  0.6499 -1.0903 -0.5198
 4791SOL    HW226010   2.570   2.349   4.362 -0.9609  1.5711 -1.3855
 4792SOL     OW26011   1.882   4.419  11.022 -0.0695  0.1893  0.7736
 4792SOL    HW126012   1.799   4.401  11.066  1.1260 -1.4627  2.3484
 4792SOL    HW226013   1.950   4.374  11.073 -1.8708 -0.8464  2.2545
 4793SOL     OW26014   2.071   4.404   8.768 -0.3278 -0.3041  0.0515
 4793SOL    HW126015   2.132   4.478   8.777  0.7264 -1.4788  2.6110
 4793SOL    HW226016   2.099   4.356   8.690  1.8015  0.6877  0.2051
 4794SOL     OW26017   1.205   4.198   0.398 -0.4932 -0.2157  0.0212
 4794SOL    HW126018   1.276   4.218   0.458  1.2926 -2.0432 -1.4848
 4794SOL    HW226019   1.146   4.273   0.388  0.5473  0.5582 -0.3375
 4795SOL     OW26020   4.524   3.818   9.933  0.0446  0.1620 -0.1052
 4795SOL    HW126021   4.444   3.797   9.885 -0.7483  0.2125  1.2052
 4795SOL    HW226022   4.566   3.736   9.957  2.2320  0.4805 -2.8685
 4796SOL     OW26023   3.832   1.084   4.773  0.2720 -0.1958 -0.3581
 4796SOL    HW126024   3.787   1.152   4.723  1.1516  0.2183 -0.5916
 4796SOL    HW226025   3.765   1.016   4.784 -0.0754  0.0071 -1.2284
 4797SOL     OW26026   3.393   2.309   4.183 -0.0557  0.3081  0.3623
 4797SOL    HW126027   3.467   2.282   4.237  0.3879  1.2519  0.2411
 4797SOL    HW226028   3.373   2.392   4.226 -0.5757 -0.1441  0.9910
 4798SOL     OW26029   2.018   1.031  11.358  0.4202 -0.0479 -0.0024
 4798SOL    HW126030   1.970   1.045  11.276  1.2641  0.3656 -0.4278
 4798SOL    HW226031   2.082   0.968  11.324 -0.8188  0.0736 -2.6119
 4799SOL     OW26032   4.089   1.964   8.575 -0.0057 -0.8050 -0.0202
 4799SOL    HW126033   4.060   1.919   8.654  0.4807  0.7663  1.0554
 4799SOL    HW226034   4.005   1.999   8.548 -0.0672  0.8109  2.3013
 4800SOL     OW26035   1.220   2.418   1.408 -0.2765  0.2801  0.5738
 4800SOL    HW126036   1.303   2.440   1.367 -0.5360 -1.6133 -0.9488
 4800SOL    HW226037   1.201   2.485   1.474  1.2722  0.2343  1.0634
 4801SOL     OW26038   0.505   4.358   3.006  0.4841 -0.0705  0.3427
 4801SOL    HW126039   0.476   4.358   3.098  0.0192 -0.2591  0.1964
 4801SOL    HW226040   0.600   4.362   3.018  0.8071 -3.0233 -1.4355
 4802SOL     OW26041   1.525   2.064   4.634 -0.3693  0.1432 -0.0780
 4802SOL    HW126042   1.471   2.047   4.557 -1.0935  0.6787  0.3050
 4802SOL    HW226043   1.617   2.052   4.611 -0.1305  0.8719  0.4725
 4803SOL     OW26044   4.463   0.357   4.320 -0.4755 -0.3533 -0.0845
 4803SOL    HW126045   4.426   0.317   4.242 -0.1784  0.1632 -0.4938
 4803SOL    HW226046   4.441   0.446   4.292 -0.0951  0.2267  1.4645
 4804SOL     OW26047   1.178   0.350   2.959 -0.3779  0.0033  0.1395
 4804SOL    HW126048   1.122   0.273   2.960 -1.1964  0.6157  1.3146
 4804SOL    HW226049   1.114   0.418   2.940  0.7079  0.7760 -0.7656
 4805SOL     OW26050   2.877   4.161   0.358  0.4427 -0.3775 -0.4046
 4805SOL    HW126051   2.815   4.131   0.291 -0.0765  0.6132 -0.3564
 4805SOL    HW226052   2.826   4.145   0.437 -0.6295 -0.4326 -1.0993
 4806SOL     OW26053   4.673   2.120   6.214  0.1640  0.7223  0.1222
 4806SOL    HW126054   4.679   2.142   6.121 -1.3615 -1.4065 -0.4750
 4806SOL    HW226055   4.673   2.025   6.223 -2.1205  1.0384  3.5323
 4807SOL     OW26056   0.099   3.462   7.599  0.2025  0.5662 -0.2108
 4807SOL    HW126057   0.066   3.526   7.536  0.3051  0.7748 -0.0503
 4807SOL    HW226058   0.188   3.495   7.606 -0.7740  3.5243 -1.8246
 4808SOL     OW26059   3.641   0.108  10.696  0.1618 -0.6138  0.5408
 4808SOL    HW126060   3.603   0.024  10.670 -0.4148  0.2888 -1.5822
 4808SOL    HW226061   3.717   0.117  10.639 -1.3101 -1.4365 -1.5941
 4809SOL     OW26062   3.466   2.775   1.783  0.9139 -0.3030  0.2301
 4809SOL    HW126063   3.409   2.716   1.732  1.2385 -0.4511  0.0396
 4809SOL    HW226064   3.446   2.736   1.868  0.2182 -1.0931 -0.2954
 4810SOL     OW26065   4.665   2.541  11.038 -0.4458  0.4411 -0.3001
 4810SOL    HW126066   4.644   2.469  10.979  0.6988 -1.2205  1.3172
 4810SOL    HW226067   0.003   2.584  10.997 -1.7056  1.1387 -1.8636
 4811SOL     OW26068   4.320   0.800  14.091  0.7622  0.1850 -0.6088
 4811SOL    HW126069   4.335   0.708  14.070  1.0733  0.4190 -1.3912
 4811SOL    HW226070   4.228   0.794  14.117  0.9859 -0.7428 -0.0120
 4812SOL     OW26071   2.789   2.048   5.927  0.0897 -0.1309  0.3001
 4812SOL    HW126072   2.822   1.982   5.988  3.8478  0.3323 -1.2215
 4812SOL    HW226073   2.858   2.113   5.935 -2.3229  2.5790 -0.9493
 4813SOL     OW26074   0.882   2.206  11.525 -0.7736  0.5035 -0.0060
 4813SOL    HW126075   0.939   2.137  11.490 -2.5734 -1.3122  0.6752
 4813SOL    HW226076   0.797   2.163  11.537  0.3153 -1.7383 -0.3176
 4814SOL     OW26077   2.157   4.362   9.692 -0.3169 -0.1777 -0.2168
 4814SOL    HW126078   2.097   4.355   9.766 -0.5213 -0.2382 -0.3865
 4814SOL    HW226079   2.227   4.301   9.713 -0.5437 -0.4319 -0.1917
 4815SOL     OW26080   0.710   3.242   4.274 -0.4643 -0.0409 -0.4623
 4815SOL    HW126081   0.627   3.205   4.305  0.7128 -0.4433  2.2552
 4815SOL    HW226082   0.675   3.331   4.278 -1.2673 -0.3683 -0.2500
 4816SOL     OW26083   1.104   0.124   1.623 -0.0560 -0.3536  0.4313
 4816SOL    HW126084   1.060   0.086   1.546 -0.1745 -1.5290  1.0767
 4816SOL    HW226085   1.119   0.214   1.595 -2.7751  0.3444  1.1400
 4817SOL     OW26086   4.202   4.327   5.679  0.1217 -0.7009 -0.2959
 4817SOL    HW126087   4.216   4.336   5.584  1.6746 -0.2583 -0.0367
 4817SOL    HW226088   4.185   4.233   5.684  0.7469 -0.8254 -0.4854
 4818SOL     OW26089   3.868   1.048   6.390 -1.0854 -0.5347  0.3393
 4818SOL    HW126090   3.818   1.089   6.461  0.0316  0.9445  0.2713
 4818SOL    HW226091   3.920   0.999   6.453 -0.6470  0.2712  0.6072
 4819SOL     OW26092   3.391   3.765   4.718 -0.3461  0.4475  0.0931
 4819SOL    HW126093   3.415   3.830   4.783 -1.7732 -1.1205  2.1908
 4819SOL    HW226094   3.297   3.777   4.703  0.1333 -0.0581 -3.5061
 4820SOL     OW26095   4.271   4.428   5.054 -0.5855  0.4426 -0.3516
 4820SOL    HW126096   4.331   4.448   4.983 -0.8689  0.7188 -0.5135
 4820SOL    HW226097   4.184   4.459   5.029 -1.6133 -1.8253  0.3313
 4821SOL     OW26098   3.883   4.231   0.486  0.3090 -0.3135 -0.2277
 4821SOL    HW126099   3.885   4.222   0.582  1.4791 -0.4716 -0.2729
 4821SOL    HW226100   3.792   4.205   0.473  0.0653  0.5751 -0.2849
 4822SOL     OW26101   1.419   4.547   5.056  0.0444  0.0560 -0.2091
 4822SOL    HW126102   1.508   4.521   5.030 -0.1397  2.1185 -2.8734
 4822SOL    HW226103   1.368   4.503   4.988 -0.2055  1.7437 -1.1037
 4823SOL     OW26104   3.788   2.422   8.286 -0.4781  0.2824 -0.3649
 4823SOL    HW126105   3.820   2.512   8.278  0.7346 -0.1714 -0.7011
 4823SOL    HW226106   3.796   2.392   8.195  1.0518  2.8550 -1.0858
 4824SOL     OW26107   3.454   2.615   8.206 -0.1571 -0.1900 -0.2570
 4824SOL    HW126108   3.489   2.565   8.280 -2.7944 -0.4014  0.8475
 4824SOL    HW226109   3.362   2.591   8.214 -0.7184  1.0576 -3.1814
 4825SOL     OW26110   0.170   2.000   0.627 -0.1949 -0.0864  0.6846
 4825SOL    HW126111   0.266   1.997   0.629 -0.2004 -2.6646 -2.7154
 4825SOL    HW226112   0.143   1.981   0.716 -1.8785 -5.8695 -1.1052
 4826SOL     OW26113   1.029   4.027  15.053 -0.0033 -0.2450 -0.2068
 4826SOL    HW126114   0.977   3.966  15.000 -0.3158 -2.0365  2.1622
 4826SOL    HW226115   0.968   4.100  15.054 -0.8358 -0.9649  1.6933
 4827SOL     OW26116   0.963   1.490   9.362 -0.3062 -0.2268 -0.1108
 4827SOL    HW126117   0.932   1.509   9.450 -1.6132 -0.4319 -0.5219
 4827SOL    HW226118   0.989   1.398   9.370  1.9839  0.5908  1.7681
 4828SOL     OW26119   2.284   0.093   4.545  0.3237 -0.3657  0.7435
 4828SOL    HW126120   2.253   0.002   4.548  2.8516 -1.2284  0.5700
 4828SOL    HW226121   2.360   0.088   4.488  1.4543 -0.2798  2.2267
 4829SOL     OW26122   0.296   3.972   3.537  0.3450  0.1687  0.3536
 4829SOL    HW126123   0.298   4.067   3.547  2.3610  0.2650 -0.9228
 4829SOL    HW226124   0.206   3.958   3.565  0.7483  0.1175  1.5964
 4830SOL     OW26125   0.157   3.660   9.318 -0.2966  0.1058  0.2819
 4830SOL    HW126126   0.201   3.650   9.402  1.1744 -0.8739 -0.6329
 4830SOL    HW226127   0.076   3.708   9.340 -0.2349  0.1244  0.4717
 4831SOL     OW26128   0.933   3.020   2.428 -0.3884 -0.7839 -0.6153
 4831SOL    HW126129   1.008   3.050   2.377  0.9287 -3.0594  0.0037
 4831SOL    HW226130   0.966   2.934   2.453  0.6797 -0.3840 -0.6708
 4832SOL     OW26131   4.575   3.224   2.843 -0.4513  0.2982 -0.1123
 4832SOL    HW126132   4.608   3.279   2.915 -0.2579  0.1960 -0.1221
 4832SOL    HW226133   4.583   3.287   2.771  0.9362 -0.6015 -0.7391
 4833SOL     OW26134   4.646   0.486   5.426  0.4622 -0.1243 -0.1753
 4833SOL    HW126135   4.573   0.456   5.480  0.7460 -1.1701 -0.3694
 4833SOL    HW226136   4.705   0.520   5.492  2.7038 -0.4711 -2.0038
 4834SOL     OW26137   3.214   3.177   9.933  0.3787  0.2785  0.5017
 4834SOL    HW126138   3.119   3.192   9.932  0.5802  1.4699 -0.1121
 4834SOL    HW226139   3.228   3.179   9.838  0.4602  2.4184  0.5645
 4835SOL     OW26140   3.453   0.282   0.563  0.1649 -0.7613  0.3159
 4835SOL    HW126141   3.537   0.237   0.558  0.6221  0.0980  0.1234
 4835SOL    HW226142   3.422   0.233   0.639 -0.2175  2.5963  2.3706
 4836SOL     OW26143   4.027   2.263   8.549  0.6857  0.1336 -0.0251
 4836SOL    HW126144   4.006   2.187   8.494  1.0283  0.8125 -1.0966
 4836SOL    HW226145   4.097   2.234   8.608  1.1055  0.2919 -0.4449
 4837SOL     OW26146   2.222   1.751   7.344  1.0755 -0.5364 -0.0913
 4837SOL    HW126147   2.272   1.675   7.316 -1.6969 -1.8257 -1.4974
 4837SOL    HW226148   2.137   1.713   7.367  1.2772 -0.2397  1.1960
 4838SOL     OW26149   0.252   2.091   5.726  0.2166  0.1774 -0.0959
 4838SOL    HW126150   0.241   2.026   5.795  0.6650 -1.2721 -1.4005
 4838SOL    HW226151   0.255   2.035   5.649  0.4039  1.0991 -0.7602
 4839SOL     OW26152   1.519   0.818   1.462 -0.5982 -0.4906 -0.4663
 4839SOL    HW126153   1.563   0.897   1.433  3.6273 -1.3788  3.5596
 4839SOL    HW226154   1.449   0.843   1.522 -0.1484  1.9860 -1.0041
 4840SOL     OW26155   3.793   1.512  16.739  0.5213  0.0881 -0.1147
 4840SOL    HW126156   3.845   1.487  16.816  0.0355 -1.0200 -0.1363
 4840SOL    HW226157   3.814   1.605  16.733 -2.0540  0.8916  2.6948
 4841SOL     OW26158   2.633   0.737   2.781  0.2553 -0.7089 -0.2333
 4841SOL    HW126159   2.623   0.770   2.870  0.5263  0.7635 -0.7580
 4841SOL    HW226160   2.604   0.812   2.730  0.0051 -0.4037  0.3606
 4842SOL     OW26161   1.189   1.983   8.389 -0.2415  0.1617  0.1589
 4842SOL    HW126162   1.099   1.996   8.420 -0.0435 -1.7168  1.4634
 4842SOL    HW226163   1.229   2.065   8.419 -0.9577  1.2755 -1.9210
 4843SOL     OW26164   0.174   4.070  12.210 -0.1646 -0.2007  0.4199
 4843SOL    HW126165   0.149   3.980  12.188 -0.6953  0.2956 -1.0449
 4843SOL    HW226166   0.259   4.060  12.167  0.1273  1.1465  0.6961
 4844SOL     OW26167   0.322   2.920  16.157 -0.1700 -0.0253  0.7025
 4844SOL    HW126168   0.402   2.953  16.199 -0.7756 -1.8200  3.2396
 4844SOL    HW226169   0.297   2.986  16.092 -2.0596  0.3243  1.7706
 4845SOL     OW26170   4.602   4.653   7.283  0.1161 -0.2770 -1.4850
 4845SOL    HW126171   4.542   4.633   7.212 -1.0687 -0.0618 -0.5422
 4845SOL    HW226172   4.681   4.682   7.237 -0.7526  1.8444 -1.6458
 4846SOL     OW26173   1.434   4.582   6.302 -0.0459 -0.1882  0.3493
 4846SOL    HW126174   1.380   4.614   6.374 -1.0175 -2.3205  0.5794
 4846SOL    HW226175   1.436   4.658   6.244 -0.2256 -0.8982 -0.5848
 4847SOL     OW26176   0.403   3.983  17.653  0.1185  0.2021 -0.2167
 4847SOL    HW126177   0.492   3.954  17.633  1.0441  0.8010  3.0730
 4847SOL    HW226178   0.359   3.898  17.645  0.6775  0.0920 -2.2794
 4848SOL     OW26179   2.884   3.478   0.564  0.3699 -0.2661  0.0408
 4848SOL    HW126180   2.865   3.555   0.509 -1.2560 -0.4901  0.2806
 4848SOL    HW226181   2.952   3.434   0.513  0.8138  1.7740 -1.1490
 4849SOL     OW26182   3.596   1.337   7.388  0.1540  0.3677  0.2942
 4849SOL    HW126183   3.665   1.272   7.400  1.0434  1.0881 -0.9779
 4849SOL    HW226184   3.647   1.390   7.327 -1.7618  1.4353 -0.3869
 4850SOL     OW26185   1.572   3.562   7.170  0.4323  0.4648  0.2575
 4850SOL    HW126186   1.616   3.617   7.105 -0.1411 -0.0406 -0.5595
 4850SOL    HW226187   1.548   3.634   7.229  2.1823  2.0566 -1.0020
 4851SOL     OW26188   4.524   2.021   8.637 -0.2130  0.0390  0.0063
 4851SOL    HW126189   4.569   2.037   8.554  1.8242  1.5067  1.3883
 4851SOL    HW226190   4.579   1.951   8.672  1.7282  2.0661  1.0113
 4852SOL     OW26191   1.645   4.657   1.584 -0.4435  1.2441  0.5671
 4852SOL    HW126192   1.735   4.640   1.556 -0.2294 -1.0806  2.6715
 4852SOL    HW226193   1.585   4.598   1.538  0.3522  0.3936  0.6174
 4853SOL     OW26194   4.119   2.339   5.102  0.0380 -0.2130 -0.6152
 4853SOL    HW126195   4.167   2.422   5.103 -0.9581  0.3482  1.5651
 4853SOL    HW226196   4.158   2.286   5.171 -0.0208 -2.2999 -2.2053
 4854SOL     OW26197   2.081   0.877   7.345  0.1990 -0.8326  0.5213
 4854SOL    HW126198   2.052   0.925   7.267  0.1355 -1.1519  0.3457
 4854SOL    HW226199   2.160   0.930   7.354 -1.0750  0.8998  1.5034
 4855SOL     OW26200   1.938   0.057  16.488  0.3469  0.1152 -0.0575
 4855SOL    HW126201   1.882   0.000  16.541 -0.8835  1.0096 -0.3870
 4855SOL    HW226202   2.013   4.735  16.487  1.0594  1.0170  0.0477
 4856SOL     OW26203   0.872   1.823   7.027  0.3601 -0.0596  0.1165
 4856SOL    HW126204   0.886   1.748   7.085 -0.5938  0.5512  1.1381
 4856SOL    HW226205   0.885   1.793   6.937 -2.2589 -2.6620  0.5947
 4857SOL     OW26206   2.267   4.148  10.322  0.2090  0.0763 -0.6093
 4857SOL    HW126207   2.344   4.201  10.300  0.9886 -1.7901 -2.3726
 4857SOL    HW226208   2.300   4.065  10.290 -1.2128 -0.3600 -0.9368
 4858SOL     OW26209   3.201   0.696   7.777 -0.6031  0.5942  0.0936
 4858SOL    HW126210   3.171   0.621   7.828  1.7008 -0.6564 -0.4040
 4858SOL    HW226211   3.274   0.724   7.832  0.2534 -0.4513 -0.5228
 4859SOL     OW26212   0.977   3.832   5.875 -0.1034 -0.1661 -0.4137
 4859SOL    HW126213   1.035   3.757   5.883  0.3644  0.3646  1.3655
 4859SOL    HW226214   0.892   3.790   5.884  1.3730 -3.1221 -0.5460
 4860SOL     OW26215   4.530   2.596   1.366 -0.0974  0.2866 -0.1260
 4860SOL    HW126216   4.456   2.657   1.365  0.6746  1.2243 -0.7080
 4860SOL    HW226217   4.528   2.568   1.457 -0.5439  0.1736 -0.1685
 4861SOL     OW26218   2.910   0.760  10.655 -0.3447 -1.2551 -0.2680
 4861SOL    HW126219   2.851   0.834  10.673 -0.7035 -1.2339 -1.5000
 4861SOL    HW226220   2.926   0.731  10.745 -0.8366 -0.9149 -0.0682
 4862SOL     OW26221   2.284   1.885   2.458  0.5691 -0.4459  0.3460
 4862SOL    HW126222   2.311   1.919   2.372 -0.6609 -0.2297  0.0340
 4862SOL    HW226223   2.348   1.816   2.469 -0.0251 -0.4114  3.9573
 4863SOL     OW26224   3.897   3.949   1.431 -0.4840 -0.2673 -0.2145
 4863SOL    HW126225   3.970   3.916   1.379  0.6964  0.5227  0.9354
 4863SOL    HW226226   3.848   4.009   1.375 -0.1730  0.3297  0.1561
 4864SOL     OW26227   3.870   2.680  16.308  0.4493  0.0321 -0.2208
 4864SOL    HW126228   3.897   2.676  16.399  2.5108  3.7822 -0.6831
 4864SOL    HW226229   3.813   2.756  16.304 -0.5961 -0.6950  0.9541
 4865SOL     OW26230   1.783   1.069   2.259 -0.2099  0.4395  0.6088
 4865SOL    HW126231   1.847   1.092   2.192  0.1729  1.5417  1.3395
 4865SOL    HW226232   1.750   0.981   2.242  1.2180 -0.3149  1.7196
 4866SOL     OW26233   2.574   1.633   2.846 -0.0305 -0.0882  0.6460
 4866SOL    HW126234   2.503   1.657   2.906  2.2874  1.2769  2.8438
 4866SOL    HW226235   2.559   1.539   2.850 -0.2548 -0.0997 -0.4539
 4867SOL     OW26236   1.869   3.880   8.364 -0.1597  0.5483 -0.2138
 4867SOL    HW126237   1.774   3.875   8.375 -0.1418  0.5038 -0.0815
 4867SOL    HW226238   1.887   3.802   8.312  2.1112  2.0293 -1.6621
 4868SOL     OW26239   0.318   0.117   7.362 -0.4703 -0.4859  0.3411
 4868SOL    HW126240   0.322   0.180   7.289  0.5759 -0.6921  0.2191
 4868SOL    HW226241   0.392   0.061   7.339  1.2134  1.6241  0.6286
 4869SOL     OW26242   2.222   0.189  10.570  1.0033 -0.4454 -0.6332
 4869SOL    HW126243   2.297   0.170  10.626 -0.0966  2.1196  1.7221
 4869SOL    HW226244   2.184   0.101  10.566 -0.0443 -0.1088  2.3616
 4870SOL     OW26245   1.739   0.391   3.457 -0.4915  0.4659  0.0451
 4870SOL    HW126246   1.691   0.309   3.474  1.8743 -0.3288  2.8555
 4870SOL    HW226247   1.795   0.355   3.389 -1.0488 -1.7785  0.7519
 4871SOL     OW26248   0.520   3.235   5.695  0.0779 -0.9943  0.1121
 4871SOL    HW126249   0.522   3.328   5.721 -0.4392 -0.6240 -1.1687
 4871SOL    HW226250   0.570   3.187   5.760 -1.9057 -2.5799  0.4602
 4872SOL     OW26251   0.375   1.115   6.057  0.5408 -0.2787  0.0343
 4872SOL    HW126252   0.462   1.149   6.033  0.8427 -1.0982 -0.0246
 4872SOL    HW226253   0.398   1.031   6.096 -2.7910 -0.7648  0.9702
 4873SOL     OW26254   0.361   0.333  13.860  0.2822 -0.2736  0.4685
 4873SOL    HW126255   0.424   0.288  13.804 -0.7049 -1.3117  0.2041
 4873SOL    HW226256   0.292   0.268  13.875 -0.9604  0.9058 -0.1800
 4874SOL     OW26257   2.114   3.148   8.710 -0.4906 -0.5170 -0.2020
 4874SOL    HW126258   2.178   3.217   8.694 -1.9304  1.0212  0.6936
 4874SOL    HW226259   2.119   3.141   8.805 -0.8907  1.4085 -0.0263
 4875SOL     OW26260   1.279   0.226  13.106  0.6372  0.2093 -0.1727
 4875SOL    HW126261   1.199   0.229  13.159  0.0291  0.3240 -1.0955
 4875SOL    HW226262   1.257   0.281  13.031 -1.0070 -3.0097 -2.0664
 4876SOL     OW26263   1.532   0.524  16.931  0.9339 -0.2119 -0.0063
 4876SOL    HW126264   1.589   0.501  17.005  0.0745  1.5687  1.2288
 4876SOL    HW226265   1.445   0.494  16.958  1.4616  0.4600  2.4781
 4877SOL     OW26266   1.491   4.317   2.969  0.6260 -0.5521  0.0732
 4877SOL    HW126267   1.534   4.401   2.957  0.0497  0.1245  2.6850
 4877SOL    HW226268   1.562   4.253   2.961 -1.4620 -2.8410 -0.3266
 4878SOL     OW26269   4.149   1.605   2.578 -0.0718 -0.3538 -0.2704
 4878SOL    HW126270   4.150   1.700   2.565 -0.1334 -0.2019  0.7899
 4878SOL    HW226271   4.243   1.588   2.579  0.3063  1.6513 -3.0221
 4879SOL     OW26272   0.373   3.776  14.900 -0.8106  0.1290  0.5213
 4879SOL    HW126273   0.390   3.746  14.811 -1.9446 -0.3692  0.4722
 4879SOL    HW226274   0.315   3.849  14.881  0.3283  0.7638 -0.5111
 4880SOL     OW26275   4.251   1.493   4.110  0.3581 -0.3158 -0.8132
 4880SOL    HW126276   4.274   1.550   4.182  1.4044  0.1254 -1.5089
 4880SOL    HW226277   4.320   1.515   4.048  1.3150 -0.6708  0.1224
 4881SOL     OW26278   3.120   0.353   5.519 -0.2945  0.1346 -0.0674
 4881SOL    HW126279   3.135   0.351   5.613  0.0121 -1.5454 -0.1428
 4881SOL    HW226280   3.045   0.293   5.513  0.0662 -0.4549  1.3081
 4882SOL     OW26281   4.159   3.842  12.111 -0.1228 -0.4949  0.4256
 4882SOL    HW126282   4.252   3.856  12.127 -0.2696  0.7529  0.1971
 4882SOL    HW226283   4.119   3.926  12.090  1.3926  0.4191  1.2365
 4883SOL     OW26284   3.328   3.728  11.127  0.2569  0.0053  0.2950
 4883SOL    HW126285   3.365   3.735  11.215  1.3643  0.0852 -0.1815
 4883SOL    HW226286   3.355   3.640  11.101 -0.0614  0.2429 -0.8447
 4884SOL     OW26287   4.213   0.144   2.127  0.3099  0.1164 -0.5968
 4884SOL    HW126288   4.297   0.166   2.087  0.1658 -0.0596 -0.9898
 4884SOL    HW226289   4.149   0.206   2.093  0.0838  1.7093  2.7638
 4885SOL     OW26290   1.464   0.139   1.592  0.4880 -0.2030 -0.7364
 4885SOL    HW126291   1.536   0.076   1.594  0.3175 -0.3537  0.8458
 4885SOL    HW226292   1.390   0.090   1.558  0.4102 -1.1060  0.7362
 4886SOL     OW26293   1.077   3.408  10.306 -0.4203  0.8801 -0.1194
 4886SOL    HW126294   1.162   3.383  10.269 -0.6893 -0.0402 -0.1235
 4886SOL    HW226295   1.062   3.334  10.364  1.2169 -0.0661 -0.8872
 4887SOL     OW26296   4.519   3.193   6.195  0.6091  0.9422  0.1397
 4887SOL    HW126297   4.506   3.098   6.189 -0.7975  0.9277  3.0003
 4887SOL    HW226298   4.580   3.206   6.122  0.5768 -1.3264 -0.3022
 4888SOL     OW26299   1.744   0.283  11.102 -0.0973 -0.0909 -0.4076
 4888SOL    HW126300   1.825   0.256  11.146 -0.2703 -0.3140 -0.2273
 4888SOL    HW226301   1.761   0.377  11.090  0.0675 -0.0171  0.3868
 4889SOL     OW26302   2.273   0.546  15.232 -0.3996  0.4579  0.3476
 4889SOL    HW126303   2.315   0.507  15.155  0.9095 -1.0008  1.8120
 4889SOL    HW226304   2.350   0.550  15.289  0.0420 -0.3427 -0.1968
 4890SOL     OW26305   3.556   0.026   6.959  0.0258 -0.0433 -0.1712
 4890SOL    HW126306   3.527   0.015   7.049 -0.0235 -0.6302 -0.2563
 4890SOL    HW226307   3.639   4.715   6.958 -0.0714 -0.2561  1.9806
 4891SOL     OW26308   3.956   1.707   5.523  0.3944 -0.5302 -0.6035
 4891SOL    HW126309   4.004   1.705   5.606 -2.1848  0.0623  0.9127
 4891SOL    HW226310   4.022   1.710   5.454  0.4936  1.7953 -0.3914
 4892SOL     OW26311   2.929   4.035   2.848  0.4289 -0.0914 -0.4073
 4892SOL    HW126312   2.947   3.944   2.871 -2.2720 -0.4002  0.5907
 4892SOL    HW226313   2.978   4.087   2.912  1.8804 -3.4471  1.1902
 4893SOL     OW26314   2.882   3.616   1.971  0.1027 -0.4750  0.1110
 4893SOL    HW126315   2.825   3.605   2.047 -1.8962  2.4125 -1.0066
 4893SOL    HW226316   2.930   3.534   1.984  1.1298  0.4860  2.3297
 4894SOL     OW26317   0.647   0.423   4.016  0.3134  0.7649 -0.1502
 4894SOL    HW126318   0.615   0.443   4.104  0.2261 -0.0425 -0.0033
 4894SOL    HW226319   0.600   0.343   3.992 -1.3954  2.1648 -1.4793
 4895SOL     OW26320   2.013   4.732  10.555  0.1149  0.2998  0.2882
 4895SOL    HW126321   1.926   4.734  10.514  0.4358  1.5100 -0.3134
 4895SOL    HW226322   2.006   4.668  10.626 -1.9524  0.4370  0.2063
 4896SOL     OW26323   1.088   4.065  11.690  0.5244  0.1416  0.1588
 4896SOL    HW126324   1.174   4.042  11.724  0.4449 -0.1044  0.1919
 4896SOL    HW226325   1.069   3.994  11.628 -1.2767 -0.1363  1.0241
 4897SOL     OW26326   4.680   3.911   7.026 -0.4474  0.6317  0.5826
 4897SOL    HW126327   0.010   3.951   6.971 -1.9199  0.4425 -1.3497
 4897SOL    HW226328   4.708   3.820   7.026  1.1501  1.1178  2.3827
 4898SOL     OW26329   1.336   0.164   8.488  0.1052 -0.0768 -0.0890
 4898SOL    HW126330   1.409   0.224   8.476 -0.2088  0.6027  1.3868
 4898SOL    HW226331   1.280   0.184   8.413  1.5035 -0.9679 -1.3477
 4899SOL     OW26332   0.237   3.359   2.023 -0.2019 -0.3536  0.0059
 4899SOL    HW126333   0.255   3.414   1.946  0.8165 -1.3076 -0.4321
 4899SOL    HW226334   0.322   3.356   2.066  0.8499  1.2744 -1.9188
 4900SOL     OW26335   4.055   4.697  10.255  0.0160  0.2668 -0.1687
 4900SOL    HW126336   4.084   0.038  10.302 -2.1031 -0.9885  3.2450
 4900SOL    HW226337   4.140   4.657  10.236  0.5321  2.1505 -1.7237
 4901SOL     OW26338   2.821   1.437   5.490 -0.4938 -0.7232 -0.1814
 4901SOL    HW126339   2.845   1.525   5.520 -2.8105  0.7851 -2.7082
 4901SOL    HW226340   2.898   1.426   5.434  0.2317 -1.5718  0.9773
 4902SOL     OW26341   1.025   3.750   6.582 -0.2721 -0.2709 -0.0757
 4902SOL    HW126342   0.983   3.711   6.506  1.5066  0.6266 -1.5331
 4902SOL    HW226343   0.965   3.824   6.590 -0.4612 -0.2142 -2.1164
 4903SOL     OW26344   4.563   1.547   8.318 -0.0584  0.4398 -0.3783
 4903SOL    HW126345   4.493   1.603   8.284 -1.5578 -0.9138  0.4562
 4903SOL    HW226346   4.573   1.562   8.412  0.6648 -1.1357 -0.2093
 4904SOL     OW26347   3.078   2.626   4.632  0.6669 -0.0079 -0.0319
 4904SOL    HW126348   3.033   2.545   4.655  1.5867 -0.1325  1.3225
 4904SOL    HW226349   3.036   2.651   4.549 -0.8808 -2.4756  0.0001
 4905SOL     OW26350   1.539   0.511   4.519  0.1690 -0.5130 -0.2181
 4905SOL    HW126351   1.451   0.477   4.503  0.4403 -0.6845 -1.3028
 4905SOL    HW226352   1.586   0.477   4.444  0.7961 -0.9615  0.3825
 4906SOL     OW26353   0.776   2.929  15.468 -0.2219  0.6768  0.9859
 4906SOL    HW126354   0.825   2.904  15.546  1.3499 -0.3945 -0.3398
 4906SOL    HW226355   0.691   2.895  15.495 -0.7889  0.8040 -0.6134
 4907SOL     OW26356   4.246   4.652   8.432 -0.1820  0.6768 -0.5753
 4907SOL    HW126357   4.231   4.729   8.487 -0.9805 -0.4256  0.7534
 4907SOL    HW226358   4.302   4.604   8.494  2.4932  2.1122 -1.8810
 4908SOL     OW26359   2.794   0.293   4.848  0.2811  0.2798  0.0049
 4908SOL    HW126360   2.740   0.232   4.797  1.1147 -0.5267  0.0923
 4908SOL    HW226361   2.761   0.282   4.937  1.7552 -1.5995  0.3205
 4909SOL     OW26362   0.199   1.330   5.089  0.0510  0.2148  0.4122
 4909SOL    HW126363   0.231   1.242   5.112 -1.7963 -0.0562  1.9481
 4909SOL    HW226364   0.248   1.382   5.152  0.3351 -2.0286  2.0494
 4910SOL     OW26365   3.624   2.303   8.819 -0.1619  0.4522  0.1124
 4910SOL    HW126366   3.669   2.219   8.833 -0.4546  0.6937  2.5451
 4910SOL    HW226367   3.537   2.277   8.788 -0.2695  1.2801 -0.2942
 4911SOL     OW26368   3.250   4.724   1.333  0.7985  0.0292 -0.1233
 4911SOL    HW126369   3.155   4.719   1.345  0.6872 -1.8269 -1.5717
 4911SOL    HW226370   3.260   4.639   1.289  0.3499 -1.1616  2.0626
 4912SOL     OW26371   0.803   4.715   2.627  0.0138  0.9633 -0.1269
 4912SOL    HW126372   0.872   4.700   2.563 -0.0308 -0.2551  0.1083
 4912SOL    HW226373   0.836   4.670   2.705 -0.4356 -0.3449 -0.6796
 4913SOL     OW26374   2.418   4.464  13.006 -0.5094  0.0206  0.5331
 4913SOL    HW126375   2.469   4.545  12.998  2.5378 -1.9799 -0.5004
 4913SOL    HW226376   2.336   4.502  12.975  2.8379  4.5082 -2.9002
 4914SOL     OW26377   1.963   3.908   3.010  0.3344 -0.2685  0.3603
 4914SOL    HW126378   2.008   3.827   2.984 -1.9158 -1.1678 -0.7075
 4914SOL    HW226379   2.036   3.968   3.024 -0.7602  1.2007 -0.3524
 4915SOL     OW26380   3.022   1.004   2.398 -0.2936 -0.6159 -0.2808
 4915SOL    HW126381   3.064   0.932   2.445  0.6385  0.1552  0.0640
 4915SOL    HW226382   2.954   1.038   2.456  1.0657  1.8741 -0.1795
 4916SOL     OW26383   3.558   0.739   6.229 -0.6679 -0.2846 -0.4404
 4916SOL    HW126384   3.588   0.808   6.289 -0.3166 -0.8089 -0.0113
 4916SOL    HW226385   3.572   0.778   6.143 -0.7232 -0.1985 -0.4106
 4917SOL     OW26386   2.396   1.598   6.601  0.4614 -0.5273 -0.1115
 4917SOL    HW126387   2.395   1.688   6.567  0.7962 -0.1009  1.0182
 4917SOL    HW226388   2.307   1.589   6.632  0.2341  1.6973 -0.0669
 4918SOL     OW26389   3.625   3.240   8.287  0.0059  0.3904 -0.1775
 4918SOL    HW126390   3.682   3.258   8.361 -0.1077  0.3367 -0.0783
 4918SOL    HW226391   3.538   3.276   8.302 -0.2098 -0.8257  1.3895
 4919SOL     OW26392   0.713   0.927   6.335 -0.2012  0.3632  0.2178
 4919SOL    HW126393   0.708   1.005   6.280 -0.0179  1.1573  1.3110
 4919SOL    HW226394   0.797   0.899   6.299 -0.4319 -0.2829  0.1861
 4920SOL     OW26395   1.021   1.833   3.687  0.5229  0.5151 -0.2273
 4920SOL    HW126396   1.005   1.861   3.597  4.3124 -0.8575 -1.3223
 4920SOL    HW226397   1.113   1.857   3.690  0.3026  1.4823 -1.2872
 4921SOL     OW26398   1.827   4.452   3.919  0.0732  0.1841  0.1305
 4921SOL    HW126399   1.886   4.427   3.847  1.5330  0.2881  1.2826
 4921SOL    HW226400   1.745   4.462   3.871 -1.3529 -1.6450  2.1817
 4922SOL     OW26401   4.157   2.790   7.526  0.2033 -0.4884 -0.1505
 4922SOL    HW126402   4.206   2.792   7.609 -0.2771 -1.9165  0.1683
 4922SOL    HW226403   4.065   2.785   7.551  0.4130  0.3617  0.8001
 4923SOL     OW26404   2.117   0.322   3.810 -0.0144 -0.5434 -0.0447
 4923SOL    HW126405   2.147   0.356   3.895 -2.1380  0.2170  0.4091
 4923SOL    HW226406   2.171   0.244   3.812 -1.2050 -1.3051  2.7429
 4924SOL     OW26407   2.952   2.033   8.346 -0.0130 -0.3959  0.5587
 4924SOL    HW126408   3.012   2.099   8.311 -3.5348  1.0667 -2.8517
 4924SOL    HW226409   2.991   2.003   8.428 -0.8031 -0.9588  0.7305
 4925SOL     OW26410   2.520   3.886  12.490  0.7713  0.6134 -0.3758
 4925SOL    HW126411   2.529   3.979  12.510 -0.9418  0.7158 -0.0995
 4925SOL    HW226412   2.607   3.871  12.454  0.0947 -1.0143 -1.3146
 4926SOL     OW26413   2.012   0.978  10.881 -0.0965 -0.3056 -0.3880
 4926SOL    HW126414   1.992   1.003  10.791 -0.0085  0.0567 -0.3085
 4926SOL    HW226415   2.100   1.011  10.897  0.1210  1.2056 -4.7647
 4927SOL     OW26416   3.217   1.076  16.985  0.1682  0.0501 -0.7877
 4927SOL    HW126417   3.141   1.023  16.961 -0.7713  1.3059 -0.5519
 4927SOL    HW226418   3.167   1.148  17.023  1.8767  0.8722 -0.1115
 4928SOL     OW26419   3.780   4.542  12.289  0.1556 -0.1012 -0.2618
 4928SOL    HW126420   3.692   4.563  12.321 -1.1395 -1.2589 -3.1428
 4928SOL    HW226421   3.797   4.472  12.352 -0.2342  0.8763  0.9456
 4929SOL     OW26422   3.240   4.094   5.998 -0.5538 -0.4336  0.5744
 4929SOL    HW126423   3.309   4.146   5.958 -1.5188  0.0367 -0.4666
 4929SOL    HW226424   3.188   4.163   6.039  1.3830  0.7120  1.0473
 4930SOL     OW26425   0.684   1.727   2.792 -0.1998 -0.1305 -0.1284
 4930SOL    HW126426   0.618   1.672   2.834 -0.7341  1.6540  1.3671
 4930SOL    HW226427   0.643   1.716   2.706 -1.1499 -5.4268  1.0011
 4931SOL     OW26428   1.214   4.264   3.276  0.4778  0.3400 -0.2372
 4931SOL    HW126429   1.140   4.325   3.271 -0.7242 -1.2143 -1.2878
 4931SOL    HW226430   1.212   4.221   3.191 -1.3306 -2.4751  1.2311
 4932SOL     OW26431   2.162   1.177  11.543  0.7821  0.5110  0.2647
 4932SOL    HW126432   2.106   1.127  11.484 -0.8431  1.9646  0.5825
 4932SOL    HW226433   2.114   1.259  11.534  0.1846  0.3045  1.4767
 4933SOL     OW26434   0.325   0.654  13.572 -0.0745  0.0904  0.0773
 4933SOL    HW126435   0.395   0.654  13.637 -1.2954 -0.2829  1.4084
 4933SOL    HW226436   0.283   0.734  13.605  2.5117  1.5857 -0.2326
 4934SOL     OW26437   3.185   3.219   0.506 -0.1044 -0.6109 -0.1122
 4934SOL    HW126438   3.255   3.223   0.442  1.3399 -3.4673  1.3118
 4934SOL    HW226439   3.168   3.313   0.498  1.3956 -0.3621 -0.2279
 4935SOL     OW26440   4.235   4.444   7.395  0.5335 -0.0060 -1.1070
 4935SOL    HW126441   4.256   4.379   7.462  1.4779  1.2329 -0.1988
 4935SOL    HW226442   4.297   4.410   7.331  2.4832  0.9963  0.2742
 4936SOL     OW26443   1.153   3.345   2.050 -0.1957 -0.5455  0.5560
 4936SOL    HW126444   1.183   3.415   2.108 -2.5920  0.3045  0.7472
 4936SOL    HW226445   1.234   3.301   2.023 -1.1123 -1.8416 -0.0907
 4937SOL     OW26446   2.887   1.633   1.778  0.3831 -0.5605 -0.2457
 4937SOL    HW126447   2.798   1.666   1.765  0.5784  0.2923  0.5994
 4937SOL    HW226448   2.879   1.538   1.777 -2.0106 -0.3497  2.9069
 4938SOL     OW26449   0.947   1.318  10.487  0.4634  0.3288  0.1061
 4938SOL    HW126450   0.967   1.352  10.574 -0.9064  0.7654  0.2481
 4938SOL    HW226451   0.983   1.230  10.496  1.0123  0.6822  1.3552
 4939SOL     OW26452   4.533   0.405   3.120 -0.3095 -0.6210  0.2924
 4939SOL    HW126453   4.508   0.335   3.060  0.9298 -0.1955 -0.7044
 4939SOL    HW226454   4.484   0.480   3.087  0.0140 -0.7431 -0.4712
 4940SOL     OW26455   1.657   0.224  10.802  0.1346  0.6160  0.6502
 4940SOL    HW126456   1.666   0.130  10.819  1.8598  0.2907 -2.1091
 4940SOL    HW226457   1.704   0.264  10.876 -0.6880  0.3201  1.3427
 4941SOL     OW26458   0.514   3.496   5.074  0.2870 -0.6231  0.4641
 4941SOL    HW126459   0.467   3.462   4.998 -0.3315  2.0167 -0.3330
 4941SOL    HW226460   0.542   3.410   5.106 -0.3067 -0.5637  1.1720
 4942SOL     OW26461   2.581   0.367   4.453  0.3173  0.1067 -0.2601
 4942SOL    HW126462   2.529   0.349   4.532  0.5314  2.4060  0.3972
 4942SOL    HW226463   2.616   0.452   4.480 -2.3075  1.0169  0.3092
 4943SOL     OW26464   3.709   4.240   4.159 -0.1465  0.0696  0.0903
 4943SOL    HW126465   3.665   4.175   4.214  0.2980 -0.0336  0.3170
 4943SOL    HW226466   3.786   4.184   4.151 -1.7835 -2.3055  0.8838
 4944SOL     OW26467   1.073   4.029   1.780 -0.2396  0.1951  0.3377
 4944SOL    HW126468   1.151   4.084   1.792  0.6000 -0.9354  0.0099
 4944SOL    HW226469   1.006   4.097   1.780  0.4986  0.9273  0.0071
 4945SOL     OW26470   3.277   3.239   8.655 -0.5322 -0.6618  0.0610
 4945SOL    HW126471   3.212   3.297   8.615 -0.7878 -1.2550 -0.3911
 4945SOL    HW226472   3.259   3.241   8.749 -0.9722 -2.6931  0.0319
 4946SOL     OW26473   2.176   0.266  13.369 -0.1520 -0.5451  0.1447
 4946SOL    HW126474   2.203   0.333  13.431  0.2262 -2.2876  1.8454
 4946SOL    HW226475   2.123   0.316  13.307  0.8309 -2.2280 -2.0560
 4947SOL     OW26476   1.002   1.450   6.577  0.6231 -0.7747  0.1804
 4947SOL    HW126477   0.976   1.490   6.495  1.8081  0.3985  0.3758
 4947SOL    HW226478   0.935   1.480   6.638  0.6428  2.1315 -1.2457
 4948SOL     OW26479   2.813   3.881   8.426 -0.0638 -0.5203  0.0083
 4948SOL    HW126480   2.844   3.971   8.417 -0.0850 -0.3217  1.8261
 4948SOL    HW226481   2.841   3.842   8.343  1.1905  1.2658 -0.4093
 4949SOL     OW26482   1.592   1.829   5.516 -0.2138  0.5604  0.5198
 4949SOL    HW126483   1.571   1.899   5.454  0.1487  0.3696  0.1806
 4949SOL    HW226484   1.626   1.768   5.451 -0.1688  1.1664 -0.0285
 4950SOL     OW26485   2.600   1.223   3.674  0.5513  0.5940  0.2667
 4950SOL    HW126486   2.627   1.187   3.758  0.4441  2.4415  1.0792
 4950SOL    HW226487   2.527   1.275   3.706  1.5314  0.9212  1.9920
 4951SOL     OW26488   4.534   2.095   1.984 -0.0370  0.1581 -0.3975
 4951SOL    HW126489   4.621   2.094   2.025 -0.1750  0.6957 -0.0881
 4951SOL    HW226490   4.536   2.175   1.932  0.8155  0.7581  0.5363
 4952SOL     OW26491   4.191   1.830   2.380  0.1051 -0.2842 -0.1605
 4952SOL    HW126492   4.155   1.761   2.323 -0.7684 -0.6494  0.8108
 4952SOL    HW226493   4.115   1.888   2.378  0.2756 -0.1064 -1.6773
 4953SOL     OW26494   4.696   3.062  16.665 -0.1762 -0.5606 -0.5606
 4953SOL    HW126495   4.700   2.968  16.685 -0.6471 -0.0186  2.0503
 4953SOL    HW226496   4.602   3.075  16.681 -0.2398 -0.1666 -1.2562
 4954SOL     OW26497   0.721   3.753   4.485  0.2377 -0.6266  0.0031
 4954SOL    HW126498   0.695   3.746   4.393 -1.2255  2.0748  0.2099
 4954SOL    HW226499   0.676   3.672   4.508 -1.4201 -0.4941 -2.7364
 4955SOL     OW26500   3.352   1.478   4.847  0.1803 -0.4034  0.0381
 4955SOL    HW126501   3.376   1.553   4.901 -1.1828 -1.1573  1.7250
 4955SOL    HW226502   3.324   1.408   4.907  0.2201 -0.6144 -0.1872
 4956SOL     OW26503   3.451   1.995   3.476 -0.1805  0.4611 -0.0707
 4956SOL    HW126504   3.370   2.039   3.501 -0.1404  0.8787 -0.6659
 4956SOL    HW226505   3.488   1.958   3.556 -0.6757  0.1650  0.0169
 4957SOL     OW26506   3.081   4.187   3.074 -0.1323  0.2209 -0.3532
 4957SOL    HW126507   3.000   4.167   3.120  0.5108 -1.0858  0.1895
 4957SOL    HW226508   3.137   4.171   3.150 -0.6032 -3.0039 -0.7012
 4958SOL     OW26509   1.257   1.378   6.192  0.2188  0.3238 -0.3944
 4958SOL    HW126510   1.320   1.350   6.258  1.6390  1.8386 -1.1139
 4958SOL    HW226511   1.240   1.472   6.199 -1.7014 -0.1111  0.7210
 4959SOL     OW26512   2.269   2.175   1.069  0.0961 -0.4128  0.1567
 4959SOL    HW126513   2.176   2.194   1.073 -0.1155 -1.5578  0.7087
 4959SOL    HW226514   2.300   2.265   1.060  1.9568 -0.9956  0.6839
 4960SOL     OW26515   3.144   4.329   3.357 -0.3232  0.8873  0.2342
 4960SOL    HW126516   3.113   4.302   3.444  0.7660  1.6261  0.8483
 4960SOL    HW226517   3.137   4.424   3.363 -2.6369  0.7782 -0.8058
 4961SOL     OW26518   1.168   0.174  11.918 -0.0274 -0.0963 -0.3458
 4961SOL    HW126519   1.084   0.152  11.958  1.6569 -0.2142  3.1154
 4961SOL    HW226520   1.219   0.223  11.983 -0.0702  0.4973 -0.7600
 4962SOL     OW26521   2.101   3.374  15.848 -0.2938 -0.6115 -0.5260
 4962SOL    HW126522   2.067   3.431  15.779  1.3698  2.0339  0.8375
 4962SOL    HW226523   2.183   3.349  15.805 -0.4253 -2.4732  0.3065
 4963SOL     OW26524   1.672   3.635  13.227  0.1379 -0.6211  0.4663
 4963SOL    HW126525   1.664   3.562  13.164 -2.6237 -0.3241  0.4816
 4963SOL    HW226526   1.757   3.671  13.201 -1.8247  3.1286 -0.6101
 4964SOL     OW26527   0.632   4.517   5.021  0.7776 -0.3657  0.4124
 4964SOL    HW126528   0.594   4.589   4.971 -0.6709 -3.6197 -3.2017
 4964SOL    HW226529   0.701   4.488   4.962  0.5880 -0.5573  0.2861
 4965SOL     OW26530   1.110   2.184  16.880 -0.1059 -0.7328 -0.2810
 4965SOL    HW126531   1.061   2.178  16.963 -0.2106  1.0556 -0.2149
 4965SOL    HW226532   1.197   2.201  16.916 -1.1520  0.4010  1.7398
 4966SOL     OW26533   1.739   3.325   4.065 -0.0748  0.1506 -0.2092
 4966SOL    HW126534   1.780   3.341   4.150  0.5123  0.3963 -0.5416
 4966SOL    HW226535   1.739   3.415   4.033 -0.7253  0.6499  1.1888
 4967SOL     OW26536   0.724   4.427   3.368  0.0382 -0.3244 -0.2761
 4967SOL    HW126537   0.638   4.465   3.383 -0.6201 -1.5321 -0.9500
 4967SOL    HW226538   0.703   4.334   3.360 -1.8416 -0.0909  2.0716
 4968SOL     OW26539   3.804   0.746   1.165  0.9666  0.3017 -0.1185
 4968SOL    HW126540   3.722   0.697   1.165  0.5331  1.0250 -0.4233
 4968SOL    HW226541   3.842   0.694   1.236  0.8549  0.3013 -0.0595
 4969SOL     OW26542   3.587   4.725   7.653 -0.0076  0.0084  0.4412
 4969SOL    HW126543   3.580   4.647   7.597  1.1150 -1.8307  2.8556
 4969SOL    HW226544   3.505   0.031   7.629  0.3735  1.2994  1.4962
 4970SOL     OW26545   3.267   2.281   2.834  0.0802 -0.1199  0.5007
 4970SOL    HW126546   3.341   2.250   2.783 -0.7910 -2.5599  0.7075
 4970SOL    HW226547   3.287   2.233   2.914 -0.1365 -0.3278  0.4293
 4971SOL     OW26548   0.689   0.126   3.190 -0.3857 -0.0778 -0.2016
 4971SOL    HW126549   0.732   0.049   3.153 -0.7982  0.1794 -1.2391
 4971SOL    HW226550   0.765   0.175   3.221 -1.1535 -0.8334  2.8831
 4972SOL     OW26551   4.731   0.522   9.237  0.1236  0.1220 -0.0938
 4972SOL    HW126552   0.009   0.507   9.330  1.0562  0.6994 -0.1645
 4972SOL    HW226553   0.076   0.565   9.218  0.0893 -0.3031 -1.2084
 4973SOL     OW26554   4.105   4.218   3.068  0.2277 -0.3343  0.0998
 4973SOL    HW126555   4.060   4.302   3.069 -0.8265 -0.8910 -0.5671
 4973SOL    HW226556   4.073   4.195   2.981  1.4092 -0.4924 -0.2898
 4974SOL     OW26557   0.081   0.985   1.731 -0.1022  0.9208 -0.7126
 4974SOL    HW126558   0.071   1.006   1.824 -1.2052  1.2438 -0.9029
 4974SOL    HW226559   4.734   0.946   1.709  0.7515 -0.4338 -1.6036
 4975SOL     OW26560   4.695   0.241   4.352 -0.6454 -0.2554 -0.2969
 4975SOL    HW126561   4.660   0.158   4.319  2.5979 -1.7461  0.0679
 4975SOL    HW226562   4.624   0.305   4.342 -0.7669 -0.5313 -1.1909
 4976SOL     OW26563   0.178   3.814   9.712  0.0046 -0.0516  0.1243
 4976SOL    HW126564   0.105   3.753   9.704 -0.1928  0.3889 -1.4260
 4976SOL    HW226565   0.164   3.833   9.805 -0.7898  2.6516 -0.5521
 4977SOL     OW26566   2.234   0.455   5.430 -0.2245  0.1482 -0.1276
 4977SOL    HW126567   2.282   0.414   5.502 -0.0257  1.3962  0.4386
 4977SOL    HW226568   2.194   0.375   5.395  4.1424 -1.3213 -1.7878
 4978SOL     OW26569   4.075   1.743   4.935 -0.1778  0.2588  0.0629
 4978SOL    HW126570   3.994   1.784   4.905 -0.2062  0.1104 -0.0563
 4978SOL    HW226571   4.127   1.818   4.907  0.0145  0.6261  1.3658
 4979SOL     OW26572   0.679   3.252   8.196  0.9873 -0.3276  0.0058
 4979SOL    HW126573   0.744   3.185   8.175  0.3040 -1.0794  0.3171
 4979SOL    HW226574   0.695   3.316   8.127  0.1596  1.4200  1.4069
 4980SOL     OW26575   1.740   4.542   0.792 -0.0481 -0.4235 -0.3462
 4980SOL    HW126576   1.783   4.606   0.736 -0.4880  0.3331  0.1747
 4980SOL    HW226577   1.710   4.605   0.858  0.6991  0.1274 -0.5329
 4981SOL     OW26578   2.367   0.137  12.996 -0.0159 -0.3768  0.1694
 4981SOL    HW126579   2.408   0.192  13.062 -1.4651  1.9072 -0.8406
 4981SOL    HW226580   2.315   0.203  12.950  0.2401 -1.1195 -1.2133
 4982SOL     OW26581   1.233   3.790   1.229 -0.2030 -0.7009  0.2223
 4982SOL    HW126582   1.260   3.788   1.321  1.9181  0.1253 -0.3753
 4982SOL    HW226583   1.300   3.842   1.184 -0.0637  0.1253  1.3892
 4983SOL     OW26584   0.712   4.646  17.304 -0.3781  0.5695  0.0572
 4983SOL    HW126585   0.670   4.650  17.218 -0.3436 -1.1633 -0.0549
 4983SOL    HW226586   0.803   4.646  17.274  0.0363  1.6698  1.3295
 4984SOL     OW26587   3.404   1.786   8.928  0.0884  0.3260 -0.4065
 4984SOL    HW126588   3.436   1.830   9.007 -0.5625  0.2128 -0.0783
 4984SOL    HW226589   3.475   1.722   8.930  0.9785  1.3328  0.1095
 4985SOL     OW26590   3.691   4.501   5.788 -0.4953  0.0964  0.0716
 4985SOL    HW126591   3.786   4.495   5.786 -0.5492 -1.1353  1.1299
 4985SOL    HW226592   3.686   4.572   5.852 -2.2016 -0.8300  0.9906
 4986SOL     OW26593   3.870   1.001   3.487  0.1136  0.0807 -0.2139
 4986SOL    HW126594   3.891   1.010   3.580 -2.0123  1.8248  0.0765
 4986SOL    HW226595   3.817   0.921   3.487 -0.6722  0.6221 -1.9545
 4987SOL     OW26596   4.178   0.738   0.961 -0.2147 -0.2770 -0.4170
 4987SOL    HW126597   4.133   0.816   0.991 -0.2041 -0.1761 -0.6638
 4987SOL    HW226598   4.183   0.688   1.043  1.0952 -1.1351 -1.0045
 4988SOL     OW26599   3.828   3.577   7.903 -0.3389  0.1733  0.2534
 4988SOL    HW126600   3.860   3.661   7.933 -0.0541 -0.2346  1.0763
 4988SOL    HW226601   3.771   3.542   7.972  0.3341  0.4343  0.9340
 4989SOL     OW26602   2.012   0.405  10.685  0.7717 -0.4715  0.4735
 4989SOL    HW126603   2.045   0.318  10.664 -0.5668 -0.7723 -0.3895
 4989SOL    HW226604   1.999   0.392  10.779  1.2664 -0.6309  0.5195
 4990SOL     OW26605   4.680   4.702   8.640 -0.3441 -0.1365 -0.2621
 4990SOL    HW126606   4.734   0.043   8.630 -2.0799  1.0430 -0.4501
 4990SOL    HW226607   4.731   4.637   8.687  1.2655  0.7707 -0.7323
 4991SOL     OW26608   0.241   3.533   6.339  0.6833  0.3396  0.0082
 4991SOL    HW126609   0.249   3.494   6.426 -1.7421  0.0420  0.0833
 4991SOL    HW226610   0.184   3.463   6.308 -0.0647  0.7868  0.4013
 4992SOL     OW26611   1.297   0.213   0.370  0.1793  0.0444  0.2009
 4992SOL    HW126612   1.357   0.287   0.379 -1.8142  1.6378  0.3793
 4992SOL    HW226613   1.219   0.253   0.332  1.5194  1.9021 -0.5866
 4993SOL     OW26614   3.704   2.087  13.677 -0.2738  0.1851 -0.5692
 4993SOL    HW126615   3.757   2.016  13.712 -0.1154 -0.7398 -2.7106
 4993SOL    HW226616   3.770   2.117  13.615  0.3883 -0.3573 -0.1283
 4994SOL     OW26617   0.494   3.146  17.065 -0.2097  0.8331 -0.1708
 4994SOL    HW126618   0.509   3.060  17.025  0.7071  0.8205  0.2008
 4994SOL    HW226619   0.564   3.204  17.034  1.7310 -1.9567 -0.9753
 4995SOL     OW26620   0.732   0.248   2.675 -0.0562  0.2322  0.3984
 4995SOL    HW126621   0.746   0.154   2.664 -3.2054 -0.3162  1.2153
 4995SOL    HW226622   0.765   0.281   2.591 -0.7940  0.5764  0.2386
 4996SOL     OW26623   2.081   3.455   5.497 -0.1243 -0.4415 -0.5109
 4996SOL    HW126624   2.141   3.383   5.514 -0.8040 -0.1140  3.3389
 4996SOL    HW226625   2.130   3.505   5.432 -2.7744  2.6476 -0.1378
 4997SOL     OW26626   1.960   2.508   3.904  0.0599  0.2528 -0.4399
 4997SOL    HW126627   1.865   2.496   3.901  0.4293 -2.3313 -2.1217
 4997SOL    HW226628   1.994   2.420   3.922  1.4186  0.6127 -1.2690
 4998SOL     OW26629   2.781   1.741  15.484  0.5316  0.1952  0.0669
 4998SOL    HW126630   2.695   1.781  15.471 -0.0252 -0.3538  2.1994
 4998SOL    HW226631   2.760   1.680  15.555  0.0602  1.5333  1.0766
 4999SOL     OW26632   2.462   1.638   3.360  0.0926 -0.4368 -0.1401
 4999SOL    HW126633   2.556   1.620   3.359 -0.1733 -1.9383  0.7694
 4999SOL    HW226634   2.434   1.584   3.434 -0.7574 -0.6319 -0.5999
 5000SOL     OW26635   3.996   4.481   2.089 -0.0268 -0.3343 -0.0516
 5000SOL    HW126636   3.993   4.521   2.176  2.3921 -0.4805  0.1013
 5000SOL    HW226637   4.088   4.464   2.068 -0.3246 -1.1510 -0.7024
 5001SOL     OW26638   0.716   4.003   1.744  0.0341 -0.1669 -0.2491
 5001SOL    HW126639   0.704   3.919   1.701  1.2912 -1.1161  1.2392
 5001SOL    HW226640   0.629   4.040   1.733  0.3574  1.2236  1.8330
 5002SOL     OW26641   4.027   3.374   9.675 -0.0774  0.2158  0.7155
 5002SOL    HW126642   4.108   3.413   9.707  0.7684 -1.6622  0.8927
 5002SOL    HW226643   3.962   3.388   9.744 -2.0499 -0.0604 -1.0807
 5003SOL     OW26644   4.492   1.320   2.624  0.2242 -0.3795 -0.0979
 5003SOL    HW126645   4.550   1.360   2.559  0.3519  0.4146  0.5065
 5003SOL    HW226646   4.505   1.227   2.606  1.6188 -0.5065  1.4895
 5004SOL     OW26647   1.006   1.023   2.071 -0.2758  0.6101 -0.4112
 5004SOL    HW126648   0.918   1.053   2.093  0.1850  2.3958 -0.9936
 5004SOL    HW226649   1.050   1.101   2.037 -0.2557  1.8715  2.5166
 5005SOL     OW26650   3.888   2.040  14.876  0.1098  0.3319 -0.1451
 5005SOL    HW126651   3.827   1.982  14.831  1.6489 -1.6867  0.3448
 5005SOL    HW226652   3.915   2.100  14.807  2.2203 -0.0462  0.3298
 5006SOL     OW26653   1.916   1.264  10.273  0.9591  0.0681  0.0259
 5006SOL    HW126654   1.989   1.206  10.253 -1.3492 -2.5183 -0.9300
 5006SOL    HW226655   1.941   1.287  10.363  1.1697  0.7769 -0.2161
 5007SOL     OW26656   3.478   4.254  15.711 -0.7518  0.1059  0.0463
 5007SOL    HW126657   3.390   4.227  15.737 -0.8380  1.3463  1.0223
 5007SOL    HW226658   3.478   4.251  15.615 -0.3359 -0.9038  0.0850
 5008SOL     OW26659   4.148   3.408  15.232  0.3961 -0.0915 -0.5389
 5008SOL    HW126660   4.236   3.435  15.203  0.0054  0.8371 -0.8624
 5008SOL    HW226661   4.151   3.428  15.325 -0.2369 -0.5461 -0.4217
 5009SOL     OW26662   3.527   2.116  13.913 -0.1099  0.0080  0.6516
 5009SOL    HW126663   3.574   2.100  13.831  0.4588  0.1061  0.9605
 5009SOL    HW226664   3.464   2.180  13.879  0.5976 -1.0535 -2.6701
 5010SOL     OW26665   1.780   0.969  11.517  0.0812  0.5793  0.1572
 5010SOL    HW126666   1.780   0.886  11.566  0.5185  0.0159 -0.7861
 5010SOL    HW226667   1.867   0.971  11.477  1.0593 -0.4282  2.2624
 5011SOL     OW26668   2.652   0.424   1.345 -0.5531 -0.2565 -0.1007
 5011SOL    HW126669   2.700   0.458   1.420 -1.9542 -0.4461  0.8971
 5011SOL    HW226670   2.595   0.366   1.395 -1.0827  0.0175 -0.3794
 5012SOL     OW26671   3.340   1.815  12.457 -0.3428 -0.4283  0.3621
 5012SOL    HW126672   3.311   1.805  12.366 -1.3127  4.4519  0.1311
 5012SOL    HW226673   3.318   1.908  12.468  2.0426  0.1895 -0.0915
 5013SOL     OW26674   2.847   1.083  15.607 -0.0401  0.6729  0.0055
 5013SOL    HW126675   2.883   0.996  15.591  0.9824  0.8522  1.3302
 5013SOL    HW226676   2.761   1.072  15.566  0.0873  0.9507 -0.3272
 5014SOL     OW26677   2.190   3.164   5.992 -0.3147 -0.4303 -0.6953
 5014SOL    HW126678   2.180   3.112   6.072  2.6840  0.6024  0.3353
 5014SOL    HW226679   2.122   3.131   5.933  0.7982 -2.5669 -0.7793
 5015SOL     OW26680   0.922   1.100   3.133  0.0366 -0.0312 -0.3935
 5015SOL    HW126681   0.977   1.076   3.207  0.5422  1.4854 -0.2628
 5015SOL    HW226682   0.892   1.012   3.113  1.0165 -0.7851  1.3965
 5016SOL     OW26683   2.973   0.304   7.065 -0.5436 -0.0461 -0.0345
 5016SOL    HW126684   2.958   0.327   6.974 -0.3689 -1.1661 -0.3463
 5016SOL    HW226685   2.921   0.225   7.083  0.2430 -0.5321  0.1089
 5017SOL     OW26686   1.411   3.295  16.620 -0.3305 -0.5076  0.7143
 5017SOL    HW126687   1.403   3.278  16.526  2.6942 -1.1744  0.5449
 5017SOL    HW226688   1.453   3.217  16.657 -0.1728 -0.9897 -0.4852
 5018SOL     OW26689   4.228   1.474  15.981  0.3608  0.1245 -0.3588
 5018SOL    HW126690   4.294   1.424  15.934  0.0286 -2.9797  2.4623
 5018SOL    HW226691   4.149   1.475  15.927  2.7557 -0.8506 -3.8067
 5019SOL     OW26692   3.447   1.067   6.760 -0.0257 -0.1512  0.4871
 5019SOL    HW126693   3.409   1.009   6.826  3.5650 -0.3340  2.3887
 5019SOL    HW226694   3.372   1.125   6.749  0.0362 -0.5061 -1.8253
 5020SOL     OW26695   0.944   4.662  17.706 -0.5161 -0.0970 -0.0811
 5020SOL    HW126696   0.887   4.677   0.035 -1.6777 -0.3890 -0.8993
 5020SOL    HW226697   0.994   0.006  17.708  0.5437 -0.7567  1.0509
 5021SOL     OW26698   3.037   0.093   2.776 -0.5142 -0.0824 -0.1667
 5021SOL    HW126699   3.112   0.083   2.717  0.6016 -1.4500  1.4771
 5021SOL    HW226700   2.968   0.047   2.730  0.7457 -0.4147 -1.7138
 5022SOL     OW26701   3.989   2.313   6.224 -0.0266 -0.3055  0.3875
 5022SOL    HW126702   3.960   2.326   6.314 -0.7294  0.4005  0.0570
 5022SOL    HW226703   3.914   2.353   6.179 -0.1858  0.3237  1.2133
 5023SOL     OW26704   2.368   2.816   4.642 -0.3769  0.5977 -0.3823
 5023SOL    HW126705   2.454   2.840   4.606  0.2336  0.5260  1.0412
 5023SOL    HW226706   2.347   2.892   4.695 -2.6578 -0.0086 -0.4313
 5024SOL     OW26707   2.396   4.312   4.122 -0.1411  0.4861  0.3960
 5024SOL    HW126708   2.366   4.358   4.044 -0.5837 -0.1692  0.1731
 5024SOL    HW226709   2.345   4.361   4.186 -0.5527  0.2240  0.2720
 5025SOL     OW26710   4.625   4.440   3.210  0.4864  0.2055 -0.1939
 5025SOL    HW126711   4.574   4.494   3.151  1.2912  0.5029 -0.6255
 5025SOL    HW226712   4.679   4.392   3.147 -0.8361  0.4747 -1.5100
 5026SOL     OW26713   1.093   3.567   3.004  0.4822 -0.4930 -0.0460
 5026SOL    HW126714   1.118   3.477   3.026  0.2697 -0.6749 -0.5781
 5026SOL    HW226715   1.149   3.612   3.068 -0.1000  2.3380 -1.5270
 5027SOL     OW26716   3.533   3.191  16.926 -0.0588  0.0510  0.5680
 5027SOL    HW126717   3.497   3.113  16.884  1.8647 -1.6180  2.0364
 5027SOL    HW226718   3.626   3.189  16.903 -0.4395 -1.4190 -0.8283
 5028SOL     OW26719   3.215   0.611   9.233 -0.0962  0.4688  0.1499
 5028SOL    HW126720   3.223   0.607   9.328  1.1186 -1.6724 -0.0320
 5028SOL    HW226721   3.280   0.676   9.208  0.5617 -0.3026 -0.1704
 5029SOL     OW26722   4.482   0.607   7.519 -0.3672  0.5244 -0.7316
 5029SOL    HW126723   4.424   0.663   7.468  0.0991  0.4179 -1.3797
 5029SOL    HW226724   4.458   0.642   7.605 -0.4297  1.6611 -1.2032
 5030SOL     OW26725   4.143   3.651   3.546 -0.4020  0.0590  0.6808
 5030SOL    HW126726   4.166   3.703   3.469  1.3296  0.8150  1.7028
 5030SOL    HW226727   4.056   3.684   3.569 -1.3676 -1.6727 -0.5207
 5031SOL     OW26728   1.746   4.364   2.085 -1.0948 -0.6757  0.0003
 5031SOL    HW126729   1.823   4.412   2.115 -1.5001 -0.1131  0.1330
 5031SOL    HW226730   1.765   4.333   1.996  1.1020  0.9901 -0.0783
 5032SOL     OW26731   1.707   0.734   6.886 -0.0235 -0.2727 -0.0088
 5032SOL    HW126732   1.779   0.673   6.870  1.6701  1.2633  1.5891
 5032SOL    HW226733   1.745   0.768   6.967 -0.8867  1.5174 -0.3460
 5033SOL     OW26734   3.151   3.302   2.427 -0.2520 -0.2353 -0.9211
 5033SOL    HW126735   3.153   3.263   2.514  2.3589 -0.8961 -1.2907
 5033SOL    HW226736   3.147   3.395   2.450  1.2029 -0.6615  1.0477
 5034SOL     OW26737   0.556   4.255   6.676  0.3299  0.0040  0.3835
 5034SOL    HW126738   0.515   4.246   6.761  0.4658  1.0193  0.5604
 5034SOL    HW226739   0.501   4.203   6.618  0.5835  0.9764 -0.7296
 5035SOL     OW26740   3.046   3.091   7.256 -0.4117  0.0345  0.5551
 5035SOL    HW126741   3.088   3.024   7.309 -0.4672 -0.4407 -0.0035
 5035SOL    HW226742   3.000   3.126   7.332 -0.1020  2.2323 -0.2573
 5036SOL     OW26743   4.096   2.753   2.024  0.4320 -0.0954  0.0576
 5036SOL    HW126744   4.014   2.711   1.998  0.7815 -3.3560  4.1277
 5036SOL    HW226745   4.093   2.745   2.119  0.7772 -0.2767  0.0541
 5037SOL     OW26746   4.244   2.297   6.234  0.2684  0.3588  0.1452
 5037SOL    HW126747   4.231   2.390   6.218 -1.2818  0.4191  1.7220
 5037SOL    HW226748   4.152   2.270   6.226 -0.2958  3.0544 -2.3191
 5038SOL     OW26749   3.852   3.008   0.955  0.1328  0.3916 -0.1873
 5038SOL    HW126750   3.941   3.024   0.923  0.2255 -2.1627 -1.2072
 5038SOL    HW226751   3.817   3.095   0.936  0.9005  1.4376  3.2205
 5039SOL     OW26752   3.851   3.543   0.172  0.1411  0.5491  0.3180
 5039SOL    HW126753   3.904   3.478   0.126 -0.1922 -0.0208  0.7471
 5039SOL    HW226754   3.886   3.616   0.121  0.2467 -0.2521 -0.7646
 5040SOL     OW26755   2.898   3.348   8.205 -0.2054  0.0556 -0.9534
 5040SOL    HW126756   2.928   3.373   8.117 -1.5550 -0.6653 -1.6267
 5040SOL    HW226757   2.901   3.252   8.203 -0.6423 -0.0150  1.7985
 5041SOL     OW26758   4.229   3.423   4.499  0.1955  0.1947 -0.2362
 5041SOL    HW126759   4.215   3.328   4.494  2.5780 -0.0868 -1.3119
 5041SOL    HW226760   4.135   3.441   4.507  0.3400  0.9941 -0.3900
 5042SOL     OW26761   1.222   0.509   4.467 -0.5813 -0.1610 -0.7453
 5042SOL    HW126762   1.196   0.515   4.559  0.1324 -0.1676 -0.5429
 5042SOL    HW226763   1.242   0.603   4.462  0.2169 -0.3490 -1.1235
 5043SOL     OW26764   1.739   0.617  15.385  0.3426 -0.2645  0.3718
 5043SOL    HW126765   1.822   0.650  15.419  0.7645 -0.6883 -0.2311
 5043SOL    HW226766   1.716   0.561  15.459 -0.8290 -2.0235 -1.3158
 5044SOL     OW26767   2.328   4.353  10.042  0.6595  0.5925  0.0858
 5044SOL    HW126768   2.308   4.420  10.107 -0.9100 -0.9445  1.1650
 5044SOL    HW226769   2.240   4.335  10.011  0.9611 -1.6410  0.4918
 5045SOL     OW26770   2.970   0.904   2.907  0.3594 -0.4645  0.5487
 5045SOL    HW126771   2.886   0.940   2.879  0.8157  1.0399  1.1408
 5045SOL    HW226772   2.946   0.861   2.989 -0.3625  0.7216  0.9564
 5046SOL     OW26773   3.689   2.289   3.760  0.1028 -0.5220 -0.2198
 5046SOL    HW126774   3.767   2.329   3.722 -0.4867 -0.9601 -1.8613
 5046SOL    HW226775   3.707   2.196   3.767  0.8860 -0.5163 -2.3437
 5047SOL     OW26776   0.673   1.353   8.796  0.6321  0.6639  0.7542
 5047SOL    HW126777   0.621   1.351   8.716 -1.3458 -0.4163  2.0865
 5047SOL    HW226778   0.744   1.407   8.761 -1.2143  1.9187 -0.9899
 5048SOL     OW26779   3.030   0.154  13.655 -0.3026  0.3990 -0.3069
 5048SOL    HW126780   2.935   0.145  13.649  0.1231 -1.7763 -3.7404
 5048SOL    HW226781   3.045   0.091  13.726  3.8156  1.9439  0.1722
 5049SOL     OW26782   2.759   3.522   2.511  0.1219 -0.2000 -0.7844
 5049SOL    HW126783   2.797   3.482   2.590 -1.6148  1.1229  0.7434
 5049SOL    HW226784   2.787   3.612   2.527  0.7124 -0.1077 -2.3975
 5050SOL     OW26785   4.044   1.978   7.739 -0.0643  0.1198  0.2164
 5050SOL    HW126786   3.972   2.018   7.691  0.0516  1.1625  0.9129
 5050SOL    HW226787   4.001   1.893   7.745 -1.6702  0.9333  0.2610
 5051SOL     OW26788   3.580   0.473   1.823  0.1832  0.2423  0.0010
 5051SOL    HW126789   3.515   0.405   1.838 -1.9593  1.7411 -2.3040
 5051SOL    HW226790   3.530   0.547   1.858  1.1922 -0.7913  3.5150
 5052SOL     OW26791   2.767   2.400   5.501  0.1079 -0.3629  0.3877
 5052SOL    HW126792   2.829   2.466   5.470  0.0636 -0.7953 -0.6204
 5052SOL    HW226793   2.817   2.319   5.494 -0.1151 -0.5341  0.8043
 5053SOL     OW26794   1.675   3.597   8.764  0.1978 -0.5503 -0.2799
 5053SOL    HW126795   1.754   3.637   8.729 -0.4764 -0.2285 -1.4320
 5053SOL    HW226796   1.665   3.516   8.714 -0.0376 -0.5151 -0.2872
 5054SOL     OW26797   1.862   0.576   4.682  0.2747  0.3469  0.1008
 5054SOL    HW126798   1.886   0.629   4.606  1.1594 -0.5835 -0.2666
 5054SOL    HW226799   1.865   0.646   4.747 -0.9149  1.3093 -0.8728
 5055SOL     OW26800   3.730   3.182  16.471  0.0337 -0.3308  0.1456
 5055SOL    HW126801   3.773   3.261  16.503  0.8983 -1.1161  0.8851
 5055SOL    HW226802   3.653   3.173  16.527  0.5374 -1.5112  0.6357
 5056SOL     OW26803   4.080   0.657   2.859 -0.5451 -0.2695 -0.1233
 5056SOL    HW126804   4.102   0.711   2.935 -0.7258 -1.6867  0.9604
 5056SOL    HW226805   4.011   0.605   2.902 -0.1372  0.4288  1.3857
 5057SOL     OW26806   3.286   1.388  13.677 -0.1999 -0.2558 -0.2539
 5057SOL    HW126807   3.193   1.410  13.668 -0.0117  0.8157  0.3897
 5057SOL    HW226808   3.321   1.428  13.597  0.1127  0.5324  0.2742
 5058SOL     OW26809   3.216   4.363  15.627 -0.1891 -0.1678  0.0054
 5058SOL    HW126810   3.224   4.458  15.616  1.0431 -0.1807  0.7376
 5058SOL    HW226811   3.121   4.355  15.636 -0.0585 -2.9255 -1.2153
 5059SOL     OW26812   0.092   2.772   1.914  0.0289 -0.1652  0.2391
 5059SOL    HW126813   0.182   2.740   1.912 -0.4556 -1.5269  0.1519
 5059SOL    HW226814   0.053   2.701   1.862 -2.6121  1.6087 -0.2071
 5060SOL     OW26815   2.398   2.449  14.231 -0.1899  0.0153 -0.1454
 5060SOL    HW126816   2.325   2.510  14.224 -0.2581  0.0267  0.6654
 5060SOL    HW226817   2.464   2.510  14.262  1.3861 -1.4323 -0.6629
 5061SOL     OW26818   1.687   2.605  12.544  0.5182  0.1084  0.5689
 5061SOL    HW126819   1.706   2.566  12.458 -0.3188 -0.8994  0.8457
 5061SOL    HW226820   1.672   2.531  12.603 -1.8805  0.8147  0.8578
 5062SOL     OW26821   1.871   0.627   2.356  0.7720  0.5896 -0.3864
 5062SOL    HW126822   1.911   0.559   2.301  1.0744 -1.3479  2.2376
 5062SOL    HW226823   1.780   0.596   2.357  1.4717 -1.4232  0.3480
 5063SOL     OW26824   1.501   0.503   6.657  0.5377  0.3794 -0.5987
 5063SOL    HW126825   1.455   0.509   6.573  0.6927  1.1229 -0.6246
 5063SOL    HW226826   1.448   0.569   6.702  1.6772  1.9017 -1.5319
 5064SOL     OW26827   3.183   0.165   3.973  0.5329  0.4887  0.1040
 5064SOL    HW126828   3.188   0.131   3.884 -1.5524 -0.6400  0.4142
 5064SOL    HW226829   3.088   0.177   3.978  0.3740 -0.2815 -1.0672
 5065SOL     OW26830   4.488   2.239   3.782  0.1491 -0.0021  0.3786
 5065SOL    HW126831   4.441   2.166   3.740 -0.7263  0.6480  0.2304
 5065SOL    HW226832   4.421   2.307   3.779  0.2558  0.1010  0.3670
 5066SOL     OW26833   3.609   0.143   5.517  0.4654 -0.3109  0.2669
 5066SOL    HW126834   3.688   0.107   5.476 -0.1177 -2.0215  0.6694
 5066SOL    HW226835   3.563   0.068   5.555  1.5801 -0.2560  1.7104
 5067SOL     OW26836   2.489   4.600   2.967 -0.1838 -0.0581 -0.1004
 5067SOL    HW126837   2.545   4.677   2.974 -0.7091  0.1334  1.9199
 5067SOL    HW226838   2.449   4.628   2.885  2.3733 -0.1203 -1.3706
 5068SOL     OW26839   2.302   0.293   5.678 -0.1157 -0.1902  0.1558
 5068SOL    HW126840   2.221   0.339   5.702  0.0719 -0.3546  1.0995
 5068SOL    HW226841   2.302   0.208   5.722  1.0988 -0.0530  0.4183
 5069SOL     OW26842   2.572   2.855   7.557  0.3290  0.1861 -0.0172
 5069SOL    HW126843   2.541   2.905   7.481  0.4169  1.0941  0.5424
 5069SOL    HW226844   2.516   2.778   7.543  0.8252 -0.2443  0.3704
 5070SOL     OW26845   1.424   4.196   0.597  0.2176  0.4346 -0.3021
 5070SOL    HW126846   1.514   4.176   0.623 -0.4507  0.5300  2.1033
 5070SOL    HW226847   1.444   4.290   0.589  0.9880  0.3053  0.0918
 5071SOL     OW26848   1.091   4.345   4.097 -0.0276 -0.0121  0.3565
 5071SOL    HW126849   1.051   4.327   4.012  0.2718 -0.2592  0.2686
 5071SOL    HW226850   1.162   4.285   4.076  1.1841  1.4765  0.2729
 5072SOL     OW26851   4.573   1.499   7.222  0.8604 -0.0300  0.2261
 5072SOL    HW126852   4.659   1.541   7.230  1.4415 -1.4397  1.2960
 5072SOL    HW226853   4.576   1.456   7.307 -1.3650  1.5624  1.1236
 5073SOL     OW26854   2.211   1.703  16.482  0.0690 -0.0166  0.1473
 5073SOL    HW126855   2.276   1.691  16.412 -0.8728  2.1760 -1.1130
 5073SOL    HW226856   2.162   1.774  16.439 -1.6369 -1.0201  0.4465
 5074SOL     OW26857   2.808   3.142   4.766  0.7753 -0.0134  0.7388
 5074SOL    HW126858   2.781   3.053   4.744 -0.9060  0.2189  1.9387
 5074SOL    HW226859   2.847   3.172   4.683  1.3275  0.0751  1.0318
 5075SOL     OW26860   3.046   2.847   2.488  0.1286  0.2819  0.0459
 5075SOL    HW126861   3.086   2.775   2.438 -0.2397  0.1849 -0.1144
 5075SOL    HW226862   2.975   2.876   2.430 -1.0781 -0.3953  1.1855
 5076SOL     OW26863   2.236   3.572   4.943 -0.1882 -0.9326  0.1571
 5076SOL    HW126864   2.206   3.568   4.852  0.4752  0.0092 -0.1040
 5076SOL    HW226865   2.247   3.480   4.965 -1.4627 -1.7379 -2.5522
 5077SOL     OW26866   4.158   3.850  17.024 -0.3739  0.3901  0.2815
 5077SOL    HW126867   4.194   3.777  16.974  1.3237  1.2798  0.1918
 5077SOL    HW226868   4.082   3.870  16.970 -1.0003 -1.3040  0.5388
 5078SOL     OW26869   0.090   2.902   2.649  0.0414 -0.3965  0.0630
 5078SOL    HW126870   0.018   2.960   2.625 -0.6586 -0.6159  1.6329
 5078SOL    HW226871   0.159   2.938   2.594 -1.9102 -0.2989 -2.3508
 5079SOL     OW26872   2.032   4.655  11.748 -0.0471 -0.1212 -0.3498
 5079SOL    HW126873   2.078   4.574  11.724  1.4131  0.7771 -0.6009
 5079SOL    HW226874   1.981   4.630  11.825 -0.6909  0.0639 -0.7190
 5080SOL     OW26875   2.631   4.002  10.342  0.6209  0.3777  0.4502
 5080SOL    HW126876   2.559   3.946  10.312  0.4255 -0.2401  2.0800
 5080SOL    HW226877   2.589   4.087  10.331  0.9155  0.5265  0.4642
 5081SOL     OW26878   2.614   3.353  13.863 -0.1538 -0.8149 -0.4789
 5081SOL    HW126879   2.597   3.403  13.944  0.4184 -0.0276 -0.8425
 5081SOL    HW226880   2.541   3.292  13.859 -1.3590  0.4953  1.4039
 5082SOL     OW26881   2.233   0.801   7.796 -1.1112  0.3510  0.5583
 5082SOL    HW126882   2.238   0.707   7.780 -1.7792  0.3305  0.4528
 5082SOL    HW226883   2.325   0.824   7.780 -1.1706 -1.1172 -1.9012
 5083SOL     OW26884   4.362   4.491  10.167 -0.3601  0.1771 -0.3798
 5083SOL    HW126885   4.356   4.586  10.175 -2.3232  0.0749 -0.7126
 5083SOL    HW226886   4.449   4.479  10.128 -0.3453  1.4555 -0.7380
 5084SOL     OW26887   2.660   3.728   2.169  0.1305 -0.2167 -0.0493
 5084SOL    HW126888   2.735   3.787   2.182  0.7152 -0.3651 -2.7152
 5084SOL    HW226889   2.627   3.759   2.084 -0.6175 -1.6857 -0.2935
 5085SOL     OW26890   3.186   4.307   7.482  0.4278 -0.3346 -0.8122
 5085SOL    HW126891   3.238   4.365   7.426  1.6433  0.9218  1.6195
 5085SOL    HW226892   3.253   4.238   7.489 -0.3458 -1.1577 -1.6108
 5086SOL     OW26893   3.726   2.227   7.428  0.1236  0.1517  0.3060
 5086SOL    HW126894   3.716   2.147   7.376  2.1326 -0.7337  1.3262
 5086SOL    HW226895   3.799   2.205   7.485  0.4634 -0.3358 -0.3147
 5087SOL     OW26896   4.578   4.406   2.605  0.4854 -0.0997  0.5322
 5087SOL    HW126897   4.571   4.323   2.652  0.6602  0.5115  1.6204
 5087SOL    HW226898   4.519   4.388   2.531  0.4004  2.1867  0.0583
 5088SOL     OW26899   3.891   1.937   7.340  0.2469  0.0898  0.1365
 5088SOL    HW126900   3.811   1.929   7.288  0.6296 -0.7530 -0.3317
 5088SOL    HW226901   3.932   2.016   7.305 -0.1143  0.1318 -0.1879
 5089SOL     OW26902   2.996   0.848   7.699  0.0994  0.6448  0.1581
 5089SOL    HW126903   3.069   0.792   7.726  2.0571  2.3054 -1.6353
 5089SOL    HW226904   3.027   0.932   7.734  2.7557 -0.5300  0.6597
 5090SOL     OW26905   2.433   3.002   8.965  0.3900  0.2853  0.2971
 5090SOL    HW126906   2.455   2.915   8.933 -1.3968  0.0256 -0.2082
 5090SOL    HW226907   2.339   3.016   8.954 -0.0211 -0.4647  2.7015
 5091SOL     OW26908   3.682   1.431  15.767 -0.4720 -1.0074 -0.2259
 5091SOL    HW126909   3.711   1.484  15.841 -0.1183  0.5443 -1.4737
 5091SOL    HW226910   3.639   1.494  15.709  3.5304  1.6578 -0.2781
 5092SOL     OW26911   1.772   2.193   4.171  0.1852 -0.6916  0.8011
 5092SOL    HW126912   1.815   2.263   4.221  0.1278  0.0123 -0.1329
 5092SOL    HW226913   1.700   2.234   4.122 -0.5107 -0.9924  1.5637
 5093SOL     OW26914   0.239   2.065   7.466  0.3545 -0.0527 -0.3201
 5093SOL    HW126915   0.293   2.088   7.390 -0.0478  1.9151 -0.0264
 5093SOL    HW226916   0.202   1.985   7.429  1.5812 -0.4102 -0.7649
 5094SOL     OW26917   4.353   4.071   9.102 -0.0271  0.5816 -0.0423
 5094SOL    HW126918   4.265   4.047   9.129  0.2946 -3.2060 -2.3726
 5094SOL    HW226919   4.360   4.157   9.143  3.4100  0.4580 -0.3606
 5095SOL     OW26920   1.172   1.283   3.539  0.0078  0.6957 -0.1306
 5095SOL    HW126921   1.133   1.348   3.598  1.6169  0.7971  0.8293
 5095SOL    HW226922   1.186   1.320   3.452  0.7153 -1.7493 -1.0555
 5096SOL     OW26923   3.468   4.547   8.348 -0.3967  0.2814  0.3198
 5096SOL    HW126924   3.487   4.456   8.325 -0.3063  0.8809 -1.9284
 5096SOL    HW226925   3.498   4.552   8.439  0.9701 -3.8927  0.0828
 5097SOL     OW26926   4.617   2.550  11.298 -0.5936 -0.1725 -0.4624
 5097SOL    HW126927   4.671   2.477  11.330  2.6176  2.5347  0.3561
 5097SOL    HW226928   4.641   2.556  11.205  2.7554  1.2146  0.4913
 5098SOL     OW26929   3.298   2.386   6.147  0.1379 -0.3411 -0.2449
 5098SOL    HW126930   3.332   2.475   6.143  0.5466 -0.5260 -0.9197
 5098SOL    HW226931   3.355   2.331   6.093  1.8251  1.8844 -0.7536
 5099SOL     OW26932   2.184   1.159   7.889 -0.0132  0.0505  0.4396
 5099SOL    HW126933   2.141   1.079   7.858 -2.2250  1.9935 -1.5169
 5099SOL    HW226934   2.211   1.136   7.978  0.7789  2.1578  0.7334
 5100SOL     OW26935   2.254   3.561   2.474 -0.4958  0.2526 -0.1259
 5100SOL    HW126936   2.221   3.633   2.420  1.0941  1.1604  0.1144
 5100SOL    HW226937   2.269   3.494   2.408 -0.4115  0.5067 -0.3621
 5101SOL     OW26938   1.353   3.991   7.153 -0.2277  0.0258  0.1004
 5101SOL    HW126939   1.385   4.008   7.065 -1.1352 -3.4607 -0.9139
 5101SOL    HW226940   1.260   4.012   7.144 -0.0891  1.2213  1.5571
 5102SOL     OW26941   0.035   0.015   7.114  0.0984  0.5484 -0.1208
 5102SOL    HW126942   4.698   0.027   7.055 -0.2132 -1.7409 -0.2143
 5102SOL    HW226943   0.091   0.080   7.072 -0.3680  0.6358 -0.6106
 5103SOL     OW26944   2.795   4.649   5.719 -0.7488 -0.1936  0.0951
 5103SOL    HW126945   2.827   4.573   5.768 -0.0443 -0.0096 -0.0866
 5103SOL    HW226946   2.824   4.722   5.773 -0.8232  0.1464 -0.3256
 5104SOL     OW26947   3.421   0.990   7.516 -0.6916 -0.0286 -0.0973
 5104SOL    HW126948   3.392   1.073   7.480 -0.2946 -0.1733 -0.7479
 5104SOL    HW226949   3.362   0.931   7.468 -1.6584  0.7200  0.1609
 5105SOL     OW26950   4.705   2.864   2.946 -0.3327 -0.4334  0.1397
 5105SOL    HW126951   4.691   2.911   2.863 -0.4513  0.6671  0.7851
 5105SOL    HW226952   0.006   2.784   2.910 -0.0408 -0.9159  1.5522
 5106SOL     OW26953   3.389   1.480  13.436  0.4824 -0.0951  0.2156
 5106SOL    HW126954   3.443   1.559  13.432  0.9536 -0.4744 -0.7297
 5106SOL    HW226955   3.312   1.502  13.384  0.8399 -1.0788 -0.7361
 5107SOL     OW26956   0.805   0.397   9.952  0.0861 -0.0814  0.8645
 5107SOL    HW126957   0.844   0.327  10.005 -1.3353 -2.0675 -0.7269
 5107SOL    HW226958   0.718   0.361   9.935  0.8047 -0.4769 -1.8671
 5108SOL     OW26959   4.191   0.013   2.922  0.1633 -0.0198  0.4806
 5108SOL    HW126960   4.137   0.046   2.850 -0.9407 -1.4849  0.6177
 5108SOL    HW226961   4.131   0.011   2.996 -0.0237  0.8239  0.3440
 5109SOL     OW26962   0.225   4.432  11.036  0.1066 -0.3708 -0.1188
 5109SOL    HW126963   0.186   4.345  11.029 -1.6963  0.3160  1.2948
 5109SOL    HW226964   0.242   4.456  10.944 -2.8663 -0.6149 -0.7145
 5110SOL     OW26965   2.289   1.555   2.685  0.0293  0.2643 -0.1081
 5110SOL    HW126966   2.306   1.496   2.758  0.1682 -0.8956 -1.0639
 5110SOL    HW226967   2.227   1.621   2.715 -0.7358 -0.1531 -0.7465
 5111SOL     OW26968   4.171   1.025   7.426  0.0303 -0.0340 -0.4544
 5111SOL    HW126969   4.098   1.053   7.371 -0.8595  1.3105  1.4569
 5111SOL    HW226970   4.236   1.080   7.382  0.3973  0.6445  0.9371
 5112SOL     OW26971   3.103   1.123   6.561  0.2320 -0.1195  0.2562
 5112SOL    HW126972   3.073   1.049   6.615  1.2724 -0.4330  0.4058
 5112SOL    HW226973   3.030   1.138   6.501 -0.8595 -0.9272  1.3697
 5113SOL     OW26974   2.150   2.256  11.168 -0.8442 -0.1232 -0.4684
 5113SOL    HW126975   2.123   2.283  11.256  0.3475 -0.3366 -0.0432
 5113SOL    HW226976   2.215   2.195  11.203 -1.0381 -0.5503 -0.8500
 5114SOL     OW26977   1.983   0.700   6.824  0.6790 -0.1543  0.2485
 5114SOL    HW126978   1.953   0.673   6.738 -0.6761 -0.1653  0.7327
 5114SOL    HW226979   1.977   0.615   6.869  0.7237 -0.6451 -0.6769
 5115SOL     OW26980   4.711   2.741   8.021  0.6568 -0.2716  0.4862
 5115SOL    HW126981   4.731   2.834   8.032 -3.2547  0.7706 -1.1992
 5115SOL    HW226982   0.005   2.698   8.101  0.8257 -0.4737  0.3087
 5116SOL     OW26983   3.601   3.283   6.587  0.4583  0.1189 -0.2348
 5116SOL    HW126984   3.687   3.323   6.574  0.4318 -0.3078 -1.7821
 5116SOL    HW226985   3.621   3.193   6.559  1.5886  0.2239  0.2638
 5117SOL     OW26986   4.029   2.098   6.707  0.1970 -0.7932 -0.2182
 5117SOL    HW126987   4.118   2.132   6.718  0.4600 -2.1261  1.8582
 5117SOL    HW226988   4.032   2.070   6.615  1.1937 -0.7643 -0.1914
 5118SOL     OW26989   2.030   2.743   3.348 -0.0809 -0.5427 -0.3098
 5118SOL    HW126990   2.026   2.649   3.329  0.9643 -1.0139  1.7824
 5118SOL    HW226991   2.022   2.737   3.444 -0.1890  2.8685 -0.1058
 5119SOL     OW26992   3.079   1.642   3.871 -0.2206  0.9736 -0.4843
 5119SOL    HW126993   3.007   1.704   3.868 -2.0210 -1.1071  0.1944
 5119SOL    HW226994   3.106   1.631   3.780 -1.0151  3.1376 -0.9588
 5120SOL     OW26995   0.476   1.044   5.294  0.2713 -0.5123  1.2163
 5120SOL    HW126996   0.399   1.087   5.331  0.7403  1.0256  0.3725
 5120SOL    HW226997   0.499   0.991   5.371  1.9327  1.4664  2.0782
 5121SOL     OW26998   1.139   1.289   5.455 -0.0017  0.2549  0.4416
 5121SOL    HW126999   1.141   1.338   5.537  1.5188  0.9415 -0.0031
 5121SOL    HW227000   1.167   1.200   5.479 -0.0176  0.2324  0.3756
 5122SOL     OW27001   3.129   0.365   9.805  0.2912  0.8028 -0.9562
 5122SOL    HW127002   3.121   0.406   9.892 -0.6057  1.0047 -1.1306
 5122SOL    HW227003   3.078   0.427   9.752 -2.0296 -0.8103 -0.6010
 5123SOL     OW27004   4.348   3.366   5.210 -0.1021 -0.3008 -0.6173
 5123SOL    HW127005   4.269   3.315   5.193 -0.8642  0.0343  1.9359
 5123SOL    HW227006   4.341   3.432   5.141  1.1828  2.5364  1.9687
 5124SOL     OW27007   0.301   1.012   2.845 -0.0585 -0.6968  0.3180
 5124SOL    HW127008   0.220   1.032   2.798 -0.3380  1.2861  1.6342
 5124SOL    HW227009   0.353   1.011   2.765 -0.4484  0.5536  0.0549
 5125SOL     OW27010   2.740   4.447  12.886 -0.2491 -0.2672  0.3778
 5125SOL    HW127011   2.700   4.533  12.874 -0.1538 -0.2901 -0.0889
 5125SOL    HW227012   2.832   4.468  12.898  0.0420 -1.6571  0.6540
 5126SOL     OW27013   0.734   4.064   0.389  0.5507 -0.5367  0.5670
 5126SOL    HW127014   0.788   4.137   0.356  1.3793 -1.9447 -1.1918
 5126SOL    HW227015   0.750   4.002   0.318 -1.4282 -0.1168 -0.2359
 5127SOL     OW27016   3.699   3.871   6.657 -0.2963  0.1730  0.0364
 5127SOL    HW127017   3.723   3.852   6.748 -1.0886 -2.6467 -0.3177
 5127SOL    HW227018   3.785   3.868   6.615  0.1972 -0.3471  1.0808
 5128SOL     OW27019   0.599   2.330  11.420 -0.3747  0.0829  0.0531
 5128SOL    HW127020   0.617   2.271  11.493 -1.2861 -0.5657 -0.2517
 5128SOL    HW227021   0.568   2.272  11.351 -0.1039  0.7291 -0.6122
 5129SOL     OW27022   2.690   4.242   5.013 -0.4042  0.9133 -0.4493
 5129SOL    HW127023   2.705   4.232   4.919  1.2537 -2.8325  0.1844
 5129SOL    HW227024   2.639   4.320   5.032  0.9283  1.9287 -1.0035
 5130SOL     OW27025   1.580   1.015   6.396  0.0445  0.1193 -0.5687
 5130SOL    HW127026   1.663   1.004   6.350 -0.0535  1.5794 -1.1024
 5130SOL    HW227027   1.522   0.953   6.351  0.1748 -0.4349  0.0241
 5131SOL     OW27028   0.954   0.422  12.208  0.1153 -0.2954  0.0548
 5131SOL    HW127029   0.885   0.438  12.143 -1.5886 -0.2453  1.8831
 5131SOL    HW227030   0.930   0.455  12.295 -1.9984 -3.0175  0.5028
 5132SOL     OW27031   3.162   3.121   0.045  0.1933  0.1978  0.2917
 5132SOL    HW127032   3.109   3.073  17.729  0.5340 -0.7936  0.7558
 5132SOL    HW227033   3.165   3.203  17.744  0.9595 -0.4673 -0.7742
 5133SOL     OW27034   0.507   1.499  14.967 -0.8067 -0.2335  0.2033
 5133SOL    HW127035   0.457   1.449  14.902 -0.8619 -1.1907  0.9932
 5133SOL    HW227036   0.546   1.568  14.913  0.9772 -0.9706  0.5818
 5134SOL     OW27037   0.977   1.601   8.928 -0.4745 -0.2271 -0.0657
 5134SOL    HW127038   1.066   1.566   8.937  0.5561  2.1404 -1.0978
 5134SOL    HW227039   0.956   1.568   8.841  2.0731  1.4580 -1.2929
 5135SOL     OW27040   3.222   4.613   3.646 -0.6524 -0.7008  0.4044
 5135SOL    HW127041   3.283   4.685   3.630  0.3427 -1.5847  0.2307
 5135SOL    HW227042   3.191   4.606   3.555 -2.2437 -1.2302  0.9858
 5136SOL     OW27043   0.736   3.248   5.376 -0.4370 -0.4704 -0.4835
 5136SOL    HW127044   0.783   3.287   5.302 -0.4126  2.1131  0.8906
 5136SOL    HW227045   0.812   3.240   5.433  0.7146 -1.4079 -2.1361
 5137SOL     OW27046   4.602   3.345  11.598 -0.5082 -0.2590 -0.0552
 5137SOL    HW127047   4.585   3.421  11.542  1.7369  0.9578  0.9317
 5137SOL    HW227048   4.625   3.387  11.681  1.3938  0.9258 -1.1776
 5138SOL     OW27049   2.498   3.312   5.623  0.5633  0.0958 -0.4515
 5138SOL    HW127050   2.524   3.284   5.711  0.4458 -4.7920 -1.9786
 5138SOL    HW227051   2.542   3.397   5.610  1.6821 -0.3776  0.2742
 5139SOL     OW27052   2.892   4.224   4.530  0.4828  0.1817  0.3947
 5139SOL    HW127053   2.948   4.148   4.513  0.7221 -0.1911  2.8565
 5139SOL    HW227054   2.824   4.221   4.462  0.8071  0.6457  0.0447
 5140SOL     OW27055   3.668   2.649   7.521  0.5012  0.3318  0.2766
 5140SOL    HW127056   3.690   2.720   7.460 -1.4152  1.8718  1.4189
 5140SOL    HW227057   3.645   2.575   7.464 -1.5090  0.5072  0.8664
 5141SOL     OW27058   0.943   3.108  12.457 -0.1995  0.3753 -0.6471
 5141SOL    HW127059   0.879   3.177  12.439 -2.5895 -1.4915  0.6982
 5141SOL    HW227060   0.948   3.072  12.368  0.9611  1.6195 -1.0760
 5142SOL     OW27061   3.408   0.324   7.131 -0.0157  0.1268 -0.2115
 5142SOL    HW127062   3.464   0.249   7.152 -1.6623 -1.5591 -1.8443
 5142SOL    HW227063   3.440   0.344   7.043  2.3855  1.1953  0.8819
 5143SOL     OW27064   3.173   1.930  16.828 -0.0457 -0.4407  0.3609
 5143SOL    HW127065   3.105   1.884  16.878 -0.2791  0.5002  0.9004
 5143SOL    HW227066   3.171   2.016  16.870  0.3261 -0.4379  0.3748
 5144SOL     OW27067   1.265   1.408  12.875  0.2408  0.0511 -0.7497
 5144SOL    HW127068   1.310   1.402  12.959  0.5836  1.1242 -0.8510
 5144SOL    HW227069   1.285   1.327  12.829 -0.6201 -0.0532 -0.9494
 5145SOL     OW27070   1.027   4.545  14.400 -0.1750 -0.0210 -0.0615
 5145SOL    HW127071   0.941   4.579  14.423  0.9866  1.4352  2.0588
 5145SOL    HW227072   1.075   4.582  14.474 -2.0040  0.2459  0.9738
 5146SOL     OW27073   1.792   1.516   2.844 -0.4538 -0.5843  0.0121
 5146SOL    HW127074   1.808   1.572   2.919 -2.1891  1.7441 -1.3457
 5146SOL    HW227075   1.732   1.445   2.867 -0.5444 -1.7873 -3.8028
 5147SOL     OW27076   3.916   3.122   6.136 -0.2400  0.1200  0.1591
 5147SOL    HW127077   3.831   3.165   6.139 -0.2923  0.0262  0.0471
 5147SOL    HW227078   3.964   3.181   6.078  0.3531  0.3386  0.8704
 5148SOL     OW27079   4.263   3.475   3.372 -0.2311 -0.0088 -0.1531
 5148SOL    HW127080   4.196   3.488   3.439  1.4178  0.9157  1.3334
 5148SOL    HW227081   4.316   3.539   3.419  0.1378  0.8869 -1.7847
 5149SOL     OW27082   2.626   2.061   5.574 -0.3951  0.3085 -0.0776
 5149SOL    HW127083   2.700   2.117   5.552  0.6359 -1.6507 -1.5455
 5149SOL    HW227084   2.648   1.984   5.523 -1.5194 -1.1090  1.5698
 5150SOL     OW27085   3.909   2.754   9.847 -0.0464 -0.0144 -1.0067
 5150SOL    HW127086   3.921   2.682   9.786  1.9438  0.5784 -1.2950
 5150SOL    HW227087   3.870   2.819   9.788 -0.8992 -0.1518 -0.5901
 5151SOL     OW27088   3.509   0.529   8.726 -0.4340 -0.2452  0.3193
 5151SOL    HW127089   3.439   0.546   8.662  0.4106 -1.7283 -0.9889
 5151SOL    HW227090   3.578   0.519   8.660  1.1097 -1.2432  2.0874
 5152SOL     OW27091   2.179   2.218  16.276 -0.0521 -0.2841 -0.2224
 5152SOL    HW127092   2.149   2.272  16.350 -0.4061 -1.3183  0.3898
 5152SOL    HW227093   2.137   2.269  16.207  0.0234  0.5760  0.3612
 5153SOL     OW27094   2.486   1.083  15.877  0.4931 -0.2528  0.7762
 5153SOL    HW127095   2.431   1.121  15.946 -0.9366 -0.1120 -0.4210
 5153SOL    HW227096   2.427   1.103  15.804  3.6154  1.8292 -1.1568
 5154SOL     OW27097   1.035   3.697   4.197  0.1733  0.1221  0.6808
 5154SOL    HW127098   0.973   3.757   4.239  0.5118  1.3264 -0.5552
 5154SOL    HW227099   1.084   3.649   4.264  1.7033 -0.9175 -1.2054
 5155SOL     OW27100   0.279   0.192   0.889  0.5697 -0.8786 -0.0918
 5155SOL    HW127101   0.316   0.191   0.802  1.1038 -0.5476  0.1341
 5155SOL    HW227102   0.277   0.286   0.909  0.8815 -0.2305 -3.2141
 5156SOL     OW27103   2.695   4.162  11.558  0.1476 -0.1042  0.0413
 5156SOL    HW127104   2.742   4.116  11.627 -1.2892 -0.6753  0.6489
 5156SOL    HW227105   2.630   4.206  11.614  1.6107  0.2127  1.4628
 5157SOL     OW27106   2.775   3.439   8.870  0.0487 -0.0017 -0.1944
 5157SOL    HW127107   2.689   3.459   8.908 -0.6230 -0.5616 -1.4237
 5157SOL    HW227108   2.758   3.376   8.800 -2.6296  2.0858 -1.4277
 5158SOL     OW27109   2.971   1.304  15.546  0.3437  0.1362  0.4669
 5158SOL    HW127110   3.049   1.259  15.513 -0.3805 -0.1461 -0.8476
 5158SOL    HW227111   2.921   1.224  15.562  0.7180 -0.2113 -0.1156
 5159SOL     OW27112   0.150   0.400   7.998 -0.0713 -0.4220  0.0434
 5159SOL    HW127113   0.081   0.449   7.952 -0.5119 -0.2550  0.8876
 5159SOL    HW227114   0.228   0.453   7.983 -0.3642  0.4451  1.6082
 5160SOL     OW27115   2.323   1.966   8.263 -0.1134  0.6049  0.0960
 5160SOL    HW127116   2.391   1.944   8.200 -0.9213 -1.0836 -0.1768
 5160SOL    HW227117   2.284   2.035   8.209 -2.8719  0.1142  1.4415
 5161SOL     OW27118   2.722   1.433  10.257  0.1922 -0.4673  0.3828
 5161SOL    HW127119   2.690   1.344  10.272  0.7257 -0.4078  1.8465
 5161SOL    HW227120   2.645   1.475  10.220  0.2847  1.2795  2.2190
 5162SOL     OW27121   0.268   0.198  12.494  0.0091 -0.4344  0.8397
 5162SOL    HW127122   0.208   0.210  12.567 -1.2090 -0.7465 -0.1227
 5162SOL    HW227123   0.309   0.114  12.517  0.7095 -0.7818 -1.6514
 5163SOL     OW27124   4.508   4.698   5.646 -0.4732  0.3785 -0.2080
 5163SOL    HW127125   4.552   0.029   5.595 -0.1796  0.9353  0.7954
 5163SOL    HW227126   4.423   4.694   5.602  0.3496 -0.0934 -1.7876
 5164SOL     OW27127   1.695   1.622   5.363 -0.0822 -0.9708 -0.0773
 5164SOL    HW127128   1.721   1.572   5.441 -0.3111  1.2353  1.4490
 5164SOL    HW227129   1.679   1.554   5.299 -0.9088  0.9480 -1.9178
 5165SOL     OW27130   1.701   3.020   2.559  0.3865  0.6373  0.2288
 5165SOL    HW127131   1.622   3.066   2.588 -0.0054  1.3808 -2.0436
 5165SOL    HW227132   1.705   2.941   2.613  1.0880  0.1881 -0.4786
 5166SOL     OW27133   0.043   3.014   8.862  0.5306 -0.3983 -0.7846
 5166SOL    HW127134   0.079   2.955   8.797 -1.6838  1.5017 -3.7256
 5166SOL    HW227135   0.023   2.950   8.930  0.8309 -0.7808 -1.0616
 5167SOL     OW27136   4.317   2.883  17.734 -0.1157  0.5074 -0.1059
 5167SOL    HW127137   4.310   2.797  17.692  1.2422 -0.5213  1.7920
 5167SOL    HW227138   4.397   2.912  17.690  0.8264 -2.7345 -0.5371
 5168SOL     OW27139   3.894   0.948   6.119 -0.2358 -0.5083  0.4485
 5168SOL    HW127140   3.895   0.990   6.205  2.5060  0.8533 -0.2570
 5168SOL    HW227141   3.978   0.970   6.080 -1.3864  0.3519 -1.5673
 5169SOL     OW27142   0.890   1.571   4.390 -0.0049  0.0677  0.3814
 5169SOL    HW127143   0.806   1.599   4.426 -0.9914 -3.3890  0.8081
 5169SOL    HW227144   0.943   1.535   4.461 -1.9505 -2.2863  0.6611
 5170SOL     OW27145   0.272   4.534   7.143  0.3769 -0.4093 -0.1892
 5170SOL    HW127146   0.280   4.535   7.048 -2.1278  3.8200 -0.3551
 5170SOL    HW227147   0.234   4.621   7.156 -0.3653 -0.6897 -0.4438
 5171SOL     OW27148   1.376   3.705  13.282  0.1806  0.6682  0.5773
 5171SOL    HW127149   1.350   3.623  13.325 -0.5963  0.6230  0.0082
 5171SOL    HW227150   1.470   3.690  13.269 -0.2631 -0.6211 -1.2162
 5172SOL     OW27151   2.363   0.906   5.290 -0.3535  0.1122  0.7400
 5172SOL    HW127152   2.334   0.889   5.201  0.5475  0.8569  0.2969
 5172SOL    HW227153   2.397   0.993   5.270 -0.5202  0.2715  1.1462
 5173SOL     OW27154   1.047   0.952   9.310 -0.4622 -0.2618 -0.3723
 5173SOL    HW127155   1.140   0.931   9.300  0.3506  3.4472 -0.7969
 5173SOL    HW227156   1.026   1.009   9.236  1.9287  1.3016  0.1414
 5174SOL     OW27157   2.051   1.996  11.010  0.0535 -0.3689  0.3636
 5174SOL    HW127158   2.052   2.072  10.952  2.5731 -2.2089 -2.0637
 5174SOL    HW227159   2.134   1.995  11.057  0.4507 -0.4591 -0.3401
 5175SOL     OW27160   1.279   1.433   7.596 -0.2366 -0.4897  0.5522
 5175SOL    HW127161   1.360   1.463   7.555  0.5186 -0.4178  2.1025
 5175SOL    HW227162   1.260   1.362   7.534 -4.4212  0.6572  0.5274
 5176SOL     OW27163   3.630   1.288  16.222 -0.2016 -0.3359  0.4141
 5176SOL    HW127164   3.707   1.264  16.172  0.5897 -0.5684  1.7341
 5176SOL    HW227165   3.664   1.321  16.306 -1.2577  1.6887  0.0562
 5177SOL     OW27166   2.621   0.845   7.266 -0.1796  0.0720  0.0022
 5177SOL    HW127167   2.548   0.784   7.273 -0.9751  0.8476 -1.5847
 5177SOL    HW227168   2.604   0.889   7.183 -1.6861 -2.4914 -1.0213
 5178SOL     OW27169   1.605   0.205   7.131  0.4492 -0.7312  0.2830
 5178SOL    HW127170   1.530   0.167   7.084 -0.6450  1.4290  0.2473
 5178SOL    HW227171   1.676   0.143   7.118 -0.7656 -1.2938 -3.7497
 5179SOL     OW27172   2.514   1.413   7.499 -0.3972  0.2542  1.2476
 5179SOL    HW127173   2.466   1.349   7.552  0.3901 -1.4298 -0.0674
 5179SOL    HW227174   2.603   1.378   7.505 -0.2004  0.0531 -2.4628
 5180SOL     OW27175   3.497   0.427   7.476 -0.4621 -0.1721  0.2073
 5180SOL    HW127176   3.428   0.464   7.531 -1.0752 -2.1926  0.8194
 5180SOL    HW227177   3.554   0.392   7.544  2.0772  0.4127 -1.6319
 5181SOL     OW27178   1.303   0.245  14.575  0.2479  0.6265  0.3857
 5181SOL    HW127179   1.393   0.259  14.545  0.2544 -3.0733 -1.3743
 5181SOL    HW227180   1.245   0.301  14.523  1.4662  0.4895 -1.1398
 5182SOL     OW27181   4.463   3.795   4.405 -0.1914 -0.1835 -0.1218
 5182SOL    HW127182   4.537   3.852   4.381 -0.3581 -0.4829 -1.3505
 5182SOL    HW227183   4.393   3.860   4.413 -2.5966 -2.9544  1.2910
 5183SOL     OW27184   4.449   3.208  11.202 -0.1427 -0.7347  0.0864
 5183SOL    HW127185   4.392   3.229  11.275 -0.7533 -0.9233 -0.3332
 5183SOL    HW227186   4.528   3.176  11.245 -0.4620  1.3637  2.1891
 5184SOL     OW27187   1.908   4.085   9.514  0.5680 -0.6898 -0.6899
 5184SOL    HW127188   1.890   4.179   9.510 -1.0221 -0.9393  0.6482
 5184SOL    HW227189   1.989   4.084   9.566  1.1062  0.1101 -1.5082
 5185SOL     OW27190   2.383   0.702   3.856  0.0444 -0.3821 -0.4261
 5185SOL    HW127191   2.397   0.759   3.780  2.8022 -0.5196 -0.0174
 5185SOL    HW227192   2.291   0.679   3.842 -0.1457  1.2744 -1.8624
 5186SOL     OW27193   3.079   4.242   7.875 -0.0096  0.4004 -0.2360
 5186SOL    HW127194   3.034   4.187   7.811 -0.4729 -1.0824  1.3654
 5186SOL    HW227195   3.018   4.316   7.880 -0.4965  0.0102 -0.3626
 5187SOL     OW27196   1.448   4.322  11.282 -0.7174 -0.2383  0.6765
 5187SOL    HW127197   1.438   4.353  11.372  0.3702 -0.5547  0.9048
 5187SOL    HW227198   1.418   4.401  11.237  0.0227 -1.0229 -1.1996
 5188SOL     OW27199   2.749   2.043   1.843 -0.3638  0.6393  0.4692
 5188SOL    HW127200   2.674   2.048   1.783  0.1162 -2.1182 -0.3584
 5188SOL    HW227201   2.747   2.120   1.899 -2.1695  0.4934  0.6061
 5189SOL     OW27202   2.813   4.451  16.126 -0.0034 -0.7482 -0.1508
 5189SOL    HW127203   2.908   4.459  16.133 -0.1756  0.4094  0.9103
 5189SOL    HW227204   2.788   4.538  16.156  1.4478  0.0039 -1.1183
 5190SOL     OW27205   2.868   2.894   0.157 -0.7669 -0.2243  0.3508
 5190SOL    HW127206   2.867   2.866   0.248  0.1296  0.7164  0.6363
 5190SOL    HW227207   2.901   2.983   0.165  0.7378 -0.7950  0.4561
 5191SOL     OW27208   0.409   4.154   8.714 -0.1253  0.1662  0.0351
 5191SOL    HW127209   0.317   4.166   8.691  0.1597  0.7645 -0.8006
 5191SOL    HW227210   0.407   4.204   8.796  1.4684  2.2726 -1.1934
 5192SOL     OW27211   0.904   3.210   3.471  0.2830 -0.3582 -0.0502
 5192SOL    HW127212   0.958   3.285   3.496 -1.0654  0.4321  0.5010
 5192SOL    HW227213   0.837   3.217   3.540 -0.7149 -1.7046 -0.8830
 5193SOL     OW27214   1.852   1.110   2.518 -0.2194 -0.0836  0.4230
 5193SOL    HW127215   1.787   1.105   2.448 -1.1034  0.7749  1.1764
 5193SOL    HW227216   1.857   1.020   2.548  3.4613 -0.6749 -1.8180
 5194SOL     OW27217   1.099   4.257  15.931 -0.0623  0.1299 -0.1520
 5194SOL    HW127218   1.177   4.277  15.880  0.1773 -0.2755  0.0574
 5194SOL    HW227219   1.112   4.164  15.948 -4.7928 -0.2527  1.3611
 5195SOL     OW27220   4.723   3.770   3.570 -0.1889  0.0693 -0.2688
 5195SOL    HW127221   0.019   3.817   3.494 -1.2000 -1.3442 -1.5934
 5195SOL    HW227222   4.629   3.756   3.555 -0.3219  0.0500  0.6111
 5196SOL     OW27223   4.464   1.398   4.949 -0.3029  0.3244 -0.4551
 5196SOL    HW127224   4.397   1.466   4.940 -1.0440 -0.4265 -0.5565
 5196SOL    HW227225   4.403   1.326   4.938 -1.6808  1.5442 -0.7590
 5197SOL     OW27226   3.497   0.576   2.954  0.3012 -0.0857 -0.6165
 5197SOL    HW127227   3.443   0.564   2.876 -0.6848  3.3208 -0.4424
 5197SOL    HW227228   3.538   0.660   2.936 -0.0649  0.7659  2.4285
 5198SOL     OW27229   2.435   2.659   0.822 -0.5172 -0.5202  0.0288
 5198SOL    HW127230   2.362   2.686   0.877 -0.2781 -0.3343  0.2531
 5198SOL    HW227231   2.496   2.625   0.887  1.1723  0.6480 -0.9208
 5199SOL     OW27232   4.146   0.930   8.779  0.1360  0.4360  0.1995
 5199SOL    HW127233   4.102   1.014   8.770 -0.3790 -0.0831 -2.2683
 5199SOL    HW227234   4.097   0.889   8.851 -0.3393 -2.1070 -1.5750
 5200SOL     OW27235   4.231   0.749  14.431 -0.4557  0.1488  0.8055
 5200SOL    HW127236   4.196   0.781  14.348  0.8383 -0.5382  0.0052
 5200SOL    HW227237   4.181   0.794  14.500 -2.0270 -0.6308  0.1507
 5201SOL     OW27238   3.299   1.115   4.287  0.5999  0.0426  0.1690
 5201SOL    HW127239   3.355   1.092   4.213  0.7801 -1.2004  0.6925
 5201SOL    HW227240   3.308   1.210   4.284 -0.6705  0.1686  0.6327
 5202SOL     OW27241   2.020   0.280  10.947 -0.0857 -0.1325  0.1442
 5202SOL    HW127242   2.103   0.324  10.969 -0.4000  0.8495 -0.6069
 5202SOL    HW227243   2.024   0.200  10.999  1.3629  0.3787  0.8468
 5203SOL     OW27244   1.067   1.836   1.839  0.3134  0.2325 -0.3966
 5203SOL    HW127245   1.005   1.768   1.812  0.0955  0.3559 -0.2108
 5203SOL    HW227246   1.140   1.776   1.849  0.6270  0.6909  0.0468
 5204SOL     OW27247   2.776   2.538   0.183 -0.2325  0.1557 -0.0489
 5204SOL    HW127248   2.730   2.458   0.207  0.6633 -0.5025 -0.5390
 5204SOL    HW227249   2.747   2.613   0.236 -1.9007 -1.8354  1.8286
 5205SOL     OW27250   3.457   1.332  10.829 -0.2992 -0.3588 -0.0440
 5205SOL    HW127251   3.451   1.424  10.805  0.1604 -0.5458 -0.8749
 5205SOL    HW227252   3.462   1.356  10.922  0.0788  2.0921 -0.6953
 5206SOL     OW27253   2.137   4.265   1.696  0.1319  0.2450  0.0484
 5206SOL    HW127254   2.210   4.260   1.758 -0.2550 -3.6177  0.1822
 5206SOL    HW227255   2.154   4.187   1.643 -0.6252 -0.2888  0.5964
 5207SOL     OW27256   2.719   1.014   3.456 -0.0830  0.1674  0.2697
 5207SOL    HW127257   2.719   0.983   3.546 -3.0206 -1.5642 -0.3071
 5207SOL    HW227258   2.654   0.951   3.424 -1.9018  0.6977  2.9592
 5208SOL     OW27259   2.603   2.503   4.809 -0.2489  0.1640  0.6002
 5208SOL    HW127260   2.551   2.546   4.877 -1.0107  0.5047 -0.1910
 5208SOL    HW227261   2.558   2.420   4.820  0.7383 -0.5292 -0.6802
 5209SOL     OW27262   4.631   4.674   7.826  0.1947 -0.3178  0.1493
 5209SOL    HW127263   4.578   4.651   7.750 -0.4593 -0.7634  0.7473
 5209SOL    HW227264   4.580   0.010   7.860  0.4128  0.4963 -1.2522
 5210SOL     OW27265   3.834   3.051   1.846  0.2928 -0.0300 -0.0121
 5210SOL    HW127266   3.869   2.992   1.779 -0.1558  0.0273 -0.3005
 5210SOL    HW227267   3.921   3.062   1.882  0.2799 -0.3919  0.1284
 5211SOL     OW27268   0.678   3.880   8.000 -0.6182  0.4248 -0.0287
 5211SOL    HW127269   0.609   3.882   7.933 -0.5728 -2.0738 -0.1571
 5211SOL    HW227270   0.618   3.874   8.075 -0.8183  0.6126 -0.1735
 5212SOL     OW27271   0.970   1.772   2.827  0.3754 -0.3433 -0.4505
 5212SOL    HW127272   0.881   1.775   2.791  1.0710  0.7217 -2.1145
 5212SOL    HW227273   0.942   1.702   2.886  0.7961  0.6230  0.8877
 5213SOL     OW27274   3.853   2.055   8.461 -0.3085  0.0642 -0.3325
 5213SOL    HW127275   3.841   2.013   8.376  3.1075  0.4178 -0.9777
 5213SOL    HW227276   3.764   2.084   8.481  0.0981 -0.2369  1.8993
 5214SOL     OW27277   3.418   4.636   2.911  0.0217  0.0581 -0.3566
 5214SOL    HW127278   3.462   4.616   2.828  2.0297 -0.6583  0.8782
 5214SOL    HW227279   3.484   4.607   2.974  0.9652  0.4981 -1.1338
 5215SOL     OW27280   4.614   2.243   4.412  0.4161  0.6132  0.1686
 5215SOL    HW127281   4.704   2.237   4.379 -0.1783  0.3320 -1.4023
 5215SOL    HW227282   4.636   2.207   4.498 -3.4406  1.2295  1.4095
 5216SOL     OW27283   4.592   1.103   7.950 -0.2582 -0.3266 -0.1405
 5216SOL    HW127284   4.575   1.197   7.956  1.5992 -0.0669  1.2237
 5216SOL    HW227285   4.500   1.080   7.939  0.2634 -1.3272 -2.4428
 5217SOL     OW27286   4.235   3.666   6.942 -0.2625  0.2306  0.1023
 5217SOL    HW127287   4.262   3.692   6.853 -2.2660  1.0198 -0.2734
 5217SOL    HW227288   4.149   3.707   6.944 -0.3594  0.0853 -1.1330
 5218SOL     OW27289   1.026   3.327   6.139  0.0437 -0.2165 -0.6508
 5218SOL    HW127290   1.034   3.250   6.082 -0.0462 -0.6031 -0.1455
 5218SOL    HW227291   0.981   3.285   6.212 -0.3465 -1.4026 -1.5561
 5219SOL     OW27292   2.282   4.430  12.659  0.0875 -0.1230 -0.0646
 5219SOL    HW127293   2.278   4.337  12.682  1.2565 -0.0396  0.5246
 5219SOL    HW227294   2.286   4.469  12.746 -0.6575 -0.9351  0.3287
 5220SOL     OW27295   3.399   3.984  15.423 -0.2940  0.3168  0.2042
 5220SOL    HW127296   3.410   3.945  15.336  0.1015  2.4361 -0.6961
 5220SOL    HW227297   3.430   3.916  15.482 -0.5967  0.4449  0.5121
 5221SOL     OW27298   3.691   3.448   7.181  0.1745 -0.6632  0.0489
 5221SOL    HW127299   3.637   3.369   7.187 -1.9464  0.8736  1.3574
 5221SOL    HW227300   3.780   3.415   7.176 -0.3478 -2.3684  2.3165
 5222SOL     OW27301   1.721   1.324   9.291  0.3262  0.3133 -0.6096
 5222SOL    HW127302   1.732   1.365   9.205  2.4076  0.6410 -0.1768
 5222SOL    HW227303   1.764   1.382   9.354 -1.8114 -0.8868  1.9201
 5223SOL     OW27304   1.471   0.901   5.923 -0.1389  0.1458  0.2552
 5223SOL    HW127305   1.466   0.935   5.833 -0.4370  0.8924  0.5566
 5223SOL    HW227306   1.391   0.938   5.960 -0.2534 -0.1505  0.3014
 5224SOL     OW27307   2.255   1.392  16.178 -0.3142  0.0357  0.5118
 5224SOL    HW127308   2.189   1.443  16.131  2.0078  2.0023 -0.6274
 5224SOL    HW227309   2.338   1.420  16.140 -0.3009  0.0199  0.5290
 5225SOL     OW27310   0.267   3.818   5.953  0.1332  0.1033 -0.1209
 5225SOL    HW127311   0.285   3.912   5.941 -0.7318  0.4327  1.1816
 5225SOL    HW227312   0.235   3.800   5.864 -1.7516  1.5732  0.2358
 5226SOL     OW27313   2.269   3.180   7.976  0.3681  0.2547 -1.1344
 5226SOL    HW127314   2.313   3.265   7.968  0.9092  0.1072  0.1477
 5226SOL    HW227315   2.262   3.170   8.071 -0.1483 -0.3532 -1.2346
 5227SOL     OW27316   1.672   0.943   2.922 -0.1874 -0.0397  0.2601
 5227SOL    HW127317   1.579   0.926   2.907 -0.3227 -1.8269  3.1965
 5227SOL    HW227318   1.708   0.920   2.836  0.5945 -0.1904  0.6275
 5228SOL     OW27319   3.488   3.075   4.034  0.6066  0.0466 -0.1439
 5228SOL    HW127320   3.452   3.010   4.094  0.0872 -0.9722 -1.5524
 5228SOL    HW227321   3.542   3.116   4.102  0.9920  2.0824 -1.6569
 5229SOL     OW27322   4.156   3.422   4.101 -0.2675 -0.4465 -0.0417
 5229SOL    HW127323   4.197   3.488   4.156  0.4652 -1.5361  0.7232
 5229SOL    HW227324   4.230   3.402   4.044 -0.9672 -0.2598 -1.0129
 5230SOL     OW27325   3.128   4.317  12.454  0.4822  0.6528  0.4277
 5230SOL    HW127326   3.180   4.348  12.529  1.7279 -0.0507 -0.1426
 5230SOL    HW227327   3.158   4.227  12.459  0.8040  0.7964  1.0733
 5231SOL     OW27328   2.752   0.234   9.681  0.0381  0.3607  0.2999
 5231SOL    HW127329   2.671   0.187   9.664  1.2659 -1.5448 -0.2253
 5231SOL    HW227330   2.753   0.269   9.770 -1.4258  2.0046 -0.3360
 5232SOL     OW27331   0.250   1.628  14.310 -0.5908 -0.0782  0.5199
 5232SOL    HW127332   0.173   1.685  14.307 -0.0219  0.6877  0.2199
 5232SOL    HW227333   0.302   1.664  14.237 -0.1788 -0.2922  0.7066
 5233SOL     OW27334   3.081   1.486   1.475 -0.4036 -0.5878  0.3095
 5233SOL    HW127335   3.084   1.562   1.534  1.7232  1.0489 -1.9285
 5233SOL    HW227336   3.172   1.473   1.449  0.0266  2.9646 -0.0329
 5234SOL     OW27337   2.224   3.857   4.665  0.4526  0.6507 -0.1824
 5234SOL    HW127338   2.223   3.893   4.753  1.8577  2.2443 -0.8150
 5234SOL    HW227339   2.244   3.764   4.671  1.9179  0.9943  0.1726
 5235SOL     OW27340   3.805   3.361   1.119  0.4707 -0.0366  0.2276
 5235SOL    HW127341   3.713   3.390   1.117  0.3087 -0.1219  4.9838
 5235SOL    HW227342   3.815   3.357   1.024 -0.2957 -0.8382  0.1758
 5236SOL     OW27343   4.373   4.082  17.044  0.6439  0.3455  0.3647
 5236SOL    HW127344   4.396   4.107  16.955  0.7553  2.0533  0.8591
 5236SOL    HW227345   4.296   4.026  17.037  0.4669  0.5410  0.7327
 5237SOL     OW27346   0.318   3.143  15.999 -0.1167 -0.2402 -0.8790
 5237SOL    HW127347   0.277   3.163  16.083  0.0884  1.6274 -1.2053
 5237SOL    HW227348   0.241   3.155  15.942  0.2277  0.2715 -1.2389
 5238SOL     OW27349   4.707   3.821   9.386  0.7077 -0.4671  0.1470
 5238SOL    HW127350   4.616   3.829   9.361  0.4194  0.9914  1.6971
 5238SOL    HW227351   4.711   3.892   9.450  2.0968  0.8285 -1.3806
 5239SOL     OW27352   2.739   0.202   1.913  0.9228 -0.2383 -0.1531
 5239SOL    HW127353   2.693   0.118   1.909 -1.5544  1.0061  2.1762
 5239SOL    HW227354   2.803   0.182   1.981  0.8540  0.2768  0.0606
 5240SOL     OW27355   1.592   0.807   4.259  0.0497 -0.3123 -0.0323
 5240SOL    HW127356   1.536   0.731   4.244 -2.8727  1.7683  0.4405
 5240SOL    HW227357   1.570   0.814   4.352  1.5370 -1.1875  0.3844
 5241SOL     OW27358   0.713   1.086   8.908  0.5181  0.4279 -0.8994
 5241SOL    HW127359   0.736   1.175   8.879 -1.0766  0.2790 -2.6405
 5241SOL    HW227360   0.631   1.078   8.859 -0.2289  0.1704  0.4055
 5242SOL     OW27361   2.203   1.951   4.846 -0.8124 -0.2949  0.1623
 5242SOL    HW127362   2.293   1.921   4.858 -1.4260 -1.8345  0.9091
 5242SOL    HW227363   2.152   1.871   4.858 -0.0185 -0.7796  0.3297
 5243SOL     OW27364   4.117   4.122   2.275 -0.2215 -0.3245 -0.5949
 5243SOL    HW127365   4.149   4.032   2.286  1.8318  0.4981  0.1499
 5243SOL    HW227366   4.119   4.131   2.180  1.3634  1.3849 -0.3912
 5244SOL     OW27367   3.496   1.955   9.511 -0.1917  0.1434 -0.2254
 5244SOL    HW127368   3.530   1.873   9.478  1.0657  0.4007  0.4333
 5244SOL    HW227369   3.536   1.953   9.598  0.1082  0.0564 -0.3665
 5245SOL     OW27370   3.924   0.398   9.619  0.1416 -0.3171 -0.3528
 5245SOL    HW127371   3.900   0.490   9.619 -0.6011 -0.5174 -0.7667
 5245SOL    HW227372   3.922   0.378   9.713 -0.6112  2.0151  0.1328
 5246SOL     OW27373   0.570   1.094   3.243  0.3445 -0.0184  0.0124
 5246SOL    HW127374   0.615   1.073   3.325 -2.0020 -1.4160  0.9297
 5246SOL    HW227375   0.599   1.185   3.234 -0.4868  0.2357 -0.0463
 5247SOL     OW27376   2.391   1.375  17.505 -0.1792 -0.3317 -0.5842
 5247SOL    HW127377   2.331   1.315  17.549 -0.1260 -1.3827 -1.9670
 5247SOL    HW227378   2.343   1.371  17.423 -2.5521  1.8251  0.7014
 5248SOL     OW27379   4.337   1.064   4.138  0.2010 -0.3260 -0.7193
 5248SOL    HW127380   4.394   1.002   4.094 -0.3639 -2.5901  1.7461
 5248SOL    HW227381   4.386   1.093   4.215 -0.8640  0.1989 -0.2330
 5249SOL     OW27382   4.409   2.506   1.899 -0.0006  0.0892  0.0097
 5249SOL    HW127383   4.343   2.466   1.843  0.1705  0.6117 -0.5554
 5249SOL    HW227384   4.393   2.465   1.984 -2.0568  2.0177  0.5438
 5250SOL     OW27385   4.296   4.598   2.589 -0.2579 -0.6080  0.8915
 5250SOL    HW127386   4.302   4.565   2.679  1.3994  0.5702  1.2035
 5250SOL    HW227387   4.229   4.546   2.546 -2.1278  2.3711  0.2516
 5251SOL     OW27388   1.642   1.010  17.239 -0.3792  0.0362 -0.2270
 5251SOL    HW127389   1.550   1.025  17.259 -0.7951 -2.9058  0.1086
 5251SOL    HW227390   1.635   0.939  17.175  1.8467 -0.5168  0.1094
 5252SOL     OW27391   0.433   1.889  12.250  0.0664  0.0268  0.7565
 5252SOL    HW127392   0.489   1.882  12.327  2.3909 -1.1966 -1.0002
 5252SOL    HW227393   0.510   1.881  12.193 -0.8395  2.3101 -0.7679
 5253SOL     OW27394   4.293   1.984   1.805 -0.0669  0.0926 -0.1088
 5253SOL    HW127395   4.378   1.952   1.837 -0.1041  0.2163  0.1128
 5253SOL    HW227396   4.318   2.031   1.726  0.4005  0.4196  0.2345
 5254SOL     OW27397   0.799   1.332   3.013 -0.3483 -0.1306 -0.4017
 5254SOL    HW127398   0.828   1.283   3.091 -0.5965  0.4000  0.0200
 5254SOL    HW227399   0.821   1.282   2.934  0.2055 -0.5824  0.0373
 5255SOL     OW27400   1.637   4.287  11.081 -0.3506  0.4066 -0.0375
 5255SOL    HW127401   1.590   4.278  11.164 -2.5825  0.9453 -1.2468
 5255SOL    HW227402   1.577   4.247  11.018 -0.3820  0.9067 -0.3209
 5256SOL     OW27403   1.453   1.692  13.872 -0.3180 -0.3079 -0.7069
 5256SOL    HW127404   1.402   1.703  13.952  1.9057  0.3905  0.6173
 5256SOL    HW227405   1.517   1.763  13.884 -2.4059  1.7914 -2.0275
 5257SOL     OW27406   3.923   1.937   1.949 -0.0392  0.2411 -0.1308
 5257SOL    HW127407   3.867   1.949   2.026 -1.5068 -2.2311 -0.8113
 5257SOL    HW227408   3.995   1.995   1.973  0.9256 -1.5784  1.3730
 5258SOL     OW27409   2.887   3.765   4.296  0.0775  0.0707  0.4458
 5258SOL    HW127410   2.820   3.699   4.281  0.3921 -0.2785  0.5664
 5258SOL    HW227411   2.891   3.773   4.391  1.8262 -1.4393  0.5007
 5259SOL     OW27412   1.687   4.292   6.692  0.0477 -0.1310  0.0803
 5259SOL    HW127413   1.712   4.315   6.602 -2.2545 -2.3520 -1.1066
 5259SOL    HW227414   1.592   4.290   6.698  0.1222  1.3697  1.7797
 5260SOL     OW27415   0.203   4.421  14.945 -0.2408 -0.1950 -0.1499
 5260SOL    HW127416   0.231   4.434  14.854 -0.5377  2.1517  0.0918
 5260SOL    HW227417   0.225   4.328  14.946  2.4161  0.4549  1.8428
 5261SOL     OW27418   4.725   1.286   5.972 -0.3048 -0.1856  0.2557
 5261SOL    HW127419   4.633   1.261   5.983 -0.6699 -0.4335 -3.4857
 5261SOL    HW227420   0.023   1.282   6.061  0.7832 -0.7819 -0.2025
 5262SOL     OW27421   0.674   4.447   5.465  0.4460 -0.1267 -0.0295
 5262SOL    HW127422   0.683   4.419   5.556 -1.0592  0.4802  0.3103
 5262SOL    HW227423   0.731   4.523   5.473  1.7441 -1.1487  0.3218
 5263SOL     OW27424   3.775   2.015   3.873  0.2213 -0.2295  0.0237
 5263SOL    HW127425   3.707   2.024   3.941  0.4131 -1.5243  0.3947
 5263SOL    HW227426   3.853   2.001   3.927 -0.7278  0.4409  1.5914
 5264SOL     OW27427   4.047   1.783   7.509 -0.7997  0.1363 -0.4667
 5264SOL    HW127428   3.975   1.799   7.571 -1.5792  0.1573 -1.3827
 5264SOL    HW227429   4.007   1.837   7.441  2.6113 -0.4067 -2.8741
 5265SOL     OW27430   2.634   4.657   0.372 -0.1039 -0.5546 -0.0284
 5265SOL    HW127431   2.610   4.618   0.456 -1.7475  1.0802  0.2513
 5265SOL    HW227432   2.567   4.725   0.367 -0.1658 -0.5569  0.8258
 5266SOL     OW27433   2.521   1.123   4.092 -0.5222  0.1564 -0.5101
 5266SOL    HW127434   2.437   1.100   4.054  0.1925 -0.9480 -1.4513
 5266SOL    HW227435   2.577   1.127   4.014 -0.5963  2.0855 -0.4809
 5267SOL     OW27436   0.092   3.066   0.910 -0.0232  0.1768  0.1080
 5267SOL    HW127437   0.009   3.042   0.869 -0.5517 -0.1343  1.3620
 5267SOL    HW227438   0.119   3.142   0.859 -0.0526 -0.7103 -1.2292
 5268SOL     OW27439   2.555   3.810   8.713 -0.3615  0.0318  0.5770
 5268SOL    HW127440   2.490   3.764   8.766 -0.7099  2.5937  2.3500
 5268SOL    HW227441   2.599   3.853   8.786 -0.3389  2.0593 -0.6300
 5269SOL     OW27442   0.853   2.435   3.086 -0.4079 -0.8796 -0.0078
 5269SOL    HW127443   0.804   2.438   3.004 -0.7768 -0.2004  0.2412
 5269SOL    HW227444   0.845   2.528   3.106  1.4959 -0.5455 -0.7579
 5270SOL     OW27445   4.347   1.915   4.515  0.3564 -0.3000  0.2225
 5270SOL    HW127446   4.390   1.924   4.600  3.7580  0.8236 -1.6143
 5270SOL    HW227447   4.304   1.999   4.505 -1.3641 -1.2228 -0.1367
 5271SOL     OW27448   2.181   0.059  11.118 -1.1064 -0.3823 -0.6478
 5271SOL    HW127449   2.214   4.707  11.127 -0.0204 -0.2825 -3.5799
 5271SOL    HW227450   2.260   0.111  11.135 -0.5324 -2.0909  1.8893
 5272SOL     OW27451   2.016   3.760   3.500 -0.1948  0.3538 -0.0439
 5272SOL    HW127452   2.093   3.770   3.443  1.2108 -3.0093  1.3261
 5272SOL    HW227453   1.999   3.851   3.526  0.1901  0.3035  0.3840
 5273SOL     OW27454   0.032   2.310  17.369 -0.7991  0.3295 -0.2423
 5273SOL    HW127455   0.041   2.233  17.312  0.5233  0.2153  0.1331
 5273SOL    HW227456   4.681   2.293  17.402  0.1005  0.9153  2.4055
 5274SOL     OW27457   3.341   0.890  11.952 -0.3695  0.6035 -0.0189
 5274SOL    HW127458   3.263   0.863  12.000  1.3431 -1.4160  1.5713
 5274SOL    HW227459   3.325   0.982  11.929  0.5859  0.8841  0.4505
 5275SOL     OW27460   0.217   1.406   8.042  0.0020 -0.3938  0.1665
 5275SOL    HW127461   0.172   1.455   8.110 -0.7205  2.2005 -2.1454
 5275SOL    HW227462   0.156   1.422   7.969  1.3492  0.3606 -0.8018
 5276SOL     OW27463   1.659   2.209   0.799 -0.2741 -0.2697 -0.0647
 5276SOL    HW127464   1.573   2.186   0.834  0.4618 -0.1096  1.8525
 5276SOL    HW227465   1.655   2.304   0.797  2.3497 -0.1973 -1.4312
 5277SOL     OW27466   2.314   1.496   7.338 -0.4630 -0.3102 -0.0251
 5277SOL    HW127467   2.383   1.463   7.395 -0.4578  0.2353  0.2790
 5277SOL    HW227468   2.236   1.451   7.372 -1.9488  0.3016 -2.5595
 5278SOL     OW27469   2.409   3.362   5.957  0.0280 -0.0236 -0.1052
 5278SOL    HW127470   2.408   3.278   6.003 -2.1038  1.2995  2.2775
 5278SOL    HW227471   2.314   3.368   5.944 -0.1395 -1.0084  0.6489
 5279SOL     OW27472   2.712   1.663   6.385 -0.1814 -0.6890  0.1590
 5279SOL    HW127473   2.656   1.687   6.459 -2.4157 -1.4772 -1.2766
 5279SOL    HW227474   2.653   1.652   6.310 -0.3385 -1.1043  0.3466
 5280SOL     OW27475   4.722   1.760  15.602 -0.6314  0.2662 -0.2145
 5280SOL    HW127476   4.704   1.832  15.663 -0.6413 -0.5583  0.7494
 5280SOL    HW227477   0.078   1.781  15.594 -0.1533 -2.0702 -0.5936
 5281SOL     OW27478   1.452   2.808  16.224 -0.4780  0.9789 -0.2744
 5281SOL    HW127479   1.395   2.849  16.159 -1.9366  0.7315  0.8664
 5281SOL    HW227480   1.403   2.817  16.306 -0.6774 -0.9277 -0.1896
 5282SOL     OW27481   1.925   2.144   0.311  0.1754 -0.6677 -0.2684
 5282SOL    HW127482   1.912   2.053   0.287 -3.9566  0.2934 -1.7028
 5282SOL    HW227483   1.834   2.171   0.320  0.2166 -0.2443 -1.1954
 5283SOL     OW27484   0.661   0.079   5.785 -0.3098  0.4048 -0.1755
 5283SOL    HW127485   0.597   0.067   5.855  1.0597 -0.4494  0.9040
 5283SOL    HW227486   0.714   0.153   5.815  1.0017 -0.2206 -0.9555
 5284SOL     OW27487   1.135   4.323   5.892  0.3610  0.3490 -0.5607
 5284SOL    HW127488   1.062   4.324   5.953  1.9660  1.7235  1.3341
 5284SOL    HW227489   1.111   4.264   5.820 -0.0375 -1.7908  1.3231
 5285SOL     OW27490   1.985   3.962   1.887 -0.0900 -0.3739 -0.7789
 5285SOL    HW127491   2.043   3.940   1.814  2.5985 -1.0743  1.5685
 5285SOL    HW227492   1.966   3.873   1.918  1.0866 -1.0037 -1.8742
 5286SOL     OW27493   2.444   1.983  11.543 -0.6536 -0.4496 -0.3480
 5286SOL    HW127494   2.469   1.905  11.592  1.4298  0.0209 -0.6865
 5286SOL    HW227495   2.374   2.016  11.599 -1.3482 -0.7423 -1.0441
 5287SOL     OW27496   3.502   1.432   2.029 -0.0541  0.2604  0.1934
 5287SOL    HW127497   3.426   1.482   2.058  0.3590  2.0068 -1.7441
 5287SOL    HW227498   3.458   1.361   1.981  1.8227 -1.1801  0.5981
 5288SOL     OW27499   0.875   0.582   4.217 -0.0553 -0.0882 -0.1393
 5288SOL    HW127500   0.869   0.578   4.313 -0.5332  1.9276 -0.0817
 5288SOL    HW227501   0.844   0.672   4.201  1.4219  0.3609 -0.4345
 5289SOL     OW27502   1.576   2.937   5.159 -0.4195  0.0697 -0.0200
 5289SOL    HW127503   1.665   2.963   5.184  0.0437 -1.5472 -0.0013
 5289SOL    HW227504   1.577   2.858   5.212  1.6561 -0.7956 -1.3801
 5290SOL     OW27505   0.686   1.019  10.898 -0.0076  0.6112 -0.0338
 5290SOL    HW127506   0.693   0.925  10.881  1.3811  0.7476 -0.2151
 5290SOL    HW227507   0.723   1.050  10.815 -1.8489 -1.3422 -1.5999
 5291SOL     OW27508   2.035   0.463  15.356  0.4267 -0.0907 -0.4781
 5291SOL    HW127509   2.007   0.529  15.419 -1.6650 -0.8030 -0.6499
 5291SOL    HW227510   2.115   0.502  15.322  0.5853 -0.2996 -0.3449
 5292SOL     OW27511   0.392   2.266   6.088  0.0476 -0.0945  0.0362
 5292SOL    HW127512   0.484   2.293   6.082 -0.3031  1.6374  2.4037
 5292SOL    HW227513   0.352   2.315   6.016  2.4514  0.3528 -0.9969
 5293SOL     OW27514   4.244   0.231   9.820  0.1297  0.0254 -0.4598
 5293SOL    HW127515   4.245   0.327   9.811 -2.4644  0.0602 -0.2375
 5293SOL    HW227516   4.231   0.202   9.730  0.5510 -1.6098  0.0132
 5294SOL     OW27517   2.407   4.411  15.529 -0.1657 -0.1757  0.1034
 5294SOL    HW127518   2.323   4.421  15.574  1.4094  2.9779  2.4151
 5294SOL    HW227519   2.457   4.370  15.600 -1.4532 -1.2783  0.3731
 5295SOL     OW27520   4.045   0.589  13.194  0.1022  0.1392  0.4339
 5295SOL    HW127521   4.029   0.607  13.102 -2.2004  1.9518  1.1741
 5295SOL    HW227522   3.955   0.596  13.226 -0.1817  0.4567 -0.4534
 5296SOL     OW27523   3.253   1.349  15.134 -0.1345  0.3878  0.2021
 5296SOL    HW127524   3.157   1.342  15.140 -0.0856 -1.0458 -0.7109
 5296SOL    HW227525   3.254   1.435  15.093 -1.5452 -0.1508 -0.9609
 5297SOL     OW27526   2.373   0.065  13.345  0.1493  0.0635 -0.9161
 5297SOL    HW127527   2.294   0.118  13.350  0.6210  0.7874 -1.1545
 5297SOL    HW227528   2.399   0.058  13.437  0.7371 -0.5181 -1.1201
 5298SOL     OW27529   3.312   4.042   7.438  0.4063 -0.0827  0.1787
 5298SOL    HW127530   3.278   3.990   7.364 -0.8484  0.8367  0.1075
 5298SOL    HW227531   3.263   4.015   7.516 -2.1911 -0.8467 -1.7086
 5299SOL     OW27532   0.756   0.589   3.825  0.0848  0.0879  0.2614
 5299SOL    HW127533   0.737   0.680   3.848  1.8702  0.0490  2.0063
 5299SOL    HW227534   0.727   0.546   3.906 -1.2581 -1.0441 -0.8301
 5300SOL     OW27535   3.191   3.948   4.481 -0.3569 -0.2153  0.2437
 5300SOL    HW127536   3.164   3.896   4.556  0.0260 -1.7000 -0.6456
 5300SOL    HW227537   3.235   3.885   4.424 -0.7311 -0.2888  0.0330
 5301SOL     OW27538   0.498   2.797   6.592  0.5665 -0.2465  0.0747
 5301SOL    HW127539   0.471   2.774   6.681 -1.7097  0.7472 -0.3766
 5301SOL    HW227540   0.412   2.779   6.556  1.8891 -1.2453 -2.6250
 5302SOL     OW27541   2.628   0.466   5.745  0.2172 -0.1460 -0.1691
 5302SOL    HW127542   2.622   0.409   5.821 -0.0970 -0.3014 -0.3092
 5302SOL    HW227543   2.720   0.490   5.739  0.5808 -2.2984 -3.3046
 5303SOL     OW27544   3.884   4.730  15.835  0.6705 -0.1588  0.0333
 5303SOL    HW127545   3.815   4.698  15.892  1.5316  1.2375  1.8322
 5303SOL    HW227546   3.917   0.062  15.892 -0.9788 -0.6219  1.5336
 5304SOL     OW27547   3.960   3.889  12.554  0.6558 -0.2443 -0.2378
 5304SOL    HW127548   3.894   3.836  12.600  0.5640 -1.9349 -2.3084
 5304SOL    HW227549   3.963   3.831  12.478 -0.5090  0.8741 -1.1323
 5305SOL     OW27550   2.422   4.244  11.635  0.3368 -0.0661 -0.3048
 5305SOL    HW127551   2.408   4.338  11.642  0.5016 -0.1224  0.8109
 5305SOL    HW227552   2.359   4.208  11.697  1.0192  2.3317  1.7794
 5306SOL     OW27553   3.594   1.252   5.096 -0.3097  0.3825  0.5976
 5306SOL    HW127554   3.580   1.239   5.190 -1.7783  0.1207  0.3536
 5306SOL    HW227555   3.539   1.183   5.058 -0.7355  0.7794  0.4985
 5307SOL     OW27556   2.623   2.676   1.828 -0.4150 -0.4836  0.5583
 5307SOL    HW127557   2.581   2.594   1.853 -0.6948 -0.3645  0.4759
 5307SOL    HW227558   2.669   2.698   1.909  2.3361  1.9362 -1.6643
 5308SOL     OW27559   0.147   3.916  14.732 -0.7401 -0.0688 -0.8416
 5308SOL    HW127560   0.058   3.924  14.764 -1.3350 -3.7071 -1.5530
 5308SOL    HW227561   0.133   3.875  14.646 -1.1543  0.2149 -0.9050
 5309SOL     OW27562   4.062   0.565  14.642  0.2818 -0.0520 -0.2312
 5309SOL    HW127563   4.076   0.659  14.656 -3.5973  0.0520  3.2451
 5309SOL    HW227564   4.087   0.524  14.725 -0.3142  0.7993  0.3821
 5310SOL     OW27565   2.659   2.593  14.332 -0.2442 -0.0066 -0.0875
 5310SOL    HW127566   2.705   2.568  14.252 -0.3691 -3.1850  0.8539
 5310SOL    HW227567   2.626   2.680  14.308  0.2191  0.3158  0.4389
 5311SOL     OW27568   2.312   3.649   0.133 -0.5741  0.2035  0.4989
 5311SOL    HW127569   2.341   3.709   0.202  0.7107  0.7105 -0.4890
 5311SOL    HW227570   2.345   3.568   0.173 -0.1052  1.0252  1.7826
 5312SOL     OW27571   0.637   2.114   4.153 -0.0221  0.0878 -0.0599
 5312SOL    HW127572   0.706   2.055   4.182 -1.2175 -1.0556  0.4496
 5312SOL    HW227573   0.577   2.053   4.110 -0.0424  1.6371 -2.2383
 5313SOL     OW27574   2.355   4.134   5.776  0.2621 -0.0688 -0.7043
 5313SOL    HW127575   2.416   4.110   5.845  0.7624 -0.3812 -1.2526
 5313SOL    HW227576   2.278   4.148   5.831  1.6071  0.0915  1.1370
 5314SOL     OW27577   2.212   2.841   5.962  0.4175  0.7298  0.2476
 5314SOL    HW127578   2.202   2.755   5.921  1.4040  0.9346 -0.4539
 5314SOL    HW227579   2.143   2.891   5.919  0.7388 -0.4882 -1.7036
 5315SOL     OW27580   2.358   0.694   0.908  0.0330 -0.4971  0.0472
 5315SOL    HW127581   2.437   0.641   0.906  0.7846  0.6901 -1.3464
 5315SOL    HW227582   2.358   0.730   0.819  0.8877 -2.5935 -0.7908
 5316SOL     OW27583   4.065   3.284   3.496  0.0863  0.2881 -0.2007
 5316SOL    HW127584   3.985   3.251   3.536  2.6434 -2.9889  2.2216
 5316SOL    HW227585   4.040   3.306   3.407 -2.6068 -2.5644 -0.1515
 5317SOL     OW27586   1.872   0.363   5.821  0.1894  0.8818  0.3744
 5317SOL    HW127587   1.945   0.302   5.815 -0.5818  0.0960 -0.9707
 5317SOL    HW227588   1.835   0.350   5.908  0.1512  0.1816  0.2494
 5318SOL     OW27589   4.234   2.414  17.106 -0.3976 -0.7460  0.0207
 5318SOL    HW127590   4.210   2.321  17.114  0.0553 -1.0114 -1.5512
 5318SOL    HW227591   4.215   2.439  17.016 -0.1792 -0.2264  0.1179
 5319SOL     OW27592   3.316   0.115  12.550 -0.0509 -0.5478  0.3490
 5319SOL    HW127593   3.231   0.117  12.507 -0.7745  1.2247  1.8622
 5319SOL    HW227594   3.356   0.033  12.520  0.3990 -0.1481 -0.1215
 5320SOL     OW27595   1.077   2.275   6.497  0.3727  0.4682 -0.2555
 5320SOL    HW127596   1.081   2.371   6.492 -0.4199  0.4819 -0.6998
 5320SOL    HW227597   1.167   2.252   6.475 -0.3964 -0.8306 -1.9854
 5321SOL     OW27598   1.524   2.262   0.128  0.0060  0.6125  0.5267
 5321SOL    HW127599   1.477   2.216   0.058  2.2300 -1.0619  0.1153
 5321SOL    HW227600   1.550   2.187   0.182  0.0913 -0.0490 -0.4287
 5322SOL     OW27601   2.955   4.548   4.842 -0.2034  0.1722 -0.3563
 5322SOL    HW127602   2.876   4.583   4.884  0.9796 -0.8464  2.7247
 5322SOL    HW227603   2.950   4.603   4.764 -1.7524  0.8098  0.1693
 5323SOL     OW27604   2.236   0.845   4.722 -0.1417  0.4712 -0.3838
 5323SOL    HW127605   2.194   0.789   4.787 -0.5218  1.1936 -0.0082
 5323SOL    HW227606   2.315   0.865   4.773  1.0017 -2.5172 -0.9643
 5324SOL     OW27607   1.624   2.590   1.068 -0.0416  0.1856 -0.4710
 5324SOL    HW127608   1.718   2.606   1.058  0.4024 -0.8187  2.0754
 5324SOL    HW227609   1.609   2.552   0.982 -4.0788 -0.7381  0.6324
 5325SOL     OW27610   0.909   0.935   8.316 -0.4531  0.6348  0.5737
 5325SOL    HW127611   0.818   0.911   8.334 -0.6431  1.4857  0.7519
 5325SOL    HW227612   0.908   1.031   8.311  2.9659  0.6302  0.0307
 5326SOL     OW27613   2.559   3.165   6.101  0.5357 -0.1608  0.1516
 5326SOL    HW127614   2.621   3.190   6.033 -1.4246  1.9026 -0.8550
 5326SOL    HW227615   2.535   3.082   6.060  0.1525  0.1775 -0.3029
 5327SOL     OW27616   1.131   0.629   2.099  0.4339  0.3126 -0.2519
 5327SOL    HW127617   1.112   0.567   2.169 -1.1730 -1.4182 -2.1964
 5327SOL    HW227618   1.161   0.707   2.144 -2.2274  1.3796 -0.3142
 5328SOL     OW27619   3.732   1.835   5.450 -0.2490  0.1486  0.1975
 5328SOL    HW127620   3.660   1.777   5.476 -0.6939 -0.0293 -1.4611
 5328SOL    HW227621   3.809   1.787   5.479  1.7427  2.8527 -0.6633
 5329SOL     OW27622   1.308   2.474  10.689  0.2765  0.4732  0.1289
 5329SOL    HW127623   1.227   2.456  10.640  0.3956  1.5090 -0.4667
 5329SOL    HW227624   1.347   2.387  10.695 -0.7304  0.2554  3.8976
 5330SOL     OW27625   2.824   0.110   7.156  0.1004  0.0032 -0.1470
 5330SOL    HW127626   2.781   0.150   7.231 -0.0608 -2.7225  1.2156
 5330SOL    HW227627   2.877   0.038   7.192 -3.0520 -2.3675 -0.2556
 5331SOL     OW27628   4.216   0.441   8.508  0.0994  0.5602  0.6919
 5331SOL    HW127629   4.141   0.404   8.461  0.1854  1.4096 -0.1200
 5331SOL    HW227630   4.188   0.531   8.527 -0.7816 -0.2711  3.3006
 5332SOL     OW27631   1.811   0.097   2.833  0.8143 -0.3629  0.2740
 5332SOL    HW127632   1.772   0.146   2.760 -0.4209  0.2860  1.3593
 5332SOL    HW227633   1.808   0.169   2.896  0.1787 -0.4657  0.3614
 5333SOL     OW27634   2.404   0.992  10.615 -0.8909 -0.0681  0.5927
 5333SOL    HW127635   2.440   1.022  10.698  1.0999  0.7960 -0.5872
 5333SOL    HW227636   2.386   0.903  10.644  1.5629 -0.9019 -0.4365
 5334SOL     OW27637   1.705   0.090   5.566 -0.0666  0.0742  0.1958
 5334SOL    HW127638   1.650   0.012   5.576 -2.4568  1.4501 -2.2953
 5334SOL    HW227639   1.698   0.110   5.473 -0.3218 -1.8261 -0.1897
 5335SOL     OW27640   3.074   1.413  15.817  0.6152  0.6131 -0.0781
 5335SOL    HW127641   3.054   1.504  15.795  0.7319  0.6616  0.0186
 5335SOL    HW227642   3.023   1.366  15.750  0.2289 -1.4747  1.6543
 5336SOL     OW27643   3.329   0.635   7.049 -0.1908 -0.2868  0.2330
 5336SOL    HW127644   3.422   0.654   7.057  0.4501 -3.2702 -0.1024
 5336SOL    HW227645   3.317   0.599   7.136  1.3815  1.2385  1.0687
 5337SOL     OW27646   0.450   3.598   2.205  0.0488 -0.1499 -0.0675
 5337SOL    HW127647   0.384   3.596   2.274  1.2755  0.6577  1.1403
 5337SOL    HW227648   0.509   3.668   2.233 -1.7994  1.2783  0.2963
 5338SOL     OW27649   3.453   1.941  12.944  0.0648 -0.0550  0.1354
 5338SOL    HW127650   3.487   1.910  12.861 -0.7814  1.0790 -0.6312
 5338SOL    HW227651   3.370   1.978  12.915 -0.1979 -0.8910 -0.1721
 5339SOL     OW27652   0.794   1.876   7.799 -0.1760  0.3498 -1.0017
 5339SOL    HW127653   0.767   1.959   7.838 -0.7725 -0.5854  0.5861
 5339SOL    HW227654   0.867   1.857   7.858 -0.3013 -1.6362 -1.4625
 5340SOL     OW27655   1.170   2.341  17.694 -0.8909 -0.3793  0.0550
 5340SOL    HW127656   1.251   2.391  17.704 -1.3451  0.1186  1.3235
 5340SOL    HW227657   1.111   2.410  17.667 -3.1862 -1.8448  1.3241
 5341SOL     OW27658   0.141   4.053   6.884  0.7007 -0.3743 -0.2295
 5341SOL    HW127659   0.225   4.046   6.930  0.0360  3.3447  1.6189
 5341SOL    HW227660   0.163   4.068   6.792 -3.1807  2.1858 -0.7616
 5342SOL     OW27661   2.928   1.696   8.289 -0.4211  0.0365  0.0494
 5342SOL    HW127662   2.972   1.747   8.357  1.8982  0.2752 -1.6274
 5342SOL    HW227663   2.990   1.623   8.282 -2.1181 -1.3300 -0.5732
 5343SOL     OW27664   1.675   0.270   2.557 -0.2683 -0.1234 -0.5344
 5343SOL    HW127665   1.762   0.300   2.529 -1.6456  3.4033 -1.0350
 5343SOL    HW227666   1.630   0.272   2.472 -0.5664 -2.7047 -0.4408
 5344SOL     OW27667   4.072   0.410  17.491  0.0946  0.2382 -0.3283
 5344SOL    HW127668   4.089   0.484  17.433  2.8571  0.2237  0.4996
 5344SOL    HW227669   4.098   0.453  17.573 -0.0035  0.4089 -0.3877
 5345SOL     OW27670   0.504   1.647   2.325 -0.7150 -0.1555 -0.5169
 5345SOL    HW127671   0.493   1.563   2.280  1.3988 -0.7328  0.0548
 5345SOL    HW227672   0.493   1.714   2.257  0.1151  1.1705  0.6567
 5346SOL     OW27673   1.072   2.580   6.475  0.0086  0.3163 -0.7083
 5346SOL    HW127674   1.033   2.642   6.414 -0.2115 -0.6515 -1.5422
 5346SOL    HW227675   1.158   2.616   6.496 -0.0367 -0.0975  0.1799
 5347SOL     OW27676   4.248   3.060   5.394  0.1005  0.4151  0.1974
 5347SOL    HW127677   4.300   2.991   5.353 -1.5793 -0.2668 -0.7384
 5347SOL    HW227678   4.239   3.024   5.483  0.1489  0.6279  0.2889
 5348SOL     OW27679   4.361   4.213  12.934  0.6821 -0.0393  0.7268
 5348SOL    HW127680   4.353   4.223  12.839 -0.6255 -0.5545  0.7810
 5348SOL    HW227681   4.283   4.158  12.943  1.0855 -0.7909 -0.2978
 5349SOL     OW27682   1.838   3.609  14.437  0.6790  0.2709 -0.2419
 5349SOL    HW127683   1.910   3.571  14.387  0.5243  2.3951 -2.0833
 5349SOL    HW227684   1.769   3.607  14.371  0.8045 -1.3610 -0.3301
 5350SOL     OW27685   2.802   2.768   0.385 -0.0265 -0.0807 -0.2569
 5350SOL    HW127686   2.747   2.798   0.456 -0.0191 -0.1436 -0.2250
 5350SOL    HW227687   2.873   2.722   0.429  1.7582  0.4989 -2.5235
 5351SOL     OW27688   4.204   2.609  15.148  0.2670 -0.1690 -0.2617
 5351SOL    HW127689   4.162   2.545  15.204 -0.2445  0.7081  0.3519
 5351SOL    HW227690   4.214   2.679  15.213  0.2193 -3.9636  3.7960
 5352SOL     OW27691   2.567   0.902   2.558  0.5783  0.6393 -0.0376
 5352SOL    HW127692   2.605   0.988   2.540  0.5312  0.4156 -1.1953
 5352SOL    HW227693   2.476   0.922   2.537  0.3591  0.0939  0.3885
 5353SOL     OW27694   3.119   4.371   1.000  0.0105 -0.3088  0.0476
 5353SOL    HW127695   3.032   4.340   1.028 -0.3491 -0.8961 -1.7613
 5353SOL    HW227696   3.155   4.304   0.943  0.3949  3.1516 -3.7375
 5354SOL     OW27697   3.294   4.662  11.640  0.3425 -0.1318  0.3238
 5354SOL    HW127698   3.225   4.602  11.668  1.7564 -1.9639 -0.0916
 5354SOL    HW227699   3.257   0.011  11.659 -0.3568 -0.1277 -1.1126
 5355SOL     OW27700   2.971   4.069   8.327 -0.1998  0.2959  0.3325
 5355SOL    HW127701   2.998   4.043   8.239 -0.7646  0.8394 -0.0054
 5355SOL    HW227702   2.980   4.164   8.334  0.6380  0.3390 -1.4040
 5356SOL     OW27703   4.670   0.135   4.609 -0.4201 -0.5230 -0.4526
 5356SOL    HW127704   4.672   0.043   4.582  1.9163 -1.4528  2.8735
 5356SOL    HW227705   4.696   0.182   4.530 -1.0051 -0.8436 -0.8370
 5357SOL     OW27706   1.170   3.623  10.830 -0.1965 -0.2242  0.3197
 5357SOL    HW127707   1.107   3.552  10.842 -1.2676  0.2232 -2.6659
 5357SOL    HW227708   1.198   3.618  10.922  0.0641 -3.1517  0.0640
 5358SOL     OW27709   4.495   1.566   6.478 -0.2452 -0.4375  0.0064
 5358SOL    HW127710   4.459   1.497   6.533 -1.2136 -1.0011 -1.3367
 5358SOL    HW227711   4.417   1.622   6.474  1.9820  2.8142  1.0731
 5359SOL     OW27712   3.929   3.335   0.627 -0.0487  0.0233 -0.1911
 5359SOL    HW127713   3.880   3.394   0.569  2.7654  2.2160 -0.3327
 5359SOL    HW227714   3.988   3.297   0.562  0.1669 -1.3285  0.8029
 5360SOL     OW27715   3.309   1.902   2.918 -0.3972  0.1719  0.3190
 5360SOL    HW127716   3.298   1.914   2.823  0.1445  1.2415  0.3922
 5360SOL    HW227717   3.247   1.829   2.926 -0.0144 -0.1509  0.2988
 5361SOL     OW27718   2.317   3.458   8.043 -0.4003  0.3333 -0.4971
 5361SOL    HW127719   2.369   3.507   7.978  0.5035 -0.8250 -0.6490
 5361SOL    HW227720   2.387   3.412   8.089 -1.4136  1.7313  2.4556
 5362SOL     OW27721   1.635   3.761   7.561  0.1729 -0.2674  0.1135
 5362SOL    HW127722   1.602   3.679   7.598  0.1667 -0.5980 -0.6265
 5362SOL    HW227723   1.568   3.777   7.494 -0.6291  0.5650  1.1169
 5363SOL     OW27724   1.365   2.639   6.979 -0.1120 -0.2861  0.0447
 5363SOL    HW127725   1.290   2.580   6.988 -0.5732  0.1973 -0.6853
 5363SOL    HW227726   1.347   2.706   7.045  2.8458 -0.5090  1.0612
 5364SOL     OW27727   4.630   1.491   6.247  0.2280  0.5873  0.8287
 5364SOL    HW127728   4.664   1.421   6.302 -0.2659 -0.7638 -0.6027
 5364SOL    HW227729   4.586   1.535   6.320  1.6182 -1.5575  2.9688
 5365SOL     OW27730   3.863   2.054  12.212  0.1137  0.5909  0.3046
 5365SOL    HW127731   3.940   2.064  12.268  0.6583 -0.9597 -0.1856
 5365SOL    HW227732   3.896   1.980  12.162 -1.5810 -1.1237  1.6850
 5366SOL     OW27733   4.526   2.217  15.892  0.3256  0.3291 -0.1344
 5366SOL    HW127734   4.592   2.278  15.858 -0.0820  2.7445  3.3979
 5366SOL    HW227735   4.490   2.182  15.811  0.9659  1.0325 -0.7247
 5367SOL     OW27736   2.217   2.274   5.571  0.0167 -0.4239 -0.2061
 5367SOL    HW127737   2.299   2.312   5.602 -1.4341  1.9015  0.7321
 5367SOL    HW227738   2.229   2.179   5.580  3.0696  0.0576  0.8656
 5368SOL     OW27739   2.406   1.960  12.338 -0.3901  0.5024  0.1949
 5368SOL    HW127740   2.489   1.921  12.363 -0.9613 -2.1636 -2.1101
 5368SOL    HW227741   2.424   2.053  12.349  1.2137  0.1258  0.7358
 5369SOL     OW27742   3.745   4.056  16.929  0.4119  0.4516 -0.4059
 5369SOL    HW127743   3.651   4.071  16.929  0.4274  0.5484 -0.3330
 5369SOL    HW227744   3.782   4.137  16.966 -0.8049  1.5493 -1.5825
 5370SOL     OW27745   1.902   4.198   7.571  0.0604  0.4283  0.0953
 5370SOL    HW127746   1.895   4.114   7.615 -0.6923  0.4003 -0.0789
 5370SOL    HW227747   1.841   4.246   7.627  3.3458  0.8680  3.3152
 5371SOL     OW27748   3.052   1.152   1.698 -0.0379 -0.1104  0.1431
 5371SOL    HW127749   3.108   1.078   1.674 -0.0513  0.7608 -2.6464
 5371SOL    HW227750   2.975   1.100   1.719  1.1370 -1.6632  0.5721
 5372SOL     OW27751   1.299   3.468  16.097  0.2418  0.0329 -0.0667
 5372SOL    HW127752   1.394   3.467  16.110  0.2075 -1.0263  0.1320
 5372SOL    HW227753   1.267   3.428  16.178 -0.5521  0.5629 -0.1139
 5373SOL     OW27754   0.497   1.970   0.835 -0.5259 -0.3183 -0.3102
 5373SOL    HW127755   0.444   2.039   0.796 -2.2133  0.2103  2.8963
 5373SOL    HW227756   0.526   2.007   0.918  2.2625  0.9598 -1.8572
 5374SOL     OW27757   1.543   1.606   7.789  0.1009  0.1596  0.0652
 5374SOL    HW127758   1.529   1.615   7.695  1.3941 -1.5966 -0.2958
 5374SOL    HW227759   1.637   1.610   7.805 -0.1273  3.1182  0.7178
 5375SOL     OW27760   4.090   2.007   7.031  0.6602  0.2144 -0.1902
 5375SOL    HW127761   4.039   2.041   7.104  1.8450 -1.1345  1.2697
 5375SOL    HW227762   4.021   1.966   6.978  2.6359 -2.2213 -0.8937
 5376SOL     OW27763   2.579   2.907   3.597 -0.2058  0.2389  0.2398
 5376SOL    HW127764   2.611   2.933   3.511  1.5932 -3.1949 -0.1381
 5376SOL    HW227765   2.649   2.848   3.627  0.0692 -0.5668 -2.0141
 5377SOL     OW27766   1.350   0.571   0.138  0.1554 -0.1891  0.1576
 5377SOL    HW127767   1.394   0.496   0.177 -2.0499  0.2564  3.4319
 5377SOL    HW227768   1.267   0.524   0.126 -1.0694  2.1052 -0.3735
 5378SOL     OW27769   0.036   0.422  12.095  0.0562  0.2147  0.0575
 5378SOL    HW127770   4.730   0.481  12.034 -0.5783 -2.0776 -1.6964
 5378SOL    HW227771   0.046   0.352  12.031 -1.7931  1.7117 -1.8335
 5379SOL     OW27772   1.374   1.512   8.184 -0.4918  0.0484 -0.1073
 5379SOL    HW127773   1.349   1.477   8.099  1.2834  1.9461 -1.4289
 5379SOL    HW227774   1.333   1.598   8.197  2.6188  1.4551  0.6660
 5380SOL     OW27775   1.898   1.094   4.814 -0.4191 -0.1542 -0.2046
 5380SOL    HW127776   1.886   1.188   4.828  0.5562 -0.3007  1.6512
 5380SOL    HW227777   1.937   1.078   4.900  0.0835 -1.2753 -0.6447
 5381SOL     OW27778   3.609   4.403  16.432 -0.3813  0.0764  0.8652
 5381SOL    HW127779   3.701   4.396  16.459  0.0921 -0.1426 -0.8153
 5381SOL    HW227780   3.616   4.411  16.337 -0.3599 -0.0056  0.8604
 5382SOL     OW27781   1.522   1.070   8.378 -0.2949  0.0121 -0.0474
 5382SOL    HW127782   1.518   1.161   8.348  1.1349  0.0594 -0.1212
 5382SOL    HW227783   1.514   1.071   8.474 -1.9272  1.0939 -0.1960
 5383SOL     OW27784   3.815   1.352  13.103 -0.4542 -0.8236  0.1135
 5383SOL    HW127785   3.743   1.347  13.165 -2.0483  0.7867 -1.6215
 5383SOL    HW227786   3.806   1.445  13.082 -0.3122 -0.1478  3.1550
 5384SOL     OW27787   4.671   2.372  15.744  0.4166  0.6923  0.5065
 5384SOL    HW127788   4.689   2.446  15.803 -2.3032  1.3793  0.4412
 5384SOL    HW227789   4.678   2.424  15.664  1.7928  0.6688  0.6062
 5385SOL     OW27790   0.318   2.476   6.297  0.6540  0.4127 -0.1112
 5385SOL    HW127791   0.400   2.525   6.300  1.7732 -1.3450 -1.7141
 5385SOL    HW227792   0.339   2.423   6.220 -0.0000 -1.4661  0.9978
 5386SOL     OW27793   4.145   2.510   8.164  0.3401  0.3975  0.2467
 5386SOL    HW127794   4.223   2.455   8.174  1.0137  0.7252 -3.1204
 5386SOL    HW227795   4.127   2.496   8.071 -5.2360 -1.2703  1.5875
 5387SOL     OW27796   0.889   0.845  16.134  0.0909  0.1972 -1.2964
 5387SOL    HW127797   0.842   0.923  16.164  0.1782 -0.3433  0.2562
 5387SOL    HW227798   0.863   0.784  16.202  0.1960 -0.6676 -2.0394
 5388SOL     OW27799   1.223   0.972   7.732 -0.8431 -0.3143  0.4119
 5388SOL    HW127800   1.290   1.007   7.791 -1.8316 -0.7562  1.8242
 5388SOL    HW227801   1.262   0.957   7.646 -0.4842  0.3649  0.4577
 5389SOL     OW27802   1.761   0.498   7.757  0.5314 -0.0245  0.2143
 5389SOL    HW127803   1.797   0.521   7.843  0.8494  0.2887 -0.0008
 5389SOL    HW227804   1.788   0.407   7.744  1.1022 -0.4061  4.1847
 5390SOL     OW27805   2.887   1.523  14.892  0.0639 -0.1454  0.0704
 5390SOL    HW127806   2.910   1.454  14.953  1.5430 -0.2005 -0.5480
 5390SOL    HW227807   2.966   1.538  14.841  0.1368  0.7914  0.4515
 5391SOL     OW27808   2.086   2.907   3.125  0.2603 -0.0837  0.0956
 5391SOL    HW127809   2.053   2.835   3.179  1.2413 -0.2820  0.4307
 5391SOL    HW227810   2.088   2.975   3.191 -0.4226  1.6974 -1.7162
 5392SOL     OW27811   0.482   4.062   0.769 -0.1499 -0.7245  0.3289
 5392SOL    HW127812   0.555   4.002   0.780  0.2466 -0.2481  0.2762
 5392SOL    HW227813   0.471   4.034   0.678 -0.9464  0.5137  0.0336
 5393SOL     OW27814   1.589   2.956   8.533  0.1673  0.0168 -0.2748
 5393SOL    HW127815   1.572   3.002   8.615  0.9223  0.4902 -0.3865
 5393SOL    HW227816   1.514   2.902   8.506 -0.1328 -0.8456  2.2733
 5394SOL     OW27817   4.127   0.334   8.257  0.3111  0.2408  0.3926
 5394SOL    HW127818   4.156   0.314   8.168  1.3826  1.0651  0.5561
 5394SOL    HW227819   4.112   0.245   8.287  0.1149  0.7636  1.8751
 5395SOL     OW27820   0.901   4.045   3.832 -0.1295  0.1511 -0.8811
 5395SOL    HW127821   0.970   4.007   3.886  0.2423  1.2557 -0.5852
 5395SOL    HW227822   0.900   4.132   3.871  0.7876  0.0146 -0.5540
 5396SOL     OW27823   1.348   0.956   8.641 -0.0250 -0.1195  0.6843
 5396SOL    HW127824   1.380   0.870   8.614  6.1875  1.5782  2.5120
 5396SOL    HW227825   1.318   0.982   8.554  0.3338 -0.5195  0.4434
 5397SOL     OW27826   0.404   2.129   2.664 -0.3646 -0.1973 -0.3839
 5397SOL    HW127827   0.332   2.179   2.626  0.3964 -0.3242 -1.9996
 5397SOL    HW227828   0.356   2.056   2.704 -1.7307  1.0067  0.1897
 5398SOL     OW27829   4.137   4.105  14.486 -0.3592 -1.1033 -0.2859
 5398SOL    HW127830   4.081   4.063  14.551  1.5245  0.8500  2.5875
 5398SOL    HW227831   4.224   4.106  14.527 -0.4969 -1.9827  0.0431
 5399SOL     OW27832   4.142   2.660   2.292  0.3049 -0.6114  0.1327
 5399SOL    HW127833   4.174   2.571   2.311  1.7850 -0.1528 -0.2490
 5399SOL    HW227834   4.117   2.698   2.377 -0.6569 -0.2616 -0.3089
 5400SOL     OW27835   0.306   2.425   0.254 -0.4575  0.3788 -0.5305
 5400SOL    HW127836   0.391   2.404   0.294  0.2985  2.7951 -0.9162
 5400SOL    HW227837   0.309   2.369   0.176 -0.8196 -0.3875 -0.0002
 5401SOL     OW27838   2.521   0.695   8.956  0.0862  0.7410 -0.1451
 5401SOL    HW127839   2.529   0.790   8.948 -1.6270  1.0296  1.5488
 5401SOL    HW227840   2.581   0.676   9.028  1.6638  2.2541 -1.0469
 5402SOL     OW27841   3.485   3.954   2.223 -0.1696  0.4483 -0.2049
 5402SOL    HW127842   3.520   4.039   2.251  1.5835 -0.3144 -0.0930
 5402SOL    HW227843   3.440   3.934   2.305  1.6875 -0.3785  0.6307
 5403SOL     OW27844   4.285   3.093   2.246 -0.0534 -0.2776  0.1897
 5403SOL    HW127845   4.243   3.179   2.237 -0.3919 -0.5489 -0.8374
 5403SOL    HW227846   4.241   3.062   2.324 -1.9508 -0.9613 -1.1512
 5404SOL     OW27847   2.687   4.338   1.019 -0.5983  0.3126  0.6884
 5404SOL    HW127848   2.750   4.409   1.008  0.2900 -0.1267  2.8761
 5404SOL    HW227849   2.744   4.261   1.025 -0.6532  0.4763  3.5409
 5405SOL     OW27850   3.427   0.725   0.979  0.1431  0.4100  0.4785
 5405SOL    HW127851   3.405   0.765   1.063  0.3298  1.7308 -0.1019
 5405SOL    HW227852   3.420   0.630   0.985 -0.3786  0.3547 -0.9902
 5406SOL     OW27853   0.432   0.460   6.713 -0.0983 -0.1239  0.2729
 5406SOL    HW127854   0.366   0.514   6.669  0.1017  0.3170  0.5081
 5406SOL    HW227855   0.412   0.480   6.804 -2.1681  0.5834 -0.3262
 5407SOL     OW27856   2.194   4.528  13.542 -0.0090 -0.1447 -0.1042
 5407SOL    HW127857   2.111   4.486  13.565 -1.1261  2.0598 -0.1353
 5407SOL    HW227858   2.205   4.483  13.459  0.9624  2.3922 -1.3174
 5408SOL     OW27859   1.224   3.468   5.372  0.5004  0.1436 -0.8277
 5408SOL    HW127860   1.142   3.517   5.374  0.0882 -0.6794  2.5112
 5408SOL    HW227861   1.242   3.497   5.283 -0.3528 -1.7860 -1.6234
 5409SOL     OW27862   1.689   0.174  12.594  0.2353 -0.0286 -0.4654
 5409SOL    HW127863   1.697   0.139  12.506 -2.0497  0.1532 -0.7468
 5409SOL    HW227864   1.745   0.112  12.642 -0.3909  1.0697  1.7153
 5410SOL     OW27865   0.804   4.378  16.264  0.0041  0.0864  0.6759
 5410SOL    HW127866   0.794   4.300  16.319  1.4320 -0.3681  0.2975
 5410SOL    HW227867   0.827   4.444  16.330 -0.1945  0.4362  0.3949
 5411SOL     OW27868   0.135   1.338   2.994 -0.0543 -0.4302 -0.6220
 5411SOL    HW127869   0.084   1.294   2.926  1.2819 -1.2949 -1.0697
 5411SOL    HW227870   0.066   1.364   3.056  0.8284 -0.2591  0.2964
 5412SOL     OW27871   1.036   4.349  11.743  0.0938  0.2052 -0.2199
 5412SOL    HW127872   0.984   4.282  11.699 -2.2653  1.3165  0.8593
 5412SOL    HW227873   1.019   4.325  11.834  1.7856 -2.8147 -0.7115
 5413SOL     OW27874   3.987   2.822   5.088  0.2227 -0.1924  0.2411
 5413SOL    HW127875   3.902   2.828   5.045  1.2188  1.0840 -1.5613
 5413SOL    HW227876   3.965   2.814   5.181  0.8969  0.7393  0.4750
 5414SOL     OW27877   1.664   4.448   0.242  0.4606 -0.3363 -0.5522
 5414SOL    HW127878   1.737   4.490   0.288  0.5937 -0.5062 -0.6069
 5414SOL    HW227879   1.701   4.361   0.227  0.1195 -0.1926 -2.2430
 5415SOL     OW27880   0.208   0.885  16.531  0.4932  0.2630 -0.5015
 5415SOL    HW127881   0.187   0.944  16.459  0.7709 -0.4281 -1.1417
 5415SOL    HW227882   0.250   0.820  16.474  1.4853 -0.0936  0.6370
 5416SOL     OW27883   2.258   4.680   3.681 -0.8947  0.4516  0.4824
 5416SOL    HW127884   2.297   0.017   3.728  0.8637 -1.4254  1.9713
 5416SOL    HW227885   2.172   4.666   3.720 -0.8609 -0.6993  0.1251
 5417SOL     OW27886   0.652   0.186  12.660  0.0011  0.9945 -0.0200
 5417SOL    HW127887   0.744   0.213  12.653 -0.2750  1.7049 -0.9647
 5417SOL    HW227888   0.621   0.177  12.570 -1.4170  1.8567  0.3911
 5418SOL     OW27889   3.151   2.741  14.040 -0.9497  0.0842 -0.0593
 5418SOL    HW127890   3.087   2.813  14.044 -1.7522 -0.7339  2.0341
 5418SOL    HW227891   3.130   2.691  13.961 -1.4099  0.5228 -0.2220
 5419SOL     OW27892   1.885   3.631  16.016  0.4649 -0.0783 -0.3471
 5419SOL    HW127893   1.979   3.644  16.026  0.4931 -1.1282  0.8394
 5419SOL    HW227894   1.858   3.706  15.963 -0.1438 -0.4934 -0.6220
 5420SOL     OW27895   0.092   3.329   6.211  0.3176  0.0681  0.1447
 5420SOL    HW127896   0.062   3.281   6.135  0.8171 -0.2092  0.1228
 5420SOL    HW227897   0.006   3.340   6.251 -0.5095  1.0678 -1.9491
 5421SOL     OW27898   1.166   1.623   2.504  0.0178  0.5536 -0.6061
 5421SOL    HW127899   1.222   1.578   2.568 -3.6633  0.0204  2.2408
 5421SOL    HW227900   1.227   1.643   2.433  0.0031  0.0980 -0.7461
 5422SOL     OW27901   0.781   2.335   6.378  0.1422 -0.8154 -0.1137
 5422SOL    HW127902   0.755   2.277   6.450  0.7370  0.4703  1.1266
 5422SOL    HW227903   0.873   2.348   6.400 -0.2786  2.2840 -0.2254
 5423SOL     OW27904   1.484   1.535  11.848  0.5397  0.1494 -0.2504
 5423SOL    HW127905   1.470   1.462  11.788  1.6933  0.7125 -1.2014
 5423SOL    HW227906   1.422   1.593  11.803 -0.3491 -0.8939 -0.3817
 5424SOL     OW27907   3.448   4.363   6.993  0.0907 -1.1690 -0.2803
 5424SOL    HW127908   3.441   4.409   6.910 -0.4762 -1.8863 -0.6311
 5424SOL    HW227909   3.471   4.273   6.973 -1.4064 -1.5199 -0.4161
 5425SOL     OW27910   0.261   3.754  17.699  0.8738  0.1920  0.1530
 5425SOL    HW127911   0.299   3.667  17.710 -0.2746 -0.7196 -3.0152
 5425SOL    HW227912   0.168   3.732  17.696  0.6921  1.0706 -0.6569
 5426SOL     OW27913   2.016   0.821   2.121  0.4718  0.1704  0.0802
 5426SOL    HW127914   2.103   0.860   2.112 -0.3916  1.9456 -0.5457
 5426SOL    HW227915   2.032   0.727   2.122  1.0781  0.3169  3.0687
 5427SOL     OW27916   2.134   1.378   0.840 -0.2515 -0.3549 -0.1253
 5427SOL    HW127917   2.228   1.359   0.843 -0.0816  0.5544  0.5710
 5427SOL    HW227918   2.105   1.335   0.920  0.9934 -0.5243  0.2440
 5428SOL     OW27919   3.984   4.506   5.783  0.0529 -0.1431 -0.3051
 5428SOL    HW127920   4.002   4.486   5.875  2.5033  1.3206 -0.4677
 5428SOL    HW227921   4.056   4.457   5.744  0.5968 -1.4778  2.3435
 5429SOL     OW27922   2.997   2.656  15.484  0.1204  0.3979 -0.3022
 5429SOL    HW127923   2.917   2.692  15.522 -1.4016 -2.0512 -1.2387
 5429SOL    HW227924   2.970   2.597  15.414  1.7607  1.0935 -1.5103
 5430SOL     OW27925   3.780   4.614   5.023  0.3352  0.6877 -0.2723
 5430SOL    HW127926   3.745   4.641   5.108 -0.6736  0.6952 -0.6979
 5430SOL    HW227927   3.870   4.587   5.045  0.0277  0.6075  0.8566
 5431SOL     OW27928   0.781   1.915   4.284  0.3246  0.7926 -0.1694
 5431SOL    HW127929   0.703   1.900   4.338  1.9193 -0.7498  1.7056
 5431SOL    HW227930   0.848   1.929   4.351 -0.4214  2.0018  0.3055
 5432SOL     OW27931   3.820   1.040   0.053 -0.2913 -0.3151  0.1762
 5432SOL    HW127932   3.910   1.032   0.087  0.4520  2.3396 -1.1675
 5432SOL    HW227933   3.814   1.124   0.008  0.5998 -0.8088 -0.8693
 5433SOL     OW27934   1.486   4.399   2.176  0.6560 -0.3703  0.7127
 5433SOL    HW127935   1.576   4.380   2.151  0.6365  0.1996  0.1788
 5433SOL    HW227936   1.442   4.323   2.138 -0.7473  1.1947 -0.8548
 5434SOL     OW27937   0.336   3.349  11.296 -0.0501 -0.1152  0.5964
 5434SOL    HW127938   0.266   3.334  11.233 -0.0241 -0.4114  0.6382
 5434SOL    HW227939   0.358   3.259  11.316  0.3903  0.7597  4.0938
 5435SOL     OW27940   4.078   3.020   4.365 -0.0188 -0.3909  0.8187
 5435SOL    HW127941   4.051   3.100   4.320 -0.4525  0.1185  1.9941
 5435SOL    HW227942   3.997   2.971   4.347 -0.8840  0.3526  2.6334
 5436SOL     OW27943   0.008   2.430  14.682 -0.4441  0.6274  0.1930
 5436SOL    HW127944   4.727   2.433  14.776 -0.3742 -0.7797  0.2556
 5436SOL    HW227945   0.042   2.342  14.666  2.0032  0.8265  4.4358
 5437SOL     OW27946   0.017   1.264  10.879 -0.3234  0.4608 -0.0656
 5437SOL    HW127947   4.715   1.350  10.870  1.2926  1.3752  1.5424
 5437SOL    HW227948   0.016   1.260  10.975 -0.8917  0.4682 -0.0712
 5438SOL     OW27949   4.716   1.304   6.446 -0.8710 -0.2548 -0.2711
 5438SOL    HW127950   4.640   1.249   6.426 -2.3507  1.9862 -0.7672
 5438SOL    HW227951   4.719   1.295   6.541 -0.4461 -0.1317 -0.2718
 5439SOL     OW27952   2.574   0.524   3.904  0.1466  0.0741  0.3217
 5439SOL    HW127953   2.500   0.582   3.886  0.5302  0.4871  0.0528
 5439SOL    HW227954   2.586   0.532   3.998 -0.6766 -0.9426  0.5071
 5440SOL     OW27955   3.164   1.521   5.519 -0.0652 -0.3867 -0.2024
 5440SOL    HW127956   3.142   1.432   5.548  2.6752 -0.2760  2.2640
 5440SOL    HW227957   3.155   1.567   5.603  0.1514 -1.0296  0.1779
 5441SOL     OW27958   3.627   2.525   3.399  0.2128 -0.0989  0.0882
 5441SOL    HW127959   3.549   2.580   3.391  1.3942  1.4742 -0.6889
 5441SOL    HW227960   3.696   2.583   3.369  0.0745 -0.5375 -1.0841
 5442SOL     OW27961   0.354   0.841   5.941  0.2260 -0.1124  0.0049
 5442SOL    HW127962   0.308   0.864   6.021  1.0772 -0.5392  0.6085
 5442SOL    HW227963   0.320   0.752   5.929  0.5072 -0.1410 -0.5935
 5443SOL     OW27964   2.800   3.013   5.982  0.0268  0.2892  0.1272
 5443SOL    HW127965   2.803   2.917   5.977  1.0543  0.2735  1.1776
 5443SOL    HW227966   2.759   3.024   6.068 -0.8589 -0.6381 -0.1740
 5444SOL     OW27967   1.943   2.039  11.602 -0.1859  0.2250  0.2606
 5444SOL    HW127968   1.867   2.085  11.639 -0.9361 -1.9886  1.4611
 5444SOL    HW227969   1.959   2.095  11.527 -0.8535 -0.0974 -0.1171
 5445SOL     OW27970   1.349   2.698   4.522  0.1266 -0.1354  0.4948
 5445SOL    HW127971   1.320   2.649   4.445  3.3995 -3.0641  1.1560
 5445SOL    HW227972   1.272   2.694   4.579 -0.4152 -1.8537 -0.3383
 5446SOL     OW27973   1.206   0.925  17.614  0.1173  0.3223 -0.8648
 5446SOL    HW127974   1.295   0.894  17.595 -0.4411 -1.8239 -0.0042
 5446SOL    HW227975   1.224   0.988  17.683  1.6380  0.4357 -1.3684
 5447SOL     OW27976   2.191   4.582   1.390 -0.3224 -0.1418 -0.2748
 5447SOL    HW127977   2.234   4.519   1.332 -0.4577  0.3345 -0.8923
 5447SOL    HW227978   2.121   4.625   1.341 -1.8927 -0.4464  1.7070
 5448SOL     OW27979   3.619   1.241   4.679 -0.5745  0.2085  0.4316
 5448SOL    HW127980   3.525   1.232   4.665 -0.1459 -0.3846 -2.0281
 5448SOL    HW227981   3.602   1.288   4.761  0.3323  0.6135  0.4006
 5449SOL     OW27982   4.458   2.719  16.718 -0.5412 -0.7071 -0.3944
 5449SOL    HW127983   4.411   2.766  16.787  0.7326  2.1011 -1.4404
 5449SOL    HW227984   4.542   2.764  16.720 -0.6517 -0.6013  1.9493
 5450SOL     OW27985   2.827   4.400   7.760 -0.6190  0.2223  0.3642
 5450SOL    HW127986   2.821   4.407   7.664 -0.3956 -3.0492  0.1072
 5450SOL    HW227987   2.808   4.307   7.774  0.5757  0.0637  0.9146
 5451SOL     OW27988   1.559   2.806   1.316  0.2828  0.4945  0.0316
 5451SOL    HW127989   1.527   2.896   1.307  1.5762  0.7394 -2.0385
 5451SOL    HW227990   1.644   2.837   1.286  0.5078 -0.9582 -0.8111
 5452SOL     OW27991   2.623   1.868   6.155 -0.0125  0.0884 -0.0716
 5452SOL    HW127992   2.716   1.856   6.135  0.5140 -0.4406  2.6446
 5452SOL    HW227993   2.587   1.780   6.151 -1.3182  0.6795 -1.4631
 5453SOL     OW27994   4.372   2.899  16.925 -0.1520 -0.2022 -0.2738
 5453SOL    HW127995   4.277   2.897  16.941  0.2869  3.1081  2.8627
 5453SOL    HW227996   4.406   2.899  17.015 -1.6831  1.1772  0.3070
 5454SOL     OW27997   4.351   3.154  17.518 -0.3072  0.0460  0.2987
 5454SOL    HW127998   4.376   3.236  17.475  0.4223 -0.5508 -0.4125
 5454SOL    HW227999   4.267   3.130  17.480 -0.6328 -0.6567  1.4478
 5455SOL     OW28000   2.143   2.529   8.644  0.6951  0.6100 -0.2144
 5455SOL    HW128001   2.048   2.512   8.650  0.3469  2.3901 -0.8984
 5455SOL    HW228002   2.180   2.448   8.679  0.4506  0.6260  0.0913
 5456SOL     OW28003   4.588   3.581   8.787 -0.0331 -0.0484  0.0198
 5456SOL    HW128004   4.524   3.652   8.785 -0.4243 -0.4473 -1.3610
 5456SOL    HW228005   4.665   3.626   8.822  1.4615 -0.5290 -2.6694
 5457SOL     OW28006   1.216   4.258   6.936 -0.0224  0.0659 -0.7529
 5457SOL    HW128007   1.149   4.306   6.986  0.6601  0.6649 -0.4149
 5457SOL    HW228008   1.295   4.280   6.986 -0.7927  2.3519 -0.5340
 5458SOL     OW28009   4.138   2.706   5.925 -0.5412  0.0064  0.5928
 5458SOL    HW128010   4.076   2.776   5.905 -3.1707 -3.3076 -2.7570
 5458SOL    HW228011   4.103   2.632   5.877  0.5129  0.0715 -0.2869
 5459SOL     OW28012   1.750   3.304  16.254 -0.1230 -0.0294 -0.3003
 5459SOL    HW128013   1.722   3.213  16.254  1.6551 -0.5696  1.5554
 5459SOL    HW228014   1.825   3.303  16.194 -1.3332  1.1596 -1.8393
 5460SOL     OW28015   2.483   1.890   4.455 -0.5868  0.1156  0.2928
 5460SOL    HW128016   2.514   1.974   4.489 -1.8281 -0.3141  2.4668
 5460SOL    HW228017   2.524   1.892   4.368 -1.3201 -0.9075 -0.0775
 5461SOL     OW28018   1.791   2.499   7.165  0.1258  0.3011 -0.0212
 5461SOL    HW128019   1.812   2.406   7.171  0.5934  0.4299  0.3133
 5461SOL    HW228020   1.759   2.512   7.076  2.4737  0.4612 -0.8306
 5462SOL     OW28021   4.441   2.551   6.481  0.1907  0.4389  0.1619
 5462SOL    HW128022   4.354   2.509   6.482 -0.9533  2.8284 -0.4429
 5462SOL    HW228023   4.434   2.615   6.551  0.5713  1.0335 -0.3517
 5463SOL     OW28024   1.981   4.211   4.045 -0.1129 -0.0581 -0.4065
 5463SOL    HW128025   1.984   4.306   4.057 -3.5691 -0.0252  0.2384
 5463SOL    HW228026   1.962   4.201   3.952  0.2536  0.4513 -0.5353
 5464SOL     OW28027   2.254   2.362   1.935  0.5073  0.1838 -0.4707
 5464SOL    HW128028   2.257   2.277   1.977  0.9705  1.1430  1.4469
 5464SOL    HW228029   2.174   2.392   1.977 -0.0525 -2.3839  0.2487
 5465SOL     OW28030   4.331   0.224  15.604  0.2588 -0.0548  0.1013
 5465SOL    HW128031   4.249   0.240  15.650 -0.8003 -3.0426 -0.7028
 5465SOL    HW228032   4.394   0.246  15.673  0.4229 -1.6558  0.4624
 5466SOL     OW28033   0.122   0.140   2.820 -0.0027  0.6693  0.3045
 5466SOL    HW128034   0.037   0.121   2.781  0.7532 -0.1083 -0.9578
 5466SOL    HW228035   0.096   0.106   2.906  0.8864 -0.2490  0.2085
 5467SOL     OW28036   1.571   3.294   4.904  0.2314  0.0240  0.1276
 5467SOL    HW128037   1.622   3.269   4.827  0.2957  1.8396 -0.4148
 5467SOL    HW228038   1.566   3.389   4.894 -2.0422 -0.0425  0.4201
 5468SOL     OW28039   0.239   1.815  15.653  0.2189 -0.0971  0.2517
 5468SOL    HW128040   0.276   1.827  15.740  0.3613 -2.3889  0.5166
 5468SOL    HW228041   0.287   1.736  15.631  0.1553 -0.0177 -0.1605
 5469SOL     OW28042   0.355   1.365   2.621 -0.5970 -0.3835 -0.3054
 5469SOL    HW128043   0.301   1.428   2.572 -1.6962  0.3929  1.9166
 5469SOL    HW228044   0.285   1.300   2.634 -0.5011 -0.3297  0.4745
 5470SOL     OW28045   0.982   4.252   8.607  0.0311 -0.3149  0.4688
 5470SOL    HW128046   1.045   4.302   8.555 -1.0056 -1.2760 -1.6719
 5470SOL    HW228047   0.969   4.326   8.666 -0.9497 -0.3516  0.2988
 5471SOL     OW28048   0.964   3.146   2.034 -0.8381 -0.0841  0.2570
 5471SOL    HW128049   1.020   3.221   2.054 -0.3274 -0.8628  1.7608
 5471SOL    HW228050   0.991   3.083   2.101  0.0065  0.9667  0.8972
 5472SOL     OW28051   4.630   3.826   5.457  0.8014 -0.1270 -0.5838
 5472SOL    HW128052   4.642   3.912   5.416  0.6371  0.1490 -0.0480
 5472SOL    HW228053   4.579   3.781   5.389 -1.2628  0.3494  0.6467
 5473SOL     OW28054   3.226   1.187   7.440 -0.1972 -0.3697 -0.0930
 5473SOL    HW128055   3.227   1.283   7.439 -0.5934 -0.3641  0.1550
 5473SOL    HW228056   3.160   1.164   7.505 -0.3724  1.4635  0.3710
 5474SOL     OW28057   4.194   1.228   3.596  0.7666 -0.1770  0.5165
 5474SOL    HW128058   4.178   1.162   3.529 -0.7725  2.1472 -1.4397
 5474SOL    HW228059   4.215   1.296   3.532  1.1745 -0.3526  0.4633
 5475SOL     OW28060   1.372   0.026  11.278  0.1116  0.2371 -0.9441
 5475SOL    HW128061   1.426   0.041  11.356 -1.3763 -0.1078  0.1584
 5475SOL    HW228062   1.342   0.116  11.263 -1.1077  0.1734  1.0454
 5476SOL     OW28063   2.336   0.160   4.961  0.3233  0.2138  0.6332
 5476SOL    HW128064   2.347   0.241   5.011  0.9699  0.7906 -0.4344
 5476SOL    HW228065   2.409   0.117   5.005 -0.2160 -0.2093  1.1039
 5477SOL     OW28066   0.995   2.824   6.134 -0.2265  0.1741  0.1949
 5477SOL    HW128067   0.969   2.842   6.225 -1.3984  0.0283 -0.1140
 5477SOL    HW228068   1.052   2.899   6.116 -0.4856  0.6407  1.3191
 5478SOL     OW28069   0.174   3.609   4.511  0.0635 -0.0183  0.3344
 5478SOL    HW128070   0.149   3.626   4.421 -2.7227  2.0255  1.5120
 5478SOL    HW228071   0.085   3.608   4.546 -0.7322 -1.2192 -1.7669
 5479SOL     OW28072   3.238   1.292   5.016  0.4304 -0.2503 -0.2373
 5479SOL    HW128073   3.149   1.263   4.997  0.0763  1.2745 -0.9347
 5479SOL    HW228074   3.252   1.260   5.106  0.9930 -0.5503 -0.4324
 5480SOL     OW28075   0.401   0.777   3.192  0.3176 -0.1116 -0.1743
 5480SOL    HW128076   0.459   0.832   3.139  1.5880 -0.0461  1.3013
 5480SOL    HW228077   0.444   0.692   3.190  0.3515 -0.0520 -1.7447
 5481SOL     OW28078   4.648   1.159   5.092  0.1023 -0.2656 -0.3413
 5481SOL    HW128079   4.595   1.081   5.106 -0.0278  0.3800  2.5944
 5481SOL    HW228080   4.621   1.219   5.162  0.7052  1.1259 -1.2889
 5482SOL     OW28081   1.171   3.494   2.743 -0.3812 -0.3450 -0.0026
 5482SOL    HW128082   1.115   3.527   2.814 -1.2359  0.1061 -0.8873
 5482SOL    HW228083   1.261   3.503   2.773 -1.1737  0.5569  2.1406
 5483SOL     OW28084   1.214   1.623  17.006 -0.4622  0.6239 -0.2698
 5483SOL    HW128085   1.143   1.687  16.996 -0.0071  1.1524 -0.1626
 5483SOL    HW228086   1.241   1.601  16.917 -3.1347  0.2266 -0.9999
 5484SOL     OW28087   2.527   1.896   7.778  0.2395  0.7023  0.0070
 5484SOL    HW128088   2.534   1.876   7.871  1.0892 -3.0108 -0.8786
 5484SOL    HW228089   2.558   1.987   7.781  0.2355  0.6344  2.6390
 5485SOL     OW28090   1.555   2.920  15.907  0.3392 -0.2578 -0.3018
 5485SOL    HW128091   1.526   2.997  15.955  1.2152 -0.2293  0.1795
 5485SOL    HW228092   1.625   2.963  15.856 -0.2963  2.6516  1.2731
 5486SOL     OW28093   2.291   3.537   2.104  0.1679  0.2645 -0.0284
 5486SOL    HW128094   2.196   3.523   2.111 -0.3313  3.5864  0.1769
 5486SOL    HW228095   2.291   3.625   2.067 -0.5539 -0.0775 -0.8508
 5487SOL     OW28096   4.351   0.015   4.160  0.5699 -0.2541 -0.1386
 5487SOL    HW128097   4.343   0.108   4.137 -0.4834 -0.3412 -0.1251
 5487SOL    HW228098   4.398   4.725   4.081  0.1597  0.4395 -0.6295
 5488SOL     OW28099   1.931   0.546   1.552  0.3499  0.1115 -0.4435
 5488SOL    HW128100   2.001   0.511   1.607 -0.4595  0.1847  0.6317
 5488SOL    HW228101   1.870   0.585   1.615 -0.0293 -0.1181 -0.6692
 5489SOL     OW28102   2.663   3.521   5.422  0.0114 -0.3315  0.3200
 5489SOL    HW128103   2.675   3.458   5.352 -0.9400 -0.6090  0.4057
 5489SOL    HW228104   2.753   3.553   5.433  0.2182  0.3498 -3.3815
 5490SOL     OW28105   2.905   2.449   4.204 -0.0118  0.0071  0.3114
 5490SOL    HW128106   2.933   2.378   4.147 -1.6677 -0.9052  0.6258
 5490SOL    HW228107   2.809   2.443   4.203  0.1637 -1.8635 -4.0217
 5491SOL     OW28108   1.187   1.822  16.451  0.5528 -0.4331 -0.2907
 5491SOL    HW128109   1.112   1.765  16.468 -0.9566  1.9643  1.2208
 5491SOL    HW228110   1.230   1.834  16.535 -1.3921 -0.2626  0.6777
 5492SOL     OW28111   1.434   2.543   1.288 -0.0559 -0.7909  0.1590
 5492SOL    HW128112   1.377   2.539   1.210  0.3276  0.6002 -0.1879
 5492SOL    HW228113   1.460   2.634   1.275 -1.6342 -0.3509  0.0054
 5493SOL     OW28114   3.378   4.058   8.160  0.0009 -0.4653  0.6765
 5493SOL    HW128115   3.382   4.153   8.153 -0.3501 -0.4974  0.0344
 5493SOL    HW228116   3.283   4.056   8.156  0.0634 -0.7720 -0.7577
 5494SOL     OW28117   4.192   4.122   1.731 -0.2545 -0.0312  0.3111
 5494SOL    HW128118   4.209   4.081   1.646 -0.2316 -2.3423  1.4338
 5494SOL    HW228119   4.110   4.169   1.721 -0.4086  0.0406  2.0201
 5495SOL     OW28120   4.055   0.520   9.159 -0.0788 -0.2547 -0.1050
 5495SOL    HW128121   4.038   0.574   9.237  4.2087  1.1782 -0.1140
 5495SOL    HW228122   3.975   0.542   9.112  1.4551  2.1375 -1.6225
 5496SOL     OW28123   1.558   4.085   0.921  0.6728  0.5289  0.0819
 5496SOL    HW128124   1.634   4.064   0.975 -1.8720  2.1010  4.2504
 5496SOL    HW228125   1.578   4.057   0.831  0.1234 -0.2606  0.2064
 5497SOL     OW28126   0.559   1.289   5.262  0.7920  0.1147  0.1516
 5497SOL    HW128127   0.550   1.294   5.167  3.2538 -0.4215 -0.1097
 5497SOL    HW228128   0.541   1.195   5.261 -0.0228  0.2742 -0.0199
 5498SOL     OW28129   2.239   1.658   0.809  1.0772 -0.1320 -0.4821
 5498SOL    HW128130   2.154   1.619   0.830  1.5384 -1.4570 -1.0719
 5498SOL    HW228131   2.203   1.732   0.760 -0.1222 -1.5640 -1.7725
 5499SOL     OW28132   1.133   3.065   2.682  0.0499 -0.1159  0.2015
 5499SOL    HW128133   1.155   2.979   2.645  0.3564 -0.4444  1.1444
 5499SOL    HW228134   1.224   3.093   2.698  0.0246  0.0628  0.0308
 5500SOL     OW28135   0.557   0.040   8.166 -0.0069  0.0937  0.1740
 5500SOL    HW128136   0.568   0.135   8.170 -0.2123  0.1397 -0.3855
 5500SOL    HW228137   0.469   0.032   8.130 -0.0822  1.4259  0.0841
 5501SOL     OW28138   3.591   4.267   7.357  0.5840  0.1498  0.3246
 5501SOL    HW128139   3.510   4.254   7.408 -0.1071  0.0112 -0.8222
 5501SOL    HW228140   3.615   4.181   7.322  1.1544  0.5126 -0.1603
 5502SOL     OW28141   2.117   0.891   8.042  0.0416  0.2868  0.1966
 5502SOL    HW128142   2.147   0.885   7.951 -1.1643  0.4468 -0.2121
 5502SOL    HW228143   2.162   0.816   8.081 -0.7772 -1.1914 -1.7367
 5503SOL     OW28144   3.959   2.197  15.114  0.0659 -0.0743 -1.0287
 5503SOL    HW128145   3.919   2.145  15.045 -1.7825 -0.3080  0.1975
 5503SOL    HW228146   3.987   2.124  15.169 -1.0076  2.1040  2.4245
 5504SOL     OW28147   3.597   2.802   7.733  0.2341 -0.5833  0.3215
 5504SOL    HW128148   3.603   2.748   7.653 -0.5479 -0.1815 -0.0038
 5504SOL    HW228149   3.681   2.848   7.738 -1.0074  1.6763  0.2314
 5505SOL     OW28150   1.238   3.017  17.602  0.3068  0.1106 -0.2738
 5505SOL    HW128151   1.180   2.961  17.550  0.0103 -2.3855  2.7156
 5505SOL    HW228152   1.252   2.962  17.679  0.8232  0.3176 -0.2198
 5506SOL     OW28153   0.554   3.477   4.306 -0.0064 -0.0064 -0.3133
 5506SOL    HW128154   0.471   3.481   4.355 -0.3196 -1.0095 -0.7578
 5506SOL    HW228155   0.531   3.497   4.215  5.0555  1.3944 -1.2522
 5507SOL     OW28156   3.467   4.673   4.958 -0.0112 -0.5400 -0.3722
 5507SOL    HW128157   3.532   4.728   5.002  0.7515 -0.7359 -1.2499
 5507SOL    HW228158   3.385   4.718   4.977  1.7323  1.7188  1.8418
 5508SOL     OW28159   0.883   0.820   7.956 -0.0956 -0.1580  0.3782
 5508SOL    HW128160   0.804   0.862   7.921 -1.6065 -0.7049  3.0556
 5508SOL    HW228161   0.954   0.848   7.899  0.4651 -0.1744  1.0769
 5509SOL     OW28162   4.528   3.821   1.526 -0.2802  0.6619 -0.0804
 5509SOL    HW128163   4.620   3.821   1.554 -1.0344 -0.9159  2.4480
 5509SOL    HW228164   4.529   3.876   1.448 -2.1970 -0.5800 -0.9739
 5510SOL     OW28165   1.624   2.512   6.945 -0.3909  0.0236 -0.6864
 5510SOL    HW128166   1.543   2.562   6.956  1.2502  2.3550  0.7432
 5510SOL    HW228167   1.587   2.426   6.925 -0.5174  0.3704 -1.9264
 5511SOL     OW28168   4.190   4.457   0.193  0.4877 -0.1556 -0.4120
 5511SOL    HW128169   4.162   4.496   0.110 -0.5932 -1.5468 -0.7025
 5511SOL    HW228170   4.109   4.448   0.244 -0.5771 -3.1284 -2.6304
 5512SOL     OW28171   2.534   1.833   1.995 -0.0358 -0.1728 -0.3991
 5512SOL    HW128172   2.600   1.872   1.939 -0.6251  2.1281  0.4674
 5512SOL    HW228173   2.521   1.747   1.955 -0.5296 -0.1546 -0.2841
 5513SOL     OW28174   1.510   0.194   4.861 -0.2496  0.4375 -0.0619
 5513SOL    HW128175   1.555   0.141   4.795  2.9351 -0.2835  2.6809
 5513SOL    HW228176   1.440   0.220   4.802 -0.7562  0.0555  0.3755
 5514SOL     OW28177   1.398   1.742   4.926 -0.0494  0.1599 -0.1022
 5514SOL    HW128178   1.363   1.828   4.904 -1.2960  0.1550  1.8835
 5514SOL    HW228179   1.321   1.693   4.954  0.6256 -1.8521 -1.7662
 5515SOL     OW28180   4.183   3.471  13.618 -0.5144 -0.6226 -0.6616
 5515SOL    HW128181   4.216   3.553  13.655 -2.7841 -0.4883  1.0633
 5515SOL    HW228182   4.157   3.413  13.690  1.9335  0.9898  1.5564
 5516SOL     OW28183   2.129   4.699   0.624 -0.0485  0.5072 -0.4197
 5516SOL    HW128184   2.198   0.015   0.664  1.5153 -1.5857 -0.3455
 5516SOL    HW228185   2.163   4.610   0.617 -3.5953 -0.7082 -1.8612
 5517SOL     OW28186   3.513   2.239   2.145  0.8466 -0.0680  0.0017
 5517SOL    HW128187   3.528   2.253   2.051 -1.1390  0.3006 -0.2601
 5517SOL    HW228188   3.534   2.325   2.181 -2.6452  0.7114  0.1918
 5518SOL     OW28189   0.483   4.551   3.473  0.3597 -0.0114  0.4555
 5518SOL    HW128190   0.411   4.560   3.412  2.1036 -0.9751 -1.7273
 5518SOL    HW228191   0.435   4.550   3.556 -0.1105 -0.9787  0.1691
 5519SOL     OW28192   2.352   0.069  10.786 -0.3743  0.0233 -0.5494
 5519SOL    HW128193   2.399   0.031  10.711  0.6148 -0.2258  0.1976
 5519SOL    HW228194   2.289   4.735  10.798 -0.1388 -0.1329 -0.2483
 5520SOL     OW28195   4.290   3.657  11.942  0.3397  0.2676  0.8056
 5520SOL    HW128196   4.245   3.730  11.986 -1.0082  0.3206 -0.6600
 5520SOL    HW228197   4.218   3.611  11.899  0.3420  0.1594  0.9165
 5521SOL     OW28198   2.395   0.015   2.769 -0.2973 -0.4571  0.3956
 5521SOL    HW128199   2.334   0.083   2.799 -2.0798 -1.0711 -1.7792
 5521SOL    HW228200   2.348   4.729   2.689 -0.5766 -1.5703  0.8904
 5522SOL     OW28201   1.757   4.268   5.626 -0.0883  0.1816 -0.3683
 5522SOL    HW128202   1.804   4.202   5.574 -2.1639 -0.6910 -1.1344
 5522SOL    HW228203   1.770   4.244   5.718  1.4703  0.9808 -0.3879
 5523SOL     OW28204   4.562   4.718   6.909  0.5927  0.0675 -0.1517
 5523SOL    HW128205   4.521   4.631   6.908  4.2584 -1.6054 -2.7181
 5523SOL    HW228206   4.484   0.035   6.896 -1.4598 -2.3718  1.9740
 5524SOL     OW28207   1.156   0.921   6.458  0.1653 -0.0737 -1.2221
 5524SOL    HW128208   1.159   1.006   6.503 -1.5719 -1.0674  0.7341
 5524SOL    HW228209   1.227   0.934   6.394  0.2455 -0.3110 -1.1799
 5525SOL     OW28210   0.338   0.987   4.465 -0.0227  0.0674 -0.8868
 5525SOL    HW128211   0.268   0.979   4.529  1.4140 -1.9628  0.4264
 5525SOL    HW228212   0.388   0.912   4.496 -0.5368 -0.6735 -1.8295
 5526SOL     OW28213   0.169   4.502  14.653  0.0918  0.0018 -0.0899
 5526SOL    HW128214   0.078   4.477  14.663  0.4078 -1.5724 -1.2442
 5526SOL    HW228215   0.185   4.447  14.576 -2.1158  0.5314 -0.9342
 5527SOL     OW28216   4.115   4.584   8.217 -0.2495  0.4493  0.4558
 5527SOL    HW128217   4.174   4.598   8.291 -0.7922  0.8984  0.8083
 5527SOL    HW228218   4.128   4.491   8.201 -1.8778  0.0544  1.4639
 5528SOL     OW28219   1.709   1.750   7.512 -0.2202  0.3357  0.6423
 5528SOL    HW128220   1.746   1.789   7.433 -0.6434  0.6590  0.6014
 5528SOL    HW228221   1.785   1.696   7.533 -0.0213  0.3522 -0.0335
 5529SOL     OW28222   2.014   0.611   5.384  0.0213  0.4504 -0.2717
 5529SOL    HW128223   2.052   0.688   5.427 -0.2479  0.5111 -0.1373
 5529SOL    HW228224   2.093   0.558   5.387 -0.2054  0.1097 -0.2734
 5530SOL     OW28225   0.532   2.927   9.036 -0.4652  0.0616  0.1077
 5530SOL    HW128226   0.476   2.963   9.105 -0.2155 -0.4447  0.5739
 5530SOL    HW228227   0.564   2.848   9.079 -1.9318  1.1883  3.3030
 5531SOL     OW28228   3.730   0.771   2.743 -0.2206  0.0316 -0.0432
 5531SOL    HW128229   3.772   0.842   2.792  0.0854  0.0532 -0.3346
 5531SOL    HW228230   3.694   0.820   2.669  2.1982  0.2068 -1.1161
 5532SOL     OW28231   4.163   2.106  15.986  0.6558 -0.7764 -0.1478
 5532SOL    HW128232   4.248   2.148  15.972 -0.0332  1.1919  1.6735
 5532SOL    HW228233   4.118   2.149  16.059  0.6404 -0.9008 -0.0852
 5533SOL     OW28234   3.217   1.481   4.610 -0.1515 -0.2893  0.6710
 5533SOL    HW128235   3.190   1.391   4.628  0.7576 -0.3922  1.4828
 5533SOL    HW228236   3.259   1.499   4.694 -0.5493 -1.9860  1.2227
 5534SOL     OW28237   0.914   1.996   7.228  0.2011 -0.1668 -0.3692
 5534SOL    HW128238   0.890   1.933   7.160  1.4250 -1.4502  0.3952
 5534SOL    HW228239   0.983   2.045   7.183 -0.5856  1.3759  0.0872
 5535SOL     OW28240   3.521   2.790   2.132  0.3183  0.1094  0.4911
 5535SOL    HW128241   3.470   2.870   2.120 -0.9530 -0.5837  1.2445
 5535SOL    HW228242   3.529   2.796   2.227 -1.2675 -1.0639  0.7007
 5536SOL     OW28243   0.235   0.012   2.393 -0.2707  0.0362 -0.2485
 5536SOL    HW128244   0.150   0.011   2.349 -0.4766  1.0910  0.1094
 5536SOL    HW228245   0.211   0.038   2.482  0.5569  2.1121 -0.6357
 5537SOL     OW28246   2.067   0.203   4.232 -0.2229 -0.4709 -0.4467
 5537SOL    HW128247   2.097   0.112   4.237  4.2685  1.0907  0.2901
 5537SOL    HW228248   2.034   0.205   4.322  0.5403 -0.1597 -0.1830
 5538SOL     OW28249   1.330   0.509   7.039  0.6437  0.3701 -0.1019
 5538SOL    HW128250   1.390   0.556   6.980 -2.6625  2.1251 -2.1032
 5538SOL    HW228251   1.246   0.549   7.016  0.3322  0.6424  1.5116
 5539SOL     OW28252   2.191   1.058  15.110  0.0645  0.2417  0.4386
 5539SOL    HW128253   2.261   1.122  15.098 -0.9388  0.9609 -1.5815
 5539SOL    HW228254   2.114   1.099  15.071 -0.1831 -1.6670 -1.1106
 5540SOL     OW28255   2.521   1.585   0.634 -0.3545  0.1379 -0.3103
 5540SOL    HW128256   2.583   1.598   0.562 -0.9903 -1.6077 -1.1794
 5540SOL    HW228257   2.456   1.655   0.631  1.7276  2.0019 -1.8284
 5541SOL     OW28258   0.034   2.563   8.594  0.2698  0.4028  0.0776
 5541SOL    HW128259   0.071   2.573   8.506  0.8737 -0.2662  0.2496
 5541SOL    HW228260   4.704   2.630   8.586 -0.1465 -0.0464 -0.1635
 5542SOL     OW28261   1.443   3.095   1.267 -0.6884  0.6502 -0.0856
 5542SOL    HW128262   1.500   3.105   1.190  0.1954 -1.6736  0.2670
 5542SOL    HW228263   1.489   3.147   1.332 -2.6507  1.3162  0.7512
 5543SOL     OW28264   4.312   1.652   8.288 -0.8011 -0.5734  0.2418
 5543SOL    HW128265   4.294   1.686   8.375 -2.9625  0.5003 -0.6290
 5543SOL    HW228266   4.240   1.701   8.248 -0.6295 -0.8686 -0.4284
 5544SOL     OW28267   4.662   4.314   7.501  0.1142  0.2156  0.6130
 5544SOL    HW128268   4.689   4.383   7.562  0.6594  1.8310 -1.4811
 5544SOL    HW228269   4.622   4.249   7.560  0.5957  0.0799  0.7909
 5545SOL     OW28270   3.861   0.299  17.302  0.1653 -0.2507  0.0179
 5545SOL    HW128271   3.825   0.387  17.291 -2.0763 -1.2844 -0.8930
 5545SOL    HW228272   3.921   0.321  17.374 -2.8254 -3.1051  3.3531
 5546SOL     OW28273   3.724   3.887  17.169 -0.3442 -0.1466  0.3171
 5546SOL    HW128274   3.700   3.907  17.078  3.2277  0.0748 -0.5842
 5546SOL    HW228275   3.687   3.966  17.210  0.3787  0.0596  0.5657
 5547SOL     OW28276   3.844   1.569   6.249 -0.5209  0.7739  0.0613
 5547SOL    HW128277   3.749   1.567   6.251 -0.5185  0.7499  0.1449
 5547SOL    HW228278   3.861   1.481   6.283  0.1926  0.3370 -1.4206
 5548SOL     OW28279   2.102   1.211   1.091  0.4479  0.5050  0.6289
 5548SOL    HW128280   2.178   1.265   1.110  1.0965  0.1098 -0.8691
 5548SOL    HW228281   2.137   1.123   1.088  1.0266  0.7115  1.4824
 5549SOL     OW28282   0.691   3.888   0.813 -0.2927 -0.1664 -0.3034
 5549SOL    HW128283   0.745   3.955   0.855 -0.2140 -0.4780  0.0983
 5549SOL    HW228284   0.747   3.845   0.748 -0.9325 -0.8476 -0.4033
 5550SOL     OW28285   0.073   0.057   3.055 -0.5529 -0.0115 -0.2695
 5550SOL    HW128286   0.139   4.725   3.048  1.5552  1.8982  0.8915
 5550SOL    HW228287   0.099   0.102   3.135  1.2330 -0.6598 -0.4774
 5551SOL     OW28288   0.150   3.916   7.515  0.2488  0.6150 -0.1078
 5551SOL    HW128289   0.116   3.827   7.517 -1.5310  1.3170  0.3397
 5551SOL    HW228290   0.224   3.906   7.455 -1.4298  0.5505 -2.1678
 5552SOL     OW28291   3.952   3.367   7.570 -0.4300  0.0862  0.8018
 5552SOL    HW128292   3.982   3.344   7.658  0.7160 -0.2465  0.3354
 5552SOL    HW228293   3.858   3.351   7.567 -0.7656  2.4565 -1.6369
 5553SOL     OW28294   4.490   1.658   2.824 -0.2369 -0.2743 -0.0304
 5553SOL    HW128295   4.411   1.638   2.875 -0.3541  0.6906  0.1527
 5553SOL    HW228296   4.473   1.744   2.788  0.7219  0.3624  1.0287
 5554SOL     OW28297   4.428   3.778  14.152  0.5850 -0.4626 -0.3163
 5554SOL    HW128298   4.479   3.762  14.073  0.2893 -1.6955 -0.2589
 5554SOL    HW228299   4.356   3.717  14.134 -0.7342  0.7268  0.8777
 5555SOL     OW28300   4.334   3.011   3.659  0.6095 -0.0923  0.2323
 5555SOL    HW128301   4.263   3.033   3.599 -1.0799  0.1206  2.2859
 5555SOL    HW228302   4.415   3.035   3.615 -0.4732 -0.6825 -2.0640
 5556SOL     OW28303   4.124   2.226   3.625 -0.0509 -0.1311 -0.7687
 5556SOL    HW128304   4.144   2.139   3.660  1.1069  0.8969  1.1387
 5556SOL    HW228305   4.203   2.273   3.603 -0.6751  1.1890 -0.1755
 5557SOL     OW28306   0.269   4.215  10.373  0.0153 -0.0003  0.1311
 5557SOL    HW128307   0.313   4.247  10.451  0.7487 -0.9049  0.0830
 5557SOL    HW228308   0.326   4.251  10.305 -0.6374  0.4709 -0.1662
 5558SOL     OW28309   2.594   0.754   8.192 -0.2568 -0.2737 -0.7367
 5558SOL    HW128310   2.545   0.713   8.263 -0.5768 -1.6225 -1.7316
 5558SOL    HW228311   2.633   0.827   8.239  0.0545 -1.1419  0.3407
 5559SOL     OW28312   2.945   3.066   8.204  0.3099 -0.2963  0.1696
 5559SOL    HW128313   2.909   2.994   8.255  0.5957 -0.9106 -0.5001
 5559SOL    HW228314   3.022   3.024   8.165 -0.1580  0.1959 -1.2728
 5560SOL     OW28315   1.469   4.308  10.866 -0.0632 -0.2885 -0.4477
 5560SOL    HW128316   1.455   4.391  10.819 -1.2310  0.5138  1.3163
 5560SOL    HW228317   1.496   4.258  10.789  0.5424 -1.5550  0.5961
 5561SOL     OW28318   3.632   4.601   4.527  0.8111 -0.9698 -0.0517
 5561SOL    HW128319   3.552   4.614   4.579  1.3256  1.3013  0.1588
 5561SOL    HW228320   3.597   4.558   4.449 -1.8500 -0.2581  0.7524
 5562SOL     OW28321   2.481   3.571   5.814  0.5635 -0.3227 -0.6076
 5562SOL    HW128322   2.478   3.486   5.858 -0.5764  0.5064  0.9136
 5562SOL    HW228323   2.492   3.635   5.885 -0.5450  0.2457 -0.9601
 5563SOL     OW28324   4.576   3.433   6.873  0.1407 -0.6231  0.1726
 5563SOL    HW128325   4.509   3.365   6.861 -0.0445 -0.2545 -0.9271
 5563SOL    HW228326   4.652   3.376   6.884 -1.7019 -3.1629 -0.2327
 5564SOL     OW28327   4.231   1.022  11.289 -0.4160 -0.3357 -0.3360
 5564SOL    HW128328   4.260   1.071  11.366 -1.0401 -1.6264  0.7159
 5564SOL    HW228329   4.279   1.060  11.215  0.9859  1.4653  1.5173
 5565SOL     OW28330   1.245   3.444   5.640  0.4117  0.1152 -0.3346
 5565SOL    HW128331   1.262   3.351   5.630  1.9239  0.2914  0.5210
 5565SOL    HW228332   1.217   3.460   5.550 -3.0059 -0.3016  0.6833
 5566SOL     OW28333   4.137   3.692  11.396 -0.0033  0.1570 -0.0671
 5566SOL    HW128334   4.121   3.720  11.486 -0.9195  0.3790 -0.2987
 5566SOL    HW228335   4.045   3.677  11.373 -0.2038  0.8597  0.2931
 5567SOL     OW28336   0.782   0.294   1.828  0.4681  0.9980 -0.1242
 5567SOL    HW128337   0.690   0.300   1.805 -0.0689  1.6662  2.2648
 5567SOL    HW228338   0.814   0.380   1.855  3.4175 -0.9067  2.5140
 5568SOL     OW28339   1.785   3.109   6.950  0.1654  0.2327 -0.3256
 5568SOL    HW128340   1.715   3.169   6.976  1.2065  1.7245 -0.9273
 5568SOL    HW228341   1.792   3.099   6.856 -0.1575 -0.1937 -0.3053
 5569SOL     OW28342   3.099   2.090   2.206  0.2658 -0.3817  0.4761
 5569SOL    HW128343   3.079   2.078   2.113  1.2782 -1.3714  0.3837
 5569SOL    HW228344   3.053   2.174   2.214  0.1948 -0.3462 -0.2707
 5570SOL     OW28345   3.747   3.402   3.835  0.7785  0.3880 -0.6492
 5570SOL    HW128346   3.842   3.413   3.846  0.5774  2.5374 -1.1359
 5570SOL    HW228347   3.737   3.453   3.755  0.5887  0.0654 -0.8307
 5571SOL     OW28348   2.123   4.255   3.229 -0.2099  0.2756  0.2979
 5571SOL    HW128349   2.162   4.303   3.156 -1.4221  0.2171 -0.3944
 5571SOL    HW228350   2.071   4.327   3.265  1.1539  0.8910  1.0220
 5572SOL     OW28351   0.970   2.581  16.879 -0.2256  0.2417 -0.3907
 5572SOL    HW128352   0.948   2.661  16.928  0.6985 -0.1239  0.6317
 5572SOL    HW228353   1.049   2.606  16.832 -0.1666  0.0404 -0.3990
 5573SOL     OW28354   4.217   2.389   9.020 -0.2993 -0.4591  0.3244
 5573SOL    HW128355   4.147   2.364   9.080 -0.0808  0.9890  1.1816
 5573SOL    HW228356   4.287   2.420   9.077 -0.2733  1.8771 -0.9703
 5574SOL     OW28357   3.734   0.387   7.674  0.2676  0.0261  0.5411
 5574SOL    HW128358   3.818   0.426   7.649  0.3187 -0.4674 -0.0530
 5574SOL    HW228359   3.693   0.467   7.708  0.8346  1.1181 -1.2987
 5575SOL     OW28360   3.046   2.274   6.250 -0.2955  0.0311 -0.2612
 5575SOL    HW128361   3.118   2.315   6.202 -1.0518  0.3267 -1.1465
 5575SOL    HW228362   3.025   2.345   6.310 -1.1581 -1.8378  1.6369
 5576SOL     OW28363   1.699   2.308   4.474  0.5480  0.9197  0.4260
 5576SOL    HW128364   1.708   2.381   4.412  0.2788  0.2384 -0.4078
 5576SOL    HW228365   1.749   2.333   4.551  0.3746  0.8288  0.5675
 5577SOL     OW28366   1.604   1.683  10.847  0.5306  0.4324  0.0277
 5577SOL    HW128367   1.526   1.633  10.871 -0.2433  0.4903 -2.4069
 5577SOL    HW228368   1.563   1.739  10.782  0.2803  0.1520 -0.0577
 5578SOL     OW28369   2.253   4.177  12.762  0.9769  0.5253  0.2067
 5578SOL    HW128370   2.255   4.109  12.829 -0.1935  1.7345  1.4674
 5578SOL    HW228371   2.161   4.172  12.735  0.9736  3.4731 -0.4112
 5579SOL     OW28372   3.487   4.363  14.922 -0.5351 -0.0418  0.3082
 5579SOL    HW128373   3.460   4.334  14.835  1.7751 -0.6688 -0.1869
 5579SOL    HW228374   3.572   4.403  14.905 -0.8399 -0.0914 -1.3029
 5580SOL     OW28375   3.619   3.750   1.090 -0.0041 -0.1213 -0.0137
 5580SOL    HW128376   3.545   3.809   1.078 -1.0317 -1.0739  1.5417
 5580SOL    HW228377   3.622   3.729   0.997  0.5623 -1.3754  0.2879
 5581SOL     OW28378   2.197   0.804  12.502 -0.0004 -0.1424  0.8320
 5581SOL    HW128379   2.142   0.777  12.576 -0.7085 -1.7977 -0.2956
 5581SOL    HW228380   2.205   0.898  12.515  0.0877 -0.1206  0.6178
 5582SOL     OW28381   1.227   1.716   3.496  0.2216 -0.1092  0.3166
 5582SOL    HW128382   1.236   1.809   3.517  1.4981 -0.4426  1.2296
 5582SOL    HW228383   1.133   1.714   3.483  0.3068  0.6670 -0.4268
 5583SOL     OW28384   0.369   0.458   0.940  0.5207 -0.3074  0.3037
 5583SOL    HW128385   0.313   0.511   0.883 -1.2290 -0.8820  1.4864
 5583SOL    HW228386   0.391   0.518   1.011 -0.1358 -1.1572  1.2249
 5584SOL     OW28387   4.063   4.214   1.137 -0.4563  0.7373  0.0477
 5584SOL    HW128388   4.046   4.306   1.119 -2.8747  0.7291  2.3618
 5584SOL    HW228389   4.022   4.173   1.061 -0.0286 -1.2882  0.8910
 5585SOL     OW28390   0.895   1.655   1.667 -0.0048  0.1888 -0.2779
 5585SOL    HW128391   0.906   1.668   1.572 -0.2106 -0.0356 -0.3343
 5585SOL    HW228392   0.802   1.666   1.681  0.1684  0.6002  0.4957
 5586SOL     OW28393   4.427   4.261   2.374 -0.4038 -0.3619  0.0114
 5586SOL    HW128394   4.331   4.267   2.369 -0.3409  0.8076  0.1835
 5586SOL    HW228395   4.461   4.272   2.285  2.4745  3.7226  1.5966
 5587SOL     OW28396   1.645   1.686   4.838 -0.1333 -0.4404  0.2791
 5587SOL    HW128397   1.556   1.682   4.873 -0.6579 -0.4571 -1.0309
 5587SOL    HW228398   1.680   1.770   4.867  0.1843 -1.0124  1.5381
 5588SOL     OW28399   1.623   2.242  10.235 -0.0505 -0.6061 -0.5420
 5588SOL    HW128400   1.703   2.274  10.276  0.3328 -0.9124 -1.0542
 5588SOL    HW228401   1.579   2.324  10.213  2.4291  1.2314  1.3559
 5589SOL     OW28402   1.272   0.641  15.956 -0.0508  0.4878 -0.0788
 5589SOL    HW128403   1.244   0.560  16.000  4.1993 -0.0908  1.5951
 5589SOL    HW228404   1.198   0.701  15.958 -1.8307 -1.7347  0.1169
 5590SOL     OW28405   3.805   1.951  13.310 -1.1535  0.4214  0.3098
 5590SOL    HW128406   3.806   1.899  13.391 -1.0324  1.4995  1.0059
 5590SOL    HW228407   3.755   1.907  13.242 -2.6490 -0.5499  2.0335
 5591SOL     OW28408   1.910   0.485   7.294  0.4053  0.0212  0.9711
 5591SOL    HW128409   1.873   0.435   7.366 -1.2909 -0.8671 -0.5222
 5591SOL    HW228410   2.000   0.502   7.322  1.5805  0.5370 -3.0668
 5592SOL     OW28411   0.563   1.150   3.781  0.1427  0.2501  0.1070
 5592SOL    HW128412   0.584   1.234   3.822  0.2628  0.5130 -0.5012
 5592SOL    HW228413   0.640   1.141   3.725 -1.2667  0.4535 -1.8704
 5593SOL     OW28414   3.789   3.598   4.902 -0.8247  0.2283  0.3560
 5593SOL    HW128415   3.864   3.611   4.961 -1.2370  0.0911  0.9050
 5593SOL    HW228416   3.724   3.644   4.954 -1.3019  1.2789 -1.1729
 5594SOL     OW28417   4.451   4.451  14.930  0.1189  0.1104  0.0255
 5594SOL    HW128418   4.423   4.525  14.876 -0.4716 -0.1749 -0.0640
 5594SOL    HW228419   4.529   4.491  14.967 -1.0816  0.5036  2.1657
 5595SOL     OW28420   1.819   4.577  15.499 -0.1885  0.2830 -0.0886
 5595SOL    HW128421   1.865   4.638  15.442  2.2058  0.0150  1.5365
 5595SOL    HW228422   1.743   4.549  15.449  0.5225 -2.5441  0.4171
 5596SOL     OW28423   1.061   4.436  17.644 -0.4852  0.6413 -0.0541
 5596SOL    HW128424   1.007   4.515  17.649  0.3783  1.2209  0.3260
 5596SOL    HW228425   1.151   4.468  17.636  0.2624 -1.1060  1.5365
 5597SOL     OW28426   3.482   2.414  12.615 -0.0910 -0.2717  0.0696
 5597SOL    HW128427   3.486   2.421  12.520 -0.3075  1.3922  0.1916
 5597SOL    HW228428   3.553   2.465  12.654  0.7307 -0.9419 -0.5494
 5598SOL     OW28429   0.997   2.294  16.647  0.3653 -0.9432  0.3700
 5598SOL    HW128430   1.045   2.278  16.729  0.3323  0.7430  0.7139
 5598SOL    HW228431   0.912   2.262  16.678  0.2427  1.9029  2.9830
 5599SOL     OW28432   4.238   3.505   4.991  0.5789 -0.2157  0.3773
 5599SOL    HW128433   4.156   3.529   5.035  1.2198  0.7464  1.0336
 5599SOL    HW228434   4.210   3.519   4.900 -1.9354 -2.4514  0.7887
 5600SOL     OW28435   0.195   2.891   6.236  0.0737 -0.0646 -0.0843
 5600SOL    HW128436   0.204   2.883   6.141 -1.2148  1.1452 -0.3117
 5600SOL    HW228437   0.217   2.984   6.244  1.3666 -0.4014  0.3877
 5601SOL     OW28438   1.088   2.491   4.851 -0.5205  0.2470 -0.2664
 5601SOL    HW128439   1.113   2.423   4.913 -0.5171  0.9496  0.5019
 5601SOL    HW228440   1.012   2.530   4.895 -0.6970  0.1603 -0.4954
 5602SOL     OW28441   1.936   1.148   7.573  0.1483  0.1456  0.0909
 5602SOL    HW128442   1.984   1.069   7.597  0.9318  0.8104  0.6740
 5602SOL    HW228443   1.899   1.173   7.657  2.5195  1.4054  0.7510
 5603SOL     OW28444   4.712   3.500   3.310 -0.5402 -0.0933  0.4745
 5603SOL    HW128445   4.634   3.552   3.293 -0.4754 -0.8934 -2.1995
 5603SOL    HW228446   0.037   3.569   3.334 -0.6148 -0.3322  1.3880
 5604SOL     OW28447   3.212   1.520   5.995 -0.0807 -0.2476 -0.9758
 5604SOL    HW128448   3.302   1.522   6.026 -0.1849  0.0907 -0.6836
 5604SOL    HW228449   3.215   1.447   5.934 -0.2248 -0.8483 -0.2746
 5605SOL     OW28450   0.717   2.566   4.472 -0.6574 -0.2623  0.7210
 5605SOL    HW128451   0.770   2.581   4.394  0.1840 -0.7514  1.2074
 5605SOL    HW228452   0.743   2.631   4.536  0.3000  0.1284 -0.0595
 5606SOL     OW28453   4.374   0.766   4.054  0.2487  0.7573  0.7521
 5606SOL    HW128454   4.287   0.726   4.059  0.4523 -0.1884 -3.0439
 5606SOL    HW228455   4.411   0.734   4.136  1.5701 -0.0092 -0.1558
 5607SOL     OW28456   3.453   0.255   4.426 -0.3253 -0.7810 -0.0018
 5607SOL    HW128457   3.460   0.343   4.391 -0.6163 -0.6624  0.2304
 5607SOL    HW228458   3.500   0.202   4.363  1.9954  0.4625  0.6959
 5608SOL     OW28459   1.622   1.782  16.341  0.0518 -0.3607 -0.4845
 5608SOL    HW128460   1.716   1.783  16.362  0.0172 -0.6938 -0.3234
 5608SOL    HW228461   1.597   1.700  16.384 -1.5068  0.6279  0.4972
 5609SOL     OW28462   2.656   3.762   5.976  1.0307  0.5944 -0.4111
 5609SOL    HW128463   2.744   3.744   6.009  1.3363  1.8474 -0.5383
 5609SOL    HW228464   2.666   3.794   5.886  2.2454  0.0279 -0.4799
 5610SOL     OW28465   3.637   3.785  15.800  0.6325  0.9886  0.6713
 5610SOL    HW128466   3.596   3.718  15.855  1.4110 -0.2488 -0.2608
 5610SOL    HW228467   3.726   3.750  15.799 -0.0488 -0.7474  0.1613
 5611SOL     OW28468   2.034   0.945   8.820 -0.1922  0.4188 -0.3132
 5611SOL    HW128469   2.032   0.996   8.738 -3.0620  0.5338 -0.1869
 5611SOL    HW228470   2.016   1.017   8.881  1.1577  0.2700  0.2485
 5612SOL     OW28471   2.113   3.256   2.894  0.1541  0.2220 -0.2922
 5612SOL    HW128472   2.026   3.268   2.856 -1.0515  0.5223  2.6195
 5612SOL    HW228473   2.177   3.279   2.826 -1.0955  2.4351 -0.7090
 5613SOL     OW28474   4.387   3.595   1.572 -0.6662 -0.2058  0.1368
 5613SOL    HW128475   4.459   3.649   1.540 -0.2472 -0.5228  0.5465
 5613SOL    HW228476   4.344   3.657   1.631  1.2104 -0.4007  1.6980
 5614SOL     OW28477   3.328   2.257   7.177 -0.6644 -0.7179 -0.1806
 5614SOL    HW128478   3.373   2.341   7.172 -0.5987 -0.7072  0.6330
 5614SOL    HW228479   3.274   2.268   7.255 -1.0250  0.0321 -0.5350
 5615SOL     OW28480   2.961   4.443  17.134 -0.3469 -0.2794 -0.1831
 5615SOL    HW128481   2.969   4.357  17.176  3.7720 -0.3658 -1.2104
 5615SOL    HW228482   3.000   4.419  17.050  1.7350  2.2865  0.0908
 5616SOL     OW28483   0.362   4.227  15.887  0.2857 -0.1888  0.0320
 5616SOL    HW128484   0.396   4.213  15.976  1.4375 -0.2383 -0.4050
 5616SOL    HW228485   0.399   4.314  15.872 -0.4838  0.2392  0.6794
 5617SOL     OW28486   4.504   4.670   2.369  0.6768  0.2317 -0.6246
 5617SOL    HW128487   4.544   4.588   2.341  2.1547  0.2388  1.4361
 5617SOL    HW228488   4.415   4.645   2.394  1.7038 -3.5657 -0.7958
 5618SOL     OW28489   3.676   3.777   2.138  0.2887 -0.0677 -0.1520
 5618SOL    HW128490   3.697   3.786   2.045  0.6670 -0.0184 -0.0597
 5618SOL    HW228491   3.595   3.829   2.139 -0.6007 -1.4629  0.6848
 5619SOL     OW28492   3.111   0.831   6.192 -0.2511  0.0678  0.2672
 5619SOL    HW128493   3.133   0.764   6.256 -1.1767 -0.4848  0.0124
 5619SOL    HW228494   3.016   0.840   6.197 -0.4237 -1.1327 -0.6103
 5620SOL     OW28495   2.769   1.695   8.781 -0.2552  0.1032 -0.1868
 5620SOL    HW128496   2.675   1.685   8.792 -0.4149  4.1071  1.9372
 5620SOL    HW228497   2.801   1.697   8.871  0.2814  0.9751 -0.4021
 5621SOL     OW28498   3.378   1.927  15.930  0.0782 -0.2624  0.1002
 5621SOL    HW128499   3.384   1.952  16.022  1.7039  0.1041 -0.1147
 5621SOL    HW228500   3.400   2.010  15.888  2.1463 -0.9620 -0.1944
 5622SOL     OW28501   2.884   0.132   8.269 -0.0975 -0.5390  0.5763
 5622SOL    HW128502   2.880   0.052   8.216  2.0620 -0.1807 -0.1302
 5622SOL    HW228503   2.795   0.166   8.256 -0.0755 -1.2246 -1.3964
 5623SOL     OW28504   0.739   4.377  11.796  0.4200 -0.6646 -0.2513
 5623SOL    HW128505   0.728   4.282  11.792 -0.4615 -0.7038  2.9594
 5623SOL    HW228506   0.820   4.375  11.746 -0.8108 -3.4881 -2.1425
 5624SOL     OW28507   1.657   0.357   5.609 -0.6686 -0.3367 -0.0912
 5624SOL    HW128508   1.728   0.370   5.673 -2.0170 -2.9563  1.9200
 5624SOL    HW228509   1.646   0.262   5.616 -0.4334 -0.4531 -1.2462
 5625SOL     OW28510   3.033   1.126   8.356 -0.6077 -0.3292  0.2517
 5625SOL    HW128511   3.104   1.189   8.360 -0.4369 -0.5142  0.1355
 5625SOL    HW228512   2.967   1.191   8.378  0.6941  1.1412 -0.2119
 5626SOL     OW28513   3.951   2.888   4.635  0.0531 -0.3906  0.4147
 5626SOL    HW128514   3.963   2.979   4.607  0.9696 -0.4434  0.6629
 5626SOL    HW228515   4.044   2.866   4.632  0.3026  0.9145 -1.4786
 5627SOL     OW28516   2.022   0.003   1.249 -0.8098  0.3210 -0.0378
 5627SOL    HW128517   2.019   0.095   1.276 -0.2544  0.1631  0.5736
 5627SOL    HW228518   1.941   4.705   1.284 -0.1810  1.7215  2.8232
 5628SOL     OW28519   1.764   2.628  15.204  0.4066  0.5131 -0.0204
 5628SOL    HW128520   1.775   2.647  15.298 -0.4684 -1.8015  0.5489
 5628SOL    HW228521   1.697   2.561  15.215  0.0700  1.0788  1.4081
 5629SOL     OW28522   4.230   1.317  16.209  0.0364  0.0843  0.1476
 5629SOL    HW128523   4.322   1.290  16.214  0.5857  1.8378 -0.3658
 5629SOL    HW228524   4.219   1.366  16.127 -1.2648 -0.1416  0.1853
 5630SOL     OW28525   4.561   2.483   2.284 -0.3972  0.4141  0.2240
 5630SOL    HW128526   4.582   2.485   2.191  2.0866  2.2402  0.8165
 5630SOL    HW228527   4.648   2.518   2.304 -0.8313  1.3542  0.4450
 5631SOL     OW28528   0.350   3.051   1.713  0.2694  0.6837  0.3992
 5631SOL    HW128529   0.367   3.145   1.722 -0.8573  1.0441 -1.4933
 5631SOL    HW228530   0.430   3.017   1.672  0.4225  1.1288  0.3292
 5632SOL     OW28531   2.139   1.415   5.809 -0.0512 -0.2938 -0.1622
 5632SOL    HW128532   2.163   1.420   5.717  0.2398  1.4771  0.0178
 5632SOL    HW228533   2.135   1.321   5.827 -2.2069 -0.3817 -1.1032
 5633SOL     OW28534   2.814   1.087   4.666  0.2357  0.3208 -0.0654
 5633SOL    HW128535   2.797   1.169   4.620  0.8761  0.1690 -0.5655
 5633SOL    HW228536   2.849   1.118   4.750 -0.9566 -1.2766  1.0165
 5634SOL     OW28537   3.569   4.451   4.287  0.1428 -0.0381  0.2421
 5634SOL    HW128538   3.613   4.380   4.241  1.3466 -0.7346  2.4743
 5634SOL    HW228539   3.478   4.425   4.295 -0.3007  0.6950 -2.6032
 5635SOL     OW28540   1.124   0.603   9.548  0.2143 -0.3491  0.4024
 5635SOL    HW128541   1.061   0.556   9.602 -0.9003 -0.9590 -1.4222
 5635SOL    HW228542   1.131   0.686   9.594 -0.7171  0.8445 -1.5962
 5636SOL     OW28543   2.747   1.451   9.988  0.4197  0.5290 -0.2660
 5636SOL    HW128544   2.782   1.394   9.919  1.3742 -1.7102  2.1066
 5636SOL    HW228545   2.763   1.416  10.075 -0.0919  1.1255  0.0671
 5637SOL     OW28546   2.815   1.641   9.345  0.6632  0.7717  0.3530
 5637SOL    HW128547   2.889   1.673   9.397  0.0698 -0.0779  1.7351
 5637SOL    HW228548   2.761   1.603   9.414 -0.1099  0.6503 -0.3249
 5638SOL     OW28549   2.123   1.091   4.538  0.2858 -0.4870 -0.1707
 5638SOL    HW128550   2.060   1.061   4.603  0.3567 -0.0331  0.1058
 5638SOL    HW228551   2.180   1.137   4.600 -1.3095  0.8963  0.2715
 5639SOL     OW28552   2.354   4.296   5.225 -0.4206 -0.6674 -0.4079
 5639SOL    HW128553   2.433   4.296   5.279  0.1339 -0.2816 -1.2219
 5639SOL    HW228554   2.388   4.342   5.148 -1.3854 -1.0296 -1.0426
 5640SOL     OW28555   0.189   1.270   8.761  0.2999 -0.0020  0.0546
 5640SOL    HW128556   0.265   1.296   8.814  0.2794 -0.0785  0.1220
 5640SOL    HW228557   0.215   1.290   8.672 -1.9537 -1.6287 -0.9784
 5641SOL     OW28558   1.763   2.459  11.698 -0.1945 -0.1554 -0.4485
 5641SOL    HW128559   1.671   2.479  11.681  0.1992  1.2965 -0.8820
 5641SOL    HW228560   1.805   2.493  11.618  1.6624 -1.4997 -0.0283
 5642SOL     OW28561   2.866   0.695  15.219  0.3617  0.5816 -0.0646
 5642SOL    HW128562   2.932   0.677  15.153 -0.5054 -2.5580 -0.0446
 5642SOL    HW228563   2.895   0.778  15.258  1.7392 -0.5435  1.2731
 5643SOL     OW28564   4.255   0.626  17.422  0.1510 -0.5850 -0.3136
 5643SOL    HW128565   4.266   0.638  17.328 -0.7774 -0.1371 -0.3711
 5643SOL    HW228566   4.204   0.706  17.434  1.9717  0.3431  1.2994
 5644SOL     OW28567   1.956   4.233   7.299  0.2518  0.0478  0.2482
 5644SOL    HW128568   1.943   4.219   7.393 -1.3101  2.0028  0.3024
 5644SOL    HW228569   1.959   4.143   7.266  0.0307  0.3149 -0.5026
 5645SOL     OW28570   2.682   1.915  12.132  0.1482 -0.0154  0.4877
 5645SOL    HW128571   2.655   1.938  12.220 -5.5949  0.6131 -1.4443
 5645SOL    HW228572   2.777   1.922  12.141  0.1581 -1.4388  1.3669
 5646SOL     OW28573   0.609   1.175  16.462  0.2604  0.3416  0.2234
 5646SOL    HW128574   0.604   1.152  16.555  0.1412  0.1974  0.1810
 5646SOL    HW228575   0.677   1.119  16.426  1.3709 -0.0757  2.9895
 5647SOL     OW28576   1.903   2.104   0.732 -0.2589 -1.0364 -0.3961
 5647SOL    HW128577   1.918   2.194   0.702 -3.3906  0.1178  1.4663
 5647SOL    HW228578   1.810   2.122   0.746 -0.0574 -0.0298 -0.3574
 5648SOL     OW28579   3.441   2.706   3.900 -0.1984  0.2435 -0.0273
 5648SOL    HW128580   3.436   2.754   3.982  2.4715  2.9344 -1.4756
 5648SOL    HW228581   3.526   2.664   3.909 -0.6521 -0.7417 -0.2873
 5649SOL     OW28582   0.672   1.592  15.183 -0.9672 -0.2566 -0.0051
 5649SOL    HW128583   0.606   1.555  15.124  0.0004 -1.6997 -0.2008
 5649SOL    HW228584   0.740   1.543  15.135  0.4806  0.8879  0.8729
 5650SOL     OW28585   3.067   0.076  16.479 -0.9164 -0.4636 -0.8059
 5650SOL    HW128586   2.995   0.122  16.523 -0.6929  0.4327 -1.3872
 5650SOL    HW228587   3.042   0.076  16.387 -0.9603  2.1218 -0.7828
 5651SOL     OW28588   0.337   0.385  11.830  0.0514  0.6110  0.1069
 5651SOL    HW128589   0.319   0.453  11.765  0.1703 -0.0490 -0.6148
 5651SOL    HW228590   0.253   0.350  11.857 -0.0419  1.1059  0.4611
 5652SOL     OW28591   2.259   4.708   2.542 -0.0713 -0.0271 -0.6469
 5652SOL    HW128592   2.277   4.734   2.451 -3.0312 -3.2385 -2.1471
 5652SOL    HW228593   2.164   4.715   2.545  0.0514  0.9030  1.2293
 5653SOL     OW28594   4.213   1.951  14.867  0.3650  0.4612  0.0652
 5653SOL    HW128595   4.245   1.993  14.787  0.4387 -1.3104 -0.8250
 5653SOL    HW228596   4.161   2.015  14.916  1.6735  1.2187  0.4671
 5654SOL     OW28597   1.794   1.848  10.950  0.1485 -0.1810  0.4690
 5654SOL    HW128598   1.718   1.790  10.942  0.6163 -0.5977 -0.9351
 5654SOL    HW228599   1.816   1.857  10.857 -0.2415  0.5156  0.4422
 5655SOL     OW28600   1.726   4.046   6.838 -0.6499 -0.8848  0.1575
 5655SOL    HW128601   1.733   4.081   6.749 -0.4834  2.5633  1.5126
 5655SOL    HW228602   1.659   4.103   6.875 -0.9650 -0.5408 -0.9498
 5656SOL     OW28603   2.346   3.760   2.888 -0.4636  0.4772  0.5502
 5656SOL    HW128604   2.394   3.745   2.969 -2.7830 -3.0469  1.2790
 5656SOL    HW228605   2.396   3.706   2.828 -1.8822  0.5083 -0.6838
 5657SOL     OW28606   0.611   4.153  12.096 -0.2295  0.2441 -0.3266
 5657SOL    HW128607   0.518   4.140  12.077  0.5219 -1.2279 -2.9388
 5657SOL    HW228608   0.646   4.076  12.050  1.6023  1.3761 -0.8536
 5658SOL     OW28609   1.510   4.500   6.900 -0.0538  0.0077  0.3356
 5658SOL    HW128610   1.432   4.492   6.844  0.0227  0.7496  0.1242
 5658SOL    HW228611   1.488   4.430   6.962  2.9330 -1.6363 -0.4930
 5659SOL     OW28612   1.665   1.485   6.871 -0.2268  0.5469  0.0096
 5659SOL    HW128613   1.623   1.504   6.787 -0.3720  0.2946  0.0275
 5659SOL    HW228614   1.594   1.500   6.933 -1.3364 -0.9394 -0.9255
 5660SOL     OW28615   0.722   4.548   4.507  0.7449  0.0585  0.1672
 5660SOL    HW128616   0.805   4.500   4.502  0.4211 -0.3522 -1.4102
 5660SOL    HW228617   0.707   4.559   4.413  0.3796 -1.5190  0.0416
 5661SOL     OW28618   2.946   0.259   3.599 -0.1729  0.2280 -0.1023
 5661SOL    HW128619   2.916   0.214   3.678 -0.7868  1.0539  0.1441
 5661SOL    HW228620   3.014   0.305   3.648 -1.8588  2.3324  0.2527
 5662SOL     OW28621   1.922   4.323   2.900 -0.3444  0.4377 -0.5358
 5662SOL    HW128622   1.950   4.410   2.872 -2.1310  1.0125 -0.5380
 5662SOL    HW228623   2.004   4.276   2.884 -0.7846 -0.1869 -0.9684
 5663SOL     OW28624   1.574   2.313   1.878 -0.4686 -0.2798  0.5273
 5663SOL    HW128625   1.482   2.293   1.859 -0.2590 -1.7687  1.0016
 5663SOL    HW228626   1.584   2.278   1.967 -0.6158 -1.2510  0.1691
 5664SOL     OW28627   2.332   4.082   1.366 -0.8480  0.1547  0.3513
 5664SOL    HW128628   2.313   3.998   1.325 -0.7361 -0.9067  2.4940
 5664SOL    HW228629   2.324   4.145   1.294 -2.5842 -0.8075 -0.2912
 5665SOL     OW28630   2.978   2.594   2.664  0.5576  0.7630 -0.6519
 5665SOL    HW128631   3.063   2.570   2.700  0.4635  1.1209 -0.2023
 5665SOL    HW228632   2.993   2.688   2.655 -0.6968  0.8398 -1.8624
 5666SOL     OW28633   0.229   4.162   2.885 -0.4497 -1.0955 -0.0903
 5666SOL    HW128634   0.232   4.235   2.823 -2.1640  0.0561  1.1653
 5666SOL    HW228635   0.320   4.133   2.876 -1.1837 -3.3868  0.1179
 5667SOL     OW28636   1.524   3.018  14.784 -0.0746 -0.0793 -0.2336
 5667SOL    HW128637   1.614   2.987  14.792  0.4245  1.4298  0.0678
 5667SOL    HW228638   1.505   2.959  14.711 -1.0982  2.1891 -1.8191
 5668SOL     OW28639   3.340   2.264   6.808  0.7897  0.0095 -0.2329
 5668SOL    HW128640   3.310   2.345   6.849  0.8996  0.6056 -1.3468
 5668SOL    HW228641   3.432   2.291   6.816  0.2719  1.2684  1.4928
 5669SOL     OW28642   0.537   3.846   6.522  0.4483 -0.3800  0.2975
 5669SOL    HW128643   0.562   3.798   6.443  0.1356  0.1317 -0.1106
 5669SOL    HW228644   0.552   3.938   6.500  1.2067 -0.0959  1.9890
 5670SOL     OW28645   2.158   0.608   6.320 -0.2478 -0.1354 -0.1034
 5670SOL    HW128646   2.211   0.630   6.396 -2.2836  1.2761  0.9050
 5670SOL    HW228647   2.224   0.580   6.256  0.2191  0.7538 -0.0111
 5671SOL     OW28648   1.393   3.857  13.057  0.5613  0.5253  0.0515
 5671SOL    HW128649   1.304   3.846  13.022  1.5235 -1.6242 -1.7403
 5671SOL    HW228650   1.388   3.813  13.142 -1.1358 -1.8282 -1.2496
 5672SOL     OW28651   4.641   3.664   1.913 -0.0134  0.3848  0.2239
 5672SOL    HW128652   4.601   3.733   1.966  0.6190 -0.4321  1.7866
 5672SOL    HW228653   4.585   3.591   1.937 -1.2965  0.9869 -0.9445
 5673SOL     OW28654   1.672   0.728   5.911  0.5651 -0.0867 -0.1535
 5673SOL    HW128655   1.601   0.792   5.903  0.0748 -0.6044  0.0471
 5673SOL    HW228656   1.629   0.655   5.866  0.0589  0.7316 -0.9883
 5674SOL     OW28657   0.885   0.854   2.627  0.6401  0.5739  0.3969
 5674SOL    HW128658   0.801   0.841   2.672  1.6738 -1.1237  1.8218
 5674SOL    HW228659   0.931   0.897   2.699  0.7321  2.4820 -0.7873
 5675SOL     OW28660   1.488   1.562   7.489  0.0849  0.9536 -0.0673
 5675SOL    HW128661   1.534   1.496   7.436  0.9543 -1.0460  3.1998
 5675SOL    HW228662   1.522   1.646   7.461 -1.8766  2.1261  1.0364
 5676SOL     OW28663   2.326   3.209   5.221  0.0105  0.5589 -0.1409
 5676SOL    HW128664   2.313   3.248   5.308 -1.9880  0.0662 -0.2226
 5676SOL    HW228665   2.254   3.147   5.219 -0.0866  0.6314  1.5299
 5677SOL     OW28666   1.197   3.347  14.697 -0.1702  0.1016  0.1791
 5677SOL    HW128667   1.199   3.355  14.792 -0.0337  2.7649 -0.0455
 5677SOL    HW228668   1.227   3.257  14.685  0.8205  0.5507 -0.6929
 5678SOL     OW28669   0.763   4.243   7.882  0.1829  0.1679 -0.1907
 5678SOL    HW128670   0.796   4.157   7.909 -3.5107 -1.9321 -2.4232
 5678SOL    HW228671   0.669   4.233   7.897  0.0380  1.2169 -0.3750
 5679SOL     OW28672   1.616   0.390   5.018 -0.0206 -0.0227 -0.1550
 5679SOL    HW128673   1.605   0.442   4.938 -0.3060  0.6477  0.3292
 5679SOL    HW228674   1.578   0.306   4.991  0.2228  0.3670 -1.7198
 5680SOL     OW28675   2.129   2.471   4.767 -0.2651 -0.0017 -0.2147
 5680SOL    HW128676   2.112   2.518   4.849 -1.3391  0.9332 -0.9741
 5680SOL    HW228677   2.168   2.393   4.807 -1.4191 -0.0188  0.8740
 5681SOL     OW28678   0.523   2.103  10.608  0.2392  0.0544  0.4685
 5681SOL    HW128679   0.560   2.178  10.653  3.1947 -1.7097  0.9978
 5681SOL    HW228680   0.606   2.067  10.577  0.0607 -1.3050  1.5693
 5682SOL     OW28681   4.007   1.801   6.218  0.3421 -0.2130  0.0295
 5682SOL    HW128682   3.955   1.722   6.233  0.2532  0.0131  0.9202
 5682SOL    HW228683   4.095   1.764   6.211 -0.5687 -2.4241  0.0007
 5683SOL     OW28684   3.077   0.749   2.731 -0.1821  0.1771  0.0807
 5683SOL    HW128685   3.022   0.809   2.781 -0.9532  1.6537 -2.5296
 5683SOL    HW228686   3.014   0.691   2.688  1.5692 -0.6131 -1.3962
 5684SOL     OW28687   3.377   1.170  14.196 -0.1512  0.3077 -0.2845
 5684SOL    HW128688   3.401   1.262  14.179  1.7854 -0.7205 -3.1099
 5684SOL    HW228689   3.288   1.192  14.224  0.0503 -0.3326  0.8941
 5685SOL     OW28690   2.658   3.954   8.979  0.1346 -0.1189  0.1128
 5685SOL    HW128691   2.684   4.008   9.054  2.4952 -0.3060 -0.5527
 5685SOL    HW228692   2.745   3.929   8.947 -0.9323 -1.1587 -1.9294
 5686SOL     OW28693   4.341   2.952   8.188 -0.1864 -0.0271 -0.2250
 5686SOL    HW128694   4.368   2.896   8.115 -2.1328  0.1295 -1.0417
 5686SOL    HW228695   4.391   3.032   8.170  0.8581 -1.0503 -1.8804
 5687SOL     OW28696   0.246   1.915   1.742  0.2287  0.2520 -0.0132
 5687SOL    HW128697   0.238   1.905   1.837  1.5802 -1.8089 -0.1164
 5687SOL    HW228698   0.328   1.865   1.733 -0.8341 -1.5371  0.1794
 5688SOL     OW28699   1.220   2.309   3.688 -0.4048 -0.1857 -0.2557
 5688SOL    HW128700   1.132   2.340   3.668  0.1619 -0.9096 -3.7961
 5688SOL    HW228701   1.265   2.297   3.605  4.7976 -1.7552  2.8050
 5689SOL     OW28702   1.287   3.852   6.638 -0.6036  0.6179  0.1156
 5689SOL    HW128703   1.316   3.812   6.556 -0.6151  0.0384  0.3888
 5689SOL    HW228704   1.209   3.797   6.651  1.0900 -2.0409 -0.9742
 5690SOL     OW28705   3.884   4.653   8.507  0.1268 -0.3125 -0.1540
 5690SOL    HW128706   3.911   4.688   8.423 -0.2023  0.7401  0.1774
 5690SOL    HW228707   3.788   4.651   8.503  0.1997 -1.5159 -1.2971
 5691SOL     OW28708   3.010   4.682   7.274 -0.5881  0.2558  0.0226
 5691SOL    HW128709   3.017   4.601   7.223 -0.7862 -0.5991  1.3340
 5691SOL    HW228710   2.976   4.649   7.357 -2.1511 -1.7738 -1.4306
 5692SOL     OW28711   0.404   1.842   7.241 -0.1891  0.3735 -0.3407
 5692SOL    HW128712   0.459   1.916   7.218 -0.5163  0.9411  0.7568
 5692SOL    HW228713   0.375   1.810   7.155 -2.2298  3.7800 -0.9121
 5693SOL     OW28714   2.304   3.213  10.584 -0.7412 -0.1045  0.0253
 5693SOL    HW128715   2.356   3.293  10.581 -0.8745  0.0182  1.2584
 5693SOL    HW228716   2.224   3.241  10.539 -0.1404  0.7966 -0.4916
 5694SOL     OW28717   4.202   3.527   7.519  0.0102 -0.5647 -0.4205
 5694SOL    HW128718   4.122   3.474   7.521  0.1576 -0.8048 -0.9373
 5694SOL    HW228719   4.268   3.459   7.504  0.3809 -0.4052  0.4490
 5695SOL     OW28720   2.638   4.528   1.704  0.8132  0.4813 -0.2553
 5695SOL    HW128721   2.653   4.440   1.737  1.7204  1.6859  2.6059
 5695SOL    HW228722   2.604   4.515   1.615  3.8264  0.5549 -1.3981
 5696SOL     OW28723   3.311   2.611   7.447 -0.4867 -0.1592  0.2909
 5696SOL    HW128724   3.358   2.601   7.364 -3.0105 -3.0907 -0.7806
 5696SOL    HW228725   3.312   2.521   7.479  1.6258 -0.0887  0.3876
 5697SOL     OW28726   0.345   3.838   8.953  0.7603 -0.1709  0.1949
 5697SOL    HW128727   0.353   3.769   9.018 -0.5158  0.6625  1.2250
 5697SOL    HW228728   0.256   3.871   8.968  1.2020  2.0663 -2.0996
 5698SOL     OW28729   2.567   1.285   6.610  0.1342 -0.3390  0.0131
 5698SOL    HW128730   2.501   1.348   6.639 -0.1566 -0.0925 -1.1717
 5698SOL    HW228731   2.544   1.210   6.665  1.4425 -1.2645 -0.7225
 5699SOL     OW28732   2.061   1.220   6.154 -0.5420  0.3427 -0.1046
 5699SOL    HW128733   2.007   1.299   6.150 -1.3210 -0.1218  1.2565
 5699SOL    HW228734   2.084   1.229   6.246 -0.3088  0.3537 -0.1621
 5700SOL     OW28735   1.706   1.293   0.935  0.1284 -0.3831 -0.2445
 5700SOL    HW128736   1.681   1.215   0.886  1.1567 -1.5294  1.0439
 5700SOL    HW228737   1.631   1.308   0.992 -0.2317 -0.9894 -0.5630
 5701SOL     OW28738   0.149   1.572   2.528  0.1504 -0.1763 -0.2667
 5701SOL    HW128739   0.086   1.517   2.481  1.2649 -2.2784  0.7045
 5701SOL    HW228740   0.089   1.643   2.553  2.7486  1.7832  0.4137
 5702SOL     OW28741   4.585   1.557   8.606  0.5282  0.1614 -0.0961
 5702SOL    HW128742   4.551   1.607   8.680  0.6888  2.1076 -1.3366
 5702SOL    HW228743   4.593   1.470   8.644 -2.4086 -1.1672 -2.4517
 5703SOL     OW28744   0.092   2.947   3.641 -0.4156 -0.6390  0.3028
 5703SOL    HW128745   0.018   2.997   3.607  0.1331  1.3975  2.1276
 5703SOL    HW228746   0.147   3.014   3.682 -0.4182  0.4703 -1.5074
 5704SOL     OW28747   4.464   4.198  17.747 -0.8848 -0.4598 -0.7174
 5704SOL    HW128748   4.510   4.115   0.015  1.6155  1.0600  0.0561
 5704SOL    HW228749   4.429   4.214   0.088 -0.3780  0.1940 -0.6302
 5705SOL     OW28750   1.847   3.581  17.080 -0.1460  0.0647 -0.1926
 5705SOL    HW128751   1.931   3.624  17.066  0.7546 -0.5702  3.3540
 5705SOL    HW228752   1.827   3.540  16.996  0.0804  0.8704 -0.6439
 5706SOL     OW28753   1.218   3.103   8.263 -0.0714 -0.0441 -0.2580
 5706SOL    HW128754   1.142   3.154   8.235  0.1707 -0.0753 -0.9773
 5706SOL    HW228755   1.286   3.130   8.200  1.4738  0.2554  1.5238
 5707SOL     OW28756   4.713   1.452   5.424 -0.1663 -0.0586  0.4224
 5707SOL    HW128757   4.671   1.457   5.338 -0.0145 -0.1861  0.3423
 5707SOL    HW228758   4.722   1.357   5.426  1.1749  0.0790  1.0455
 5708SOL     OW28759   3.623   2.772  10.352  0.4461  0.1039  0.3219
 5708SOL    HW128760   3.602   2.799  10.441 -0.2453 -2.1404  0.8253
 5708SOL    HW228761   3.716   2.766  10.369  0.4209 -0.6529  0.1993
 5709SOL     OW28762   0.637   3.046   5.544 -0.2407 -0.2790  0.2183
 5709SOL    HW128763   0.632   3.092   5.461  1.1267  0.0473  0.3235
 5709SOL    HW228764   0.587   3.112   5.593 -0.2519 -0.1702  0.0597
 5710SOL     OW28765   2.582   0.825   9.793  0.1943  0.1178  0.3411
 5710SOL    HW128766   2.601   0.849   9.884 -1.4627  0.7935  0.5058
 5710SOL    HW228767   2.663   0.845   9.745 -0.9808  3.9193 -0.0348
 5711SOL     OW28768   1.622   4.581   4.434 -0.0711 -0.3194  0.1471
 5711SOL    HW128769   1.599   4.500   4.480 -1.5022  0.2076  0.3678
 5711SOL    HW228770   1.543   4.600   4.384  1.2312  2.6418 -0.8364
 5712SOL     OW28771   3.789   4.392  11.972 -0.1480  0.2899 -0.5363
 5712SOL    HW128772   3.841   4.381  12.051  1.6258  0.3135 -1.6863
 5712SOL    HW228773   3.824   4.319  11.922 -1.7637 -0.8175 -0.0368
 5713SOL     OW28774   3.459   3.599   8.216 -0.0221 -0.1227  0.5112
 5713SOL    HW128775   3.404   3.522   8.225  1.1391 -0.9914  0.2963
 5713SOL    HW228776   3.422   3.667   8.271 -0.0444 -0.1212  0.4945
 5714SOL     OW28777   2.277   3.330   7.461  0.3074  0.4239 -0.3095
 5714SOL    HW128778   2.248   3.295   7.545  0.0152 -0.6928 -0.8795
 5714SOL    HW228779   2.259   3.424   7.467 -0.6753  0.1654  0.6994
 5715SOL     OW28780   4.047   0.918   5.586 -0.4337 -0.0920 -0.1159
 5715SOL    HW128781   4.065   0.824   5.597  1.4789  0.2480 -0.2952
 5715SOL    HW228782   4.106   0.961   5.648 -1.7347 -0.0210  1.0793
 5716SOL     OW28783   0.004   4.474   2.256 -0.3675  0.2404 -0.1621
 5716SOL    HW128784   0.071   4.409   2.277  0.5257  2.0003  2.5133
 5716SOL    HW228785   0.001   4.464   2.161  1.8335  1.4308 -0.3679
 5717SOL     OW28786   4.367   1.746  14.998 -0.0300  0.5046 -0.0441
 5717SOL    HW128787   4.377   1.808  14.926  0.8996 -0.8740 -1.0878
 5717SOL    HW228788   4.323   1.799  15.065 -0.9356  0.6961 -0.7940
 5718SOL     OW28789   0.400   0.174   4.313 -1.1698 -0.1441  0.2481
 5718SOL    HW128790   0.351   0.171   4.395 -1.4487 -1.2688  0.0344
 5718SOL    HW228791   0.402   0.266   4.285 -1.2798 -0.4446 -0.7523
 5719SOL     OW28792   2.782   3.800   4.835 -0.4253  0.0591 -0.2983
 5719SOL    HW128793   2.733   3.765   4.910  0.8212  0.2185  0.5808
 5719SOL    HW228794   2.723   3.866   4.797  0.7029  0.3930 -1.4409
 5720SOL     OW28795   4.306   3.063   7.876  0.1581  0.5662  0.4726
 5720SOL    HW128796   4.254   3.102   7.947 -1.3184  0.7125 -0.6884
 5720SOL    HW228797   4.356   3.140   7.848  2.7120 -0.8920  1.0310
 5721SOL     OW28798   2.292   0.950   4.094 -0.1464  0.0284 -0.0352
 5721SOL    HW128799   2.351   0.875   4.103  0.1538  0.2874  0.0979
 5721SOL    HW228800   2.242   0.921   4.017 -0.3604  0.5492 -0.0907
 5722SOL     OW28801   4.157   3.761  11.680 -0.0843 -0.6072  0.6147
 5722SOL    HW128802   4.083   3.722  11.727  0.2442  0.5425  2.0711
 5722SOL    HW228803   4.165   3.850  11.713 -1.9173 -0.8139  1.6518
 5723SOL     OW28804   3.822   1.231  11.228  0.1935  0.2286  0.6523
 5723SOL    HW128805   3.825   1.158  11.289 -1.3371  0.7925  1.4095
 5723SOL    HW228806   3.907   1.273  11.239 -0.1178  0.9577  0.3243
 5724SOL     OW28807   1.970   0.779   5.158  0.2049 -0.0626  0.5179
 5724SOL    HW128808   1.982   0.729   5.239  2.3892  2.3517  1.6837
 5724SOL    HW228809   1.878   0.758   5.143 -0.8274  3.6567  1.6706
 5725SOL     OW28810   0.541   0.336   8.521  0.4373  0.3376  0.2320
 5725SOL    HW128811   0.614   0.346   8.459  3.2268 -2.2748  3.0946
 5725SOL    HW228812   0.525   0.428   8.541 -0.1590 -0.0358  1.4511
 5726SOL     OW28813   2.647   1.059   8.390 -0.0272  0.0831  0.0877
 5726SOL    HW128814   2.725   1.017   8.428 -0.2136 -0.8224 -0.5361
 5726SOL    HW228815   2.578   1.027   8.448  1.7177 -0.0324  2.0856
 5727SOL     OW28816   4.314   0.515  15.907 -0.0906 -0.3909  0.5112
 5727SOL    HW128817   4.344   0.602  15.936  1.0548 -1.6135  3.0177
 5727SOL    HW228818   4.261   0.487  15.981 -2.3508  0.7384 -0.6923
 5728SOL     OW28819   3.336   1.924   2.659 -0.0029  0.2671  0.1481
 5728SOL    HW128820   3.383   1.852   2.617 -2.7624 -1.9516  0.8355
 5728SOL    HW228821   3.303   1.975   2.585 -0.7711  0.7682  0.8325
 5729SOL     OW28822   4.138   4.143   3.358  0.4234  0.2780 -0.3621
 5729SOL    HW128823   4.189   4.107   3.286 -0.0215  0.7570 -0.9173
 5729SOL    HW228824   4.053   4.106   3.335  1.3345 -0.5159 -2.4324
 5730SOL     OW28825   2.299   2.113  15.205  0.4221 -0.0283  0.5217
 5730SOL    HW128826   2.374   2.145  15.255  1.0018 -3.6528  2.0063
 5730SOL    HW228827   2.229   2.131  15.267  1.4186  0.6715  1.4459
 5731SOL     OW28828   2.019   2.096   9.480 -0.5888  1.0284  0.3888
 5731SOL    HW128829   2.073   2.152   9.423 -0.0496 -0.0480 -0.1551
 5731SOL    HW228830   2.018   2.132   9.569 -0.9444 -2.9283  1.9774
 5732SOL     OW28831   3.865   2.468   5.777 -0.0378 -0.4709  0.4235
 5732SOL    HW128832   3.785   2.446   5.825 -2.0683 -0.7276 -3.0350
 5732SOL    HW228833   3.929   2.470   5.848  0.5310 -2.0063 -0.0443
 5733SOL     OW28834   4.327   4.486   9.586 -0.2892 -0.2719  0.6647
 5733SOL    HW128835   4.387   4.429   9.538  0.0236  0.7432 -0.1519
 5733SOL    HW228836   4.248   4.433   9.587  0.5183 -1.4648  0.6537
 5734SOL     OW28837   3.305   2.886   6.622  0.6990 -0.1780 -0.3379
 5734SOL    HW128838   3.339   2.798   6.606  0.0653 -0.1168 -2.0710
 5734SOL    HW228839   3.257   2.903   6.541 -1.5470  0.6450  1.1758
 5735SOL     OW28840   0.519   1.989   5.531 -0.1411  0.2065  0.4294
 5735SOL    HW128841   0.472   1.909   5.555 -3.2906  1.3546 -1.8544
 5735SOL    HW228842   0.470   2.032   5.461 -0.7732 -1.7125 -0.3277
 5736SOL     OW28843   1.828   0.817   1.610 -0.0168  0.5507  0.5817
 5736SOL    HW128844   1.765   0.760   1.654 -0.8383  0.5152 -0.6280
 5736SOL    HW228845   1.785   0.901   1.629 -1.7914 -0.1968 -0.1882
 5737SOL     OW28846   1.595   3.566   1.520 -0.0877 -0.2453  0.0420
 5737SOL    HW128847   1.623   3.640   1.573  2.4496  0.3624 -2.1738
 5737SOL    HW228848   1.632   3.490   1.565 -2.3789 -1.5723 -0.2658
 5738SOL     OW28849   2.183   4.580  10.839 -0.2558  0.4820  0.7128
 5738SOL    HW128850   2.089   4.569  10.826 -0.1686  1.8251 -1.0321
 5738SOL    HW228851   2.198   4.535  10.922 -2.3113  1.9758  1.8918
 5739SOL     OW28852   3.323   2.327   5.413 -0.0541 -0.5797  0.4108
 5739SOL    HW128853   3.400   2.284   5.451  1.1940  2.3305  1.1659
 5739SOL    HW228854   3.273   2.260   5.366 -0.4564  1.0555 -1.4755
 5740SOL     OW28855   0.503   0.389   1.438 -0.4106 -0.0401 -0.1314
 5740SOL    HW128856   0.412   0.408   1.416 -0.8212 -0.5394  1.1616
 5740SOL    HW228857   0.524   0.427   1.524 -0.8697 -1.8294  0.7675
 5741SOL     OW28858   3.563   0.888   4.646  0.1117  0.4947  0.2153
 5741SOL    HW128859   3.569   0.948   4.572  1.7520 -1.3006 -1.0932
 5741SOL    HW228860   3.570   0.805   4.599 -0.0987  0.4241  0.3059
 5742SOL     OW28861   0.647   0.176   3.724  0.1482  0.7864 -0.0684
 5742SOL    HW128862   0.688   0.249   3.677  0.8557  0.4771  0.0725
 5742SOL    HW228863   0.650   0.121   3.646 -1.2182 -0.0375  0.4560
 5743SOL     OW28864   3.247   1.570   3.653  0.6179 -0.2775 -0.3365
 5743SOL    HW128865   3.299   1.607   3.582  1.8426  1.1279  1.2650
 5743SOL    HW228866   3.159   1.575   3.616 -0.4451 -1.1851  2.0395
 5744SOL     OW28867   4.044   4.530   4.922  0.5102  0.4373 -0.4693
 5744SOL    HW128868   3.952   4.512   4.900  0.4358  0.1527  0.0761
 5744SOL    HW228869   4.053   4.621   4.893  0.1409  0.5153 -0.3392
 5745SOL     OW28870   0.861   3.805   9.224  0.0710 -0.4733  0.3774
 5745SOL    HW128871   0.769   3.793   9.202 -0.0483 -0.0934  0.6688
 5745SOL    HW228872   0.899   3.746   9.159  0.3621 -1.1423  1.1489
 5746SOL     OW28873   3.602   4.683   5.224 -0.2440 -0.1877 -0.4198
 5746SOL    HW128874   3.573   4.592   5.226 -1.0181  0.0478 -0.7369
 5746SOL    HW228875   3.675   4.681   5.286 -0.4121 -4.6011 -0.3615
 5747SOL     OW28876   4.187   4.381   3.832 -0.5629  0.1692  0.2967
 5747SOL    HW128877   4.202   4.442   3.760 -0.7691  0.1417  0.2306
 5747SOL    HW228878   4.162   4.445   3.899 -1.0590  0.7637 -0.4662
 5748SOL     OW28879   0.841   3.110   7.769 -0.1516  0.2845  0.1753
 5748SOL    HW128880   0.912   3.062   7.812 -0.2828  0.2413  0.3459
 5748SOL    HW228881   0.889   3.191   7.751  1.7856 -1.1790 -1.2221
 5749SOL     OW28882   2.730   1.792  10.308  0.2982  0.5372  0.6856
 5749SOL    HW128883   2.808   1.835  10.275 -0.4022  1.5477  0.3341
 5749SOL    HW228884   2.698   1.862  10.367 -1.4506 -1.0245  1.6071
 5750SOL     OW28885   0.849   2.604   6.081  0.3864 -0.7008 -0.0152
 5750SOL    HW128886   0.903   2.681   6.091  0.1920 -0.3499 -1.6058
 5750SOL    HW228887   0.765   2.620   6.124  0.2338 -1.9970  0.1776
 5751SOL     OW28888   1.998   2.407   2.013 -0.1598  0.8419 -0.5265
 5751SOL    HW128889   2.001   2.429   2.106 -0.4356 -0.0950 -0.3033
 5751SOL    HW228890   1.965   2.490   1.978  0.1278  1.5137  0.8037
 5752SOL     OW28891   4.249   1.533  14.758 -0.3862 -0.0837 -0.3972
 5752SOL    HW128892   4.327   1.478  14.770 -0.3370 -0.7463 -3.8205
 5752SOL    HW228893   4.289   1.604  14.708  0.0492  0.9466  1.3998
 5753SOL     OW28894   1.356   3.479   4.599  0.6861 -0.0334  0.0300
 5753SOL    HW128895   1.332   3.390   4.572  1.7415  0.1410 -1.4828
 5753SOL    HW228896   1.347   3.530   4.519 -1.3681  0.4250  0.5475
 5754SOL     OW28897   1.794   2.269   8.816 -0.2953 -0.3413  0.1467
 5754SOL    HW128898   1.711   2.234   8.851 -0.5586  0.8481  0.6869
 5754SOL    HW228899   1.858   2.213   8.859 -1.1559 -0.8936  0.7308
 5755SOL     OW28900   3.432   4.465  13.514 -0.4600  0.3582  0.2263
 5755SOL    HW128901   3.416   4.434  13.425  5.0518  1.4961 -1.1515
 5755SOL    HW228902   3.456   4.387  13.564  0.2282 -0.9690 -2.1910
 5756SOL     OW28903   0.430   2.797   7.986  0.3960 -0.5667 -0.0688
 5756SOL    HW128904   0.516   2.820   7.952  0.9499 -0.1595  1.5897
 5756SOL    HW228905   0.409   2.876   8.037  1.0107 -0.0211 -0.6723
 5757SOL     OW28906   4.631   1.397   2.862 -0.2803 -0.4412 -0.5991
 5757SOL    HW128907   4.572   1.355   2.799 -1.0752 -0.7595  0.3709
 5757SOL    HW228908   4.590   1.483   2.871  1.5452  0.4571 -0.9656
 5758SOL     OW28909   0.376   0.676   3.965 -0.1985 -0.2162  0.0807
 5758SOL    HW128910   0.344   0.668   4.055 -0.5365  1.4392  0.1158
 5758SOL    HW228911   0.294   0.695   3.920  0.0230  0.5964  0.0125
 5759SOL     OW28912   1.112   3.299   1.751 -0.1467  0.0827 -1.0059
 5759SOL    HW128913   1.123   3.204   1.758  1.2482  0.5391  2.7291
 5759SOL    HW228914   1.127   3.323   1.842  0.6685 -1.5546 -0.7175
 5760SOL     OW28915   4.183   1.060   2.211 -0.1185  0.2671 -0.6244
 5760SOL    HW128916   4.156   0.970   2.224 -0.6389  0.4657 -0.3398
 5760SOL    HW228917   4.129   1.102   2.278 -1.3443 -2.9605  0.4055
 5761SOL     OW28918   4.531   2.408  13.939 -0.4624  0.4814  0.4054
 5761SOL    HW128919   4.451   2.423  13.989 -0.7787 -0.9653  0.3369
 5761SOL    HW228920   4.530   2.313  13.924 -2.6310  0.7425 -0.9703
 5762SOL     OW28921   1.605   2.141   5.017 -0.0510  0.3745  0.0216
 5762SOL    HW128922   1.535   2.175   4.961 -1.8748  0.7279  2.5122
 5762SOL    HW228923   1.636   2.063   4.971  0.5494  0.6906 -0.1213
 5763SOL     OW28924   0.606   4.524  12.428 -0.1640  0.2909 -0.3357
 5763SOL    HW128925   0.647   4.544  12.512 -0.6638  3.6961 -0.9085
 5763SOL    HW228926   0.667   4.560  12.364 -0.1862  1.5211  0.3396
 5764SOL     OW28927   0.875   2.814   2.115 -0.4392  0.4968  0.4571
 5764SOL    HW128928   0.832   2.729   2.110 -0.7497  0.7417 -0.9197
 5764SOL    HW228929   0.901   2.833   2.025 -0.1084  1.4758  0.7642
 5765SOL     OW28930   1.147   2.518   1.971 -0.4244  0.3906 -0.5150
 5765SOL    HW128931   1.171   2.579   1.901  2.9894 -2.2859 -1.6319
 5765SOL    HW228932   1.223   2.533   2.028  0.6403  0.4392 -1.9483
 5766SOL     OW28933   1.853   0.097   8.388  0.5511  0.1436 -0.0475
 5766SOL    HW128934   1.830   0.009   8.419 -0.1460  0.6745  0.9465
 5766SOL    HW228935   1.842   0.146   8.469  0.6342 -0.6048  0.4213
 5767SOL     OW28936   1.294   1.782  14.078 -0.4177 -0.2707  0.1423
 5767SOL    HW128937   1.300   1.712  14.143 -0.5275 -0.1121  0.3242
 5767SOL    HW228938   1.266   1.849  14.141 -0.6517  0.3966 -0.6696
 5768SOL     OW28939   2.429   0.660   8.676 -0.5121 -1.1714 -0.3263
 5768SOL    HW128940   2.425   0.666   8.772  0.8677  2.4674 -0.5001
 5768SOL    HW228941   2.468   0.573   8.665  1.5821 -0.0136 -1.9584
 5769SOL     OW28942   3.834   3.683   2.925  0.4181  0.0250 -0.2256
 5769SOL    HW128943   3.799   3.595   2.927  0.6640 -0.1149 -2.2386
 5769SOL    HW228944   3.917   3.648   2.892 -0.7872 -2.8348 -0.1662
 5770SOL     OW28945   3.066   2.206   9.776  0.1607  0.3352  0.0702
 5770SOL    HW128946   3.150   2.250   9.788  0.1507  0.5919 -0.8507
 5770SOL    HW228947   3.096   2.120   9.746  0.5989  0.0047  1.4305
 5771SOL     OW28948   1.623   1.103   3.765 -0.2482 -0.2374 -0.7702
 5771SOL    HW128949   1.560   1.108   3.837 -0.9761 -3.0072 -1.2115
 5771SOL    HW228950   1.603   1.180   3.712 -0.1524 -0.2800 -0.8671
 5772SOL     OW28951   0.673   1.761   9.154 -0.2600  0.5984  0.0557
 5772SOL    HW128952   0.708   1.672   9.158  0.8374  0.9858 -1.0698
 5772SOL    HW228953   0.644   1.757   9.062  0.0752 -1.9595  0.0514
 5773SOL     OW28954   3.981   2.494   1.149  0.1603 -0.1392  0.0745
 5773SOL    HW128955   4.021   2.554   1.086  1.3819  0.5109  1.4530
 5773SOL    HW228956   3.993   2.407   1.112  0.3796 -0.2970  0.5050
 5774SOL     OW28957   1.005   3.953   0.511  0.1243 -0.2397  0.0036
 5774SOL    HW128958   1.033   3.978   0.423  0.9920 -1.3870 -0.0403
 5774SOL    HW228959   0.992   4.029   0.568  1.5841  0.4562 -0.5998
 5775SOL     OW28960   1.013   4.697   1.413 -0.0614 -0.6413 -0.0663
 5775SOL    HW128961   1.020   4.669   1.322  1.1388 -2.0417  0.4489
 5775SOL    HW228962   1.059   4.620   1.447  0.8576  0.4185  1.1000
 5776SOL     OW28963   2.888   1.360   1.759 -0.1142 -0.0267  0.5229
 5776SOL    HW128964   2.818   1.339   1.697  0.9318 -0.6969 -0.4350
 5776SOL    HW228965   2.950   1.289   1.739 -0.6256 -0.5094  0.6588
 5777SOL     OW28966   0.458   4.131   1.758  0.4326  0.1672  0.1629
 5777SOL    HW128967   0.380   4.128   1.703  1.5042 -1.0765 -1.2880
 5777SOL    HW228968   0.454   4.223   1.782 -0.0210 -0.2867  1.8306
 5778SOL     OW28969   0.158   4.140  11.294  0.1133  0.5304  0.1611
 5778SOL    HW128970   0.150   4.234  11.306  0.2563  0.6332 -0.5205
 5778SOL    HW228971   0.115   4.112  11.374  2.0499 -3.7389 -0.2427
 5779SOL     OW28972   2.170   2.618   9.408  0.3536  0.3241  0.5580
 5779SOL    HW128973   2.222   2.561   9.465 -0.9222 -0.2704  1.1224
 5779SOL    HW228974   2.241   2.672   9.372  0.8139  0.1153  1.1343
 5780SOL     OW28975   2.291   3.458   6.609 -0.7547 -0.6160 -0.3636
 5780SOL    HW128976   2.373   3.431   6.566 -1.0225  0.5115 -1.6043
 5780SOL    HW228977   2.318   3.504   6.689 -0.1693 -1.4316 -0.0945
 5781SOL     OW28978   0.257   2.329   2.246  0.1491 -0.6822 -0.1340
 5781SOL    HW128979   0.279   2.236   2.246  1.7036 -0.3305 -1.4512
 5781SOL    HW228980   0.273   2.360   2.335  1.9615 -1.5815 -0.1357
 5782SOL     OW28981   1.771   1.128   1.581 -0.4869  0.4483 -0.5193
 5782SOL    HW128982   1.866   1.136   1.580 -0.2442 -2.1168  4.7143
 5782SOL    HW228983   1.750   1.177   1.502  0.8509  1.5848 -0.1699
 5783SOL     OW28984   0.183   3.343   0.907 -0.2926 -0.0687  0.5816
 5783SOL    HW128985   0.219   3.369   0.992 -0.6115 -2.0399  1.3105
 5783SOL    HW228986   0.258   3.361   0.849  0.4855  1.6571  2.1505
 5784SOL     OW28987   4.612   3.415   0.600 -0.6469  0.5407  0.0067
 5784SOL    HW128988   4.644   3.383   0.684  0.5307 -1.3800 -1.1981
 5784SOL    HW228989   4.592   3.502   0.636  1.9524  0.0266  2.6754
 5785SOL     OW28990   0.725   2.177   2.325  0.1180  0.0292  0.0199
 5785SOL    HW128991   0.740   2.228   2.245 -1.1683 -1.2892 -1.0699
 5785SOL    HW228992   0.804   2.127   2.346 -0.7858 -1.1147  0.7087
 5786SOL     OW28993   2.059   1.914   1.203 -0.4408 -0.0102  0.2747
 5786SOL    HW128994   2.067   1.819   1.206 -3.3566 -0.3599 -3.7509
 5786SOL    HW228995   2.148   1.929   1.236 -0.2989  1.1772 -0.6343
 5787SOL     OW28996   1.387   1.801   2.974  0.8579  0.0512  0.6652
 5787SOL    HW128997   1.416   1.715   3.003  3.0423 -0.2536 -2.4543
 5787SOL    HW228998   1.337   1.844   3.043  0.9615 -1.8007  1.9005
 5788SOL     OW28999   2.567   3.875   1.923 -0.3099  0.3306  0.3454
 5788SOL    HW129000   2.538   3.864   1.833 -1.8689  0.3861  0.8397
 5788SOL    HW229001   2.598   3.965   1.936  1.3966 -0.5990  2.7856
 5789SOL     OW29002   1.704   1.652  15.918 -0.1521 -0.0703 -0.2210
 5789SOL    HW129003   1.689   1.703  15.998 -4.2521  0.6740 -1.4599
 5789SOL    HW229004   1.797   1.673  15.904  0.4810 -1.3790  2.0308
 5790SOL     OW29005   3.439   3.916  17.218 -0.5105  0.0182  0.5824
 5790SOL    HW129006   3.351   3.905  17.181  0.6617  0.6971 -2.3748
 5790SOL    HW229007   3.482   3.980  17.162  0.0309 -1.1116 -0.2806
 5791SOL     OW29008   2.534   0.667   0.408 -0.5413 -0.6792  0.2685
 5791SOL    HW129009   2.605   0.725   0.435  0.0085 -1.2188 -0.0218
 5791SOL    HW229010   2.532   0.677   0.312  1.2176 -0.6091  0.2399
 5792SOL     OW29011   3.393   2.871  15.822 -0.0268 -0.1531  0.8357
 5792SOL    HW129012   3.304   2.850  15.794  0.7719 -1.3290 -0.8110
 5792SOL    HW229013   3.375   2.959  15.856  0.0971 -0.1089  0.7849
 5793SOL     OW29014   2.319   0.264   7.374  0.0905  0.0807 -0.8121
 5793SOL    HW129015   2.363   0.199   7.429 -3.1202 -1.0265  0.4476
 5793SOL    HW229016   2.233   0.271   7.416  1.7773  2.0009  2.3652
 5794SOL     OW29017   0.102   0.619   2.826 -0.1878 -0.0098 -0.1404
 5794SOL    HW129018   0.126   0.526   2.827  0.9006  0.2757  0.3079
 5794SOL    HW229019   0.098   0.627   2.921  0.6633 -0.8806 -0.0208
 5795SOL     OW29020   4.452   4.664  13.092 -0.3067  0.4121 -0.4918
 5795SOL    HW129021   4.478   4.589  13.039  2.4457  1.1594 -0.2303
 5795SOL    HW229022   4.375   4.699  13.048  0.7332  1.1920 -1.6865
 5796SOL     OW29023   4.638   3.086  11.690  0.2089  0.4003 -0.4260
 5796SOL    HW129024   4.575   3.075  11.760  1.2783 -1.8782  0.1909
 5796SOL    HW229025   4.625   3.168  11.642  2.3607  0.9617 -0.0584
 5797SOL     OW29026   2.097   3.622  17.715  0.3362 -0.2437  0.0512
 5797SOL    HW129027   2.171   3.661   0.015 -0.1659 -0.2642  0.8469
 5797SOL    HW229028   2.094   3.543   0.022  0.1760  0.2202  0.7107
 5798SOL     OW29029   2.760   0.472   8.362 -0.4515 -0.4239  0.0272
 5798SOL    HW129030   2.797   0.497   8.447  0.4852 -4.4222  0.7630
 5798SOL    HW229031   2.673   0.438   8.383 -0.3547 -0.5252  0.2598
 5799SOL     OW29032   0.268   4.370  16.749 -0.0684  0.2105 -0.1438
 5799SOL    HW129033   0.301   4.420  16.824  0.4714 -0.6610  0.1978
 5799SOL    HW229034   0.323   4.292  16.745  0.9568  0.8438  1.6926
 5800SOL     OW29035   3.580   4.093   4.361  0.2977  0.2950  0.3526
 5800SOL    HW129036   3.525   4.171   4.358 -0.5754 -0.3822 -1.2454
 5800SOL    HW229037   3.521   4.025   4.394 -0.3089  2.1351  3.1044
 5801SOL     OW29038   2.359   1.520   2.261  0.1387  0.3618  0.3061
 5801SOL    HW129039   2.410   1.571   2.323 -0.4079  2.2165 -0.7885
 5801SOL    HW229040   2.290   1.477   2.312 -1.4931  1.9359 -0.5441
 5802SOL     OW29041   4.658   0.012  14.004 -0.5647  0.3908  0.6953
 5802SOL    HW129042   4.631   0.045  13.918  0.2134 -1.1306 -0.1292
 5802SOL    HW229043   4.599   0.063  14.060  1.2348  1.7399  1.3578
 5803SOL     OW29044   2.013   1.010   7.106 -0.1071  0.0945 -0.0324
 5803SOL    HW129045   2.082   1.067   7.072  1.3819 -1.1926  0.8474
 5803SOL    HW229046   1.962   1.011   7.025  0.1177 -2.1940 -0.2153
 5804SOL     OW29047   0.386   2.163  15.324 -0.3704 -0.6568  0.3961
 5804SOL    HW129048   0.458   2.103  15.341  1.0473  0.6141 -1.1476
 5804SOL    HW229049   0.336   2.145  15.404  1.1084  0.9488  1.6890
 5805SOL     OW29050   3.930   3.903   4.908 -0.5564 -0.7293  0.6100
 5805SOL    HW129051   3.993   3.975   4.899 -0.0799 -1.2122  0.0855
 5805SOL    HW229052   3.855   3.932   4.856 -0.7117 -1.0137  0.6733
 5806SOL     OW29053   0.224   0.640   8.517 -0.4950  0.3099 -0.3978
 5806SOL    HW129054   0.135   0.672   8.510  0.3230  1.7640 -3.9157
 5806SOL    HW229055   0.246   0.637   8.424 -2.8792 -1.0695 -0.8965
 5807SOL     OW29056   3.741   2.900   8.591 -0.1427  0.5485 -0.4861
 5807SOL    HW129057   3.822   2.853   8.611 -0.8119  0.3869  1.8165
 5807SOL    HW229058   3.761   2.993   8.587  0.8682  0.4079  1.1203
 5808SOL     OW29059   1.644   4.042   8.125 -0.0091 -0.0989 -0.2273
 5808SOL    HW129060   1.597   3.979   8.070  1.9805 -1.8999  0.1308
 5808SOL    HW229061   1.628   3.997   8.208 -1.8184 -0.1003 -0.5696
 5809SOL     OW29062   3.853   3.479   5.915 -0.0193 -0.2023 -0.7145
 5809SOL    HW129063   3.770   3.509   5.953  0.4891  0.9271 -0.5159
 5809SOL    HW229064   3.883   3.559   5.872  0.0478  0.6280  0.8840
 5810SOL     OW29065   0.640   0.331   7.254  0.0133  0.2159 -0.0029
 5810SOL    HW129066   0.586   0.353   7.330  1.0565 -0.9901  1.0782
 5810SOL    HW229067   0.566   0.353   7.197 -0.5640  0.8390  0.9723
 5811SOL     OW29068   0.744   0.700   8.149  0.0516 -0.2603  0.5791
 5811SOL    HW129069   0.759   0.650   8.069  1.8442  1.5275 -0.1941
 5811SOL    HW229070   0.794   0.779   8.132 -0.0185  0.0520  1.8077
 5812SOL     OW29071   4.629   0.279   5.736 -0.2390  0.0209 -0.7339
 5812SOL    HW129072   4.720   0.303   5.716  0.6588 -2.1977  0.7055
 5812SOL    HW229073   4.630   0.230   5.818 -0.9308 -0.1882 -0.8499
 5813SOL     OW29074   1.396   3.143  12.662  0.2517  0.4760 -0.1191
 5813SOL    HW129075   1.313   3.137  12.614 -0.4928 -0.2684  1.2698
 5813SOL    HW229076   1.449   3.100  12.595  0.8922  1.8256 -0.4808
 5814SOL     OW29077   1.467   4.431   1.578  0.3717  0.1400  0.1845
 5814SOL    HW129078   1.408   4.504   1.596  0.4399 -0.0250  1.0666
 5814SOL    HW229079   1.441   4.397   1.492 -1.1961  0.8160  0.3970
 5815SOL     OW29080   3.096   0.536   2.272 -0.4906 -0.3905  0.1749
 5815SOL    HW129081   3.132   0.522   2.359  0.8783 -1.4548 -0.5764
 5815SOL    HW229082   3.175   0.533   2.219  1.5941 -0.4479  3.3192
 5816SOL     OW29083   3.367   3.554   2.139  0.0980  0.3096  0.5435
 5816SOL    HW129084   3.304   3.626   2.129  0.3123  0.3625 -0.4113
 5816SOL    HW229085   3.370   3.562   2.234  0.5465  0.0065  0.5546
 5817SOL     OW29086   0.062   2.473   5.018 -0.0295 -0.1702 -0.4624
 5817SOL    HW129087   0.017   2.430   4.945 -0.9924  0.4755 -0.2458
 5817SOL    HW229088   0.064   2.390   5.066 -0.3387  0.3762  0.4915
 5818SOL     OW29089   2.289   1.695   8.858 -0.0854 -0.2978  0.2414
 5818SOL    HW129090   2.240   1.696   8.940 -1.5395  1.2405 -0.6312
 5818SOL    HW229091   2.375   1.659   8.877  0.2896  0.5693  0.1809
 5819SOL     OW29092   2.191   4.366  15.656  0.4049 -0.3596 -0.4323
 5819SOL    HW129093   2.191   4.274  15.632 -0.2526 -0.3333 -0.5396
 5819SOL    HW229094   2.108   4.372  15.704  1.3142 -0.0817  1.1215
 5820SOL     OW29095   1.642   2.319  15.468 -0.0199 -0.2726 -0.1411
 5820SOL    HW129096   1.554   2.356  15.465 -0.4783 -1.4740 -1.5870
 5820SOL    HW229097   1.630   2.241  15.523  3.0564 -0.6474 -0.0032
 5821SOL     OW29098   0.713   1.520   3.600  0.5283 -0.1685 -0.2801
 5821SOL    HW129099   0.711   1.596   3.542  3.1990  0.1588  0.0288
 5821SOL    HW229100   0.777   1.550   3.665 -0.0104 -0.7817  0.5340
 5822SOL     OW29101   0.789   0.711   4.933 -0.3519  0.8970 -0.2684
 5822SOL    HW129102   0.711   0.661   4.957  0.0571  0.3299 -0.1225
 5822SOL    HW229103   0.854   0.644   4.908 -0.8526  0.6005 -0.7738
 5823SOL     OW29104   0.078   3.032  11.079  1.1577  0.2198 -0.2641
 5823SOL    HW129105   0.105   2.940  11.074 -0.6015 -0.5950  4.5548
 5823SOL    HW229106   0.162   3.078  11.079  0.5663  1.2971 -0.9295
 5824SOL     OW29107   3.290   0.619   1.295 -0.7139 -0.0608  0.3072
 5824SOL    HW129108   3.264   0.527   1.291  3.1783 -1.0757 -2.3908
 5824SOL    HW229109   3.213   0.675   1.300  0.5940  1.4103  3.5585
 5825SOL     OW29110   2.499   2.428   6.814 -0.2325  0.0192 -0.5726
 5825SOL    HW129111   2.422   2.396   6.768 -0.4278 -0.2455 -0.0639
 5825SOL    HW229112   2.495   2.523   6.828 -1.3124 -0.2899  1.2218
 5826SOL     OW29113   2.036   4.187   2.045 -0.0935  0.7714  0.3216
 5826SOL    HW129114   2.121   4.144   2.054 -1.2253 -1.4658  0.1971
 5826SOL    HW229115   2.001   4.145   1.966 -2.2242  1.2331  1.0279
 5827SOL     OW29116   0.606   4.732   8.913  0.0817 -0.5765  0.1439
 5827SOL    HW129117   0.633   4.687   8.993 -0.5798 -1.9360 -0.4067
 5827SOL    HW229118   0.652   4.679   8.848  1.7467  0.3510  0.5741
 5828SOL     OW29119   1.958   4.537   0.315  0.4110 -0.4060  0.4130
 5828SOL    HW129120   1.981   4.620   0.357 -3.1078  1.2263 -0.9070
 5828SOL    HW229121   2.041   4.522   0.270  1.3442 -1.3590  2.4049
 5829SOL     OW29122   3.968   0.622   9.388 -0.2920  0.1781 -0.1549
 5829SOL    HW129123   3.905   0.637   9.459  0.2407  1.0135  0.1308
 5829SOL    HW229124   3.992   0.710   9.361 -0.3376  0.1687 -0.2253
 5830SOL     OW29125   0.254   1.504   3.171  1.0975  0.1659 -0.1476
 5830SOL    HW129126   0.302   1.438   3.221 -0.2443 -0.4934  0.2757
 5830SOL    HW229127   0.217   1.458   3.096  0.7600  1.4940 -0.7799
 5831SOL     OW29128   0.652   3.852   3.692  0.7648  0.4947  0.1871
 5831SOL    HW129129   0.716   3.802   3.643 -0.5901 -2.8711  1.8529
 5831SOL    HW229130   0.673   3.819   3.779  0.2573 -0.4053 -0.0339
 5832SOL     OW29131   3.988   4.721   4.164  0.0862 -0.2548 -0.1072
 5832SOL    HW129132   4.006   4.635   4.125  1.1475  1.6611 -3.8040
 5832SOL    HW229133   3.921   4.693   4.226 -0.3832 -1.0154 -0.9601
 5833SOL     OW29134   4.458   0.692  17.593  0.3057  0.8582  0.3265
 5833SOL    HW129135   4.478   0.627  17.660 -1.0158 -0.6832 -0.7765
 5833SOL    HW229136   4.382   0.648  17.555  0.5615 -1.2180  2.2632
 5834SOL     OW29137   1.350   2.394   3.472 -0.4652  0.2561  0.4093
 5834SOL    HW129138   1.428   2.439   3.437 -1.0043  2.1371  1.6327
 5834SOL    HW229139   1.292   2.398   3.396 -1.0768  0.5185  0.8925
 5835SOL     OW29140   1.309   1.182  12.712 -0.5161 -0.0056  0.4983
 5835SOL    HW129141   1.392   1.167  12.665  0.6559  0.6858  2.3405
 5835SOL    HW229142   1.262   1.240  12.652 -2.7922 -0.6883  1.6588
 5836SOL     OW29143   2.069   3.002   8.435  0.3062 -0.6630 -0.2060
 5836SOL    HW129144   2.075   3.024   8.528 -1.5990 -0.0645 -0.2229
 5836SOL    HW229145   1.990   2.947   8.442 -0.1616  0.0470  0.0856
 5837SOL     OW29146   0.946   3.629   2.443  0.1748 -0.0355  0.0118
 5837SOL    HW129147   0.913   3.678   2.368  0.8290  0.1680 -0.1496
 5837SOL    HW229148   0.939   3.544   2.400  2.3052 -1.3769  2.2856
 5838SOL     OW29149   4.548   2.477  14.215 -0.4299 -0.7517  0.0043
 5838SOL    HW129150   4.568   2.501  14.305 -1.1545 -0.0527 -0.0169
 5838SOL    HW229151   4.468   2.424  14.222 -1.2474  0.2349 -1.7445
 5839SOL     OW29152   3.306   1.799   6.153 -0.1999  0.0552 -0.3774
 5839SOL    HW129153   3.303   1.834   6.242 -1.3608  0.2823 -0.5023
 5839SOL    HW229154   3.303   1.705   6.166  0.4180  0.5434  3.2158
 5840SOL     OW29155   1.267   1.861  14.719 -1.0345 -0.0421 -0.0692
 5840SOL    HW129156   1.182   1.867  14.762 -0.3595  2.1542  0.9367
 5840SOL    HW229157   1.293   1.769  14.714  0.8386  0.4386  0.7855
 5841SOL     OW29158   3.683   1.169   6.809 -0.2381  0.0142  0.4739
 5841SOL    HW129159   3.591   1.142   6.805 -0.3745  0.6725 -0.9776
 5841SOL    HW229160   3.650   1.257   6.824  0.7463  0.4875 -0.1233
 5842SOL     OW29161   0.258   4.106  11.674  0.4609  0.4286 -0.5475
 5842SOL    HW129162   0.215   4.148  11.749 -1.6335  2.5162 -2.9382
 5842SOL    HW229163   0.347   4.095  11.709  0.8638 -2.0744 -2.3916
 5843SOL     OW29164   1.131   3.733   3.691  0.0794  0.2114 -0.3150
 5843SOL    HW129165   1.178   3.816   3.681  1.7891 -0.7683 -0.3357
 5843SOL    HW229166   1.130   3.718   3.785 -1.6917 -1.4347 -0.5953
 5844SOL     OW29167   1.867   3.703   0.714  0.1885 -0.8256 -0.4279
 5844SOL    HW129168   1.882   3.785   0.667 -0.7191 -2.2298 -3.1498
 5844SOL    HW229169   1.855   3.646   0.638  1.1760  0.3579 -1.4639
 5845SOL     OW29170   0.699   2.005   9.614 -0.2661 -0.0304  0.0366
 5845SOL    HW129171   0.662   1.939   9.555 -0.8798 -0.8490  1.3318
 5845SOL    HW229172   0.684   1.980   9.705 -0.3007  1.4040  0.4314
 5846SOL     OW29173   0.185   0.816   3.773 -0.7607 -0.2110 -0.5324
 5846SOL    HW129174   0.226   0.899   3.744  1.5560 -1.2449 -0.2472
 5846SOL    HW229175   0.151   0.848   3.856  0.2078 -0.3529 -0.0802
 5847SOL     OW29176   1.476   1.994  10.087  0.0550  0.5180 -0.1504
 5847SOL    HW129177   1.511   1.989  10.175 -2.1593 -2.0750  0.5537
 5847SOL    HW229178   1.547   2.005  10.024 -0.2490  0.8160 -0.4442
 5848SOL     OW29179   3.993   4.362  10.429 -0.2475  0.5913 -0.2672
 5848SOL    HW129180   3.921   4.416  10.397  1.0037  2.0734 -0.5562
 5848SOL    HW229181   3.950   4.276  10.434 -0.8671  1.0196  1.7349
 5849SOL     OW29182   3.930   3.164  14.032  0.3758  0.3399  0.1577
 5849SOL    HW129183   3.858   3.212  13.992 -0.5075 -0.5696  0.6696
 5849SOL    HW229184   3.906   3.160  14.124 -0.9518  0.1184 -0.2005
 5850SOL     OW29185   1.639   1.895  10.379 -0.7573 -0.2067  0.1343
 5850SOL    HW129186   1.693   1.965  10.416 -0.6255 -0.0515 -0.3438
 5850SOL    HW229187   1.714   1.842  10.351  0.7183  0.0406  3.6026
 5851SOL     OW29188   0.155   1.844   8.350  0.4045  0.1152 -0.2854
 5851SOL    HW129189   0.189   1.932   8.367 -0.7080  0.5498 -0.3327
 5851SOL    HW229190   0.169   1.808   8.438 -2.7055 -0.0280  0.1315
 5852SOL     OW29191   3.155   3.701   3.818  0.5285  0.4039 -0.1150
 5852SOL    HW129192   3.068   3.705   3.779 -1.0722  0.7946  3.4818
 5852SOL    HW229193   3.137   3.680   3.909 -0.2095  1.6997  0.0337
 5853SOL     OW29194   3.717   2.226  10.291 -0.0509  0.0360  0.5756
 5853SOL    HW129195   3.716   2.139  10.250 -0.1365  0.1647  0.3063
 5853SOL    HW229196   3.800   2.236  10.338 -0.0386  3.3672 -0.1441
 5854SOL     OW29197   4.290   2.179   6.976 -0.1070  0.1475 -0.5765
 5854SOL    HW129198   4.215   2.128   7.006  1.1028 -0.2803  1.7512
 5854SOL    HW229199   4.304   2.148   6.887 -0.3897  0.9186 -0.8863
 5855SOL     OW29200   3.875   1.289  14.551  0.1562  0.0835 -0.1192
 5855SOL    HW129201   3.907   1.365  14.600  0.0988 -1.0522  1.6640
 5855SOL    HW229202   3.844   1.337  14.473 -0.1473 -0.4267 -0.3110
 5856SOL     OW29203   1.035   4.599   5.506 -0.0760 -0.1094 -0.4981
 5856SOL    HW129204   1.090   4.555   5.571 -0.9958  2.2031  1.8019
 5856SOL    HW229205   1.097   4.595   5.433  1.3180  0.0250  0.6829
 5857SOL     OW29206   2.340   3.052  15.831 -0.0119  0.3523  0.3200
 5857SOL    HW129207   2.347   3.145  15.809  3.4286  0.3673  1.4228
 5857SOL    HW229208   2.289   3.045  15.911 -0.9261 -0.1474 -0.3050
 5858SOL     OW29209   0.896   2.045   1.744 -0.2489  0.4079 -0.7552
 5858SOL    HW129210   0.951   1.970   1.766 -0.9574  0.5458  1.4534
 5858SOL    HW229211   0.968   2.097   1.707 -0.6233  2.0683  0.8160
 5859SOL     OW29212   1.932   1.391   1.894 -1.0267 -0.8078  0.2692
 5859SOL    HW129213   1.940   1.350   1.808 -1.7150  0.0035 -0.1818
 5859SOL    HW229214   1.950   1.482   1.869 -0.7663 -0.2139  2.5504
 5860SOL     OW29215   2.881   2.090   0.266  0.7405  0.1625  0.1572
 5860SOL    HW129216   2.807   2.133   0.309  1.5662  1.5563  0.1792
 5860SOL    HW229217   2.945   2.161   0.257 -0.7910  0.9957 -3.7565
 5861SOL     OW29218   0.812   4.061   5.575  0.6154 -0.1212 -0.2971
 5861SOL    HW129219   0.724   4.078   5.541  0.4628 -0.8566 -0.2633
 5861SOL    HW229220   0.860   4.105   5.505  0.8580 -0.3650 -0.2850
 5862SOL     OW29221   2.434   0.659   4.470  0.3258  0.1402  0.4160
 5862SOL    HW129222   2.423   0.754   4.464 -1.6828  0.0965  3.2548
 5862SOL    HW229223   2.526   0.655   4.497 -0.2798  0.8388  2.6522
 5863SOL     OW29224   4.071   2.363  14.288 -0.1707 -0.2420  0.0260
 5863SOL    HW129225   3.993   2.394  14.336  1.1724  0.8532  1.5143
 5863SOL    HW229226   4.038   2.288  14.238  0.4965 -0.1466 -0.5539
 5864SOL     OW29227   4.308   1.859   7.100 -0.1972 -0.4890  0.3707
 5864SOL    HW129228   4.327   1.887   7.010 -3.6842  1.6753  0.2938
 5864SOL    HW229229   4.237   1.921   7.117 -2.4659 -2.9621 -0.0087
 5865SOL     OW29230   2.917   0.863   3.917 -0.0783  0.1942  0.0684
 5865SOL    HW129231   2.942   0.885   4.007  1.2875 -2.4063  0.3331
 5865SOL    HW229232   2.959   0.777   3.922 -0.3658  0.0399 -0.1460
 5866SOL     OW29233   0.458   4.622  14.704  0.2239  0.0754  0.6243
 5866SOL    HW129234   0.397   4.672  14.650 -0.1362 -1.6168 -0.5627
 5866SOL    HW229235   0.479   4.680  14.777  0.8870  1.5572 -0.7436
 5867SOL     OW29236   3.266   3.642   4.336 -0.4328  0.5457 -0.8955
 5867SOL    HW129237   3.326   3.572   4.310  1.0246  1.6995 -0.6867
 5867SOL    HW229238   3.232   3.600   4.415  2.2322 -2.3706 -1.2945
 5868SOL     OW29239   0.638   3.853  17.632  0.1295  0.0699  0.4888
 5868SOL    HW129240   0.679   3.884  17.551 -0.4393  0.2639  0.2729
 5868SOL    HW229241   0.613   3.764  17.609  0.3989  0.0234  0.3730
 5869SOL     OW29242   1.865   2.428   4.267 -0.0332 -0.1496 -0.3205
 5869SOL    HW129243   1.957   2.444   4.287  0.9364 -2.7140 -2.7112
 5869SOL    HW229244   1.851   2.488   4.194  1.1281  0.7959  0.2388
 5870SOL     OW29245   2.951   1.171   6.351 -0.7634  0.0201 -0.2818
 5870SOL    HW129246   2.890   1.245   6.348  0.9732  1.5010  1.6707
 5870SOL    HW229247   3.007   1.196   6.277  0.5941 -0.7136  0.5072
 5871SOL     OW29248   3.236   2.874  15.263 -0.1636  0.0121  0.9360
 5871SOL    HW129249   3.209   2.882  15.355  2.5838  0.6687  1.6684
 5871SOL    HW229250   3.322   2.834  15.271 -0.4602 -0.8362 -0.1003
 5872SOL     OW29251   2.147   0.310   8.435 -0.0044 -0.3178  0.2285
 5872SOL    HW129252   2.190   0.289   8.517 -0.5016  0.9886  0.8317
 5872SOL    HW229253   2.147   0.406   8.429  1.5766 -0.3859 -1.0060
 5873SOL     OW29254   1.337   2.016   9.011  0.8035  0.0738  0.0865
 5873SOL    HW129255   1.281   2.093   9.020 -2.1631 -2.1455  0.5965
 5873SOL    HW229256   1.278   1.947   8.980  0.9828 -0.4711  0.9637
 5874SOL     OW29257   2.852   4.453   3.947  0.7004 -0.0143  0.4776
 5874SOL    HW129258   2.921   4.493   3.895  0.0373 -0.4876 -0.7610
 5874SOL    HW229259   2.902   4.375   3.971  0.3466 -0.6242 -0.7783
 5875SOL     OW29260   0.256   3.535   5.966  0.0340 -0.0418  0.9687
 5875SOL    HW129261   0.275   3.628   5.979 -0.2900  0.2902 -0.8883
 5875SOL    HW229262   0.190   3.541   5.896  3.7413  0.6025 -2.4363
 5876SOL     OW29263   1.884   0.509   8.011 -0.0734 -0.5299 -0.5133
 5876SOL    HW129264   1.938   0.585   7.989  2.2429 -2.3653 -1.1266
 5876SOL    HW229265   1.939   0.457   8.070 -1.9538 -2.1691 -0.2263
 5877SOL     OW29266   0.592   3.229   7.725  0.0457  0.2614 -0.4513
 5877SOL    HW129267   0.616   3.316   7.758 -1.5304  1.0561 -1.4029
 5877SOL    HW229268   0.666   3.186   7.768 -2.0329 -2.7271  0.1071
 5878SOL     OW29269   4.597   3.460  17.457  0.1935 -0.2233  0.3638
 5878SOL    HW129270   4.581   3.402  17.532 -1.7570  0.4665  0.4875
 5878SOL    HW229271   4.640   3.531  17.505  2.2640 -0.1027 -1.6886
 5879SOL     OW29272   0.986   3.906  13.910  0.9394  0.2544 -0.5438
 5879SOL    HW129273   1.019   3.870  13.828  0.5193  1.8720 -1.4098
 5879SOL    HW229274   0.948   3.832  13.957  1.6578  0.8620  1.0135
 5880SOL     OW29275   3.997   1.520   3.008  0.1048  0.3999 -0.1968
 5880SOL    HW129276   3.957   1.568   3.081  1.5693  0.7514  0.3851
 5880SOL    HW229277   3.931   1.536   2.941 -1.2907 -0.5316  0.9524
 5881SOL     OW29278   4.401   2.724   8.023 -0.2197 -0.6293  0.3433
 5881SOL    HW129279   4.396   2.629   8.016  1.3268 -0.5703 -1.7481
 5881SOL    HW229280   4.494   2.743   8.030 -0.6130  1.2555  0.5562
 5882SOL     OW29281   0.667   1.437  13.691 -0.0922 -0.7878  0.5881
 5882SOL    HW129282   0.618   1.498  13.744 -1.7341 -1.7752  0.2161
 5882SOL    HW229283   0.596   1.374  13.682 -0.4405 -0.3219  0.0850
 5883SOL     OW29284   1.900   3.698  17.499  0.0664  1.0815  0.3165
 5883SOL    HW129285   1.887   3.792  17.485 -1.4550  0.9540  0.9182
 5883SOL    HW229286   1.969   3.688  17.565 -0.3146 -1.0035  0.4113
 5884SOL     OW29287   2.662   1.067   1.051  0.0613 -0.1677  0.1020
 5884SOL    HW129288   2.718   1.113   1.113  1.2337 -0.3033 -0.8445
 5884SOL    HW229289   2.582   1.050   1.102  0.5327 -0.7470  0.6360
 5885SOL     OW29290   1.453   3.278   5.312  0.2786  0.2475 -0.7296
 5885SOL    HW129291   1.361   3.305   5.306  0.6623  2.1372  1.6864
 5885SOL    HW229292   1.469   3.351   5.373  1.6148  0.8015 -1.7405
 5886SOL     OW29293   0.431   4.024   7.923 -0.5253  0.4324 -0.2902
 5886SOL    HW129294   0.455   4.054   7.836  1.1799 -0.3447 -0.0901
 5886SOL    HW229295   0.474   4.094   7.972  0.3245 -0.2167 -0.0992
 5887SOL     OW29296   1.183   1.303   4.847 -0.4351 -0.3884  0.0106
 5887SOL    HW129297   1.229   1.243   4.788 -2.3374 -0.0717 -1.7901
 5887SOL    HW229298   1.216   1.390   4.822  0.4133 -0.7580 -0.1669
 5888SOL     OW29299   2.830   3.040   9.217  0.2480 -0.2122  0.0718
 5888SOL    HW129300   2.781   2.958   9.208  1.8992 -1.1418 -0.3395
 5888SOL    HW229301   2.767   3.094   9.266 -0.3344 -1.7997  1.0918
 5889SOL     OW29302   0.631   4.493   8.692  0.0570 -0.2847 -0.0061
 5889SOL    HW129303   0.551   4.546   8.692  1.9341  2.5381 -1.4537
 5889SOL    HW229304   0.598   4.410   8.726 -2.8906 -0.0887 -2.4289
 5890SOL     OW29305   3.473   3.611   0.613 -1.0097  0.7038 -0.1536
 5890SOL    HW129306   3.465   3.542   0.547  0.2269  1.4347 -1.0601
 5890SOL    HW229307   3.455   3.691   0.564 -1.5076 -0.1592 -1.4047
 5891SOL     OW29308   0.886   3.714   4.694  0.2882  0.3814  0.7059
 5891SOL    HW129309   0.837   3.736   4.615 -0.3588 -2.0200  0.4380
 5891SOL    HW229310   0.860   3.623   4.703  1.0235  0.0038 -0.8798
 5892SOL     OW29311   1.382   3.191   7.473 -0.7518 -0.6771 -0.6112
 5892SOL    HW129312   1.352   3.108   7.434 -0.7352 -0.1853 -1.6850
 5892SOL    HW229313   1.319   3.228   7.534 -0.6940 -2.9151  0.8362
 5893SOL     OW29314   0.283   2.507   8.709  0.5079  0.0093  0.1650
 5893SOL    HW129315   0.192   2.513   8.681  1.1458  2.1294 -1.4376
 5893SOL    HW229316   0.321   2.591   8.685  0.8430 -0.2043 -0.0545
 5894SOL     OW29317   4.047   2.374  16.880  0.0620  0.0044 -0.0959
 5894SOL    HW129318   3.959   2.389  16.915  0.1494  0.5850 -0.1347
 5894SOL    HW229319   4.070   2.291  16.923  1.1680  1.6180  2.3957
 5895SOL     OW29320   2.262   0.083  11.752 -0.0650  0.2801 -0.4006
 5895SOL    HW129321   2.322   0.030  11.805 -0.5185  0.8897  0.7257
 5895SOL    HW229322   2.181   0.033  11.759  0.4749 -0.7606 -1.4751
 5896SOL     OW29323   3.356   1.374   3.855  0.4043  0.9763 -0.6312
 5896SOL    HW129324   3.262   1.386   3.842  0.1709  0.2001  0.3663
 5896SOL    HW229325   3.378   1.331   3.772 -0.1636 -0.2422 -0.1483
 5897SOL     OW29326   1.566   0.600   9.289 -0.4436 -0.1863 -0.0869
 5897SOL    HW129327   1.475   0.610   9.261 -0.6883 -0.7886  0.5059
 5897SOL    HW229328   1.557   0.509   9.318  1.2749 -0.3819 -0.1785
 5898SOL     OW29329   0.200   3.905  13.718 -0.4871  0.0580 -0.8379
 5898SOL    HW129330   0.277   3.872  13.764 -1.2407 -1.0029 -0.3401
 5898SOL    HW229331   0.183   3.990  13.760 -0.4351 -0.8056  0.9135
 5899SOL     OW29332   3.841   0.926  10.057 -0.5716 -0.0154 -0.2166
 5899SOL    HW129333   3.896   0.848  10.055  0.0295  0.3826  0.9102
 5899SOL    HW229334   3.770   0.887  10.107  1.9343 -3.0555  0.9595
 5900SOL     OW29335   0.391   1.559  15.670  0.0171 -0.2333 -0.1761
 5900SOL    HW129336   0.339   1.491  15.713 -0.0565  0.0551  0.1879
 5900SOL    HW229337   0.469   1.505  15.659 -0.9791 -1.2678 -2.1990
 5901SOL     OW29338   2.503   3.303   6.541  0.3374  0.0583 -0.3945
 5901SOL    HW129339   2.482   3.220   6.498 -0.9144  0.5567 -0.7360
 5901SOL    HW229340   2.581   3.327   6.492  0.4942 -0.1996 -0.2740
 5902SOL     OW29341   1.340   0.086   6.461  0.4196 -0.4064  0.0099
 5902SOL    HW129342   1.392   0.116   6.536 -1.3348  1.2121  0.5728
 5902SOL    HW229343   1.400   0.094   6.387  1.0456 -1.0419  0.4522
 5903SOL     OW29344   1.762   2.545   6.703  0.7101  0.2660 -0.4219
 5903SOL    HW129345   1.745   2.578   6.791 -2.0627  0.9611 -1.2238
 5903SOL    HW229346   1.826   2.473   6.708 -0.1050 -0.2917  1.9091
 5904SOL     OW29347   3.601   2.955   9.836 -0.4443 -0.3683  0.2905
 5904SOL    HW129348   3.594   2.900   9.914 -1.0851 -0.2051  0.3486
 5904SOL    HW229349   3.612   3.044   9.869  1.9088 -0.0045 -1.5553
 5905SOL     OW29350   3.602   2.555   4.173 -0.3879  0.1302 -0.3903
 5905SOL    HW129351   3.584   2.470   4.213  0.3814  0.2016  0.1212
 5905SOL    HW229352   3.632   2.545   4.082  1.4956 -2.1719  0.4791
 5906SOL     OW29353   2.650   1.855   5.401 -0.1632  0.2212 -0.2952
 5906SOL    HW129354   2.558   1.830   5.404 -0.7746  2.1151 -3.3837
 5906SOL    HW229355   2.692   1.805   5.332  0.6854  1.3615 -0.6043
 5907SOL     OW29356   4.430   4.322   5.863 -0.6298  0.6033  0.6037
 5907SOL    HW129357   4.365   4.361   5.805  2.0970  0.5688 -2.4459
 5907SOL    HW229358   4.496   4.380   5.824  0.2350 -0.3994  0.5781
 5908SOL     OW29359   2.609   0.346  11.474  0.0511 -0.0022  0.5334
 5908SOL    HW129360   2.699   0.315  11.484 -0.6193 -2.1621 -0.1349
 5908SOL    HW229361   2.622   0.441  11.473 -2.9735  0.3983 -0.8510
 5909SOL     OW29362   0.527   1.241   4.169  0.1577 -0.7825 -0.1887
 5909SOL    HW129363   0.453   1.255   4.228  0.5757  3.0235 -0.6265
 5909SOL    HW229364   0.504   1.156   4.132 -0.9030 -0.2403 -0.7425
 5910SOL     OW29365   4.390   1.470  15.093 -0.8481 -0.3555 -0.0753
 5910SOL    HW129366   4.349   1.549  15.057  1.7279  0.3339 -1.5199
 5910SOL    HW229367   4.441   1.449  15.015 -1.8734 -0.1676 -0.7964
 5911SOL     OW29368   2.329   0.647  14.776 -0.0163  0.4394  0.1651
 5911SOL    HW129369   2.411   0.615  14.737  0.2144  1.2218 -0.0004
 5911SOL    HW229370   2.342   0.740  14.756 -1.2867  0.5518 -0.1637
 5912SOL     OW29371   2.865   4.404   3.346  0.6825  0.0251 -0.5664
 5912SOL    HW129372   2.945   4.457   3.344  2.2229 -2.1249  2.2264
 5912SOL    HW229373   2.821   4.432   3.266 -0.4921 -0.6876 -0.1738
 5913SOL     OW29374   0.228   1.830   9.931  0.6262  0.3298  0.8648
 5913SOL    HW129375   0.296   1.764   9.919  1.3938  1.1068  0.8557
 5913SOL    HW229376   0.155   1.770   9.930 -2.1619  3.7118 -1.2279
 5914SOL     OW29377   3.657   1.001   3.176  0.0715 -0.6125  0.1125
 5914SOL    HW129378   3.615   0.928   3.222  1.5092 -0.3614  1.8077
 5914SOL    HW229379   3.644   1.070   3.241 -0.6379 -0.3626 -0.2935
 5915SOL     OW29380   4.352   2.071  10.515  0.0810  0.1382  0.3916
 5915SOL    HW129381   4.399   2.141  10.470 -1.1539  0.9464  0.3490
 5915SOL    HW229382   4.420   2.033  10.569  0.0105  0.2003  0.5259
 5916SOL     OW29383   1.343   4.280   7.311  0.2372  0.3662 -0.3228
 5916SOL    HW129384   1.259   4.325   7.318 -0.4094 -0.6209 -1.7091
 5916SOL    HW229385   1.322   4.194   7.346 -1.6515  0.4045 -1.3890
 5917SOL     OW29386   2.506   3.397   3.117 -0.3810  0.2826 -0.0896
 5917SOL    HW129387   2.583   3.355   3.078 -1.2953 -1.7343  0.3069
 5917SOL    HW229388   2.437   3.333   3.097 -0.7269  0.7445 -0.3837
 5918SOL     OW29389   2.717   0.216  12.951 -0.3148  0.4171 -0.3016
 5918SOL    HW129390   2.810   0.238  12.947  0.0275 -1.0085 -0.1640
 5918SOL    HW229391   2.670   0.287  12.907  3.7334  1.1963 -3.3187
 5919SOL     OW29392   3.563   2.923  13.159  0.1083 -0.0246  0.6186
 5919SOL    HW129393   3.602   2.867  13.092 -2.2459  0.6335 -1.3064
 5919SOL    HW229394   3.473   2.894  13.148  0.3322 -0.2380 -0.6588
 5920SOL     OW29395   1.361   1.498  13.188  0.1894 -0.4281 -0.1153
 5920SOL    HW129396   1.329   1.588  13.196 -0.2634 -0.5732 -0.2518
 5920SOL    HW229397   1.450   1.514  13.220  0.0901 -0.3158  0.1083
 5921SOL     OW29398   2.468   2.244   6.478  0.3727  0.8897 -0.2168
 5921SOL    HW129399   2.493   2.325   6.436  2.6104  1.0146  1.3638
 5921SOL    HW229400   2.473   2.184   6.403  0.1813 -1.0538  1.3151
 5922SOL     OW29401   0.467   1.360   7.500  0.0858  0.1154  0.0596
 5922SOL    HW129402   0.430   1.381   7.585 -0.6426 -1.8453  0.2267
 5922SOL    HW229403   0.531   1.291   7.519 -1.6560 -1.6052 -0.3099
 5923SOL     OW29404   3.257   2.147   1.810 -0.2763 -0.3169  0.4226
 5923SOL    HW129405   3.294   2.064   1.779 -0.0033 -0.3183  0.7489
 5923SOL    HW229406   3.186   2.109   1.861 -1.4676 -0.2004 -1.1367
 5924SOL     OW29407   1.640   2.852  17.162  0.7412  0.6125 -0.1234
 5924SOL    HW129408   1.548   2.865  17.187  0.5846 -0.7376 -0.0037
 5924SOL    HW229409   1.681   2.877  17.245  1.2152 -0.9580  0.1086
 5925SOL     OW29410   3.553   4.465   6.094 -0.1327  0.0066  0.2272
 5925SOL    HW129411   3.609   4.392   6.118  1.9687  1.9107  1.0559
 5925SOL    HW229412   3.470   4.427   6.123  0.9576 -1.9283  0.7704
 5926SOL     OW29413   0.816   1.724   8.474  0.4851  0.4353  0.0968
 5926SOL    HW129414   0.721   1.735   8.483  0.3616 -1.3323  0.8398
 5926SOL    HW229415   0.820   1.715   8.378  0.8490  2.0013 -0.0424
 5927SOL     OW29416   3.583   1.675   1.913 -0.3294 -0.9081  0.0630
 5927SOL    HW129417   3.668   1.655   1.952  0.6973 -0.5272 -1.9685
 5927SOL    HW229418   3.536   1.595   1.937  0.9792 -1.5435  0.5097
 5928SOL     OW29419   2.259   3.862  11.010  0.8327 -0.4419  0.2903
 5928SOL    HW129420   2.343   3.819  10.994 -0.1855 -1.6181 -1.8579
 5928SOL    HW229421   2.273   3.894  11.099 -1.1533 -2.5692  1.3817
 5929SOL     OW29422   1.284   1.307   8.830  0.7870  0.1972  0.1164
 5929SOL    HW129423   1.338   1.296   8.909  0.1753  1.5720  0.7200
 5929SOL    HW229424   1.235   1.227   8.851 -0.8340  1.5897  1.6633
 5930SOL     OW29425   0.542   0.020   1.724 -0.3754  0.4204  0.0483
 5930SOL    HW129426   0.606   4.734   1.657 -1.4475 -0.0792 -0.7956
 5930SOL    HW229427   0.601   0.013   1.800  0.8907 -1.1127 -1.0806
 5931SOL     OW29428   0.804   3.915  17.415  0.4356 -0.1934  0.1527
 5931SOL    HW129429   0.874   3.908  17.350  0.1356 -0.8154 -0.1027
 5931SOL    HW229430   0.736   3.907  17.348  0.0802  1.7160  0.3067
 5932SOL     OW29431   4.475   1.962   4.770  0.2288 -0.0489  0.1998
 5932SOL    HW129432   4.557   1.963   4.820  1.6362 -2.2609 -2.0131
 5932SOL    HW229433   4.427   2.039   4.800 -0.7253 -0.6795  0.3151
 5933SOL     OW29434   1.073   0.621  16.257 -1.0313 -0.1605  0.0651
 5933SOL    HW129435   1.145   0.560  16.240 -0.9024 -0.1109  0.4259
 5933SOL    HW229436   1.039   0.626  16.168 -0.0043  0.6114 -0.2845
 5934SOL     OW29437   3.962   1.854   2.679  0.3879  0.1110 -0.4132
 5934SOL    HW129438   4.027   1.840   2.748  0.1692  1.8227  0.1330
 5934SOL    HW229439   3.994   1.940   2.652 -1.1294  0.8007 -0.0375
 5935SOL     OW29440   1.291   4.408   8.724  0.1834 -0.6613  0.2747
 5935SOL    HW129441   1.376   4.417   8.682  0.6861  0.9034  1.6209
 5935SOL    HW229442   1.232   4.433   8.653  0.3082  0.9337  0.7352
 5936SOL     OW29443   1.566   3.127   6.104 -0.0048 -0.4791 -0.4144
 5936SOL    HW129444   1.481   3.084   6.110 -1.0196  1.2744 -2.6167
 5936SOL    HW229445   1.535   3.201   6.053 -0.4078 -0.1303  0.3305
 5937SOL     OW29446   4.641   2.835   5.842 -0.5742  0.0738  0.1057
 5937SOL    HW129447   4.595   2.837   5.758  0.3718 -1.4109 -0.4619
 5937SOL    HW229448   4.570   2.813   5.902  0.9754 -1.2590  1.4936
 5938SOL     OW29449   3.939   3.781   0.982  0.0574 -0.7401 -0.1276
 5938SOL    HW129450   3.909   3.693   0.959 -0.7209 -0.6947  0.7183
 5938SOL    HW229451   3.943   3.819   0.894 -0.2540  0.0999  0.2203
 5939SOL     OW29452   4.144   1.416   8.891 -0.0935 -0.0859 -0.2333
 5939SOL    HW129453   4.197   1.449   8.964 -1.1474  0.5185  0.2548
 5939SOL    HW229454   4.155   1.482   8.822 -1.1493 -0.1626 -0.4699
 5940SOL     OW29455   0.593   0.257  11.713  0.5840  0.3068  0.5623
 5940SOL    HW129456   0.572   0.239  11.622 -3.5137 -1.4039  1.8474
 5940SOL    HW229457   0.505   0.277  11.744  1.7533  1.2585  3.3315
 5941SOL     OW29458   0.269   2.068  15.543 -0.1563  0.1357  0.0540
 5941SOL    HW129459   0.185   2.088  15.585  0.2885 -0.9374  1.4260
 5941SOL    HW229460   0.272   1.976  15.569  0.5786  0.3870  0.8238
 5942SOL     OW29461   1.416   0.306   1.234 -0.4078  0.2103 -0.7797
 5942SOL    HW129462   1.384   0.379   1.287 -2.2761 -2.9114  2.3834
 5942SOL    HW229463   1.330   0.267   1.220 -1.1175  1.3932  0.2435
 5943SOL     OW29464   1.845   3.967   2.441 -0.7052 -0.1313  0.1490
 5943SOL    HW129465   1.817   4.028   2.373 -0.2724  1.2040  1.1648
 5943SOL    HW229466   1.861   4.028   2.513  0.6350 -0.4190  0.0826
 5944SOL     OW29467   0.225   2.532  16.196  0.3418 -0.1217 -0.4585
 5944SOL    HW129468   0.136   2.506  16.171  0.7356 -0.7893 -1.1809
 5944SOL    HW229469   0.244   2.478  16.272 -2.5871 -0.0250  0.3433
 5945SOL     OW29470   0.743   4.081   6.508 -0.0022 -0.5000  0.0375
 5945SOL    HW129471   0.712   4.169   6.529 -2.1967 -1.1968 -0.2419
 5945SOL    HW229472   0.751   4.092   6.413  2.9019 -3.0860 -0.0184
 5946SOL     OW29473   2.906   1.099  16.565 -0.1637  0.3534 -0.2823
 5946SOL    HW129474   2.886   1.114  16.657  1.3070 -1.3401  0.3112
 5946SOL    HW229475   2.877   1.183  16.529 -0.3172 -0.4650 -2.0818
 5947SOL     OW29476   3.887   1.733   7.731 -0.6376 -0.4036 -0.2469
 5947SOL    HW129477   3.908   1.695   7.816 -1.0730  2.7031  1.2628
 5947SOL    HW229478   3.802   1.692   7.714 -1.2713  0.8000  0.0459
 5948SOL     OW29479   3.396   1.673   6.672 -0.4489 -0.3575 -0.3748
 5948SOL    HW129480   3.343   1.712   6.603 -0.7965  0.7198  0.5050
 5948SOL    HW229481   3.328   1.621   6.715 -0.1349  0.2765  0.8920
 5949SOL     OW29482   3.585   4.062  12.488 -0.1436  0.1840  0.1266
 5949SOL    HW129483   3.568   4.045  12.395 -0.5162 -1.7066  0.5367
 5949SOL    HW229484   3.555   3.987  12.539 -0.7615  2.0462  2.4965
 5950SOL     OW29485   1.732   3.900   5.145 -0.0310  0.0751  0.7297
 5950SOL    HW129486   1.819   3.921   5.112  0.5435 -1.2594  1.3699
 5950SOL    HW229487   1.717   3.810   5.118 -1.7956  0.5157  0.2475
 5951SOL     OW29488   4.404   4.297   3.436  0.1579 -0.8972 -0.3859
 5951SOL    HW129489   4.396   4.260   3.524 -1.7710 -2.0450 -1.0230
 5951SOL    HW229490   4.320   4.345   3.433  1.0675  0.6794 -0.6705
 5952SOL     OW29491   3.938   3.171   2.591 -0.1089  0.0498 -0.1713
 5952SOL    HW129492   3.845   3.149   2.587 -0.1386  0.2341 -0.5154
 5952SOL    HW229493   3.968   3.139   2.675  2.4459 -0.5211 -1.3101
 5953SOL     OW29494   3.096   2.833  13.693  0.0140  0.2760  0.1593
 5953SOL    HW129495   3.070   2.917  13.731  2.5914  1.7951 -1.4647
 5953SOL    HW229496   3.095   2.776  13.770 -1.4664  0.4083  0.2554
 5954SOL     OW29497   3.230   3.605  14.218 -0.3440 -0.4818 -0.1454
 5954SOL    HW129498   3.194   3.539  14.277 -1.0858  1.5200  1.6403
 5954SOL    HW229499   3.148   3.653  14.204  0.1035 -0.0025 -1.1130
 5955SOL     OW29500   3.662   0.908  16.384  0.8372 -0.6496 -0.0303
 5955SOL    HW129501   3.731   0.974  16.388  1.6536 -1.4057 -1.4600
 5955SOL    HW229502   3.711   0.834  16.420 -1.3926 -0.8188  2.5858
 5956SOL     OW29503   2.811   1.228   1.219 -0.1092 -0.3255  0.3899
 5956SOL    HW129504   2.768   1.298   1.268  1.8190  1.1484 -0.0386
 5956SOL    HW229505   2.897   1.229   1.260  1.2161 -1.9079 -2.3227
 5957SOL     OW29506   0.958   0.175  14.274 -0.3865 -0.0990 -0.1226
 5957SOL    HW129507   0.928   0.131  14.353  0.3595 -1.4666 -0.6122
 5957SOL    HW229508   1.039   0.209  14.312 -1.4434  1.4830  0.6971
 5958SOL     OW29509   1.576   2.230   2.132  0.3049 -0.1160  0.4445
 5958SOL    HW129510   1.484   2.209   2.146 -0.2275  1.2383 -0.9929
 5958SOL    HW229511   1.592   2.287   2.207 -2.0081 -2.4609  2.7184
 5959SOL     OW29512   3.625   1.050   4.435  0.1941 -0.6162  0.2052
 5959SOL    HW129513   3.704   1.059   4.382  0.9304 -3.0857  0.9342
 5959SOL    HW229514   3.642   1.111   4.507  2.0741  1.2287 -1.7737
 5960SOL     OW29515   3.075   0.458   1.813  0.0475 -0.5551  0.3795
 5960SOL    HW129516   2.993   0.504   1.799  0.2207 -1.5111 -3.5484
 5960SOL    HW229517   3.051   0.378   1.767  1.0821 -1.1529  0.8768
 5961SOL     OW29518   0.328   1.338   6.226 -0.1721 -0.1854  0.4728
 5961SOL    HW129519   0.232   1.341   6.228 -0.1431  0.4893  0.8810
 5961SOL    HW229520   0.330   1.273   6.157  0.9678  1.6758 -1.2423
 5962SOL     OW29521   1.921   2.220   7.974 -0.5175 -0.3951 -0.0196
 5962SOL    HW129522   1.897   2.147   8.029  1.6489 -1.4853 -0.5229
 5962SOL    HW229523   1.906   2.287   8.041  3.1216 -1.1104  1.4703
 5963SOL     OW29524   4.413   2.414   6.806 -0.3869 -0.0736  0.0669
 5963SOL    HW129525   4.507   2.422   6.821  0.0348  0.7177 -3.0808
 5963SOL    HW229526   4.406   2.326   6.769  1.1717  0.4925 -1.5505
 5964SOL     OW29527   1.463   0.553   4.157 -0.4840 -0.4654 -0.1820
 5964SOL    HW129528   1.387   0.496   4.167 -1.3942  0.4647 -1.8376
 5964SOL    HW229529   1.530   0.506   4.205 -1.0761 -0.4459  0.6617
 5965SOL     OW29530   2.128   0.206   5.357 -0.6119  0.1519  0.2932
 5965SOL    HW129531   2.136   0.233   5.266  0.2869  0.7263  0.5407
 5965SOL    HW229532   2.055   0.143   5.356  0.0359 -0.6181  1.1878
 5966SOL     OW29533   1.729   3.091   8.272 -0.6144  0.5832  0.5184
 5966SOL    HW129534   1.745   3.135   8.355  1.1604  0.5704  0.1874
 5966SOL    HW229535   1.763   3.005   8.298  0.5296  0.3580 -1.6869
 5967SOL     OW29536   3.280   0.229  10.383 -0.2193  0.1553 -0.0917
 5967SOL    HW129537   3.311   0.163  10.445  0.4029  0.1189 -0.4520
 5967SOL    HW229538   3.269   0.190  10.297 -0.3249 -0.3221  0.1376
 5968SOL     OW29539   2.488   1.804   8.032 -0.5734 -0.1636  0.1044
 5968SOL    HW129540   2.567   1.767   8.073 -1.3685 -0.8713  1.0027
 5968SOL    HW229541   2.422   1.744   8.066 -1.6567  1.6611  1.2121
 5969SOL     OW29542   3.846   0.056   9.467 -0.7689  0.6191 -0.2958
 5969SOL    HW129543   3.807   0.086   9.549 -2.8108 -0.6649 -0.7870
 5969SOL    HW229544   3.919   0.117   9.456  1.4379 -1.8987  0.5128
 5970SOL     OW29545   0.918   3.158   3.982  0.4788 -0.4876 -0.4490
 5970SOL    HW129546   0.944   3.170   4.073  2.0847 -0.8345 -0.8486
 5970SOL    HW229547   0.897   3.065   3.988 -2.9728  0.4768  2.0654
 5971SOL     OW29548   3.331   2.705   3.063 -0.4249 -0.3407  0.4426
 5971SOL    HW129549   3.289   2.639   3.009 -1.8432  0.3232  0.7226
 5971SOL    HW229550   3.338   2.666   3.150  2.8705  1.4928  1.0311
 5972SOL     OW29551   4.725   3.628   9.718 -0.0968 -0.5375 -0.0082
 5972SOL    HW129552   4.713   3.573   9.641  0.9014  1.6081 -1.7095
 5972SOL    HW229553   4.672   3.581   9.781 -0.5789 -0.6719 -0.5171
 5973SOL     OW29554   4.284   0.256  12.061  0.2993  0.3605 -0.1364
 5973SOL    HW129555   4.327   0.173  12.080  1.9197  1.5376  1.3569
 5973SOL    HW229556   4.333   0.314  12.119 -0.9325 -0.2175  1.4943
 5974SOL     OW29557   4.456   0.367   6.947  0.0636  0.5733 -0.2464
 5974SOL    HW129558   4.483   0.459   6.943 -0.7719  0.7624 -1.2772
 5974SOL    HW229559   4.472   0.352   7.041 -2.2337 -1.0078 -0.1177
 5975SOL     OW29560   1.452   2.119   3.521  0.5305  0.2805 -0.2029
 5975SOL    HW129561   1.444   2.061   3.445  2.4928  0.7889 -0.7935
 5975SOL    HW229562   1.421   2.205   3.492  2.3389  0.1521 -2.4953
 5976SOL     OW29563   3.698   0.697   8.875 -0.4563 -0.1766  0.0633
 5976SOL    HW129564   3.627   0.640   8.845  0.0042 -0.3871 -0.6154
 5976SOL    HW229565   3.709   0.745   8.793 -1.9042  2.3367  1.3609
 5977SOL     OW29566   2.617   3.505   3.526 -0.2951 -0.2259 -0.2713
 5977SOL    HW129567   2.599   3.443   3.456  1.6435  1.4070 -2.2121
 5977SOL    HW229568   2.530   3.511   3.564  0.0983 -1.7368  0.8793
 5978SOL     OW29569   1.200   1.047   8.854 -0.0632 -0.7455 -0.4145
 5978SOL    HW129570   1.121   1.006   8.816 -0.2934 -1.6492  1.0289
 5978SOL    HW229571   1.272   1.005   8.807  0.0352 -0.1654 -0.7808
 5979SOL     OW29572   0.703   1.827   3.534 -0.6458  0.5418 -0.3423
 5979SOL    HW129573   0.727   1.919   3.531  1.8355 -0.1364 -0.6840
 5979SOL    HW229574   0.684   1.812   3.626  1.3687 -0.3576 -0.0817
 5980SOL     OW29575   1.688   2.859   3.636 -0.8149 -0.4196  0.2577
 5980SOL    HW129576   1.720   2.873   3.547  0.2586  1.1303  0.8768
 5980SOL    HW229577   1.696   2.951   3.663 -0.8767 -0.1297 -0.7141
 5981SOL     OW29578   1.051   3.882   2.037  0.0204  0.0474 -0.4757
 5981SOL    HW129579   1.081   3.914   1.952  0.2954 -1.9677 -1.1355
 5981SOL    HW229580   0.956   3.893   2.034  0.0541  0.9008  1.4045
 5982SOL     OW29581   3.783   1.932   7.962 -0.2428 -0.3254 -0.1298
 5982SOL    HW129582   3.838   2.010   7.969 -0.8238  0.0275  0.5338
 5982SOL    HW229583   3.851   1.865   7.953 -0.7835 -0.7750 -0.8432
 5983SOL     OW29584   1.730   0.391   8.905 -0.4253 -0.1307 -0.2356
 5983SOL    HW129585   1.700   0.480   8.887 -0.0835 -0.1832 -1.0498
 5983SOL    HW229586   1.652   0.343   8.878  0.3621 -0.8682 -1.1633
 5984SOL     OW29587   2.614   1.135  15.387  1.4153 -0.7615  0.4568
 5984SOL    HW129588   2.650   1.079  15.318 -0.4028 -1.0765 -0.2264
 5984SOL    HW229589   2.527   1.099  15.400  0.8304  1.2472  2.1374
 5985SOL     OW29590   0.850   4.291   3.099  0.4419 -0.2976  0.7581
 5985SOL    HW129591   0.892   4.244   3.027  1.7538  0.5230  0.9922
 5985SOL    HW229592   0.882   4.230   3.166  0.4898  1.1357  2.0458
 5986SOL     OW29593   4.430   4.667   4.757  0.0191 -0.0249 -0.7647
 5986SOL    HW129594   4.496   4.671   4.688  0.4701 -0.5211 -0.3636
 5986SOL    HW229595   4.425   4.572   4.766  0.7169  0.1217  1.0792
 5987SOL     OW29596   4.099   2.981   3.435  0.5152  0.3390 -0.5782
 5987SOL    HW129597   4.118   3.074   3.437 -0.4306  0.5612 -1.8082
 5987SOL    HW229598   4.077   2.963   3.344  1.4036 -0.4885 -0.6303
 5988SOL     OW29599   3.383   0.476   3.207  0.1284 -0.4190  0.2422
 5988SOL    HW129600   3.447   0.496   3.139  1.3195 -0.7541  1.2755
 5988SOL    HW229601   3.332   0.406   3.166 -1.4603  0.1374  1.2463
 5989SOL     OW29602   3.096   3.405   6.244 -0.4324  0.3519  1.0793
 5989SOL    HW129603   3.179   3.450   6.262 -1.2417  2.0583  0.5771
 5989SOL    HW229604   3.051   3.476   6.198  0.0376 -0.3699 -0.5053
 5990SOL     OW29605   0.294   4.681   0.312 -0.0073 -0.1853  0.7058
 5990SOL    HW129606   0.219   4.653   0.260  0.0894  2.1505 -0.7134
 5990SOL    HW229607   0.243   0.001   0.369 -0.1805  1.9740 -1.6170
 5991SOL     OW29608   4.698   1.187   5.434 -0.0025  0.0363 -0.0920
 5991SOL    HW129609   4.614   1.179   5.389  0.6299  0.0162 -1.2638
 5991SOL    HW229610   4.671   1.160   5.522 -1.0404 -2.3123 -1.1449
 5992SOL     OW29611   4.661   0.856  17.221  0.1154 -0.4363  0.6925
 5992SOL    HW129612   4.714   0.935  17.221  0.7373 -0.8715 -2.8797
 5992SOL    HW229613   4.720   0.797  17.268 -0.0697 -1.3782 -0.2795
 5993SOL     OW29614   4.310   0.530   9.067 -0.2856 -0.0848 -0.7082
 5993SOL    HW129615   4.223   0.515   9.104  0.8676  0.8921  2.4066
 5993SOL    HW229616   4.317   0.626   9.061 -1.6243  0.1922  2.3778
 5994SOL     OW29617   3.246   0.878   8.303 -0.6058  0.4019 -0.1362
 5994SOL    HW129618   3.218   0.800   8.255 -1.7799 -0.8620  2.5865
 5994SOL    HW229619   3.289   0.928   8.234 -2.7870 -1.1400 -2.5748
 5995SOL     OW29620   3.776   4.149   6.854 -0.1357  0.1621  0.1685
 5995SOL    HW129621   3.786   4.117   6.943  0.8581 -0.8175 -0.2900
 5995SOL    HW229622   3.684   4.123   6.844 -0.5108  0.9363  1.7093
 5996SOL     OW29623   2.319   0.136  13.620  0.4778 -0.1278 -0.0505
 5996SOL    HW129624   2.359   0.187  13.690  1.6829 -0.1612 -0.7095
 5996SOL    HW229625   2.246   0.195  13.601  0.3066 -0.4490 -0.4040
 5997SOL     OW29626   4.402   0.478  11.518 -0.1911  0.1135 -0.4854
 5997SOL    HW129627   4.386   0.389  11.550  3.0862 -0.7303 -1.2026
 5997SOL    HW229628   4.318   0.517  11.494 -0.0217  0.4613 -0.5121
 5998SOL     OW29629   4.587   4.170  14.775  0.6301  0.4570  0.3739
 5998SOL    HW129630   4.618   4.213  14.855 -4.0014  0.9921  1.8698
 5998SOL    HW229631   4.602   4.077  14.790  3.6105  0.5998 -1.7033
 5999SOL     OW29632   2.148   3.822   8.873 -0.9719 -0.5607  0.2884
 5999SOL    HW129633   2.074   3.868   8.912 -1.7949 -0.2158 -1.6912
 5999SOL    HW229634   2.157   3.875   8.794  0.0254 -1.2230 -0.0549
 6000SOL     OW29635   0.607   0.987   9.630 -0.1546 -0.3369 -0.2748
 6000SOL    HW129636   0.576   0.898   9.615  2.7982 -1.3965 -0.1284
 6000SOL    HW229637   0.685   0.991   9.575  0.7365  0.6780  1.0564
 6001SOL     OW29638   2.272   2.738   8.511 -0.1327  0.1366  0.5928
 6001SOL    HW129639   2.269   2.791   8.591  1.9405  0.0642  0.7405
 6001SOL    HW229640   2.229   2.661   8.547 -3.2057  1.4441 -0.2828
 6002SOL     OW29641   0.635   3.235  12.892 -0.4165 -0.1873  0.0036
 6002SOL    HW129642   0.689   3.300  12.936 -1.4320  0.1433  0.7861
 6002SOL    HW229643   0.552   3.243  12.940 -0.8337  0.9141 -0.9137
 6003SOL     OW29644   3.141   1.243   5.537  0.1639 -0.2504 -0.0196
 6003SOL    HW129645   3.188   1.220   5.457  0.1175  0.0162 -0.1228
 6003SOL    HW229646   3.073   1.178   5.526 -1.5705  1.7766 -1.3830
 6004SOL     OW29647   2.010   2.082   2.831 -0.2593 -0.1584  0.0428
 6004SOL    HW129648   1.970   2.010   2.782  0.6676 -0.5753 -0.1062
 6004SOL    HW229649   2.065   2.112   2.758 -0.3425 -0.1530 -0.0185
 6005SOL     OW29650   0.084   3.140  12.820 -0.3468  0.3969  0.3335
 6005SOL    HW129651   0.147   3.158  12.889  0.0691  3.0605 -0.7083
 6005SOL    HW229652   0.134   3.146  12.738  0.0897 -1.2637  0.4789
 6006SOL     OW29653   1.393   3.407   2.473  0.4072  0.7642 -0.2719
 6006SOL    HW129654   1.480   3.437   2.451  0.6964  0.6587  0.7002
 6006SOL    HW229655   1.349   3.482   2.512 -2.2043 -1.5071  1.1980
 6007SOL     OW29656   3.086   0.827   1.205 -0.2541 -0.4056 -0.2493
 6007SOL    HW129657   3.121   0.906   1.164 -0.5287  0.0173  0.3340
 6007SOL    HW229658   3.097   0.763   1.134 -0.2701 -0.9081  0.2024
 6008SOL     OW29659   1.647   2.385   1.315 -0.4875 -0.3749 -0.5230
 6008SOL    HW129660   1.669   2.399   1.223  0.9217 -0.1198 -0.1391
 6008SOL    HW229661   1.572   2.444   1.308 -0.9655 -0.9624 -0.4164
 6009SOL     OW29662   0.975   2.132   0.998 -0.5899 -0.6342  0.2110
 6009SOL    HW129663   0.943   2.143   1.087 -1.3700  0.1927 -0.1730
 6009SOL    HW229664   1.068   2.153   1.006 -0.5930 -0.4261 -0.3270
 6010SOL     OW29665   4.494   0.329   7.468  0.0891 -0.7037  0.2826
 6010SOL    HW129666   4.504   0.421   7.494 -0.3625 -0.0349 -1.9240
 6010SOL    HW229667   4.557   0.283   7.523 -0.6865 -0.1855  1.5945
 6011SOL     OW29668   0.746   2.937   9.601  0.3076 -0.5944  0.7307
 6011SOL    HW129669   0.806   3.003   9.566  0.1479 -1.2431 -0.7451
 6011SOL    HW229670   0.805   2.869   9.631  0.9076 -0.3288  0.1465
 6012SOL     OW29671   0.697   4.681  16.589  0.6493 -0.1012 -0.3013
 6012SOL    HW129672   0.617   4.632  16.571 -0.1465  0.6125  1.2957
 6012SOL    HW229673   0.748   4.621  16.644 -0.4112  1.2011  2.0927
 6013SOL     OW29674   3.518   0.759   2.212  0.2117 -0.1258 -0.0426
 6013SOL    HW129675   3.586   0.825   2.224  1.9027 -1.8575 -0.0765
 6013SOL    HW229676   3.581   0.692   2.183 -0.9406 -1.4431  0.4830
 6014SOL     OW29677   3.506   3.706   6.523  0.1780  0.0646 -0.1393
 6014SOL    HW129678   3.595   3.730   6.548  0.3388  1.2537 -1.8552
 6014SOL    HW229679   3.453   3.747   6.592  1.4980  1.3800  0.0822
 6015SOL     OW29680   4.402   0.232  13.630  0.1093 -0.2174  0.2226
 6015SOL    HW129681   4.407   0.325  13.609 -1.3383 -0.1322  0.2776
 6015SOL    HW229682   4.367   0.207  13.545  0.6642 -0.4330  0.0538
 6016SOL     OW29683   2.533   1.040   3.214 -0.0983  0.0318  0.4809
 6016SOL    HW129684   2.490   1.068   3.295 -0.5642  1.0711 -0.1306
 6016SOL    HW229685   2.592   1.109   3.184 -0.2987 -0.9290 -2.0815
 6017SOL     OW29686   3.806   3.786   3.203  0.0249  0.2632 -0.1906
 6017SOL    HW129687   3.835   3.705   3.245  0.6411  0.8827  0.5656
 6017SOL    HW229688   3.790   3.766   3.111 -1.2232 -1.4764  0.4019
 6018SOL     OW29689   3.515   3.407   1.024  0.5506  0.1533  0.1796
 6018SOL    HW129690   3.499   3.348   0.951 -2.0519  1.2171 -0.0975
 6018SOL    HW229691   3.537   3.486   0.975  0.8299  0.5925  1.0116
 6019SOL     OW29692   3.858   4.116  13.540 -0.2420  0.0708  0.1628
 6019SOL    HW129693   3.801   4.042  13.558  1.3162  0.1135  5.2543
 6019SOL    HW229694   3.804   4.182  13.584 -2.4020 -1.1637 -0.6154
 6020SOL     OW29695   0.841   3.841   8.665  0.2881  0.2683  0.5515
 6020SOL    HW129696   0.759   3.889   8.653  0.5150  1.0599  2.1777
 6020SOL    HW229697   0.893   3.836   8.585 -1.3284 -0.0090 -0.4847
 6021SOL     OW29698   1.450   4.373   5.557 -0.1617 -0.3374 -0.2231
 6021SOL    HW129699   1.490   4.338   5.478  1.3804  2.0430 -0.5112
 6021SOL    HW229700   1.455   4.288   5.600 -1.0872 -0.8714 -1.1700
 6022SOL     OW29701   1.886   2.787   6.818 -0.5685  0.4584  0.4049
 6022SOL    HW129702   1.920   2.732   6.747 -2.0902 -0.5273  0.4423
 6022SOL    HW229703   1.802   2.818   6.785 -0.9190  0.4759  1.3285
 6023SOL     OW29704   2.811   4.047   5.221  0.4152 -0.5160 -0.0658
 6023SOL    HW129705   2.900   4.080   5.229  0.3348  0.1200 -1.9163
 6023SOL    HW229706   2.768   4.110   5.163  0.8240 -0.1515  0.0283
 6024SOL     OW29707   2.884   0.420   3.846  0.7041  0.1714  0.2792
 6024SOL    HW129708   2.795   0.447   3.867  0.1279 -0.9126 -0.7875
 6024SOL    HW229709   2.877   0.334   3.887  1.0568 -0.5284 -1.1269
 6025SOL     OW29710   2.429   0.623   5.799 -0.5762  0.6326  0.0204
 6025SOL    HW129711   2.490   0.553   5.776  1.1142  1.2924  2.4009
 6025SOL    HW229712   2.356   0.575   5.838  0.4904 -0.9987  0.0319
 6026SOL     OW29713   1.234   3.619   2.511 -0.9567 -0.0249  0.2405
 6026SOL    HW129714   1.203   3.593   2.597 -3.3239  0.1107 -0.5813
 6026SOL    HW229715   1.155   3.648   2.465 -1.4157 -0.5734  0.6919
 6027SOL     OW29716   0.110   1.538   7.828 -0.4463 -0.7740  0.0185
 6027SOL    HW129717   0.043   1.594   7.868 -1.3678 -2.0729  0.3002
 6027SOL    HW229718   0.158   1.609   7.784  0.9327 -0.1316  2.5079
 6028SOL     OW29719   0.209   2.199   6.791  0.4527  0.3784 -0.0543
 6028SOL    HW129720   0.196   2.266   6.723  1.7957  0.6924 -0.0061
 6028SOL    HW229721   0.134   2.144   6.774  1.8205 -1.7118  0.6794
 6029SOL     OW29722   4.588   3.717   5.010  0.1028  0.3471  0.2418
 6029SOL    HW129723   4.578   3.625   4.985  1.8094 -0.1861  1.5129
 6029SOL    HW229724   4.504   3.754   4.983 -1.3494 -0.7193  3.2734
 6030SOL     OW29725   0.979   2.215   5.270  0.0271 -0.0320 -0.1635
 6030SOL    HW129726   0.914   2.146   5.256  0.6439 -0.6777  0.1432
 6030SOL    HW229727   1.025   2.223   5.186  1.8739  0.0289  0.8451
 6031SOL     OW29728   4.480   2.230  13.555  0.2456 -0.1420 -0.0444
 6031SOL    HW129729   4.498   2.318  13.521  2.9743 -0.9200 -0.6040
 6031SOL    HW229730   4.395   2.221  13.514  0.0214 -2.0258  0.8542
 6032SOL     OW29731   2.684   1.223  16.090  0.3147 -0.5728 -0.3739
 6032SOL    HW129732   2.731   1.158  16.143 -1.8887  0.9723  3.4946
 6032SOL    HW229733   2.733   1.212  16.009  2.2610  0.9131  0.5818
 6033SOL     OW29734   1.879   2.254   7.216  0.4792  0.1757 -0.0048
 6033SOL    HW129735   1.872   2.171   7.170  1.3147  0.4603 -0.6569
 6033SOL    HW229736   1.879   2.222   7.306 -2.2602  1.4528  0.4461
 6034SOL     OW29737   1.266   2.170   1.166 -0.0256 -0.8286 -0.3233
 6034SOL    HW129738   1.228   2.146   1.251 -1.2160 -1.9531 -1.1901
 6034SOL    HW229739   1.352   2.129   1.171  0.0994 -0.7855 -2.2456
 6035SOL     OW29740   2.589   2.286   2.261  0.5994 -0.1027  0.1518
 6035SOL    HW129741   2.530   2.256   2.331  0.3286  1.3281  0.5265
 6035SOL    HW229742   2.577   2.380   2.273  1.4968  0.1649 -1.1244
 6036SOL     OW29743   1.667   2.212   6.306  0.2617  0.2973 -0.0584
 6036SOL    HW129744   1.657   2.298   6.346  0.0276 -1.0085  2.7406
 6036SOL    HW229745   1.638   2.170   6.387 -2.1653 -0.1954 -1.1925
 6037SOL     OW29746   4.095   0.886  17.516  0.5205 -0.2038  0.4036
 6037SOL    HW129747   4.094   0.968  17.467 -0.2266 -0.4041  0.0719
 6037SOL    HW229748   4.002   0.862  17.517  0.3565  0.4689  1.3625
 6038SOL     OW29749   0.402   4.258   8.975  0.3416 -0.2110 -0.4793
 6038SOL    HW129750   0.356   4.331   9.016  0.7507 -0.8480  1.1622
 6038SOL    HW229751   0.341   4.189   9.002  0.7706 -0.2174  0.4819
 6039SOL     OW29752   1.675   3.848   5.758  0.3345 -0.3332  0.3827
 6039SOL    HW129753   1.745   3.856   5.693 -0.7115 -1.0163 -0.8105
 6039SOL    HW229754   1.597   3.849   5.703 -0.2378 -2.9453  1.1591
 6040SOL     OW29755   1.574   1.017   7.112 -0.1494  0.8457 -0.2067
 6040SOL    HW129756   1.594   0.924   7.127  0.6743  1.0308 -0.1507
 6040SOL    HW229757   1.581   1.055   7.199 -1.3295  1.8257 -0.5501
 6041SOL     OW29758   2.013   3.458   2.113  0.4315 -0.1784 -0.5620
 6041SOL    HW129759   1.982   3.434   2.200 -0.1879 -0.3903 -0.8379
 6041SOL    HW229760   1.971   3.386   2.066  1.7141 -0.1225 -1.7724
 6042SOL     OW29761   2.192   2.920   4.922  0.3736  0.4976  0.0811
 6042SOL    HW129762   2.121   2.857   4.908  1.1962 -0.7495  1.5544
 6042SOL    HW229763   2.151   2.994   4.877 -3.1373 -1.5901 -0.1823
 6043SOL     OW29764   3.627   0.883   0.110  0.5434 -0.4407  0.1904
 6043SOL    HW129765   3.699   0.941   0.087 -0.3236 -0.0514 -1.5094
 6043SOL    HW229766   3.675   0.809   0.147 -0.9138 -0.0289  2.9432
 6044SOL     OW29767   2.640   0.191   5.539  0.1526 -0.0598  0.0160
 6044SOL    HW129768   2.632   0.230   5.626 -0.5665  0.6635 -0.3640
 6044SOL    HW229769   2.561   0.222   5.493 -0.3222 -0.7542  0.3734
 6045SOL     OW29770   3.055   2.042   4.472 -0.8464  0.4783  0.3665
 6045SOL    HW129771   3.101   1.968   4.512  1.3934  1.9001  0.3935
 6045SOL    HW229772   3.116   2.079   4.409  1.1040  1.3385  2.7949
 6046SOL     OW29773   2.816   2.754   9.117  0.6210 -0.7010 -0.0610
 6046SOL    HW129774   2.897   2.760   9.167 -1.1264  0.8493  2.5618
 6046SOL    HW229775   2.842   2.691   9.050  1.0698  0.1613 -0.6989
 6047SOL     OW29776   3.132   1.338  16.100  0.5479 -1.1027 -0.2208
 6047SOL    HW129777   3.120   1.344  16.005 -1.4290 -1.9280 -0.0224
 6047SOL    HW229778   3.227   1.330  16.109  0.4721 -2.4537 -0.5105
 6048SOL     OW29779   3.680   3.671  17.638 -0.3665 -0.0203  1.0668
 6048SOL    HW129780   3.678   3.719  17.555  0.0450 -1.1439  0.4026
 6048SOL    HW229781   3.756   3.712  17.679  1.5500 -2.0214 -0.4639
 6049SOL     OW29782   1.050   0.734   7.407 -0.0672  0.1635  0.2620
 6049SOL    HW129783   1.130   0.728   7.354  0.9161  0.1032  1.7555
 6049SOL    HW229784   0.991   0.679   7.355 -0.8816 -0.5741  1.9439
 6050SOL     OW29785   1.725   0.461   7.107 -0.3353 -0.7300 -0.0700
 6050SOL    HW129786   1.683   0.376   7.099 -1.1734 -0.2661 -0.5647
 6050SOL    HW229787   1.784   0.451   7.182  1.8466 -0.6439 -1.7655
 6051SOL     OW29788   0.429   2.516   8.348 -0.1976  0.5276 -0.2291
 6051SOL    HW129789   0.510   2.547   8.388 -1.1366  1.5937  0.8074
 6051SOL    HW229790   0.417   2.440   8.405 -0.3507  0.1626 -0.7419
 6052SOL     OW29791   1.634   0.282  10.203  0.2215 -0.4159  0.3596
 6052SOL    HW129792   1.602   0.309  10.289  1.2369  1.0821  0.2806
 6052SOL    HW229793   1.636   0.363  10.152 -2.9246 -0.6607 -0.1429
 6053SOL     OW29794   4.020   3.331   7.832  0.2296  0.0588 -0.4263
 6053SOL    HW129795   3.979   3.413   7.858  1.1012  0.2266  0.4163
 6053SOL    HW229796   4.110   3.362   7.830  0.4234 -0.6478 -2.7008
 6054SOL     OW29797   4.438   0.486  13.516 -0.4106  0.0235 -0.1730
 6054SOL    HW129798   4.533   0.481  13.507 -0.6276 -0.6753 -2.1981
 6054SOL    HW229799   4.419   0.566  13.467  0.8941 -0.2033 -1.0579
 6055SOL     OW29800   2.230   0.425   6.957  0.2440 -0.6157 -0.1251
 6055SOL    HW129801   2.155   0.481   6.938 -0.8665 -0.9227  3.3157
 6055SOL    HW229802   2.255   0.453   7.045 -2.3725  0.5555  0.2415
 6056SOL     OW29803   3.166   0.376   5.787  0.6058  0.1058  0.2202
 6056SOL    HW129804   3.149   0.457   5.837  2.7884  0.7090  0.0118
 6056SOL    HW229805   3.262   0.375   5.790  0.6659  1.8361 -0.6893
 6057SOL     OW29806   3.118   0.967   8.789 -0.1339  0.9395 -0.1527
 6057SOL    HW129807   3.147   1.008   8.871  0.0387  2.8415 -1.1639
 6057SOL    HW229808   3.132   1.045   8.736 -0.4708  0.7960 -0.4588
 6058SOL     OW29809   3.588   1.716   8.181  0.2246  0.0901 -0.2730
 6058SOL    HW129810   3.635   1.680   8.105  1.4219  2.5406 -0.7007
 6058SOL    HW229811   3.497   1.695   8.157  0.8977 -0.9505 -1.9640
 6059SOL     OW29812   2.854   0.117   3.816  0.0400  0.4027  0.5904
 6059SOL    HW129813   2.796   0.151   3.884  0.0254  3.3334 -0.9026
 6059SOL    HW229814   2.794   0.063   3.766  1.7359  2.1978 -3.3435
 6060SOL     OW29815   0.998   1.936  16.727 -0.2126 -0.3179  0.8663
 6060SOL    HW129816   0.941   2.002  16.687 -0.8619  1.0644  4.1158
 6060SOL    HW229817   1.064   1.992  16.769  0.2423  1.1280 -1.7188
 6061SOL     OW29818   3.012   2.865  11.023 -0.1961 -0.1771  0.1786
 6061SOL    HW129819   2.916   2.873  11.025 -0.1190  0.7196  0.4063
 6061SOL    HW229820   3.044   2.955  11.027 -0.1497 -0.1653 -0.4429
 6062SOL     OW29821   3.061   3.047   3.625  0.7828 -0.1836 -0.1385
 6062SOL    HW129822   3.120   3.097   3.681 -2.3098  0.6930  2.3413
 6062SOL    HW229823   2.984   3.099   3.648  0.6139 -1.7019  2.7272
 6063SOL     OW29824   3.792   1.501   9.933 -0.6350 -0.0402 -0.1036
 6063SOL    HW129825   3.744   1.430   9.891  0.7594 -1.4641  0.6872
 6063SOL    HW229826   3.880   1.477   9.904 -1.1221 -2.3703  0.3746
 6064SOL     OW29827   1.759   1.057   9.375 -0.5169 -0.4762  0.1242
 6064SOL    HW129828   1.738   1.147   9.351 -2.7236 -0.4568  2.1101
 6064SOL    HW229829   1.676   1.022   9.407 -0.2733  0.2088  1.5230
 6065SOL     OW29830   0.237   4.220   4.899 -0.1689 -0.3119 -0.3907
 6065SOL    HW129831   0.252   4.261   4.984  0.4754 -1.5529  0.1006
 6065SOL    HW229832   0.244   4.127   4.917 -1.0475 -0.1191  0.9248
 6066SOL     OW29833   4.570   3.691  14.409  0.3014 -0.5530 -0.7140
 6066SOL    HW129834   4.543   3.649  14.327 -1.4999  0.4224 -0.6400
 6066SOL    HW229835   4.485   3.726  14.439  1.3057  0.9605  0.3693
 6067SOL     OW29836   1.478   2.187  12.188  0.1872 -0.0078 -0.6148
 6067SOL    HW129837   1.460   2.263  12.243  1.7075 -0.3872  0.4053
 6067SOL    HW229838   1.447   2.114  12.242  2.5348  0.3691  1.2527
 6068SOL     OW29839   2.738   2.294   6.869 -0.0256 -0.1284  0.4274
 6068SOL    HW129840   2.757   2.309   6.776  1.3529  1.5873  0.9854
 6068SOL    HW229841   2.647   2.323   6.869 -0.3523 -1.1662  0.9355
 6069SOL     OW29842   2.802   0.553   1.520  0.0005 -0.2415 -0.9607
 6069SOL    HW129843   2.780   0.646   1.509 -1.5042 -0.4536  0.2568
 6069SOL    HW229844   2.897   0.541   1.519 -0.0730 -0.9187 -0.2142
 6070SOL     OW29845   0.847   3.370   2.746  0.5153 -0.1343 -0.3250
 6070SOL    HW129846   0.903   3.358   2.669  1.7542  0.2152  0.5308
 6070SOL    HW229847   0.763   3.383   2.704 -0.2718 -1.6268  0.7786
 6071SOL     OW29848   4.301   3.410   5.589  0.3567 -0.0956  0.1763
 6071SOL    HW129849   4.225   3.404   5.532 -1.3536  2.3278  2.2059
 6071SOL    HW229850   4.320   3.503   5.579 -0.9348  0.1441  0.0385
 6072SOL     OW29851   3.229   4.158   1.201 -0.0197  0.4957  0.2023
 6072SOL    HW129852   3.164   4.209   1.247  2.6815  1.8779  2.4849
 6072SOL    HW229853   3.194   4.143   1.113 -0.6604  1.7858  0.2447
 6073SOL     OW29854   0.300   1.176   2.252  0.6093 -0.5284  0.0598
 6073SOL    HW129855   0.236   1.220   2.307  1.1305  1.6311 -1.0523
 6073SOL    HW229856   0.299   1.099   2.310 -2.8140  0.7253  1.6463
 6074SOL     OW29857   4.382   2.235  17.366 -0.1151  0.3298 -1.0282
 6074SOL    HW129858   4.316   2.165  17.364  1.7369 -1.4086 -1.4568
 6074SOL    HW229859   4.456   2.205  17.314  0.2022  0.3128 -0.5636
 6075SOL     OW29860   2.338   0.851  12.865  0.0368 -0.3351 -0.0339
 6075SOL    HW129861   2.354   0.868  12.958 -0.1933  1.0788 -0.2456
 6075SOL    HW229862   2.272   0.914  12.838 -0.9437 -1.4510 -0.2119
 6076SOL     OW29863   4.488   4.225   1.669  0.2180  0.6397  0.0333
 6076SOL    HW129864   4.546   4.231   1.745 -0.1461  1.0222  0.2869
 6076SOL    HW229865   4.418   4.169   1.703 -0.2668  1.2370  0.0064
 6077SOL     OW29866   4.023   2.090   2.586  0.0568 -0.4586 -0.2176
 6077SOL    HW129867   4.117   2.107   2.581  0.0371 -0.0964  0.8187
 6077SOL    HW229868   3.998   2.135   2.505 -1.4158 -0.9193 -0.0211
 6078SOL     OW29869   2.563   2.832  14.235  0.2756 -0.3709  0.3096
 6078SOL    HW129870   2.539   2.867  14.321  0.1994 -0.6003  0.3828
 6078SOL    HW229871   2.637   2.890  14.217  0.4759  0.5144  3.8825
 6079SOL     OW29872   1.861   3.274   7.642 -0.3924  0.0358  0.2864
 6079SOL    HW129873   1.858   3.368   7.626 -0.1945 -0.4140 -2.3437
 6079SOL    HW229874   1.777   3.237   7.616 -0.3281  1.7467 -2.2827
 6080SOL     OW29875   2.887   4.529   9.265  0.0072  0.1484  0.2709
 6080SOL    HW129876   2.803   4.546   9.223  1.0159 -0.5470 -2.0021
 6080SOL    HW229877   2.869   4.509   9.357 -1.3526  1.1662  0.2359
 6081SOL     OW29878   0.060   3.825   5.141 -0.0537 -0.6716 -0.1597
 6081SOL    HW129879   0.008   3.889   5.191 -0.1429 -0.3665 -0.6452
 6081SOL    HW229880   4.732   3.787   5.082 -0.2802  0.4066 -0.6084
 6082SOL     OW29881   2.305   2.991  11.310 -0.4468  0.0237 -0.0075
 6082SOL    HW129882   2.290   3.085  11.301 -0.7227 -0.0320 -0.1390
 6082SOL    HW229883   2.221   2.967  11.349 -0.5883  0.3610 -0.0991
 6083SOL     OW29884   3.189   0.061   6.263 -0.1925  0.1473  0.0691
 6083SOL    HW129885   3.153   0.074   6.351 -0.6616 -1.6434  0.1591
 6083SOL    HW229886   3.177   0.149   6.228  0.6130 -0.0226 -0.6195
 6084SOL     OW29887   0.765   3.137   7.111  0.1302  0.5405 -0.1623
 6084SOL    HW129888   0.794   3.047   7.123  0.0136  0.5020 -0.1680
 6084SOL    HW229889   0.689   3.147   7.169  0.5851 -0.7859  0.6487
 6085SOL     OW29890   1.220   0.302   8.252 -0.0469  0.5977  0.2764
 6085SOL    HW129891   1.200   0.367   8.184 -1.5965 -0.3138 -0.1598
 6085SOL    HW229892   1.131   0.290   8.287 -0.1088 -1.5656 -0.6014
 6086SOL     OW29893   0.372   2.815   1.855 -1.1039  0.2095 -0.0371
 6086SOL    HW129894   0.452   2.827   1.907 -0.8324  0.2735 -0.4729
 6086SOL    HW229895   0.368   2.902   1.815 -0.8648  0.5599  0.7093
 6087SOL     OW29896   3.001   0.295   1.355 -0.0471  0.4590 -0.1288
 6087SOL    HW129897   2.965   0.381   1.333 -1.6022 -0.0556  0.4092
 6087SOL    HW229898   3.086   0.298   1.312  0.3589 -2.3572  0.4749
 6088SOL     OW29899   3.790   4.528   9.618  0.7282  0.2576  0.6534
 6088SOL    HW129900   3.784   4.501   9.526 -0.3681  0.2268  0.7306
 6088SOL    HW229901   3.827   4.616   9.613 -0.5234  0.7402 -0.2637
 6089SOL     OW29902   0.095   4.677  10.742 -0.2614 -0.0388 -0.0276
 6089SOL    HW129903   0.023   4.643  10.689  0.2336 -0.9057 -0.1368
 6089SOL    HW229904   0.051   4.677  10.827  0.3839 -1.8480  0.3086
 6090SOL     OW29905   1.872   3.812  15.806 -0.4469 -0.1640 -0.4141
 6090SOL    HW129906   1.824   3.771  15.734 -1.2391  0.9650 -0.5276
 6090SOL    HW229907   1.965   3.805  15.785 -0.6292 -0.0557 -1.2655
 6091SOL     OW29908   1.373   2.740  10.673 -0.0776  0.5486  0.2422
 6091SOL    HW129909   1.308   2.799  10.634 -0.1714  1.3390  1.5909
 6091SOL    HW229910   1.342   2.651  10.663  0.4324  0.1826  1.9818
 6092SOL     OW29911   2.837   0.535   2.822 -0.2100  0.3234  0.0249
 6092SOL    HW129912   2.767   0.593   2.794  0.8735  1.8367  0.4424
 6092SOL    HW229913   2.888   0.540   2.742 -1.6342 -0.3721 -0.9273
 6093SOL     OW29914   1.459   4.057   7.617 -0.2969 -0.4520  0.0369
 6093SOL    HW129915   1.541   4.036   7.662 -0.5085  2.8650  1.9825
 6093SOL    HW229916   1.425   4.120   7.681 -1.7974 -1.5988  0.3850
 6094SOL     OW29917   1.633   3.368   6.759 -0.2938  0.2207  0.6372
 6094SOL    HW129918   1.560   3.410   6.715 -1.0515 -0.7055  1.0111
 6094SOL    HW229919   1.591   3.328   6.835  1.2794  0.1452  1.4634
 6095SOL     OW29920   3.173   3.653   9.466 -0.3931 -0.0901  0.3837
 6095SOL    HW129921   3.142   3.576   9.514  0.7646 -0.7413  0.0699
 6095SOL    HW229922   3.107   3.716   9.497 -0.1946  1.1532 -1.7601
 6096SOL     OW29923   4.181   2.260   8.786  0.6512 -0.3112 -0.1191
 6096SOL    HW129924   4.211   2.325   8.723  2.1211 -1.2230 -0.3840
 6096SOL    HW229925   4.212   2.294   8.870  0.4060 -1.9438  0.6464
 6097SOL     OW29926   4.497   0.741  14.328  0.4020 -0.7660  0.3535
 6097SOL    HW129927   4.419   0.705  14.370 -0.4177  2.1021  1.3081
 6097SOL    HW229928   4.464   0.768  14.242 -0.4856 -0.5460  0.7594
 6098SOL     OW29929   2.931   3.118   7.834  0.4075 -0.3212  0.2065
 6098SOL    HW129930   2.998   3.097   7.899  1.6217 -1.3440 -1.3833
 6098SOL    HW229931   2.900   3.033   7.802  1.1732 -1.3076  2.0868
 6099SOL     OW29932   1.750   3.050   7.368 -0.1409 -0.4745 -0.4125
 6099SOL    HW129933   1.839   3.020   7.387  0.0331  0.4303  0.1802
 6099SOL    HW229934   1.770   3.137   7.335  0.2343 -0.2119  0.4986
 6100SOL     OW29935   1.309   2.851  16.491 -0.7275  0.6973  0.4343
 6100SOL    HW129936   1.248   2.915  16.529 -0.9474  1.5041 -1.2621
 6100SOL    HW229937   1.237   2.797  16.458  0.1930 -0.0496 -0.3649
 6101SOL     OW29938   2.320   2.082   8.969  1.1006 -0.3685 -0.4203
 6101SOL    HW129939   2.276   1.997   8.973 -1.1347  0.8027 -0.1861
 6101SOL    HW229940   2.382   2.087   9.041 -1.2386  2.3766  1.4296
 6102SOL     OW29941   3.070   4.362   7.128 -0.1961 -0.3096  0.2237
 6102SOL    HW129942   2.982   4.390   7.155  0.3095  0.9761  0.4928
 6102SOL    HW229943   3.041   4.314   7.050  0.3620 -0.0730 -0.1264
 6103SOL     OW29944   0.981   2.847   2.974 -0.1094 -0.2943  0.3988
 6103SOL    HW129945   0.973   2.937   2.944 -0.3299  0.1784  1.8775
 6103SOL    HW229946   0.980   2.813   2.884 -1.6903  0.6506  0.0700
 6104SOL     OW29947   3.014   1.932   3.448  0.0874  0.5173 -0.3189
 6104SOL    HW129948   3.042   1.964   3.362  0.1305 -1.2405 -0.9689
 6104SOL    HW229949   3.072   1.988   3.497  1.8586 -2.0376  0.5091
 6105SOL     OW29950   2.149   4.088  10.657 -0.3751 -0.1342  0.7015
 6105SOL    HW129951   2.117   4.177  10.669  2.9053  1.2739 -1.0528
 6105SOL    HW229952   2.071   4.035  10.639  0.3042 -0.4949 -1.1676
 6106SOL     OW29953   1.505   4.651  14.903 -0.3678  0.3360 -0.3372
 6106SOL    HW129954   1.480   0.000  14.934 -0.6486  0.1289  0.0080
 6106SOL    HW229955   1.562   4.673  14.829 -1.9447 -0.0747 -1.6619
 6107SOL     OW29956   1.678   1.551   4.236  0.4127  0.0533 -0.1030
 6107SOL    HW129957   1.718   1.463   4.231 -0.7030 -0.3948 -1.1409
 6107SOL    HW229958   1.738   1.604   4.288 -2.3461  1.0699  2.0402
 6108SOL     OW29959   3.796   3.149   4.977 -0.2659 -0.0101 -0.9396
 6108SOL    HW129960   3.845   3.194   4.908 -0.1801 -0.0809 -0.9253
 6108SOL    HW229961   3.827   3.059   4.964 -0.3878 -0.0058 -1.2635
 6109SOL     OW29962   1.731   0.696   5.050 -0.6628 -0.0189  0.0755
 6109SOL    HW129963   1.720   0.755   4.975 -0.4604  0.3752  0.3568
 6109SOL    HW229964   1.645   0.654   5.055  0.6733 -2.6787  0.9381
 6110SOL     OW29965   1.471   1.516   6.658  0.4056  0.4360 -0.1481
 6110SOL    HW129966   1.397   1.456   6.644  0.0848 -0.0305  3.4161
 6110SOL    HW229967   1.506   1.533   6.571 -1.0371  0.3531 -0.7535
 6111SOL     OW29968   3.036   0.489   3.151 -0.0980  0.5205  0.6204
 6111SOL    HW129969   3.091   0.484   3.229  0.3312  1.2219  0.3601
 6111SOL    HW229970   3.096   0.456   3.083 -2.5003 -1.1054 -0.7160
 6112SOL     OW29971   3.871   2.850   0.353  0.1352 -0.1345 -0.0655
 6112SOL    HW129972   3.887   2.899   0.272  1.4942  0.7107  0.7071
 6112SOL    HW229973   3.961   2.818   0.366 -0.0317 -0.4193  0.3859
 6113SOL     OW29974   4.663   0.454   6.242  0.1831 -0.3075  0.0870
 6113SOL    HW129975   4.648   0.515   6.169  0.9418  2.1884  2.0082
 6113SOL    HW229976   4.571   0.428   6.250  0.0611 -0.1476 -0.7962
 6114SOL     OW29977   4.168   4.466   7.736  0.1548  0.0613  0.7934
 6114SOL    HW129978   4.207   4.542   7.778  0.8323  0.9250 -1.4005
 6114SOL    HW229979   4.243   4.406   7.734 -1.0346 -1.3537 -0.6259
 6115SOL     OW29980   3.806   4.610   6.915 -0.3792  0.2322  0.3597
 6115SOL    HW129981   3.841   4.694   6.942 -0.7652 -0.0258  1.6695
 6115SOL    HW229982   3.794   4.569   7.001  0.7674 -0.6245  0.1057
 6116SOL     OW29983   2.322   4.457   3.892  0.4906  0.6101  0.1643
 6116SOL    HW129984   2.409   4.465   3.852 -0.0823  1.0570 -0.9915
 6116SOL    HW229985   2.258   4.494   3.831  0.3279 -0.2933 -0.2275
 6117SOL     OW29986   4.484   4.364   7.243 -0.2161 -0.0180  0.4107
 6117SOL    HW129987   4.551   4.383   7.308  0.9513 -0.8124 -0.5654
 6117SOL    HW229988   4.507   4.278   7.207  1.2328  0.7016 -0.3555
 6118SOL     OW29989   1.270   2.909   6.715 -0.1955  0.5510  0.4853
 6118SOL    HW129990   1.290   2.816   6.700 -1.7080  0.1834  0.7342
 6118SOL    HW229991   1.209   2.909   6.788 -0.6739  0.7632  0.0849
 6119SOL     OW29992   0.314   0.227   1.172 -0.0659 -0.0442  0.2250
 6119SOL    HW129993   0.336   0.245   1.081  0.7051 -0.0165  0.4200
 6119SOL    HW229994   0.218   0.229   1.164 -0.1230 -1.8534  0.4080
 6120SOL     OW29995   2.118   3.546   0.632  0.4075 -0.5827  0.1464
 6120SOL    HW129996   2.065   3.469   0.612 -0.1742 -0.2507  0.3888
 6120SOL    HW229997   2.079   3.621   0.588 -1.3903 -1.0736  0.8798
 6121SOL     OW29998   0.377   2.637  15.029  0.3777  0.5123 -0.6351
 6121SOL    HW129999   0.450   2.594  14.985 -0.9007 -3.5200  1.2111
 6121SOL    HW230000   0.331   2.566  15.073  0.4597 -0.3640 -1.9731
 6122SOL     OW30001   1.160   3.605   7.705  0.8168  0.4617  0.2061
 6122SOL    HW130002   1.225   3.675   7.713 -1.3375  2.7945 -2.8374
 6122SOL    HW230003   1.076   3.651   7.701  1.3973  1.6664  1.7755
 6123SOL     OW30004   0.961   0.666   4.478 -0.0345 -0.2716  0.2082
 6123SOL    HW130005   0.925   0.742   4.433  0.0932  0.2099  0.9194
 6123SOL    HW230006   1.053   0.683   4.495 -0.4513 -0.2740  2.4311
 6124SOL     OW30007   0.889   1.302   3.958  0.2003  0.0492 -0.0124
 6124SOL    HW130008   0.797   1.328   3.947 -0.2152 -1.0896  0.8212
 6124SOL    HW230009   0.921   1.364   4.024  3.5700 -2.7130  0.9459
 6125SOL     OW30010   3.774   4.288  17.485  0.0226  0.9740 -0.7011
 6125SOL    HW130011   3.772   4.376  17.446  1.3446  0.9513 -0.8231
 6125SOL    HW230012   3.842   4.300  17.551 -0.6769  0.0071  0.1966
 6126SOL     OW30013   2.115   0.190  16.276  0.5438  0.5769  0.3105
 6126SOL    HW130014   2.062   0.156  16.348  1.3033 -2.1918 -0.4232
 6126SOL    HW230015   2.078   0.275  16.253 -1.6791 -0.6022 -0.4861
 6127SOL     OW30016   3.427   0.549   8.281  0.0507 -0.3382  0.3464
 6127SOL    HW130017   3.352   0.521   8.228  0.3187  0.2816 -0.3635
 6127SOL    HW230018   3.383   0.572   8.363 -2.2452 -0.7681 -0.7658
 6128SOL     OW30019   0.645   1.839   3.119  0.3148  0.3283  0.5779
 6128SOL    HW130020   0.675   1.753   3.148 -1.5470 -0.4211  0.2362
 6128SOL    HW230021   0.567   1.823   3.066 -0.6370  0.2370  1.9990
 6129SOL     OW30022   4.664   1.961   2.765  0.1439 -0.0263 -0.0219
 6129SOL    HW130023   4.735   2.020   2.738 -0.9025  1.3838  0.2982
 6129SOL    HW230024   4.653   2.002   2.851 -2.4218 -0.0580 -0.3354
 6130SOL     OW30025   0.572   0.913   3.584  0.9902 -0.2885 -0.1187
 6130SOL    HW130026   0.650   0.929   3.532  0.4207 -1.3573 -1.2969
 6130SOL    HW230027   0.612   0.907   3.671 -0.0572 -1.5523  0.2758
 6131SOL     OW30028   1.396   4.412   7.955 -0.6438  0.3785  0.1682
 6131SOL    HW130029   1.378   4.504   7.974 -1.1668  0.2874  0.0985
 6131SOL    HW230030   1.489   4.410   7.977 -0.6348  1.1986  0.2161
 6132SOL     OW30031   1.861   3.007   8.750  0.6216  0.1182 -0.1374
 6132SOL    HW130032   1.812   3.010   8.668 -0.7962 -1.2243  0.6591
 6132SOL    HW230033   1.939   3.052   8.717  1.1067 -0.1639  0.6149
 6133SOL     OW30034   0.498   4.562   3.835 -0.6697 -0.3081  0.4852
 6133SOL    HW130035   0.549   4.494   3.790 -1.9263 -0.0396 -1.3455
 6133SOL    HW230036   0.563   4.625   3.866 -0.9369 -0.2616  0.9480
 6134SOL     OW30037   2.768   2.383   7.823  0.0454 -0.0750  0.3826
 6134SOL    HW130038   2.828   2.411   7.753  0.5860 -0.5439  0.6627
 6134SOL    HW230039   2.824   2.389   7.900 -1.1943 -0.8453  1.3540
 6135SOL     OW30040   0.914   0.114   0.248  0.2322  0.6897  0.4417
 6135SOL    HW130041   0.906   0.094   0.341 -0.2315 -2.2395 -0.2367
 6135SOL    HW230042   0.842   0.062   0.212  0.6341 -0.2480  1.0000
 6136SOL     OW30043   4.731   4.148   0.434 -0.2789  0.0891 -0.6369
 6136SOL    HW130044   0.035   4.120   0.352  0.6159  2.1088 -0.8855
 6136SOL    HW230045   4.640   4.149   0.406 -0.3944  0.4484 -0.2527
 6137SOL     OW30046   0.966   4.674   5.949 -0.3402 -0.3292 -0.1034
 6137SOL    HW130047   0.920   4.660   6.031 -1.7739  1.1197 -0.6627
 6137SOL    HW230048   0.888   4.682   5.894  0.9108  0.3171 -1.7625
 6138SOL     OW30049   3.987   3.038   3.137  0.5677  0.2522 -0.2462
 6138SOL    HW130050   3.973   3.116   3.190  0.1658  0.3553 -0.5099
 6138SOL    HW230051   3.901   2.996   3.136  1.7389 -2.1739  0.4290
 6139SOL     OW30052   4.581   4.265   3.857  0.6400 -0.0109 -0.5913
 6139SOL    HW130053   4.656   4.297   3.807 -0.3167  0.2670 -1.8206
 6139SOL    HW230054   4.617   4.184   3.894 -1.5759  0.2661  2.1399
 6140SOL     OW30055   4.188   4.186   4.034  0.3926 -0.1354 -0.3840
 6140SOL    HW130056   4.144   4.242   3.969  0.2823  1.7777  1.3369
 6140SOL    HW230057   4.270   4.235   4.037 -0.6755  1.6218  0.7562
 6141SOL     OW30058   2.823   4.064   1.613 -0.5446 -0.4592  0.0402
 6141SOL    HW130059   2.766   4.052   1.537 -0.9639 -0.7613  0.3995
 6141SOL    HW230060   2.906   4.020   1.592  0.0375 -0.6516  2.6155
 6142SOL     OW30061   2.598   1.853   4.214 -0.3192 -0.5537  0.0607
 6142SOL    HW130062   2.630   1.940   4.190  1.7970 -1.2039  0.5282
 6142SOL    HW230063   2.669   1.795   4.187 -0.6117  0.7526 -3.4950
 6143SOL     OW30064   0.927   0.295   4.638 -0.4295  0.0498  0.4340
 6143SOL    HW130065   0.911   0.274   4.546 -0.4204  2.2216 -0.0609
 6143SOL    HW230066   0.961   0.384   4.641  1.6322 -0.7755  1.4767
 6144SOL     OW30067   1.092   3.982  15.965 -0.0775  0.1630  0.4422
 6144SOL    HW130068   1.133   3.907  15.923 -1.5005 -0.9781  1.1023
 6144SOL    HW230069   1.002   3.953  15.976  0.9072 -2.3077  2.0426
 6145SOL     OW30070   3.849   4.177   0.753 -0.4469 -0.0964  0.1269
 6145SOL    HW130071   3.753   4.180   0.760 -0.6326  1.1463 -3.0913
 6145SOL    HW230072   3.871   4.163   0.846 -1.5366  0.0519  0.4090
 6146SOL     OW30073   3.184   4.378   0.138  0.1133 -0.2304  0.1447
 6146SOL    HW130074   3.236   4.308   0.099  0.5333  0.6779 -0.9203
 6146SOL    HW230075   3.127   4.407   0.067  2.2178 -1.0347 -1.8820
 6147SOL     OW30076   2.012   3.568   8.884  0.1427 -0.6330 -0.5372
 6147SOL    HW130077   2.107   3.571   8.873  0.3744  0.6154  1.8778
 6147SOL    HW230078   1.992   3.641   8.825  1.9654 -0.1121 -0.4996
 6148SOL     OW30079   2.775   3.589   0.226  0.2702  0.0029  0.2614
 6148SOL    HW130080   2.797   3.661   0.286  0.4741  0.0970  0.0761
 6148SOL    HW230081   2.859   3.574   0.184 -0.2795 -0.4758 -0.6457
 6149SOL     OW30082   3.264   2.795   7.096 -0.0386 -0.3528 -0.2930
 6149SOL    HW130083   3.229   2.827   7.179 -0.9539 -2.6823  0.2198
 6149SOL    HW230084   3.298   2.873   7.051  0.0658 -0.3948 -0.2871
 6150SOL     OW30085   3.986   1.245  17.281 -0.0578 -0.0121 -0.2385
 6150SOL    HW130086   3.922   1.181  17.252  3.2466 -2.7260 -1.5814
 6150SOL    HW230087   4.042   1.266  17.206 -0.4713  0.7479 -0.3370
 6151SOL     OW30088   2.448   0.508   4.911  0.0788  0.3405  0.2370
 6151SOL    HW130089   2.435   0.435   4.851 -2.3754 -1.1106  2.5172
 6151SOL    HW230090   2.359   0.527   4.943  0.3722 -1.2306  2.0413
 6152SOL     OW30091   4.068   3.595   4.798 -0.0384 -0.0928  0.7061
 6152SOL    HW130092   4.053   3.642   4.717 -0.3137 -1.4411 -0.0217
 6152SOL    HW230093   4.090   3.659   4.867 -0.6685  0.4699  0.3768
 6153SOL     OW30094   4.573   2.126   4.173  0.1014 -0.0525  0.2577
 6153SOL    HW130095   4.594   2.169   4.256  0.6621 -2.4643  1.3670
 6153SOL    HW230096   4.560   2.042   4.217 -2.3770  1.2994  2.1782
 6154SOL     OW30097   2.115   3.175   6.520  0.6606 -0.1130 -0.0361
 6154SOL    HW130098   2.193   3.229   6.515  0.7704 -0.2934 -0.2555
 6154SOL    HW230099   2.057   3.223   6.580  1.7752 -1.1363  1.8745
 6155SOL     OW30100   3.466   0.143  17.025 -0.0326  0.4660  0.3683
 6155SOL    HW130101   3.374   0.140  17.000 -0.1859  1.6420  0.7721
 6155SOL    HW230102   3.456   0.112  17.115  1.4255  0.9306  0.6970
 6156SOL     OW30103   4.073   2.636  16.797 -0.0493 -0.2466  0.0494
 6156SOL    HW130104   4.070   2.546  16.828  1.6406 -0.1612  0.4572
 6156SOL    HW230105   4.093   2.676  16.881 -0.4918  1.0017 -0.4342
 6157SOL     OW30106   2.884   4.296  15.855 -0.1675 -0.2907  0.1752
 6157SOL    HW130107   2.850   4.341  15.932 -1.6124 -2.9093  1.0542
 6157SOL    HW230108   2.877   4.206  15.886  0.0862 -0.0555  0.9085
 6158SOL     OW30109   0.116   4.719  11.896  0.7186  0.4154 -0.4503
 6158SOL    HW130110   0.181   0.008  11.962  0.0835 -0.7167  0.6172
 6158SOL    HW230111   0.121   4.625  11.908 -0.0754  0.3690 -0.4760
 6159SOL     OW30112   1.954   1.649   3.357  0.5825 -0.7953  0.0150
 6159SOL    HW130113   1.977   1.589   3.428 -1.6937  0.7403  2.0500
 6159SOL    HW230114   1.919   1.724   3.405  2.5230 -0.5576  1.0766
 6160SOL     OW30115   1.212   1.846   2.756  0.0911 -0.7731 -0.0027
 6160SOL    HW130116   1.137   1.826   2.812 -1.6267  2.4634 -1.2074
 6160SOL    HW230117   1.282   1.795   2.797 -0.4717 -1.5555  0.0005
 6161SOL     OW30118   1.268   1.292  14.016  0.0157  0.0352 -0.0211
 6161SOL    HW130119   1.231   1.340  13.942 -1.5021 -2.9523 -1.2080
 6161SOL    HW230120   1.354   1.333  14.013  0.3462 -0.6105  0.6154
 6162SOL     OW30121   0.195   3.745   1.143 -0.2901  0.2934  0.1312
 6162SOL    HW130122   0.227   3.683   1.208 -1.3761 -0.4697 -0.0525
 6162SOL    HW230123   0.275   3.797   1.144  0.7270 -1.2595  0.1615
 6163SOL     OW30124   0.592   1.741  12.459 -0.9229  0.5372  0.6486
 6163SOL    HW130125   0.641   1.664  12.485 -0.4330 -0.0104 -1.9587
 6163SOL    HW230126   0.538   1.745  12.539 -0.9521  2.1117  0.5517
 6164SOL     OW30127   1.273   4.080  16.135 -0.8469 -0.5547 -0.8309
 6164SOL    HW130128   1.207   4.040  16.078 -1.0251 -1.6768  0.1689
 6164SOL    HW230129   1.224   4.141  16.190  0.8559 -1.0976  1.3028
 6165SOL     OW30130   4.377   0.603   3.009 -0.2521  0.7227  0.2012
 6165SOL    HW130131   4.306   0.631   3.067 -0.0577  1.0175  0.2979
 6165SOL    HW230132   4.403   0.688   2.974  0.8677  0.1731 -0.2867
 6166SOL     OW30133   0.934   0.991   4.853 -0.3513  0.0770  0.0264
 6166SOL    HW130134   1.007   0.957   4.905 -0.3587  2.7891  1.7960
 6166SOL    HW230135   0.872   0.920   4.870 -3.0289  2.6054  0.8226
 6167SOL     OW30136   4.285   2.204   6.682  0.1700  0.0438 -0.0360
 6167SOL    HW130137   4.256   2.278   6.629 -3.0935 -0.0064  1.6847
 6167SOL    HW230138   4.316   2.146   6.612  2.8752  0.5548  0.7322
 6168SOL     OW30139   1.813   1.622   7.912 -0.2045 -0.2148 -0.1200
 6168SOL    HW130140   1.862   1.705   7.919 -1.1945  0.2855  0.8440
 6168SOL    HW230141   1.780   1.604   8.000 -0.7876 -1.3634 -0.5848
 6169SOL     OW30142   3.423   1.688   0.172 -0.0063 -0.3798 -0.7946
 6169SOL    HW130143   3.343   1.698   0.120 -0.1633  0.3859 -0.4101
 6169SOL    HW230144   3.479   1.765   0.160  0.4246 -0.3336  1.5639
 6170SOL     OW30145   2.598   0.045   8.500 -0.8051 -0.2205 -0.7569
 6170SOL    HW130146   2.510   0.026   8.533 -0.1780 -0.0983  1.0030
 6170SOL    HW230147   2.584   0.081   8.413  1.0522  0.0803 -0.9412
 6171SOL     OW30148   1.774   0.808   3.675  0.2062  0.0994 -0.3944
 6171SOL    HW130149   1.692   0.810   3.625  0.2698 -1.2965 -0.5527
 6171SOL    HW230150   1.740   0.847   3.755  0.3944  0.5528 -0.5362
 6172SOL     OW30151   0.263   0.237  13.557  0.4642  0.7349 -0.0234
 6172SOL    HW130152   0.335   0.259  13.497  1.0901  0.9026  0.7760
 6172SOL    HW230153   0.203   0.310  13.543 -0.3667  0.3094  1.4165
 6173SOL     OW30154   2.829   3.170   3.006  0.6390 -0.2898  0.0317
 6173SOL    HW130155   2.815   3.104   2.938 -0.2788 -0.3489  0.2888
 6173SOL    HW230156   2.896   3.129   3.061  0.8022  0.2820  0.2630
 6174SOL     OW30157   1.109   0.657   2.418 -0.4639  0.8862  0.2608
 6174SOL    HW130158   1.133   0.636   2.509  0.9862 -2.4821 -0.8984
 6174SOL    HW230159   1.021   0.619   2.409 -0.8765  1.1351  3.1999
 6175SOL     OW30160   3.582   2.985   5.432  0.9932 -0.0604  0.0815
 6175SOL    HW130161   3.606   3.032   5.353  2.2467 -1.8419 -0.5976
 6175SOL    HW230162   3.511   3.038   5.469  1.6518  0.5514  0.4516
 6176SOL     OW30163   4.448   3.618   6.190 -0.1665  0.1587 -0.1617
 6176SOL    HW130164   4.379   3.575   6.139 -0.4849  0.8380 -0.2962
 6176SOL    HW230165   4.529   3.596   6.143 -0.7041 -1.2108 -0.4394
 6177SOL     OW30166   2.535   1.607   8.940 -0.1851  0.3824  0.1849
 6177SOL    HW130167   2.548   1.598   9.035 -0.3987  0.2669  0.2042
 6177SOL    HW230168   2.542   1.514   8.921 -1.9169  0.4616 -0.8603
 6178SOL     OW30169   4.089   3.763   4.206 -0.1481 -0.0852  0.1805
 6178SOL    HW130170   4.018   3.741   4.266  0.2258  0.0393  0.6635
 6178SOL    HW230171   4.161   3.707   4.233 -0.4117 -1.0376 -1.0954
 6179SOL     OW30172   3.097   1.262   4.672  0.3384  0.3048 -0.7509
 6179SOL    HW130173   3.060   1.226   4.753  1.8213 -3.5464 -1.7684
 6179SOL    HW230174   3.055   1.201   4.612  0.6564 -1.3040  0.6364
 6180SOL     OW30175   1.653   3.580  13.516 -0.4267  0.2963 -0.1198
 6180SOL    HW130176   1.666   3.488  13.537  0.6926  0.4814  0.0082
 6180SOL    HW230177   1.677   3.604  13.427 -1.7721  0.6089 -0.4057
 6181SOL     OW30178   0.383   0.415   3.874  0.2365 -0.2209  0.4323
 6181SOL    HW130179   0.413   0.497   3.914 -0.5343 -1.0185  2.6295
 6181SOL    HW230180   0.406   0.434   3.783  1.0236 -0.5076  0.5791
 6182SOL     OW30181   0.329   1.330   6.516 -0.6366  0.7830 -0.1305
 6182SOL    HW130182   0.352   1.309   6.426 -2.2437  2.2896 -0.8903
 6182SOL    HW230183   0.301   1.420   6.504  0.9750  1.0682 -1.6148
 6183SOL     OW30184   1.748   2.154   1.698 -0.1086 -0.1314  0.0736
 6183SOL    HW130185   1.685   2.189   1.761  0.3849  2.6779 -1.0082
 6183SOL    HW230186   1.815   2.137   1.765 -2.3422  1.6912  2.8103
 6184SOL     OW30187   3.220   2.229  13.185  0.0241  0.0000  0.7100
 6184SOL    HW130188   3.287   2.296  13.201 -0.2362 -0.3492  3.2375
 6184SOL    HW230189   3.200   2.205  13.275  1.0771 -4.7621 -0.3396
 6185SOL     OW30190   4.650   1.695   3.255  0.0840  0.0816  0.3515
 6185SOL    HW130191   4.708   1.709   3.180 -0.6601 -0.7534 -0.3726
 6185SOL    HW230192   4.635   1.601   3.259 -0.7220  0.2346  0.9566
 6186SOL     OW30193   2.213   0.802   6.940 -0.1727  0.4444  0.7211
 6186SOL    HW130194   2.117   0.802   6.944 -0.1149 -1.9532  1.9325
 6186SOL    HW230195   2.225   0.839   6.852  1.0988  1.9908  1.5323
 6187SOL     OW30196   0.340   1.354   4.837  0.0807  0.0827  0.3898
 6187SOL    HW130197   0.294   1.419   4.890  0.5229  0.3707  0.4135
 6187SOL    HW230198   0.282   1.278   4.845 -0.2269  0.3947  1.1479
 6188SOL     OW30199   2.563   2.251   3.476 -0.5340 -0.0115 -0.3949
 6188SOL    HW130200   2.470   2.238   3.460 -0.0374 -3.0012 -0.8255
 6188SOL    HW230201   2.581   2.157   3.480 -0.9396 -0.0243  1.2503
 6189SOL     OW30202   1.010   1.926  11.615  0.2951 -0.2104  0.0453
 6189SOL    HW130203   1.078   1.943  11.679 -0.3626  1.0383  0.4044
 6189SOL    HW230204   1.050   1.951  11.531 -2.3325  0.0231 -1.1302
 6190SOL     OW30205   4.555   4.202  11.678  0.0479  0.4104 -0.4242
 6190SOL    HW130206   4.645   4.223  11.655  0.0294  1.6449  0.6136
 6190SOL    HW230207   4.568   4.110  11.701  1.4226  0.9175  0.8113
 6191SOL     OW30208   3.373   2.544   7.121 -0.3139  0.1265  0.6958
 6191SOL    HW130209   3.459   2.575   7.094  0.4878 -3.0235 -0.3802
 6191SOL    HW230210   3.333   2.631   7.119  1.1506  0.7448 -1.0142
 6192SOL     OW30211   0.224   3.697   5.696 -0.1050 -0.1709 -0.1491
 6192SOL    HW130212   0.234   3.775   5.642 -0.5231  1.8831  2.7436
 6192SOL    HW230213   0.233   3.629   5.630  2.7615 -0.3391  0.3978
 6193SOL     OW30214   0.059   3.075  10.717 -0.2500  0.4536  0.1766
 6193SOL    HW130215   4.726   3.107  10.774  0.5761 -0.1077  1.5106
 6193SOL    HW230216   0.038   2.981  10.718 -1.6487  0.7815  2.1069
 6194SOL     OW30217   0.083   0.402   7.506 -0.3303  0.1370 -0.0644
 6194SOL    HW130218   0.166   0.407   7.553  0.3322 -0.1730 -1.1952
 6194SOL    HW230219   0.024   0.344   7.553  0.5693 -0.9845 -0.3191
 6195SOL     OW30220   4.184   3.901   1.945  0.0310 -0.2161  0.4484
 6195SOL    HW130221   4.205   3.985   1.904  1.4791 -1.2485 -0.9344
 6195SOL    HW230222   4.124   3.926   2.015 -0.5830  0.4085 -0.2879
 6196SOL     OW30223   1.872   0.987  11.116  0.3969  0.0037  0.8466
 6196SOL    HW130224   1.920   0.994  11.033  0.4213 -0.5785  0.8103
 6196SOL    HW230225   1.803   1.049  11.095  1.6832  0.4757 -2.1436
 6197SOL     OW30226   0.805   4.566   7.484 -0.5119 -0.3620  0.3701
 6197SOL    HW130227   0.887   4.611   7.504  0.2886 -1.3884 -0.5231
 6197SOL    HW230228   0.749   4.601   7.552 -0.7462  1.6179 -0.8445
 6198SOL     OW30229   3.951   4.425   6.783  0.3951 -0.1994  0.0741
 6198SOL    HW130230   3.920   4.514   6.799  0.8026 -0.0292 -0.0889
 6198SOL    HW230231   3.871   4.378   6.807 -0.3448 -0.0747 -2.2385
 6199SOL     OW30232   2.073   1.748   6.099 -0.6037 -0.3268 -0.5022
 6199SOL    HW130233   2.122   1.786   6.172 -2.1770  4.4939 -1.9757
 6199SOL    HW230234   2.112   1.801   6.029  0.4586 -0.4127  0.0248
 6200SOL     OW30235   4.527   4.162   4.235 -0.1732  0.5401  0.2241
 6200SOL    HW130236   4.496   4.234   4.180 -0.0747  1.0321  0.8124
 6200SOL    HW230237   4.458   4.102   4.208  0.9589 -1.0906  0.9407
 6201SOL     OW30238   3.994   2.905   1.662  0.5231  0.3443  0.2911
 6201SOL    HW130239   4.053   2.830   1.655 -0.2603 -0.3072  0.6620
 6201SOL    HW230240   4.020   2.968   1.595  1.2193 -3.0316 -2.6037
 6202SOL     OW30241   2.700   0.427   1.759  0.6412 -0.8218 -0.1633
 6202SOL    HW130242   2.760   0.470   1.699 -2.0512  0.6147 -1.8013
 6202SOL    HW230243   2.735   0.340   1.782 -0.5192 -1.0350  0.7901
 6203SOL     OW30244   4.379   2.505   2.873 -0.4075  0.6638 -0.5504
 6203SOL    HW130245   4.453   2.556   2.908 -0.1045 -1.7394  2.3190
 6203SOL    HW230246   4.339   2.476   2.955 -0.1194  0.5470 -0.4519
 6204SOL     OW30247   0.941   1.322   8.460  0.4746 -0.1950  0.3094
 6204SOL    HW130248   0.878   1.373   8.410 -1.1138 -0.7329  1.7629
 6204SOL    HW230249   0.879   1.261   8.499 -0.8786 -1.3463 -3.6579
 6205SOL     OW30250   3.009   0.936  16.895  0.2387  0.0339  0.1527
 6205SOL    HW130251   2.927   0.928  16.944 -1.5313 -0.2366 -2.8706
 6205SOL    HW230252   3.012   0.844  16.869 -0.2286  0.4754 -1.4805
 6206SOL     OW30253   2.040   4.552   4.791 -0.2714 -0.2357  0.1244
 6206SOL    HW130254   2.053   4.558   4.886  0.0439  0.6183  0.0233
 6206SOL    HW230255   2.049   4.458   4.775  1.6261 -0.1903  0.9640
 6207SOL     OW30256   4.512   1.340   8.113 -0.1006 -0.1711  0.3847
 6207SOL    HW130257   4.518   1.392   8.194  1.5351  1.9724 -1.0903
 6207SOL    HW230258   4.441   1.391   8.075 -1.0928 -0.9864  1.1303
 6208SOL     OW30259   4.682   1.779  13.713 -0.4810  0.0010 -0.1012
 6208SOL    HW130260   4.665   1.873  13.715  1.4117  0.3258  0.6025
 6208SOL    HW230261   4.628   1.752  13.638 -0.3293  1.7052 -0.8283
 6209SOL     OW30262   0.029   3.210   3.929 -0.1307  0.1674  0.0077
 6209SOL    HW130263   4.689   3.160   3.901  0.2801 -0.4008 -0.0990
 6209SOL    HW230264   4.723   3.294   3.943  0.6955  0.5507  0.2402
 6210SOL     OW30265   3.438   2.619   5.687  0.5487  0.1913 -0.0685
 6210SOL    HW130266   3.488   2.647   5.610  0.6577  0.2882  0.0375
 6210SOL    HW230267   3.445   2.697   5.742  1.6981 -0.2316  0.3730
 6211SOL     OW30268   1.187   2.454   9.133  0.1031 -0.3271  0.6616
 6211SOL    HW130269   1.154   2.544   9.135  0.0142 -0.3714  1.0775
 6211SOL    HW230270   1.278   2.465   9.160  0.3072  0.7793 -0.4837
 6212SOL     OW30271   0.210   0.762   4.889 -0.2366 -0.0215 -0.3757
 6212SOL    HW130272   0.124   0.781   4.851  0.0172  0.1564 -0.8753
 6212SOL    HW230273   0.267   0.831   4.855 -1.3830 -0.1103 -2.4938
 6213SOL     OW30274   1.764   1.156   0.225  0.4526  0.4459 -0.7414
 6213SOL    HW130275   1.858   1.177   0.230  0.4635  0.3620 -0.5733
 6213SOL    HW230276   1.734   1.191   0.141  0.6804 -1.1632 -1.5130
 6214SOL     OW30277   0.840   0.341   5.771 -0.2805  0.4242  0.2211
 6214SOL    HW130278   0.920   0.326   5.721  1.2259 -0.0434  2.7339
 6214SOL    HW230279   0.768   0.350   5.708  1.1161 -0.4037 -1.4680
 6215SOL     OW30280   4.178   1.103   3.113  0.0144 -0.4135 -0.4053
 6215SOL    HW130281   4.204   1.067   3.198 -0.5893  2.3574  0.9435
 6215SOL    HW230282   4.086   1.080   3.111 -0.5069  1.5256  1.6593
 6216SOL     OW30283   2.561   0.408   0.508 -0.0339 -0.0546 -0.2262
 6216SOL    HW130284   2.539   0.495   0.476 -3.3843 -0.6599  0.4428
 6216SOL    HW230285   2.650   0.395   0.474  0.9175  0.3982  2.0670
 6217SOL     OW30286   0.939   0.759  14.182  0.3168 -0.4084  0.1369
 6217SOL    HW130287   0.925   0.665  14.186  0.4469 -0.4835 -1.0052
 6217SOL    HW230288   1.033   0.762  14.201 -0.0126  0.4597  1.5928
 6218SOL     OW30289   2.514   4.710  10.592  0.6838  0.2689 -0.3034
 6218SOL    HW130290   2.575   4.636  10.597 -0.3383 -0.3244  3.3084
 6218SOL    HW230291   2.582   0.039  10.605  1.5682 -0.4173 -1.3429
 6219SOL     OW30292   1.088   1.207   7.265 -0.2962 -0.1868  0.1089
 6219SOL    HW130293   1.181   1.216   7.285  0.0192 -1.6712 -0.7244
 6219SOL    HW230294   1.075   1.135   7.203 -2.4297 -0.0152  0.3575
 6220SOL     OW30295   3.952   2.901  17.618 -0.0756  0.7451 -0.1624
 6220SOL    HW130296   4.026   2.856  17.578 -0.6566  0.8588 -1.3741
 6220SOL    HW230297   3.880   2.861  17.569  1.0098  0.4853 -1.5286
 6221SOL     OW30298   2.087   0.265   1.065 -0.2434  0.1612 -0.1008
 6221SOL    HW130299   2.003   0.310   1.058 -0.5974 -0.4452  0.1828
 6221SOL    HW230300   2.086   0.228   0.977 -1.7226 -1.2920  0.5268
 6222SOL     OW30301   2.287   0.239   1.867  0.5741  0.4326  0.3111
 6222SOL    HW130302   2.361   0.218   1.923 -0.7603 -2.8520  0.8490
 6222SOL    HW230303   2.320   0.322   1.831 -0.3971  0.8492  0.3727
 6223SOL     OW30304   0.591   3.541  14.715  0.1193  0.3717 -0.1694
 6223SOL    HW130305   0.561   3.627  14.685  2.0268  1.9695  2.4066
 6223SOL    HW230306   0.685   3.560  14.712  0.4563 -2.2454 -5.7902
 6224SOL     OW30307   4.708   2.843   4.262 -0.2229 -0.1617  0.5214
 6224SOL    HW130308   0.010   2.869   4.179  2.4125  0.5450  1.9887
 6224SOL    HW230309   4.617   2.834   4.234  0.2961 -3.1172 -0.1923
 6225SOL     OW30310   1.643   2.013   6.899 -0.7786 -0.2455 -0.5035
 6225SOL    HW130311   1.708   2.080   6.878 -1.2673 -0.3840 -2.4391
 6225SOL    HW230312   1.612   1.980   6.814 -2.1104 -2.0319  0.6578
 6226SOL     OW30313   3.910   2.253   2.380 -0.4827 -0.2821 -0.3889
 6226SOL    HW130314   3.855   2.317   2.427 -0.1577  1.1741 -1.9972
 6226SOL    HW230315   3.921   2.288   2.292  0.6140 -0.6980 -0.4163
 6227SOL     OW30316   1.650   0.642  10.744 -0.0008 -0.8816  0.8549
 6227SOL    HW130317   1.676   0.733  10.726 -0.5684 -1.1316 -1.1955
 6227SOL    HW230318   1.722   0.607  10.797 -0.6561  0.6011  2.7157
 6228SOL     OW30319   2.292   2.798   6.623 -0.0065  0.0819  0.0705
 6228SOL    HW130320   2.227   2.794   6.554  1.7532  0.1495 -1.6104
 6228SOL    HW230321   2.262   2.868   6.682 -2.9302 -0.8403 -0.3324
 6229SOL     OW30322   3.255   1.523  14.921  0.0419 -0.1335  0.3030
 6229SOL    HW130323   3.294   1.500  14.837  1.8383  0.0054  1.0944
 6229SOL    HW230324   3.250   1.617  14.903 -2.7502  0.2627  2.9752
 6230SOL     OW30325   3.668   0.660   4.890  0.4715  0.2773  0.3640
 6230SOL    HW130326   3.633   0.674   4.978 -0.9541 -0.5953 -0.0538
 6230SOL    HW230327   3.667   0.564   4.890  0.2957  0.2763  0.8291
 6231SOL     OW30328   0.529   1.697   5.263 -0.1083  0.1257 -0.0363
 6231SOL    HW130329   0.620   1.684   5.289 -0.5370 -2.3572  0.1766
 6231SOL    HW230330   0.540   1.683   5.169 -0.1489 -1.2914  0.1669
 6232SOL     OW30331   2.966   1.769   6.629 -0.1605  0.3428 -0.0856
 6232SOL    HW130332   2.895   1.828   6.655  0.7328  1.4118 -0.1142
 6232SOL    HW230333   2.981   1.798   6.540  0.4714 -2.2999 -0.8539
 6233SOL     OW30334   4.246   2.007  17.366 -0.4408  0.1993  0.3371
 6233SOL    HW130335   4.307   1.936  17.387 -1.4255 -0.2087  1.8104
 6233SOL    HW230336   4.181   1.956  17.317  0.3664 -0.9756  0.4828
 6234SOL     OW30337   1.844   1.652   9.347  0.0477 -0.3486  0.0991
 6234SOL    HW130338   1.794   1.678   9.269  0.8850  1.6950  0.2450
 6234SOL    HW230339   1.914   1.715   9.329 -1.2173  1.1477  0.3932
 6235SOL     OW30340   0.795   2.948   3.375 -0.1512  0.2559 -0.5347
 6235SOL    HW130341   0.720   2.967   3.320 -1.2379 -1.2767  0.4171
 6235SOL    HW230342   0.837   3.034   3.374  1.0313 -0.3177 -0.6554
 6236SOL     OW30343   3.678   4.544  13.499 -0.4658  0.4447 -0.4064
 6236SOL    HW130344   3.686   4.476  13.566  1.2209  0.5584 -0.4876
 6236SOL    HW230345   3.584   4.546  13.484 -0.2611 -0.3610 -1.8137
 6237SOL     OW30346   3.874   2.288  17.156 -0.1450  0.6458  0.9387
 6237SOL    HW130347   3.959   2.245  17.153 -1.3791 -1.7874  1.4362
 6237SOL    HW230348   3.817   2.227  17.110  2.4522 -2.1172  1.3898
 6238SOL     OW30349   2.302   2.803   5.645 -0.2244  0.1076  0.3133
 6238SOL    HW130350   2.369   2.857   5.687 -0.1822  1.3142 -1.2915
 6238SOL    HW230351   2.319   2.823   5.553  0.2877 -1.4608  0.0712
 6239SOL     OW30352   0.991   1.102  13.290  0.1203  0.0016  0.8173
 6239SOL    HW130353   0.972   1.194  13.271 -2.0261 -0.8060 -1.0233
 6239SOL    HW230354   0.998   1.103  13.385  1.3844  1.1380  0.7065
 6240SOL     OW30355   2.847   2.906   2.859  0.0486 -0.2387  0.2635
 6240SOL    HW130356   2.839   2.848   2.934  1.2429  1.3129  1.5879
 6240SOL    HW230357   2.801   2.854   2.793  0.8128 -0.1316 -0.3545
 6241SOL     OW30358   2.877   4.384   8.352  0.0631 -0.0641 -0.0318
 6241SOL    HW130359   2.782   4.388   8.345  0.0776 -1.1428 -1.0190
 6241SOL    HW230360   2.898   4.410   8.441  0.8747 -1.9818  0.3390
 6242SOL     OW30361   3.574   1.784   0.426  0.1327  0.2021  0.4533
 6242SOL    HW130362   3.515   1.786   0.502  0.8542 -1.7674  1.0783
 6242SOL    HW230363   3.655   1.744   0.460  0.4930 -0.8377 -1.6668
 6243SOL     OW30364   3.806   3.174   0.311  0.2591  0.1180  0.1339
 6243SOL    HW130365   3.836   3.121   0.236 -0.0311 -0.1367  0.1970
 6243SOL    HW230366   3.893   3.197   0.345  0.1079 -3.3025  2.8229
 6244SOL     OW30367   1.448   0.602   5.152  0.0031 -0.0771 -0.5603
 6244SOL    HW130368   1.357   0.576   5.157 -0.1348  0.4698 -0.2092
 6244SOL    HW230369   1.495   0.529   5.111  0.1228  0.6153 -1.6432
 6245SOL     OW30370   0.938   3.950   4.299  0.3126 -0.4797 -0.8610
 6245SOL    HW130371   0.851   3.990   4.296  1.4078  1.9650 -0.3250
 6245SOL    HW230372   0.994   4.026   4.314 -0.1431 -0.4074  0.3984
 6246SOL     OW30373   4.108   2.184  10.663  0.5236  0.4165 -0.2878
 6246SOL    HW130374   4.149   2.167  10.748 -0.2990  0.7734  0.1851
 6246SOL    HW230375   4.160   2.121  10.613 -1.1617  0.0252 -1.5707
 6247SOL     OW30376   3.217   1.377   8.368 -0.7217 -0.4112  0.4585
 6247SOL    HW130377   3.241   1.451   8.313  0.3545 -0.8228  0.3633
 6247SOL    HW230378   3.132   1.398   8.407 -1.0783 -2.0928  0.6018
 6248SOL     OW30379   1.824   3.992  12.228  0.0826 -0.2765 -0.2858
 6248SOL    HW130380   1.749   3.935  12.248  0.3229  0.1652  1.9352
 6248SOL    HW230381   1.787   4.049  12.160  0.9063  0.8248  0.1890
 6249SOL     OW30382   3.318   4.277   5.385  0.0028 -0.2032  0.6629
 6249SOL    HW130383   3.238   4.312   5.346 -0.1190 -2.1709 -0.8827
 6249SOL    HW230384   3.355   4.355   5.427 -0.5398 -0.8265  2.3010
 6250SOL     OW30385   0.369   4.161  14.363 -0.7200  0.5636  0.7771
 6250SOL    HW130386   0.435   4.219  14.325 -1.4306  0.9029  0.0824
 6250SOL    HW230387   0.294   4.219  14.354 -0.2611  1.0463 -0.0044
 6251SOL     OW30388   4.626   4.010   4.414 -0.1847  0.0014 -0.8862
 6251SOL    HW130389   4.584   4.078   4.362 -1.5918 -1.1413 -1.2498
 6251SOL    HW230390   4.716   4.043   4.416 -0.5010  0.8437 -0.5650
 6252SOL     OW30391   0.097   2.625  12.096 -0.4919 -0.6573  0.3386
 6252SOL    HW130392   0.132   2.705  12.059  1.1181 -1.5794 -0.1356
 6252SOL    HW230393   0.029   2.667  12.148 -0.2017 -0.4525  0.5498
 6253SOL     OW30394   1.794   3.162   5.920 -0.3466  0.2022 -0.1299
 6253SOL    HW130395   1.734   3.135   5.850 -0.4498 -0.7354  0.3162
 6253SOL    HW230396   1.747   3.143   6.002  2.0184 -1.3740  0.8623
 6254SOL     OW30397   2.466   3.431  11.131  0.4755 -0.0656 -0.1232
 6254SOL    HW130398   2.495   3.418  11.040  1.2845 -2.0068  0.4072
 6254SOL    HW230399   2.519   3.368  11.179  0.1948 -1.3407 -1.5010
 6255SOL     OW30400   3.850   0.236   1.196  0.2968 -0.3341  0.2684
 6255SOL    HW130401   3.883   0.321   1.223  1.5000 -0.4850 -0.7403
 6255SOL    HW230402   3.758   0.260   1.198  0.3325  0.0440 -2.5983
 6256SOL     OW30403   1.205   1.302   5.739 -0.7294  0.5529 -0.1652
 6256SOL    HW130404   1.239   1.361   5.807 -1.7363 -0.7087  1.4372
 6256SOL    HW230405   1.112   1.322   5.745 -1.4114 -2.2462 -1.0779
 6257SOL     OW30406   4.508   3.975  11.461  0.3547  0.6286 -0.1821
 6257SOL    HW130407   4.600   3.996  11.441  0.8117  0.5980  1.9015
 6257SOL    HW230408   4.486   4.056  11.507  0.5678  0.9594 -0.6602
 6258SOL     OW30409   2.663   3.171   0.467 -0.4919 -0.1996  0.1849
 6258SOL    HW130410   2.751   3.151   0.435 -1.2108 -1.7894 -0.8438
 6258SOL    HW230411   2.670   3.168   0.562 -0.4528 -0.4591  0.1760
 6259SOL     OW30412   0.964   3.152   4.280 -0.6083  0.1819 -0.4417
 6259SOL    HW130413   0.868   3.160   4.281 -0.5478  0.9224 -1.4864
 6259SOL    HW230414   0.976   3.057   4.273 -0.6291  0.1398  0.0691
 6260SOL     OW30415   2.274   1.966  11.148  0.4665  1.3682 -0.3140
 6260SOL    HW130416   2.367   1.979  11.167  0.4972 -0.9015  1.1149
 6260SOL    HW230417   2.258   1.903  11.219  0.9261  3.4631  1.6324
 6261SOL     OW30418   3.797   4.242   3.505 -0.3000 -0.1044 -0.6779
 6261SOL    HW130419   3.712   4.249   3.548  0.7091 -2.5137  1.6762
 6261SOL    HW230420   3.783   4.161   3.456 -0.0719 -1.6436  1.8209
 6262SOL     OW30421   4.085   4.697   7.262 -0.7329  0.4103 -0.8828
 6262SOL    HW130422   4.067   4.611   7.224  0.8648  0.2888 -1.3536
 6262SOL    HW230423   4.136   4.679   7.341 -0.3141  2.6265 -0.6356
 6263SOL     OW30424   1.779   0.493   6.067 -0.4418 -0.0560  0.5027
 6263SOL    HW130425   1.840   0.562   6.093 -0.1168  0.6500 -2.0839
 6263SOL    HW230426   1.704   0.539   6.028 -0.8649 -0.2632  1.0720
 6264SOL     OW30427   2.922   0.917   0.851 -0.5306 -0.5969  0.0705
 6264SOL    HW130428   2.952   1.006   0.868 -2.4684 -0.1261  0.9655
 6264SOL    HW230429   2.838   0.928   0.806  0.8527  0.3485 -2.2927
 6265SOL     OW30430   2.091   1.443   9.203  1.1428 -0.2756  0.4032
 6265SOL    HW130431   2.167   1.425   9.147  1.6160  1.7472  0.4022
 6265SOL    HW230432   2.128   1.469   9.287  0.3903 -0.9846  0.9423
 6266SOL     OW30433   1.914   0.648   7.604 -0.2214  0.0496 -0.7088
 6266SOL    HW130434   1.851   0.595   7.655 -1.2178  0.4352 -1.5390
 6266SOL    HW230435   1.854   0.705   7.555 -1.1738 -1.3140 -1.1440
 6267SOL     OW30436   0.472   2.574   5.458  0.3839 -0.0069  0.3097
 6267SOL    HW130437   0.455   2.514   5.531 -0.1367 -0.3020 -0.0541
 6267SOL    HW230438   0.497   2.647   5.516  0.7731  1.1244 -1.2864
 6268SOL     OW30439   1.982   2.269   8.432  0.2848 -0.2817  0.2118
 6268SOL    HW130440   2.050   2.319   8.476  0.1428 -0.7994  1.0092
 6268SOL    HW230441   1.968   2.318   8.350  1.0403  1.5191  1.1606
 6269SOL     OW30442   3.789   2.923  16.602  0.1652  0.0413  0.6866
 6269SOL    HW130443   3.752   3.008  16.625 -0.6712  0.0336 -0.6037
 6269SOL    HW230444   3.807   2.916  16.508  2.0909 -1.5380  1.1650
 6270SOL     OW30445   1.446   2.434   9.209 -0.1476  0.5899 -0.5147
 6270SOL    HW130446   1.499   2.498   9.256  2.7605 -1.8742 -0.4704
 6270SOL    HW230447   1.455   2.349   9.253  1.8415  0.9619 -0.2049
 6271SOL     OW30448   2.841   0.101   5.915 -0.5238  0.3568  0.5074
 6271SOL    HW130449   2.810   0.053   5.992 -1.0647  1.6670  1.1042
 6271SOL    HW230450   2.929   0.133   5.935 -0.3095  1.0821 -1.6473
 6272SOL     OW30451   4.478   3.992   6.124  0.2877  0.1388  0.2600
 6272SOL    HW130452   4.508   4.057   6.187 -0.1697  0.9076 -0.3225
 6272SOL    HW230453   4.561   3.947   6.106  0.2188 -0.1241  0.5793
 6273SOL     OW30454   0.155   1.551   3.438 -0.7918  0.3787  0.5781
 6273SOL    HW130455   0.197   1.599   3.367 -0.1258  0.9988  1.3852
 6273SOL    HW230456   0.147   1.460   3.407  1.2633  0.2080  0.5409
 6274SOL     OW30457   3.830   2.493  14.357 -0.3062  0.3889 -0.4517
 6274SOL    HW130458   3.737   2.512  14.354 -0.2892  0.6643  0.9746
 6274SOL    HW230459   3.849   2.533  14.442  0.7402  2.2940 -1.5867
 6275SOL     OW30460   4.666   0.571   7.158  0.0967  0.2827 -0.0886
 6275SOL    HW130461   4.603   0.508   7.193 -0.7962  0.2028 -1.8494
 6275SOL    HW230462   4.610   0.615   7.094  1.3719 -0.2776 -1.5905
 6276SOL     OW30463   3.744   1.411  10.606 -0.0476  0.3701 -0.6670
 6276SOL    HW130464   3.813   1.346  10.591 -0.2039  0.6445 -2.6076
 6276SOL    HW230465   3.774   1.432  10.695  0.5223 -2.4946 -0.1986
 6277SOL     OW30466   4.725   1.999   4.867 -0.5098  0.1171  0.0656
 6277SOL    HW130467   0.081   1.986   4.849 -0.6953  0.8894 -1.4450
 6277SOL    HW230468   4.693   1.936   4.932 -0.0834 -1.1536 -0.9610
 6278SOL     OW30469   1.366   4.523  11.455  0.2917  0.5587 -0.0369
 6278SOL    HW130470   1.426   4.584  11.411  1.4462 -0.5291  0.0377
 6278SOL    HW230471   1.281   4.565  11.445 -0.2639 -0.5968 -0.1052
 6279SOL     OW30472   1.993   3.955  14.174 -0.1999 -0.5914  0.3670
 6279SOL    HW130473   2.061   3.928  14.235  0.7364 -2.5732 -1.5499
 6279SOL    HW230474   1.982   3.874  14.124 -1.5083 -0.4114  0.3761
 6280SOL     OW30475   3.065   1.565   5.269  0.2297  0.0766  0.5172
 6280SOL    HW130476   3.101   1.561   5.358 -1.1161  0.0898  1.0595
 6280SOL    HW230477   3.072   1.470   5.254 -0.6685 -0.0849  1.1192
 6281SOL     OW30478   4.000   3.795   7.586  0.4958  0.2448  0.4117
 6281SOL    HW130479   4.048   3.877   7.602  0.7484 -0.2109  1.9669
 6281SOL    HW230480   4.069   3.728   7.587 -0.9262 -1.2548 -2.0725
 6282SOL     OW30481   2.907   0.442   0.430 -0.1413  0.0591  0.0531
 6282SOL    HW130482   2.941   0.531   0.433  0.0726 -0.0679  1.2795
 6282SOL    HW230483   2.965   0.411   0.361  1.5146  1.0909  0.9911
 6283SOL     OW30484   3.657   0.452   4.056 -0.1898 -0.3222  0.3576
 6283SOL    HW130485   3.650   0.540   4.019 -0.9853 -0.3148  0.5227
 6283SOL    HW230486   3.563   0.434   4.062 -0.1891  0.2893  2.2199
 6284SOL     OW30487   3.954   2.357  16.523 -0.3004  0.0589 -0.1254
 6284SOL    HW130488   3.935   2.450  16.534  0.3930  0.3191 -1.1976
 6284SOL    HW230489   4.049   2.348  16.528 -0.3215  0.0421  0.2912
 6285SOL     OW30490   0.792   4.693   8.335  0.5223  0.5264 -0.9298
 6285SOL    HW130491   0.743   0.012   8.274 -1.3484 -1.4602 -1.2440
 6285SOL    HW230492   0.809   0.019   8.405 -0.9038 -0.3269  0.1728
 6286SOL     OW30493   3.541   1.695  13.327 -1.2536  0.9309 -0.1949
 6286SOL    HW130494   3.587   1.720  13.247 -0.7773  0.1507 -0.1722
 6286SOL    HW230495   3.575   1.756  13.393 -0.1340  0.8232 -0.6662
 6287SOL     OW30496   3.444   2.009   5.167  0.0060  0.1223 -0.1255
 6287SOL    HW130497   3.364   2.040   5.124 -0.0535 -0.9210 -0.7610
 6287SOL    HW230498   3.502   2.085   5.155 -0.2872  0.2208 -0.9377
 6288SOL     OW30499   2.871   3.504   3.295  0.1671  0.7103 -0.3922
 6288SOL    HW130500   2.784   3.469   3.310  1.0972 -0.6718  1.6644
 6288SOL    HW230501   2.878   3.506   3.199 -3.1575 -1.1656 -0.6528
 6289SOL     OW30502   3.794   0.908  10.445  0.3616  0.3655 -0.2072
 6289SOL    HW130503   3.769   0.895  10.536  2.4089  0.1496  0.3343
 6289SOL    HW230504   3.708   0.918  10.404  0.8517 -0.4214 -1.4446
 6290SOL     OW30505   2.804   4.502   0.215 -0.5182 -0.1706 -0.7664
 6290SOL    HW130506   2.807   4.423   0.269  1.6044 -0.3607 -1.1915
 6290SOL    HW230507   2.733   4.551   0.257  0.6968  0.6586  0.2839
 6291SOL     OW30508   1.662   2.828   2.740 -0.2282 -0.2435  0.2425
 6291SOL    HW130509   1.726   2.856   2.805  0.5862  1.1484 -1.1616
 6291SOL    HW230510   1.653   2.733   2.753  0.5660 -0.4361 -0.5571
 6292SOL     OW30511   4.036   0.108  16.036  0.0806  0.0383  0.0747
 6292SOL    HW130512   4.107   0.058  15.996 -1.0953 -1.1475 -0.4813
 6292SOL    HW230513   4.066   0.199  16.037  1.6251 -0.4714  0.3558
 6293SOL     OW30514   4.358   3.697   8.555  0.1746 -0.1920 -0.2465
 6293SOL    HW130515   4.264   3.711   8.568 -0.0760 -1.8885 -0.1927
 6293SOL    HW230516   4.350   3.660   8.467  0.5483 -1.4187  0.2310
 6294SOL     OW30517   1.438   1.826   8.629  0.2754 -0.1363  0.5007
 6294SOL    HW130518   1.366   1.770   8.600  0.4970 -0.2325  0.1412
 6294SOL    HW230519   1.407   1.913   8.608 -0.3403 -0.4595  0.0855
 6295SOL     OW30520   3.527   0.603   4.633 -0.2570  0.5274 -0.4351
 6295SOL    HW130521   3.566   0.632   4.715  0.1764  1.9519 -1.1531
 6295SOL    HW230522   3.443   0.567   4.661  0.6889 -1.2077  0.2058
 6296SOL     OW30523   2.265   3.280  11.306 -0.8508  0.2113 -0.1303
 6296SOL    HW130524   2.278   3.367  11.266 -0.0099  0.9088  1.6344
 6296SOL    HW230525   2.259   3.294  11.400 -0.8992 -1.1713  0.0596
 6297SOL     OW30526   0.416   0.209   2.084  0.5674  0.1996 -0.0899
 6297SOL    HW130527   0.466   0.167   2.154  0.1811  1.5004  0.9763
 6297SOL    HW230528   0.340   0.152   2.071  1.1006 -0.1630 -1.5490
 6298SOL     OW30529   0.512   4.628   2.593 -0.1347  0.5338  0.0790
 6298SOL    HW130530   0.462   4.659   2.669  1.1483 -0.4266  1.3290
 6298SOL    HW230531   0.602   4.653   2.614 -0.2378  0.9705 -0.0030
 6299SOL     OW30532   4.639   0.892   7.704 -0.2650  0.5730  0.1968
 6299SOL    HW130533   4.549   0.861   7.715  0.2538 -0.5621  1.1819
 6299SOL    HW230534   4.662   0.829   7.635  1.5769  1.5971 -0.1250
 6300SOL     OW30535   3.706   1.962   8.243  0.2928  0.1940  0.0576
 6300SOL    HW130536   3.660   1.878   8.239  1.2052 -0.3476  1.0505
 6300SOL    HW230537   3.688   1.999   8.156  3.4585 -0.5241 -0.8895
 6301SOL     OW30538   2.412   4.299   6.758  0.0221  0.0877  0.2853
 6301SOL    HW130539   2.478   4.232   6.778  1.4436  1.7127  0.9999
 6301SOL    HW230540   2.470   4.375   6.757 -2.9327  2.3293  0.0234
 6302SOL     OW30541   4.347   3.292   7.460 -0.1298  0.1729 -0.6768
 6302SOL    HW130542   4.432   3.302   7.503  0.5148 -0.9478 -1.6973
 6302SOL    HW230543   4.337   3.197   7.461 -1.7195  0.3371 -0.5572
 6303SOL     OW30544   0.607   2.013   7.488  0.2836  0.2857 -0.4143
 6303SOL    HW130545   0.702   2.008   7.499  0.4448  2.2811 -0.9334
 6303SOL    HW230546   0.605   2.103   7.456 -0.8208  0.3529 -0.1559
 6304SOL     OW30547   2.417   4.519   2.037  0.5758  0.3308 -0.2433
 6304SOL    HW130548   2.367   4.463   2.096  1.2258 -0.3017 -0.2993
 6304SOL    HW230549   2.449   4.570   2.111 -0.1250 -1.2532  1.1602
 6305SOL     OW30550   0.873   3.983   4.811 -0.1278  0.4463 -0.1593
 6305SOL    HW130551   0.789   4.007   4.771 -1.4582 -1.9832  1.1517
 6305SOL    HW230552   0.899   3.915   4.749 -2.1138 -0.3387 -0.1168
 6306SOL     OW30553   2.862   3.563   3.623  0.2201  0.0026 -0.0652
 6306SOL    HW130554   2.770   3.554   3.600  0.2231  1.0265 -0.4521
 6306SOL    HW230555   2.870   3.656   3.602  0.4920 -0.0080 -0.0138
 6307SOL     OW30556   3.662   4.729   8.978 -0.1228  0.7588  0.2074
 6307SOL    HW130557   3.654   4.654   9.038 -0.3110 -1.2314 -2.2740
 6307SOL    HW230558   3.730   0.038   9.026  2.1286  0.1537 -2.3370
 6308SOL     OW30559   1.406   1.097   3.497  0.5372 -0.5636  0.3082
 6308SOL    HW130560   1.468   1.165   3.523  1.2106 -0.3982 -1.7301
 6308SOL    HW230561   1.332   1.111   3.557  1.7776 -0.6936  1.8686
 6309SOL     OW30562   1.231   2.094   2.503 -0.7843  0.1499  0.1024
 6309SOL    HW130563   1.267   2.026   2.560 -0.8428  0.4413  0.4888
 6309SOL    HW230564   1.154   2.124   2.551 -0.7045 -0.1269  0.4066
 6310SOL     OW30565   0.827   3.225   8.759  0.2965 -0.0417 -0.1341
 6310SOL    HW130566   0.768   3.170   8.707 -1.7333  1.5768  0.4742
 6310SOL    HW230567   0.773   3.296   8.793 -1.9446 -1.7725 -0.0226
 6311SOL     OW30568   1.143   3.119   4.633  0.1258  0.3315  0.5109
 6311SOL    HW130569   1.225   3.153   4.597  0.7427  0.0108  1.6231
 6311SOL    HW230570   1.120   3.051   4.569 -3.4161  2.2999 -0.2716
 6312SOL     OW30571   2.201   3.824  14.310  0.0602 -0.8567 -0.0143
 6312SOL    HW130572   2.166   3.782  14.388  1.6441  1.2728  1.8273
 6312SOL    HW230573   2.221   3.913  14.338 -1.0099 -0.8278  0.6406
 6313SOL     OW30574   2.370   1.893   5.856 -0.0273  0.2732 -0.1154
 6313SOL    HW130575   2.367   1.800   5.834 -0.0801  1.0418 -3.3809
 6313SOL    HW230576   2.276   1.909   5.870  0.3757  0.7002  2.1409
 6314SOL     OW30577   2.374   3.788   0.498 -0.5258  0.3384 -0.1880
 6314SOL    HW130578   2.328   3.737   0.431  1.6918 -1.1176 -0.6128
 6314SOL    HW230579   2.355   3.752   0.584  0.4415 -0.7619 -0.4379
 6315SOL     OW30580   2.024   2.935   9.147  0.0633 -0.4508  0.0910
 6315SOL    HW130581   1.984   3.013   9.185 -1.3133 -1.0486 -0.1472
 6315SOL    HW230582   1.994   2.863   9.203  1.6356 -0.4178  0.9871
 6316SOL     OW30583   4.691   2.818   3.831  0.1921  0.3998 -0.2083
 6316SOL    HW130584   4.736   2.847   3.752 -0.6696 -0.2401 -0.9254
 6316SOL    HW230585   0.010   2.757   3.879  1.1539  1.1467 -0.3835
 6317SOL     OW30586   1.013   4.417   3.352 -0.1583 -0.3522  0.0680
 6317SOL    HW130587   0.927   4.382   3.372 -0.7081  0.1536 -1.4196
 6317SOL    HW230588   1.004   4.480   3.281 -1.7790 -3.2556 -2.3185
 6318SOL     OW30589   1.803   3.590   0.474 -0.4915  0.2435  0.6397
 6318SOL    HW130590   1.818   3.611   0.382 -0.4787 -2.2476  0.0945
 6318SOL    HW230591   1.707   3.590   0.473 -0.4590  1.6235 -1.3624
 6319SOL     OW30592   4.652   0.013   5.272 -0.2985 -0.3240  0.5546
 6319SOL    HW130593   4.613   0.071   5.337 -1.5655  0.7349 -1.1443
 6319SOL    HW230594   4.693   0.075   5.212  0.2743  0.0432  1.3297
 6320SOL     OW30595   1.313   3.813   7.593 -0.1955  0.0677 -0.1302
 6320SOL    HW130596   1.340   3.896   7.552 -0.7339  0.8461  1.0812
 6320SOL    HW230597   1.268   3.848   7.671 -0.3735 -1.2756  0.3588
 6321SOL     OW30598   3.781   3.819   4.301 -0.5349  0.1232  0.0334
 6321SOL    HW130599   3.698   3.810   4.348  0.6490 -2.2322  1.7122
 6321SOL    HW230600   3.785   3.749   4.236  1.7129  0.3505 -0.0876
 6322SOL     OW30601   0.382   4.502   4.173 -0.2152  0.0652 -0.0577
 6322SOL    HW130602   0.399   4.592   4.147 -0.2309 -0.5344 -2.1796
 6322SOL    HW230603   0.368   4.507   4.267 -1.1179 -0.6327 -0.1521
 6323SOL     OW30604   2.818   0.923   2.031  0.1056 -0.6602  0.6625
 6323SOL    HW130605   2.835   0.957   2.119  2.1323  0.8328 -0.3026
 6323SOL    HW230606   2.722   0.921   2.034  0.0176  0.4595 -1.1563
 6324SOL     OW30607   2.387   3.678   8.881 -0.0596 -0.0883 -0.6104
 6324SOL    HW130608   2.307   3.729   8.873 -1.3930 -2.2205 -1.0267
 6324SOL    HW230609   2.350   3.590   8.872 -1.3424  0.4261 -0.3005
 6325SOL     OW30610   2.109   1.682  16.713 -0.1464  0.1914  0.1462
 6325SOL    HW130611   2.129   1.707  16.623 -2.0987  0.6254 -0.1516
 6325SOL    HW230612   2.023   1.722  16.709 -0.1888 -0.1373 -1.8012
 6326SOL     OW30613   3.577   0.249   6.008 -0.2974  0.1831  0.7758
 6326SOL    HW130614   3.544   0.233   6.096 -2.3954  0.5034  0.0318
 6326SOL    HW230615   3.663   0.288   6.027 -0.1202  0.6806 -1.0109
 6327SOL     OW30616   2.031   1.244   6.780 -0.1462  0.0135  0.4385
 6327SOL    HW130617   1.998   1.159   6.751 -2.6636  0.4848  1.8959
 6327SOL    HW230618   1.974   1.255   6.857 -0.2073  1.6210  0.1694
 6328SOL     OW30619   4.610   3.245  15.079  0.0127 -0.1763  0.2436
 6328SOL    HW130620   4.531   3.245  15.133 -0.9864 -0.7969 -1.2253
 6328SOL    HW230621   4.583   3.324  15.031  0.3509 -0.7158 -0.8410
 6329SOL     OW30622   2.016   4.067  16.023  0.1821  0.0918  0.3331
 6329SOL    HW130623   1.979   4.137  16.075 -0.5076  1.4245 -1.9691
 6329SOL    HW230624   1.999   4.093  15.933  1.8212 -1.6349 -0.4994
 6330SOL     OW30625   4.710   1.338   7.668  0.1627  0.2765  0.0911
 6330SOL    HW130626   0.040   1.281   7.706  1.6808  0.4912 -2.2778
 6330SOL    HW230627   4.727   1.425   7.705 -1.8188 -0.3427  2.4483
 6331SOL     OW30628   3.374   1.161   7.192  0.3491  0.4241  0.2621
 6331SOL    HW130629   3.417   1.243   7.216  2.3910 -1.0392  1.6212
 6331SOL    HW230630   3.314   1.150   7.266 -0.8624 -1.6091 -1.0185
 6332SOL     OW30631   0.091   4.158   7.351  0.7754 -0.2568  0.0235
 6332SOL    HW130632   0.035   4.223   7.394 -1.9375 -2.5747 -0.0127
 6332SOL    HW230633   0.115   4.095   7.419  1.6583  1.0636  0.9430
 6333SOL     OW30634   2.037   0.042   3.018  0.0130  0.1189 -0.1021
 6333SOL    HW130635   1.957   0.091   3.035 -0.4526 -0.0609 -1.7296
 6333SOL    HW230636   2.085   0.090   2.951  0.1391 -0.9199 -0.7684
 6334SOL     OW30637   1.468   1.633   9.057  0.7491 -0.1531  0.3396
 6334SOL    HW130638   1.535   1.576   9.021  0.9463 -1.0324  2.1134
 6334SOL    HW230639   1.417   1.658   8.979 -0.8280 -1.4666  0.9736
 6335SOL     OW30640   3.514   3.250   7.788 -0.2572 -0.0189 -0.0410
 6335SOL    HW130641   3.467   3.168   7.771  1.3910 -0.7506 -1.0700
 6335SOL    HW230642   3.594   3.217   7.827  0.6785 -0.0635 -1.9721
 6336SOL     OW30643   3.046   4.727   8.048  0.2032 -0.0866  0.3846
 6336SOL    HW130644   2.990   4.650   8.047  1.8090 -1.2508 -1.1049
 6336SOL    HW230645   3.127   4.692   8.087  1.4713  0.4804 -1.6919
 6337SOL     OW30646   2.664   0.051   0.760 -0.3197  0.1083 -0.0919
 6337SOL    HW130647   2.623   0.129   0.796 -0.5145 -0.9703  2.0322
 6337SOL    HW230648   2.738   0.092   0.715  1.0884 -1.2756  0.9355
 6338SOL     OW30649   2.076   4.276  11.839  0.2712 -0.1946  0.0086
 6338SOL    HW130650   2.079   4.292  11.934  0.0535  2.8184 -0.4699
 6338SOL    HW230651   2.136   4.202  11.841 -0.3934 -0.7265  0.0413
 6339SOL     OW30652   4.396   0.082   5.885  0.4915  0.1420  0.2255
 6339SOL    HW130653   4.487   0.068   5.858 -0.4471 -2.1812 -1.7300
 6339SOL    HW230654   4.374   4.733   5.919  1.3564 -0.4045 -0.5788
 6340SOL     OW30655   1.337   0.087  17.476 -0.8537 -0.6537 -0.6588
 6340SOL    HW130656   1.329   0.096  17.571  0.3108 -1.2816 -0.5002
 6340SOL    HW230657   1.432   0.076  17.478 -0.7314  0.1487 -2.5062
 6341SOL     OW30658   3.918   0.634   2.431 -0.3529 -0.6565  0.1416
 6341SOL    HW130659   3.842   0.588   2.466  0.5269 -1.3513  1.1200
 6341SOL    HW230660   3.923   0.707   2.492  2.2622 -0.1241 -0.6766
 6342SOL     OW30661   1.841   2.291   7.725 -0.2935  0.0539  0.1058
 6342SOL    HW130662   1.762   2.244   7.750  1.3801 -1.6253  2.2919
 6342SOL    HW230663   1.897   2.263   7.798  1.8239 -1.2780 -2.0187
 6343SOL     OW30664   1.114   0.231   6.995 -0.0345  0.6891  0.6451
 6343SOL    HW130665   1.112   0.321   6.964 -0.8005  0.7101  0.7446
 6343SOL    HW230666   1.160   0.185   6.925 -0.1232 -0.9560  1.6501
 6344SOL     OW30667   3.126   3.802   4.688 -0.2198  0.4613 -0.3159
 6344SOL    HW130668   3.062   3.851   4.739  0.0052  0.6296 -0.1939
 6344SOL    HW230669   3.067   3.728   4.670  1.2336 -0.9715  0.8517
 6345SOL     OW30670   3.082   2.983   9.276 -0.3787 -0.7966  0.5387
 6345SOL    HW130671   3.078   2.888   9.274 -3.9217 -0.6623  0.6039
 6345SOL    HW230672   2.993   3.009   9.251  0.2339  0.3284 -0.4689
 6346SOL     OW30673   2.888   0.246  14.796  0.1126  0.2224 -0.0043
 6346SOL    HW130674   2.954   0.312  14.817 -1.6583  1.4384  1.7407
 6346SOL    HW230675   2.848   0.231  14.881 -1.3322  0.0151 -0.7218
 6347SOL     OW30676   4.234   3.048  12.622  0.2293  0.1671 -0.2254
 6347SOL    HW130677   4.267   3.050  12.712 -1.6656 -2.6834  0.5021
 6347SOL    HW230678   4.223   3.142  12.609  2.7879  0.4828 -0.2414
 6348SOL     OW30679   1.520   0.908   7.935  1.0273  0.0634 -0.6443
 6348SOL    HW130680   1.546   0.820   7.907  1.1976 -0.1686  0.2441
 6348SOL    HW230681   1.501   0.901   8.029  0.2906 -0.1106 -0.8042
 6349SOL     OW30682   1.106   1.497  10.976 -0.9572 -0.1356  0.3333
 6349SOL    HW130683   1.097   1.577  11.027  1.6115  1.3571 -1.5702
 6349SOL    HW230684   1.050   1.443  11.032 -0.5004 -1.1569 -0.1944
 6350SOL     OW30685   0.951   3.471   6.905  0.1232 -0.2779 -0.0716
 6350SOL    HW130686   0.951   3.376   6.919  0.4469 -0.0706  1.3753
 6350SOL    HW230687   1.045   3.478   6.889  0.1370  0.6088  0.3889
 6351SOL     OW30688   4.642   2.558   1.133 -0.3212  0.2135 -0.1999
 6351SOL    HW130689   4.599   2.561   1.218 -0.5950 -1.7510 -0.2836
 6351SOL    HW230690   4.645   2.654   1.125  2.1987  0.2009  0.6379
 6352SOL     OW30691   1.507   2.407   8.611 -0.1552 -0.2719 -0.2103
 6352SOL    HW130692   1.558   2.436   8.686 -0.6951  2.3099 -0.8509
 6352SOL    HW230693   1.446   2.479   8.597 -0.3032 -0.6425 -1.5419
 6353SOL     OW30694   1.837   4.159   2.227  0.0023  0.4551 -0.0846
 6353SOL    HW130695   1.776   4.218   2.184  2.1139  2.8043  0.1139
 6353SOL    HW230696   1.914   4.166   2.171 -0.5277  2.5486 -0.5276
 6354SOL     OW30697   2.026   4.319   4.456  0.0239  0.0664  0.6609
 6354SOL    HW130698   1.992   4.249   4.400 -0.8780  1.0817 -0.0492
 6354SOL    HW230699   1.962   4.389   4.446 -0.0346 -0.0189  0.4324
 6355SOL     OW30700   2.438   0.863  12.402  0.3473 -0.0309  0.5305
 6355SOL    HW130701   2.390   0.818  12.472 -0.4853  0.3091  0.1768
 6355SOL    HW230702   2.507   0.891  12.462 -0.1171 -0.1332  1.1141
 6356SOL     OW30703   2.152   3.025   6.772 -0.6754  0.2087  0.5082
 6356SOL    HW130704   2.105   3.041   6.690 -2.0688  0.4555  1.3620
 6356SOL    HW230705   2.079   2.976   6.809 -1.1379  1.2016  0.9196
 6357SOL     OW30706   0.528   3.760   3.380  0.0443 -0.1104  0.6806
 6357SOL    HW130707   0.437   3.784   3.367 -0.1983 -1.1548  0.4247
 6357SOL    HW230708   0.531   3.768   3.475 -3.0568 -0.9183  0.8274
 6358SOL     OW30709   3.886   1.823   3.043  0.0553  0.8974 -0.0530
 6358SOL    HW130710   3.966   1.806   2.994 -0.2742 -1.5069  0.2192
 6358SOL    HW230711   3.876   1.916   3.023  0.9188  0.5992 -1.8554
 6359SOL     OW30712   2.451   2.774   3.914 -0.5072 -0.2343  0.0497
 6359SOL    HW130713   2.424   2.706   3.977  2.0333  1.8525  3.3760
 6359SOL    HW230714   2.391   2.846   3.932 -1.4558 -1.1186  0.4370
 6360SOL     OW30715   1.901   4.593   1.865  0.0941  0.1089  0.1255
 6360SOL    HW130716   1.967   4.580   1.797 -0.9595 -1.0432 -0.6757
 6360SOL    HW230717   1.957   4.579   1.942  0.7436 -1.1886 -0.5906
 6361SOL     OW30718   2.489   0.249   5.197  0.7538  0.1551 -0.0422
 6361SOL    HW130719   2.454   0.233   5.285  1.4866 -0.9495  0.0428
 6361SOL    HW230720   2.521   0.160   5.187  0.5863  0.4435 -3.0433
 6362SOL     OW30721   4.144   1.986   4.842 -0.1080 -0.0899 -0.1640
 6362SOL    HW130722   4.112   1.974   4.753 -1.1612 -0.2193  0.2344
 6362SOL    HW230723   4.214   2.050   4.830 -1.1855  0.9777 -0.6669
 6363SOL     OW30724   3.473   3.076   0.576  0.3658  0.5615  0.0173
 6363SOL    HW130725   3.403   3.012   0.566 -0.1396  0.9604  1.0451
 6363SOL    HW230726   3.557   3.031   0.588 -0.4598 -0.5262  1.6837
 6364SOL     OW30727   1.977   3.223   7.308  0.7122  0.5470 -0.1663
 6364SOL    HW130728   1.989   3.259   7.396  0.5082  1.0072 -0.3255
 6364SOL    HW230729   2.019   3.296   7.262 -0.7443  1.4330 -0.0717
 6365SOL     OW30730   3.088   3.618   8.155 -0.1466 -0.0693 -0.0722
 6365SOL    HW130731   3.109   3.568   8.233  0.9074  1.7707  0.8402
 6365SOL    HW230732   3.105   3.549   8.091 -0.3922 -0.8109  0.6707
 6366SOL     OW30733   4.143   1.817   2.874  0.7247  0.0929 -0.1154
 6366SOL    HW130734   4.232   1.848   2.859  0.6666  0.5659  0.5245
 6366SOL    HW230735   4.169   1.726   2.885  2.3251  0.6544  0.7777
 6367SOL     OW30736   4.502   0.668   6.427  0.1196  0.1407  0.1158
 6367SOL    HW130737   4.445   0.595   6.450 -0.3249  0.2899 -0.5055
 6367SOL    HW230738   4.586   0.644   6.467 -0.4235 -1.0527  0.5246
 6368SOL     OW30739   2.615   3.030  15.732 -0.1513 -0.3793 -0.2863
 6368SOL    HW130740   2.542   3.014  15.793  0.8306  0.3495  1.0791
 6368SOL    HW230741   2.581   2.995  15.650  0.3868  0.1930 -0.7481
 6369SOL     OW30742   4.557   0.875   6.244  0.3477 -0.3093 -0.0942
 6369SOL    HW130743   4.546   0.796   6.297  2.7977 -0.4845  0.1208
 6369SOL    HW230744   4.545   0.837   6.157 -2.1439  1.1504 -0.4146
 6370SOL     OW30745   0.227   1.083  12.884 -0.3060 -0.0220 -0.2195
 6370SOL    HW130746   0.196   1.062  12.796 -1.9066  0.0852  0.3141
 6370SOL    HW230747   0.258   1.001  12.923  1.5333 -0.3252 -2.3670
 6371SOL     OW30748   1.976   3.911  11.040  0.1428 -0.0059  0.2792
 6371SOL    HW130749   2.071   3.901  11.047  0.3860  1.9521 -0.2948
 6371SOL    HW230750   1.971   3.932  10.947  0.8095 -0.1273  0.2135
 6372SOL     OW30751   0.624   0.498   4.293  0.0272  0.3002 -0.2240
 6372SOL    HW130752   0.626   0.523   4.385  0.0283 -0.1194 -0.1083
 6372SOL    HW230753   0.692   0.558   4.264  0.9971 -0.3319  0.7263
 6373SOL     OW30754   3.287   0.486   2.497  0.2906  0.0716  0.9538
 6373SOL    HW130755   3.346   0.411   2.496 -0.4632 -0.4645 -1.3556
 6373SOL    HW230756   3.345   0.546   2.451 -3.8669  3.0766 -0.3771
 6374SOL     OW30757   4.520   4.640  10.439 -0.2312  0.1389  0.0023
 6374SOL    HW130758   4.491   4.713  10.384 -1.7106  1.0675  2.0313
 6374SOL    HW230759   4.437   4.592  10.440  0.7662 -1.5642  0.9219
 6375SOL     OW30760   4.594   0.084   1.872 -0.4579  0.6074  0.2377
 6375SOL    HW130761   4.665   0.129   1.919 -0.8596  0.0213  1.4013
 6375SOL    HW230762   4.517   0.116   1.918 -0.4909  0.3495  0.3566
 6376SOL     OW30763   1.403   2.900   2.869 -0.0674  0.3425 -0.8657
 6376SOL    HW130764   1.485   2.873   2.828 -0.9896 -1.0602 -1.8020
 6376SOL    HW230765   1.363   2.815   2.890  2.2906 -0.5917 -0.1754
 6377SOL     OW30766   4.090   2.556  14.898 -0.2368  0.0791  0.4668
 6377SOL    HW130767   4.061   2.626  14.839 -0.6001 -0.6976 -0.2740
 6377SOL    HW230768   4.114   2.605  14.977  1.0949  0.0686  0.0683
 6378SOL     OW30769   3.545   4.556   2.680 -0.0170 -0.5676  0.6689
 6378SOL    HW130770   3.513   4.569   2.591 -0.2462 -1.9816  0.5495
 6378SOL    HW230771   3.622   4.612   2.688  1.8632 -2.8478 -1.5796
 6379SOL     OW30772   1.857   1.550   7.652  0.2061  0.3742  0.7948
 6379SOL    HW130773   1.952   1.537   7.655  0.1632 -0.0786  0.1758
 6379SOL    HW230774   1.851   1.568   7.746  1.0680  1.3059  0.6714
 6380SOL     OW30775   0.985   2.384  11.691  0.0576  0.7947  0.6185
 6380SOL    HW130776   0.925   2.338  11.633 -0.0650 -1.9451  2.9173
 6380SOL    HW230777   1.037   2.310  11.724  0.5065  0.1373 -1.5253
 6381SOL     OW30778   3.823   4.659   1.765 -0.2349  0.8957 -0.4139
 6381SOL    HW130779   3.834   4.585   1.705  1.1665 -0.1282  1.1300
 6381SOL    HW230780   3.843   4.731   1.704  1.3718  0.8397  0.0509
 6382SOL     OW30781   3.194   3.109   6.746 -0.4233  0.3351 -0.1591
 6382SOL    HW130782   3.240   3.036   6.704  0.9901  1.6484 -0.8935
 6382SOL    HW230783   3.209   3.095   6.839 -0.2768  1.7115  0.0241
 6383SOL     OW30784   1.037   4.577  14.109  0.4029  0.5354  0.8335
 6383SOL    HW130785   0.997   4.498  14.072  0.3671  1.3584 -0.8835
 6383SOL    HW230786   1.051   4.565  14.203  1.4333 -0.8830  0.5069
 6384SOL     OW30787   3.843   0.620  17.694  0.9662  0.0397 -0.1708
 6384SOL    HW130788   3.782   0.606   0.019 -1.8388 -1.8000 -2.9080
 6384SOL    HW230789   3.923   0.570  17.713  1.5074  0.6098 -0.9542
 6385SOL     OW30790   2.881   3.371   7.787  0.8025 -0.3966  0.2382
 6385SOL    HW130791   2.881   3.395   7.695 -1.5509 -0.8216  0.1484
 6385SOL    HW230792   2.894   3.276   7.787 -1.5381 -0.7035 -0.1717
 6386SOL     OW30793   3.399   0.682   1.858  0.5347  0.3196  0.6416
 6386SOL    HW130794   3.314   0.665   1.897  1.0483 -0.4843  1.4044
 6386SOL    HW230795   3.391   0.778   1.858  0.3488  0.3081 -1.1443
 6387SOL     OW30796   0.697   0.087  13.434 -0.1408  0.3300 -0.5550
 6387SOL    HW130797   0.627   0.035  13.394  0.2417 -1.7514  1.4462
 6387SOL    HW230798   0.756   0.027  13.481 -1.0994 -1.2145 -1.3201
 6388SOL     OW30799   1.689   0.516  17.161 -0.6817  0.0233  0.5131
 6388SOL    HW130800   1.673   0.438  17.215  1.7284 -0.4640  0.5520
 6388SOL    HW230801   1.782   0.497  17.149 -0.4484  0.6483  1.3198
 6389SOL     OW30802   3.130   4.728   7.738 -0.1341 -0.1920  0.1588
 6389SOL    HW130803   3.167   4.640   7.731 -1.9402 -0.9143 -0.3224
 6389SOL    HW230804   3.175   0.035   7.810  2.2167 -0.0794 -1.4094
 6390SOL     OW30805   2.366   0.964   9.362 -0.1525  0.0199  0.1719
 6390SOL    HW130806   2.323   0.891   9.318  2.1875 -1.2321 -0.0263
 6390SOL    HW230807   2.380   0.925   9.448  3.4263 -2.2264 -1.4680
 6391SOL     OW30808   3.471   4.360   7.631 -0.1399 -0.7328 -0.3080
 6391SOL    HW130809   3.561   4.334   7.611  0.2458  1.2528 -1.1588
 6391SOL    HW230810   3.434   4.279   7.666 -1.4509 -0.3814 -0.8951
 6392SOL     OW30811   3.489   4.449   5.161 -0.4526  0.2467 -0.1428
 6392SOL    HW130812   3.478   4.516   5.093  0.0468  1.3737  0.8867
 6392SOL    HW230813   3.429   4.384   5.123 -2.4939  2.6169 -0.9561
 6393SOL     OW30814   0.084   2.506   5.598 -0.6027 -0.2481 -0.0220
 6393SOL    HW130815   0.005   2.475   5.555 -0.9022  2.1397 -1.2261
 6393SOL    HW230816   0.090   2.435   5.662  1.8249  0.4730  0.5580
 6394SOL     OW30817   4.221   3.724   5.838 -0.8156  0.7282 -0.2984
 6394SOL    HW130818   4.299   3.776   5.818  0.3047 -0.4510  1.0983
 6394SOL    HW230819   4.203   3.774   5.917  0.4202 -0.4178  0.6831
 6395SOL     OW30820   1.782   2.367   0.148 -0.0351 -0.8221  0.0764
 6395SOL    HW130821   1.816   2.329   0.068  1.0196  0.7510 -0.2148
 6395SOL    HW230822   1.691   2.339   0.137 -0.3055 -0.4307  1.3254
 6396SOL     OW30823   1.025   3.599   9.039 -0.3850 -0.1635 -0.0986
 6396SOL    HW130824   1.012   3.651   8.959 -3.5907  0.1580  0.6276
 6396SOL    HW230825   1.119   3.610   9.053  0.0760 -2.4086 -1.5122
 6397SOL     OW30826   0.433   2.342   8.871 -0.4227  0.0298 -0.0334
 6397SOL    HW130827   0.357   2.289   8.892 -1.8717  1.6627 -1.1672
 6397SOL    HW230828   0.399   2.393   8.797 -1.1518 -1.1827 -0.5365
 6398SOL     OW30829   0.500   1.841   4.404 -0.3162 -0.4021 -1.2270
 6398SOL    HW130830   0.410   1.872   4.412  0.0993  0.9510 -1.6763
 6398SOL    HW230831   0.493   1.769   4.342 -2.2052 -1.7727  0.6219
 6399SOL     OW30832   2.653   4.097   8.153  0.1188 -0.4131  0.3487
 6399SOL    HW130833   2.647   4.188   8.182  1.3544  0.3443 -1.7299
 6399SOL    HW230834   2.569   4.066   8.186  1.1340 -2.7174  0.7934
 6400SOL     OW30835   2.945   2.988   6.688  0.2934 -0.0925 -0.0173
 6400SOL    HW130836   2.914   2.996   6.597  2.0167 -0.7292 -0.6666
 6400SOL    HW230837   3.010   3.058   6.689  0.1125  0.0888 -0.9208
 6401SOL     OW30838   2.362   1.389   6.825  0.3968 -0.8400  0.2227
 6401SOL    HW130839   2.375   1.298   6.853  0.1169 -0.7161  0.7566
 6401SOL    HW230840   2.353   1.435   6.909 -1.3082 -1.5548  0.4350
 6402SOL     OW30841   3.706   0.971   7.617  0.2661  0.2666  0.6185
 6402SOL    HW130842   3.616   0.953   7.591  0.4767  1.3565 -0.7951
 6402SOL    HW230843   3.729   1.045   7.561 -0.1855  0.8100  1.1539
 6403SOL     OW30844   1.595   3.084   5.748  0.3189  0.2328 -0.1273
 6403SOL    HW130845   1.511   3.038   5.736  0.0187  0.9378 -0.7571
 6403SOL    HW230846   1.625   3.096   5.658 -0.1980 -0.0516 -0.3431
 6404SOL     OW30847   4.653   4.480   5.761 -0.3634  0.9264 -0.8099
 6404SOL    HW130848   4.666   4.518   5.848  1.7599 -0.7196 -0.3872
 6404SOL    HW230849   4.636   4.560   5.712 -0.4207  1.9778  0.9070
 6405SOL     OW30850   4.548   4.446   0.067  0.5618  0.0660 -0.1903
 6405SOL    HW130851   4.557   4.427   0.161  2.3602 -0.2189 -0.4328
 6405SOL    HW230852   4.502   4.368   0.036  1.5226 -0.5521 -0.0559
 6406SOL     OW30853   1.251   4.245   5.223  0.0660  0.0036  0.3412
 6406SOL    HW130854   1.257   4.172   5.162  1.0892  1.6491 -1.4936
 6406SOL    HW230855   1.157   4.261   5.219 -0.1924 -1.8109 -0.7339
 6407SOL     OW30856   2.439   0.586  11.996  0.4214 -0.1749  0.3041
 6407SOL    HW130857   2.497   0.620  11.929 -1.5059  0.6475 -0.9591
 6407SOL    HW230858   2.369   0.542  11.948  0.5694 -0.1189  0.0368
 6408SOL     OW30859   3.732   4.118   1.248 -0.5983  0.0662  0.2660
 6408SOL    HW130860   3.655   4.075   1.284 -1.1836  1.9167  1.2254
 6408SOL    HW230861   3.722   4.203   1.290 -0.6830 -0.2473  0.8913
 6409SOL     OW30862   0.372   3.425  13.231  0.4634  0.9006  0.0169
 6409SOL    HW130863   0.420   3.403  13.311 -0.6182  1.5135  0.8500
 6409SOL    HW230864   0.378   3.520  13.231  1.3924  0.8386  0.5526
 6410SOL     OW30865   2.017   3.574   1.778 -0.2573  0.5039  0.5319
 6410SOL    HW130866   2.017   3.616   1.864  1.6288  2.1135 -0.2525
 6410SOL    HW230867   2.098   3.607   1.738  0.2201 -0.6060  0.5875
 6411SOL     OW30868   2.057   3.124  13.301  0.0506 -0.0491  0.0251
 6411SOL    HW130869   2.004   3.203  13.287  0.0792 -0.2823 -1.4574
 6411SOL    HW230870   2.146   3.158  13.290  0.4181 -1.8983 -2.7179
 6412SOL     OW30871   2.675   0.124   9.334 -0.8825 -0.5333  0.2764
 6412SOL    HW130872   2.736   0.154   9.402 -0.0315  1.4236 -1.3542
 6412SOL    HW230873   2.640   0.041   9.367 -1.9341 -1.2983 -2.8082
 6413SOL     OW30874   3.611   1.897   7.295  0.4108  0.0314  0.4968
 6413SOL    HW130875   3.607   1.862   7.384  2.1235  0.3100  0.6785
 6413SOL    HW230876   3.528   1.944   7.287  1.1391  1.0619 -1.2075
 6414SOL     OW30877   4.091   0.612   4.029 -0.1439 -0.0665 -0.9157
 6414SOL    HW130878   4.083   0.555   4.105 -0.6602  1.3798  0.1189
 6414SOL    HW230879   4.117   0.548   3.963 -0.0568 -1.4129  0.4300
 6415SOL     OW30880   2.654   2.492  15.333 -0.2641 -0.3487  0.2483
 6415SOL    HW130881   2.671   2.451  15.418 -1.2448  1.2914  1.2365
 6415SOL    HW230882   2.720   2.559  15.316 -0.6333  0.3833  1.6920
 6416SOL     OW30883   4.730   0.895   7.134  0.2660 -0.1643 -0.0391
 6416SOL    HW130884   0.050   0.905   7.211  0.9970 -0.3560 -0.5616
 6416SOL    HW230885   0.044   0.834   7.082  0.4231 -0.8517  0.9072
 6417SOL     OW30886   3.874   2.731   0.755 -0.0338  0.0248 -0.5089
 6417SOL    HW130887   3.888   2.636   0.758 -1.9521 -0.2115  0.5062
 6417SOL    HW230888   3.848   2.744   0.846 -2.6709  0.2403 -1.2874
 6418SOL     OW30889   4.137   3.842   2.247  0.1047 -0.8034 -0.2140
 6418SOL    HW130890   4.070   3.874   2.186  0.5177  1.7345  0.6609
 6418SOL    HW230891   4.084   3.772   2.284 -0.4004  0.2070  0.9832
 6419SOL     OW30892   2.811   2.481  14.142  0.2097 -0.2508 -0.5771
 6419SOL    HW130893   2.781   2.491  14.052  2.0711  1.4891 -1.0142
 6419SOL    HW230894   2.803   2.388  14.164 -1.2364 -0.3913 -1.6806
 6420SOL     OW30895   3.852   3.965   2.375  0.4427 -0.1931 -0.2277
 6420SOL    HW130896   3.813   3.936   2.293 -2.1243 -1.0584  1.2970
 6420SOL    HW230897   3.828   4.058   2.374  1.0005 -0.0613 -1.2825
 6421SOL     OW30898   3.555   1.566  16.505  0.0505  0.0207  0.1032
 6421SOL    HW130899   3.481   1.529  16.457 -1.2206  2.7483 -0.0374
 6421SOL    HW230900   3.570   1.500  16.573  0.2549 -0.6769 -0.6155
 6422SOL     OW30901   3.574   3.746   7.497  0.1979 -0.6128  0.0533
 6422SOL    HW130902   3.487   3.717   7.524 -0.1925 -0.5081 -1.0867
 6422SOL    HW230903   3.631   3.735   7.574  2.2485 -0.1825 -1.3935
 6423SOL     OW30904   1.660   1.804   8.767 -0.2757  0.1456 -0.0019
 6423SOL    HW130905   1.652   1.885   8.818 -3.3120 -0.5708  0.6685
 6423SOL    HW230906   1.591   1.809   8.701 -1.2491  3.5780  1.2815
 6424SOL     OW30907   3.685   2.748   2.687  0.2992 -0.4432  0.0719
 6424SOL    HW130908   3.754   2.770   2.749 -0.1304 -0.0556  0.4142
 6424SOL    HW230909   3.626   2.698   2.743 -0.6385  1.0010  0.3786
 6425SOL     OW30910   1.772   2.967   5.319  0.1500  0.1151 -0.1222
 6425SOL    HW130911   1.820   3.009   5.391  2.4968 -0.7774 -1.1464
 6425SOL    HW230912   1.823   2.886   5.318 -2.8653 -1.7868 -0.0527
 6426SOL     OW30913   2.651   3.520   4.504 -0.5894 -0.1849  0.2243
 6426SOL    HW130914   2.666   3.506   4.597 -1.2288 -1.7570  0.0922
 6426SOL    HW230915   2.562   3.487   4.487 -0.9488  0.0843  1.6019
 6427SOL     OW30916   0.149   2.670   4.086 -0.0372 -0.7156 -0.2976
 6427SOL    HW130917   0.208   2.744   4.101 -0.5101  0.0183 -2.0318
 6427SOL    HW230918   0.095   2.671   4.165  1.6889  1.4084  0.8748
 6428SOL     OW30919   1.927   3.243   3.582 -0.0251 -0.2795  0.9282
 6428SOL    HW130920   1.976   3.258   3.662  2.1256 -1.5933 -0.1473
 6428SOL    HW230921   1.934   3.327   3.536  3.7593  0.7527  3.4463
 6429SOL     OW30922   1.108   2.678   5.483  0.1098  0.3971  0.4399
 6429SOL    HW130923   1.086   2.586   5.469 -1.1797  0.4708  2.0082
 6429SOL    HW230924   1.095   2.706   5.393  0.0506 -1.6983 -0.2056
 6430SOL     OW30925   4.622   2.397   7.267 -0.2409 -0.1720  0.4687
 6430SOL    HW130926   4.543   2.403   7.214 -1.4005  1.8994  2.4511
 6430SOL    HW230927   4.575   2.383   7.349  1.7539 -1.3470  1.4268
 6431SOL     OW30928   3.690   1.486   5.491 -0.3109 -0.1092  0.2480
 6431SOL    HW130929   3.656   1.400   5.467  2.1725 -0.1111 -3.2822
 6431SOL    HW230930   3.710   1.518   5.403  1.2662  1.0132  1.0149
 6432SOL     OW30931   0.366   3.751   4.620 -0.3859 -0.8482 -0.1330
 6432SOL    HW130932   0.400   3.820   4.564 -3.1450  0.5348 -0.0920
 6432SOL    HW230933   0.310   3.700   4.562  0.2104 -0.8818 -0.6749
 6433SOL     OW30934   0.920   1.325  11.087  0.1054  0.5073  0.1480
 6433SOL    HW130935   0.826   1.334  11.073  0.0896 -0.4323 -0.3425
 6433SOL    HW230936   0.917   1.255  11.153  2.0493  1.0647  0.8365
 6434SOL     OW30937   4.475   1.147   6.014 -0.0179  0.2219  0.1624
 6434SOL    HW130938   4.453   1.056   5.995 -0.7185  0.3049  0.5425
 6434SOL    HW230939   4.413   1.197   5.960  1.0693 -1.6263 -2.7648
 6435SOL     OW30940   4.555   0.553   8.633 -0.4227  0.1960  0.0464
 6435SOL    HW130941   4.471   0.597   8.644  0.5911  2.3720 -0.9098
 6435SOL    HW230942   4.609   0.606   8.574  0.8329  0.7089  1.6495
 6436SOL     OW30943   3.812   4.432   2.819  0.2333 -0.1053  0.9112
 6436SOL    HW130944   3.880   4.386   2.772  0.2902  1.1309 -0.2153
 6436SOL    HW230945   3.787   4.487   2.745  0.9417  2.0928  2.2980
 6437SOL     OW30946   1.924   4.416   3.313  0.0095  0.3729 -0.0198
 6437SOL    HW130947   1.836   4.402   3.276 -0.7640  0.1865  1.8597
 6437SOL    HW230948   1.920   4.511   3.311  1.0386  0.3989 -0.4292
 6438SOL     OW30949   1.173   2.635   3.266 -0.0229 -0.1779  0.2144
 6438SOL    HW130950   1.175   2.714   3.211 -0.3419 -0.3160  0.0073
 6438SOL    HW230951   1.109   2.673   3.326  0.6276  0.4700  0.5097
 6439SOL     OW30952   1.408   0.303  10.722 -0.3330 -0.1634 -0.0526
 6439SOL    HW130953   1.391   0.395  10.700 -0.7488 -0.1600  0.2698
 6439SOL    HW230954   1.502   0.287  10.734  0.0273  1.2221 -0.9790
 6440SOL     OW30955   4.517   3.107   4.398  0.4395 -0.0842  0.4360
 6440SOL    HW130956   4.543   3.015   4.391  1.6505  0.2231  0.9586
 6440SOL    HW230957   4.488   3.123   4.308  0.4229  0.2701  0.5064
 6441SOL     OW30958   3.275   4.153   4.686  0.2704 -0.2776  0.1450
 6441SOL    HW130959   3.243   4.093   4.618  1.8787 -1.1429  0.1477
 6441SOL    HW230960   3.252   4.237   4.646  2.7244 -1.3499 -3.5505
 6442SOL     OW30961   0.639   1.257   3.477 -0.0898 -0.5250 -0.0630
 6442SOL    HW130962   0.666   1.333   3.528  1.1803  1.1963 -3.3252
 6442SOL    HW230963   0.707   1.192   3.496 -0.0807 -0.2424  0.8681
 6443SOL     OW30964   2.207   3.741   3.275  0.8499  0.0570 -0.2483
 6443SOL    HW130965   2.205   3.836   3.263 -0.6211 -0.3768 -3.4331
 6443SOL    HW230966   2.277   3.725   3.212  1.5541 -1.2769  0.8844
 6444SOL     OW30967   2.179   3.812   5.004  0.0029 -0.1846  0.3614
 6444SOL    HW130968   2.264   3.844   5.034 -0.7841  3.4731 -1.3252
 6444SOL    HW230969   2.204   3.721   4.989 -0.4095 -0.4217  1.1079
 6445SOL     OW30970   4.483   0.529  10.799 -0.2280  0.0900  0.4758
 6445SOL    HW130971   4.553   0.483  10.845  0.5843  0.3795 -0.4585
 6445SOL    HW230972   4.462   0.601  10.858  0.9190  0.3163  0.5941
 6446SOL     OW30973   2.345   2.202  14.639 -0.1425 -0.0490  0.1351
 6446SOL    HW130974   2.351   2.110  14.665  0.1936 -0.1782 -0.3897
 6446SOL    HW230975   2.351   2.240  14.726  2.6439 -1.0556  0.3570
 6447SOL     OW30976   1.697   2.061  14.693 -0.1725 -0.4737  0.8319
 6447SOL    HW130977   1.788   2.031  14.704  0.5776  1.3901 -0.3200
 6447SOL    HW230978   1.686   2.047  14.599  3.5838 -1.1191  0.4612
 6448SOL     OW30979   4.573   3.980  17.175 -0.0808  0.0991  0.1603
 6448SOL    HW130980   4.621   4.043  17.228 -1.5150  1.3765 -0.0822
 6448SOL    HW230981   4.495   4.023  17.140 -0.6748 -1.6082 -0.6147
 6449SOL     OW30982   3.421   0.807   8.740  0.5030 -0.3351  0.7328
 6449SOL    HW130983   3.402   0.714   8.731  1.6241 -0.4109 -0.7583
 6449SOL    HW230984   3.405   0.834   8.649  0.6099  0.7601  1.0328
 6450SOL     OW30985   4.712   1.167  12.636  0.2173  0.0090  0.5642
 6450SOL    HW130986   0.015   1.081  12.625  0.4970  0.2018  0.1168
 6450SOL    HW230987   4.641   1.148  12.575  0.3264  4.0060 -0.7660
 6451SOL     OW30988   1.485   1.495   6.084 -0.9195  0.4381  0.1063
 6451SOL    HW130989   1.407   1.450   6.050 -1.2966 -0.9684  2.8414
 6451SOL    HW230990   1.496   1.455   6.170  0.3331  0.1450 -0.1993
 6452SOL     OW30991   1.829   2.387   6.122  0.3021 -0.1867 -0.0250
 6452SOL    HW130992   1.880   2.420   6.197  2.0770 -0.2228 -1.2089
 6452SOL    HW230993   1.774   2.320   6.162  1.1843 -0.5313  0.6179
 6453SOL     OW30994   0.637   3.612  17.504  0.2778  0.1314  0.1316
 6453SOL    HW130995   0.573   3.556  17.548 -0.4382 -0.1342 -1.2113
 6453SOL    HW230996   0.677   3.550  17.443  1.0508 -1.0999  1.9093
 6454SOL     OW30997   4.011   0.719   6.448 -0.8214 -0.3368  0.5918
 6454SOL    HW130998   4.079   0.653   6.463 -0.4425 -0.2216 -0.6616
 6454SOL    HW230999   3.934   0.668   6.423  2.7389 -4.3253 -2.1357
 6455SOL     OW31000   1.690   4.677   4.168  0.3002 -0.1987  0.2006
 6455SOL    HW131001   1.617   4.646   4.221  0.1086  1.2745  0.8004
 6455SOL    HW231002   1.651   4.661   4.082  1.3432  0.4263 -0.3887
 6456SOL     OW31003   2.566   1.671  16.847 -0.3099  0.2778  0.1875
 6456SOL    HW131004   2.571   1.620  16.928  0.7414 -0.2299 -0.1977
 6456SOL    HW231005   2.480   1.713  16.847 -1.0274 -1.2146 -1.0178
 6457SOL     OW31006   1.479   4.047   6.207 -0.0707 -0.4123  0.0626
 6457SOL    HW131007   1.475   3.990   6.130 -1.4245 -0.1681 -0.0350
 6457SOL    HW231008   1.558   4.094   6.180 -0.8124  2.4078  2.8144
 6458SOL     OW31009   4.387   3.722   3.819 -0.2691  0.5400  0.3728
 6458SOL    HW131010   4.371   3.642   3.869 -2.5697  0.0485 -1.1157
 6458SOL    HW231011   4.477   3.751   3.834  0.2304  0.4592 -2.3179
 6459SOL     OW31012   4.410   2.957   5.703  0.0510  0.4235 -0.5644
 6459SOL    HW131013   4.357   3.033   5.725 -0.0998 -0.7695  3.1079
 6459SOL    HW231014   4.395   2.891   5.771  0.4894  1.2069  0.2927
 6460SOL     OW31015   0.491   2.105   0.505 -0.2839 -0.4489 -0.3374
 6460SOL    HW131016   0.575   2.076   0.541  0.4625  0.2563 -1.5622
 6460SOL    HW231017   0.482   2.057   0.422  1.6004  1.7533 -1.7858
 6461SOL     OW31018   4.659   2.308   4.000 -0.1661 -0.4252 -0.0971
 6461SOL    HW131019   4.623   2.247   4.064 -1.0709 -1.2794 -1.4068
 6461SOL    HW231020   4.602   2.295   3.924 -0.8593  0.9208  0.1880
 6462SOL     OW31021   0.445   1.511   9.140  0.6424  0.3864  0.3213
 6462SOL    HW131022   0.533   1.504   9.178  0.4370 -0.7561  0.5815
 6462SOL    HW231023   0.462   1.534   9.049 -2.0113 -2.0998 -0.7956
 6463SOL     OW31024   2.448   4.637   7.736 -0.2281  0.1292  0.0215
 6463SOL    HW131025   2.522   4.580   7.756 -0.6895  0.4319  2.6335
 6463SOL    HW231026   2.470   4.719   7.780  1.0284  0.4956 -1.3111
 6464SOL     OW31027   1.931   4.144  15.756 -0.0813  0.4100  0.0947
 6464SOL    HW131028   1.838   4.127  15.768 -0.2224 -0.2878 -1.9902
 6464SOL    HW231029   1.929   4.240  15.754 -1.3668  0.3455 -1.9188
 6465SOL     OW31030   4.609   3.504   2.273 -0.0246 -0.2797 -0.1934
 6465SOL    HW131031   4.546   3.575   2.261  2.3103  1.8077  0.0178
 6465SOL    HW231032   4.673   3.535   2.336 -0.1102 -0.5789  0.0419
 6466SOL     OW31033   0.507   1.221   7.990  0.1499  0.2159 -0.1153
 6466SOL    HW131034   0.550   1.153   8.041  0.9721  0.2214 -0.8025
 6466SOL    HW231035   0.496   1.298   8.046  0.9272  0.6772 -0.6045
 6467SOL     OW31036   3.088   0.283   8.497 -0.2419 -0.2323 -0.0382
 6467SOL    HW131037   3.134   0.312   8.418  1.3598  0.2250  1.0686
 6467SOL    HW231038   3.083   0.188   8.482  1.0372  0.1310 -2.8173
 6468SOL     OW31039   3.001   2.899  10.744  0.1899  0.2892 -0.2614
 6468SOL    HW131040   3.032   2.873  10.831  2.0486 -0.5248 -1.1611
 6468SOL    HW231041   3.075   2.950  10.710 -0.6221  2.0740  0.6204
 6469SOL     OW31042   1.329   2.387   2.546 -0.6006  0.2527 -0.2411
 6469SOL    HW131043   1.287   2.410   2.629  1.7438  0.4163  0.9069
 6469SOL    HW231044   1.295   2.300   2.528 -0.3080 -0.4953  2.7670
 6470SOL     OW31045   1.326   1.140   3.243  0.1991 -0.6137  0.3498
 6470SOL    HW131046   1.411   1.147   3.199 -0.0049  0.9472  0.2090
 6470SOL    HW231047   1.348   1.090   3.321 -1.7838  0.0527  1.3262
 6471SOL     OW31048   3.317   3.161   5.460 -0.3336 -0.2237 -0.4066
 6471SOL    HW131049   3.372   3.204   5.525 -1.0633  0.8698 -0.5089
 6471SOL    HW231050   3.256   3.231   5.438 -0.7122  0.1114  1.7070
 6472SOL     OW31051   4.348   4.415   8.839  0.0267 -0.0418  0.2306
 6472SOL    HW131052   4.370   4.503   8.808  0.3298  0.9570  3.2733
 6472SOL    HW231053   4.291   4.428   8.914 -0.4210  0.8119 -0.2569
 6473SOL     OW31054   3.707   2.345   7.095  0.0360 -0.1767 -0.2641
 6473SOL    HW131055   3.682   2.254   7.079  1.5529 -0.7435  0.6422
 6473SOL    HW231056   3.753   2.373   7.015  0.6686 -0.7029 -0.0844
 6474SOL     OW31057   0.546   0.246   6.153 -0.3973 -0.3693  1.0859
 6474SOL    HW131058   0.532   0.164   6.107  0.6915  0.1018 -0.0775
 6474SOL    HW231059   0.633   0.274   6.124  0.5663 -1.7241  2.6660
 6475SOL     OW31060   2.296   0.561   8.944 -0.4664  0.5197  0.5021
 6475SOL    HW131061   2.238   0.636   8.931  0.8578  1.7072  1.4889
 6475SOL    HW231062   2.377   0.603   8.974 -0.4554  0.3139  0.7584
 6476SOL     OW31063   3.294   2.635  16.189 -0.7268  0.1967 -0.2101
 6476SOL    HW131064   3.304   2.540  16.186 -1.5500  0.1282 -0.9601
 6476SOL    HW231065   3.208   2.654  16.227 -0.1470  1.5298  0.4256
 6477SOL     OW31066   3.756   2.653   2.004  0.0786 -0.1188  0.1785
 6477SOL    HW131067   3.669   2.690   2.021  0.0892 -0.9494  2.0203
 6477SOL    HW231068   3.806   2.719   2.053  1.7236 -1.6752  0.5729
 6478SOL     OW31069   4.542   2.655   2.669 -0.2851 -0.2490  0.0308
 6478SOL    HW131070   4.601   2.730   2.671 -1.1383  0.4930 -2.5549
 6478SOL    HW231071   4.465   2.685   2.621  0.0963  2.9190  1.4442
 6479SOL     OW31072   0.881   3.053   8.139 -0.2828  0.5171 -0.0343
 6479SOL    HW131073   0.927   3.009   8.068  0.1039  1.0937 -0.1439
 6479SOL    HW231074   0.946   3.122   8.151  2.4214 -2.4403  2.2013
 6480SOL     OW31075   2.708   3.081   8.027  0.7272 -0.7048  0.3042
 6480SOL    HW131076   2.646   3.019   8.065 -0.7187 -0.0551 -0.9680
 6480SOL    HW231077   2.791   3.064   8.072  1.5541 -0.4486 -1.1021
 6481SOL     OW31078   2.499   2.354   1.197  0.6950 -0.1542 -0.1663
 6481SOL    HW131079   2.548   2.420   1.147  0.6989 -0.0537 -0.0296
 6481SOL    HW231080   2.409   2.387   1.202 -0.3092 -2.9047 -0.5251
 6482SOL     OW31081   4.329   3.150  13.124 -0.2793 -0.2090 -0.4891
 6482SOL    HW131082   4.256   3.210  13.138  1.4405  2.0269 -1.0256
 6482SOL    HW231083   4.400   3.196  13.169 -0.7684  2.6338 -2.6407
 6483SOL     OW31084   1.548   3.963   6.458 -0.0398  0.2138  0.3986
 6483SOL    HW131085   1.486   3.988   6.527 -2.3603 -4.1677 -0.1466
 6483SOL    HW231086   1.515   3.992   6.373  0.9460 -1.3574 -0.5271
 6484SOL     OW31087   2.425   2.309  17.566  0.5388  0.3467 -0.1450
 6484SOL    HW131088   2.495   2.248  17.543  1.8216  1.4959  0.6594
 6484SOL    HW231089   2.380   2.260  17.635  0.6402 -0.4556 -0.6528
 6485SOL     OW31090   2.979   1.167   4.905 -0.5049 -0.2351  0.0120
 6485SOL    HW131091   3.020   1.081   4.919 -0.2904 -0.0767  0.3652
 6485SOL    HW231092   2.923   1.177   4.982 -1.8746 -0.6538 -0.9374
 6486SOL     OW31093   0.054   4.370   9.153  0.0319  0.3832  0.7584
 6486SOL    HW131094   0.094   4.344   9.236  0.2124 -1.4514  0.0923
 6486SOL    HW231095   0.060   4.285   9.109 -2.6639  0.0578  1.0051
 6487SOL     OW31096   1.610   1.666   8.367  0.1392 -0.1326  0.3896
 6487SOL    HW131097   1.570   1.747   8.397 -2.7581 -0.9508 -1.2553
 6487SOL    HW231098   1.663   1.636   8.441  2.5016 -0.1769 -1.3067
 6488SOL     OW31099   0.762   1.979   5.114  0.8628  0.1757  0.1810
 6488SOL    HW131100   0.855   1.995   5.098  1.0940  0.3956  1.7566
 6488SOL    HW231101   0.735   1.946   5.028 -0.5476 -0.5519  0.9039
 6489SOL     OW31102   2.847   1.824   3.905  0.2016  0.5608 -0.0760
 6489SOL    HW131103   2.783   1.786   3.845  0.3620 -0.2906  0.2826
 6489SOL    HW231104   2.832   1.916   3.886 -0.7072  0.6911  1.3085
 6490SOL     OW31105   4.113   4.060   6.714  0.3530  0.5023  0.1105
 6490SOL    HW131106   4.037   4.082   6.768 -1.4464  0.4732 -2.4235
 6490SOL    HW231107   4.086   4.054   6.622 -3.7996  2.7251  1.2038
 6491SOL     OW31108   0.435   1.554  13.247 -0.7165  0.4984 -0.1969
 6491SOL    HW131109   0.344   1.525  13.247 -0.3657 -0.6609  2.4582
 6491SOL    HW231110   0.417   1.647  13.254  2.1529  1.0538 -0.2067
 6492SOL     OW31111   3.635   0.183  12.473 -0.3632 -0.0681  0.0372
 6492SOL    HW131112   3.717   0.218  12.508 -1.7200  2.1612  0.9657
 6492SOL    HW231113   3.673   0.135  12.399 -0.7829 -0.4434  0.0707
 6493SOL     OW31114   0.115   0.874   4.032 -0.2223 -0.1756  0.4404
 6493SOL    HW131115   0.136   0.915   4.116 -0.5558 -0.2131  0.5408
 6493SOL    HW231116   0.024   0.901   4.021 -0.5835 -0.8959  1.6227
 6494SOL     OW31117   3.632   1.127   9.558  0.0181  0.1971 -0.0143
 6494SOL    HW131118   3.721   1.156   9.538 -0.9321  2.3969 -1.0282
 6494SOL    HW231119   3.636   1.129   9.654  0.9190 -0.5487 -0.0367
 6495SOL     OW31120   3.215   0.752  12.344  0.1855  0.3865 -0.2831
 6495SOL    HW131121   3.177   0.669  12.316 -0.2757  0.0018  1.5229
 6495SOL    HW231122   3.205   0.811  12.269  0.4944  0.3772 -0.3325
 6496SOL     OW31123   1.925   4.540  10.792 -0.2043 -0.7118 -0.0023
 6496SOL    HW131124   1.908   4.486  10.869 -0.7317  1.6355  1.5287
 6496SOL    HW231125   1.850   4.599  10.802 -1.2954 -2.1377  0.3270
 6497SOL     OW31126   1.607   0.819   9.444  0.2306  0.1626  0.6352
 6497SOL    HW131127   1.599   0.735   9.399  2.9965 -0.1363  0.6959
 6497SOL    HW231128   1.654   0.791   9.523 -0.5150  0.2819  1.1220
 6498SOL     OW31129   0.423   4.384   9.706  0.2014  0.1612  0.5949
 6498SOL    HW131130   0.392   4.420   9.623 -1.2403 -5.2003 -1.1868
 6498SOL    HW231131   0.415   4.458   9.767 -0.8193  1.0140 -0.5749
 6499SOL     OW31132   3.762   1.091   1.846  0.2461  0.0049 -0.5437
 6499SOL    HW131133   3.851   1.126   1.856 -0.1873  0.8377  0.3510
 6499SOL    HW231134   3.723   1.165   1.799  0.5070  0.3768 -0.1871
 6500SOL     OW31135   1.530   4.435   5.790  0.0998 -0.2936 -0.1954
 6500SOL    HW131136   1.620   4.403   5.792  0.0888 -0.4047 -1.6730
 6500SOL    HW231137   1.494   4.436   5.702  0.2407  0.2359 -0.2487
 6501SOL     OW31138   4.400   0.793   7.752  1.3363 -0.2575 -0.1769
 6501SOL    HW131139   4.319   0.829   7.715  1.0786 -2.1595 -1.4517
 6501SOL    HW231140   4.360   0.764   7.833  0.7496  0.9685 -0.0315
 6502SOL     OW31141   3.494   3.105  10.594 -0.1079 -0.5897  0.4757
 6502SOL    HW131142   3.446   3.188  10.593 -0.8186 -1.0136 -0.1097
 6502SOL    HW231143   3.486   3.092  10.499  0.4346  1.8696  0.0968
 6503SOL     OW31144   1.167   4.147   1.212  0.7889  0.0128 -0.1126
 6503SOL    HW131145   1.076   4.149   1.182  0.8851 -3.2877 -0.5936
 6503SOL    HW231146   1.213   4.145   1.128  1.4987 -0.5895  0.2999
 6504SOL     OW31147   4.287   3.875   2.971  0.0605 -0.4147  0.2293
 6504SOL    HW131148   4.262   3.791   2.932 -1.3627 -0.4679  1.2543
 6504SOL    HW231149   4.229   3.924   2.913 -1.2598  0.9617  2.7139
 6505SOL     OW31150   1.466   4.341   6.134  0.2706 -0.5742  0.1928
 6505SOL    HW131151   1.451   4.426   6.174 -0.7965 -0.0353 -1.4198
 6505SOL    HW231152   1.381   4.298   6.128 -0.6513  1.5236 -1.3185
 6506SOL     OW31153   2.438   3.457   5.167  0.0091 -1.0993 -0.0756
 6506SOL    HW131154   2.419   3.421   5.081  0.0094  3.7802 -2.0912
 6506SOL    HW231155   2.517   3.406   5.184  1.5914  1.5767  0.7551
 6507SOL     OW31156   0.813   4.477   6.356  0.1643 -0.4140 -0.0941
 6507SOL    HW131157   0.756   4.502   6.429  1.4872  1.6088  0.2357
 6507SOL    HW231158   0.878   4.423   6.401  1.3801  0.0645 -1.2971
 6508SOL     OW31159   2.333   4.182   8.820  0.0821 -0.0187  0.0114
 6508SOL    HW131160   2.384   4.184   8.740  1.0919 -0.4333  0.6553
 6508SOL    HW231161   2.259   4.130   8.787  0.3555 -1.3391  1.4933
 6509SOL     OW31162   2.446   3.804   7.266  0.2147  0.3802 -0.5999
 6509SOL    HW131163   2.501   3.871   7.225  0.1713  0.9560  0.2740
 6509SOL    HW231164   2.519   3.742   7.264 -1.4100 -1.5669 -0.0235
 6510SOL     OW31165   4.324   2.074   8.452 -0.3233 -0.3107  0.1827
 6510SOL    HW131166   4.296   2.075   8.361  0.5979 -0.1444 -0.1026
 6510SOL    HW231167   4.252   2.028   8.496  0.1091  1.7112  3.0044
 6511SOL     OW31168   3.929   0.484  15.197  0.2001  0.3385 -0.1703
 6511SOL    HW131169   4.005   0.442  15.158  0.0424 -1.4042  1.3510
 6511SOL    HW231170   3.928   0.566  15.148 -2.8048  0.2380 -0.3155
 6512SOL     OW31171   2.756   0.240   7.371  0.7138 -0.4446 -0.6283
 6512SOL    HW131172   2.742   0.333   7.390 -0.7588 -0.8719  0.3890
 6512SOL    HW231173   2.829   0.230   7.432  1.5635  0.5984 -1.4804
 6513SOL     OW31174   1.453   4.568   7.318 -0.3941  0.6976  0.0618
 6513SOL    HW131175   1.450   4.570   7.413 -2.1359 -0.0530  0.0137
 6513SOL    HW231176   1.382   4.507   7.299  0.0050  0.8933 -2.1667
 6514SOL     OW31177   2.148   4.147  13.476 -0.5063 -0.2076  0.4635
 6514SOL    HW131178   2.195   4.153  13.559 -2.5215 -0.8004  1.6422
 6514SOL    HW231179   2.214   4.131  13.408 -1.2681 -0.7090 -0.1613
 6515SOL     OW31180   3.638   1.781  17.025  0.1079  0.2908  0.3764
 6515SOL    HW131181   3.597   1.710  17.075  1.8826 -0.0103  1.3952
 6515SOL    HW231182   3.562   1.826  16.988 -0.5343 -0.8048  0.3787
 6516SOL     OW31183   1.287   1.611   8.518 -0.6114 -0.2662 -0.1293
 6516SOL    HW131184   1.284   1.668   8.441 -0.8683 -0.4741 -0.2723
 6516SOL    HW231185   1.260   1.525   8.488 -1.6985  0.2012 -0.4833
 6517SOL     OW31186   1.376   0.071   0.631  0.3372  0.0071  0.3413
 6517SOL    HW131187   1.446   0.015   0.598  1.6458  2.8314 -1.6104
 6517SOL    HW231188   1.364   0.121   0.551 -0.3722  0.0140  0.4500
 6518SOL     OW31189   2.260   4.062  14.406  0.0682 -0.9094 -0.4919
 6518SOL    HW131190   2.304   4.034  14.486 -2.0886  1.1464  1.4233
 6518SOL    HW231191   2.217   4.142  14.437  3.3706  1.6274 -2.5592
 6519SOL     OW31192   2.757   2.737  15.586  0.5732 -0.0555 -0.0745
 6519SOL    HW131193   2.676   2.782  15.561  0.9499  0.3069 -0.6536
 6519SOL    HW231194   2.721   2.649  15.599 -1.7286  0.5106 -2.6253
 6520SOL     OW31195   1.517   2.313   9.476 -0.0016  0.1784 -0.1403
 6520SOL    HW131196   1.505   2.226   9.512 -1.6568  0.2877 -0.4377
 6520SOL    HW231197   1.593   2.298   9.419 -0.1923  0.2265 -0.4086
 6521SOL     OW31198   2.456   0.432   8.398 -0.2375  0.2050 -0.0251
 6521SOL    HW131199   2.401   0.363   8.436 -1.0995 -1.1803 -3.8524
 6521SOL    HW231200   2.417   0.514   8.426 -1.6592  0.0499 -1.6100
 6522SOL     OW31201   2.215   4.253   6.962  0.3395 -0.0659 -0.4986
 6522SOL    HW131202   2.246   4.173   7.004  0.2089 -0.1735 -0.6061
 6522SOL    HW231203   2.251   4.244   6.874  2.5835  0.2795  0.3861
 6523SOL     OW31204   2.095   4.383  11.593  0.1209  0.2576  0.4218
 6523SOL    HW131205   2.175   4.412  11.637  0.3324  1.7798 -0.9387
 6523SOL    HW231206   2.072   4.310  11.650 -0.8820 -0.9416 -1.5073
 6524SOL     OW31207   3.432   3.596   8.741  0.2149  0.2407  0.0793
 6524SOL    HW131208   3.414   3.650   8.818  2.0779 -2.3873  2.3522
 6524SOL    HW231209   3.373   3.642   8.681 -1.2546  0.0779  1.4043
 6525SOL     OW31210   1.783   4.638   9.437  0.0981  0.3582  0.1654
 6525SOL    HW131211   1.781   4.668   9.346  1.0721  0.5354  0.1996
 6525SOL    HW231212   1.692   4.656   9.461  0.2531  2.2166 -0.6398
 6526SOL     OW31213   0.759   2.957   5.801 -0.2983 -0.3467 -0.1987
 6526SOL    HW131214   0.741   2.997   5.886  0.2468 -3.3573  1.3106
 6526SOL    HW231215   0.779   3.040   5.757 -1.2139 -0.9339 -1.7354
 6527SOL     OW31216   3.219   2.403   8.507  0.8119 -0.5455 -0.0086
 6527SOL    HW131217   3.140   2.455   8.514  0.5151 -0.9515 -0.3773
 6527SOL    HW231218   3.200   2.355   8.427  2.0542 -0.7472 -0.1939
 6528SOL     OW31219   3.296   0.168   6.541  0.3863  0.1718  0.1632
 6528SOL    HW131220   3.257   0.085   6.567  2.0274 -0.1822  1.4777
 6528SOL    HW231221   3.381   0.137   6.509  0.4443  1.2342 -0.7190
 6529SOL     OW31222   1.792   3.685   3.060 -0.1004  0.1868 -0.0606
 6529SOL    HW131223   1.878   3.727   3.071 -1.0609  3.1606 -3.9763
 6529SOL    HW231224   1.774   3.730   2.978 -2.1847  0.2051  0.4182
 6530SOL     OW31225   1.306   0.948   1.580  0.1605  0.4053  0.3497
 6530SOL    HW131226   1.381   1.008   1.584 -0.1578  0.9469 -1.8389
 6530SOL    HW231227   1.275   0.954   1.671 -0.7322  0.6730  0.0255
 6531SOL     OW31228   1.559   1.177   9.605  0.0115  0.0722 -0.0502
 6531SOL    HW131229   1.524   1.140   9.524  0.1511  2.3291 -1.1506
 6531SOL    HW231230   1.533   1.268   9.592  2.5563  0.8295  0.3599
 6532SOL     OW31231   1.591   1.989  11.802 -0.0625  0.0709  0.0997
 6532SOL    HW131232   1.629   2.077  11.793 -2.1402  1.0066  0.5469
 6532SOL    HW231233   1.594   1.960  11.711 -0.6717 -0.3907  0.2285
 6533SOL     OW31234   0.630   0.985   7.033  0.2399  0.1229 -0.2715
 6533SOL    HW131235   0.662   1.057   7.087 -0.0602  0.4658 -0.5569
 6533SOL    HW231236   0.537   1.009   7.035  0.4146  0.7310  0.5335
 6534SOL     OW31237   1.526   1.215   5.872  0.0519  0.5552 -0.5925
 6534SOL    HW131238   1.443   1.186   5.910  1.0612 -0.7127  0.6450
 6534SOL    HW231239   1.577   1.228   5.952 -1.4625 -0.3593  0.4979
 6535SOL     OW31240   1.748   3.481   1.139  0.1990 -0.1201 -0.1887
 6535SOL    HW131241   1.744   3.468   1.045  0.3724 -1.5203 -0.0007
 6535SOL    HW231242   1.656   3.500   1.158  0.0865 -2.2487  1.3521
 6536SOL     OW31243   4.181   3.487   7.141 -0.1978 -0.4175  0.2999
 6536SOL    HW131244   4.088   3.489   7.121 -0.2650 -1.8826  0.5037
 6536SOL    HW231245   4.215   3.538   7.068 -0.0808 -0.9259  0.0034
 6537SOL     OW31246   2.942   3.687  14.159  0.2548 -0.1802 -0.2792
 6537SOL    HW131247   2.861   3.645  14.129 -1.4496  1.3144  2.1383
 6537SOL    HW231248   2.933   3.774  14.119  1.0714  0.3224  0.6291
 6538SOL     OW31249   3.961   0.085   6.942 -0.3711 -0.1210 -0.1304
 6538SOL    HW131250   3.950   0.180   6.932 -1.7763 -0.7280 -4.3011
 6538SOL    HW231251   4.023   0.084   7.015 -2.0810 -0.1479  1.3460
 6539SOL     OW31252   1.899   3.823  11.820  0.0196 -0.0377 -0.1677
 6539SOL    HW131253   1.965   3.785  11.761 -0.4310  0.5913 -1.0728
 6539SOL    HW231254   1.883   3.906  11.775 -0.2382 -0.9995 -1.8491
 6540SOL     OW31255   3.912   3.302  10.684  0.6017 -0.0070 -0.0004
 6540SOL    HW131256   4.002   3.334  10.678  0.5048  0.1220 -0.7750
 6540SOL    HW231257   3.923   3.225  10.629  2.6992  0.0671  0.3286
 6541SOL     OW31258   0.550   3.156   6.265 -0.1656  0.0627  0.4957
 6541SOL    HW131259   0.459   3.131   6.246  0.0020  0.5067 -0.8907
 6541SOL    HW231260   0.580   3.079   6.313  1.5439  0.5537  0.2015
 6542SOL     OW31261   0.413   4.623  14.310  0.0977 -0.0856 -0.3309
 6542SOL    HW131262   0.374   4.650  14.227 -0.7779  0.5935  0.3015
 6542SOL    HW231263   0.419   4.529  14.295  3.7089  0.0444  0.3877
 6543SOL     OW31264   0.323   3.815   2.658 -0.2790  0.2013  0.4884
 6543SOL    HW131265   0.315   3.720   2.646  0.4594  0.5889 -2.7924
 6543SOL    HW231266   0.344   3.822   2.752  2.5883  0.8568 -0.2076
 6544SOL     OW31267   3.852   1.135   5.755 -0.5017 -0.2500  0.1719
 6544SOL    HW131268   3.764   1.131   5.792 -0.4208 -2.3182  0.1764
 6544SOL    HW231269   3.906   1.094   5.823 -1.1932  0.7876  1.3445
 6545SOL     OW31270   2.395   1.318  15.583  0.1692  0.3185  0.1773
 6545SOL    HW131271   2.382   1.320  15.488  1.0189 -0.7866  0.0349
 6545SOL    HW231272   2.388   1.413  15.594  0.4804  0.0199  2.7727
 6546SOL     OW31273   3.134   4.053  12.385 -0.5203  0.0091  0.0795
 6546SOL    HW131274   3.049   4.096  12.374 -0.2142  0.3883 -0.8403
 6546SOL    HW231275   3.121   3.967  12.344  1.1683  0.9462 -2.4585
 6547SOL     OW31276   0.436   1.284   2.969 -0.3802  0.0731  0.4925
 6547SOL    HW131277   0.469   1.342   3.038 -2.4920  0.7583  0.9426
 6547SOL    HW231278   0.342   1.276   2.987 -0.3050  0.7967  1.1891
 6548SOL     OW31279   4.276   3.270   8.859  0.0374 -0.5080  0.0911
 6548SOL    HW131280   4.360   3.259   8.814 -0.6746  2.0088 -1.7906
 6548SOL    HW231281   4.300   3.322   8.936 -1.5566  0.5161 -0.1022
 6549SOL     OW31282   3.774   3.535   5.331 -0.0782  0.3354 -0.0015
 6549SOL    HW131283   3.696   3.512   5.281  1.0282 -2.4245 -0.4488
 6549SOL    HW231284   3.836   3.481   5.283 -0.3398 -0.0013  0.0422
 6550SOL     OW31285   4.584   4.636   9.034 -0.3512  0.5494  0.3151
 6550SOL    HW131286   4.521   4.664   8.968  0.3448 -1.4440 -1.1937
 6550SOL    HW231287   4.522   4.609   9.101 -1.7865  0.3635 -1.1042
 6551SOL     OW31288   0.109   3.363   4.700 -0.6882 -0.0643  0.7449
 6551SOL    HW131289   0.053   3.350   4.623 -2.8727 -1.4953  2.5425
 6551SOL    HW231290   0.114   3.276   4.740  0.0360 -0.3785 -0.0464
 6552SOL     OW31291   3.457   3.159   1.347  0.3145  0.2419  0.0719
 6552SOL    HW131292   3.527   3.185   1.407  0.2810 -1.2620  0.7760
 6552SOL    HW231293   3.502   3.080   1.315  1.8515  0.7275  1.0216
 6553SOL     OW31294   1.759   3.473   1.754 -0.2986  0.0755 -0.3495
 6553SOL    HW131295   1.851   3.497   1.743 -0.3237 -0.0404 -0.8136
 6553SOL    HW231296   1.712   3.548   1.790 -0.1233 -1.2127  2.5315
 6554SOL     OW31297   2.451   1.227   3.423  0.4890  0.4484  0.5837
 6554SOL    HW131298   2.399   1.304   3.448 -1.4058 -0.5368 -0.3436
 6554SOL    HW231299   2.518   1.223   3.490 -1.7867  1.4420  2.9387
 6555SOL     OW31300   2.530   1.603   4.359  0.2774 -0.3389 -0.4197
 6555SOL    HW131301   2.500   1.521   4.319 -0.6596  0.1117 -0.6346
 6555SOL    HW231302   2.501   1.677   4.306  0.5702 -0.6186 -0.9689
 6556SOL     OW31303   2.234   1.432  16.676  0.3122 -0.4122  0.4376
 6556SOL    HW131304   2.146   1.394  16.686  0.2268 -0.0154  1.2630
 6556SOL    HW231305   2.214   1.517  16.639  1.0823  0.0770  1.1578
 6557SOL     OW31306   4.707   0.123   5.936 -0.7190 -0.1166  0.1542
 6557SOL    HW131307   0.044   0.152   5.989  1.1165 -0.2471 -2.3500
 6557SOL    HW231308   4.671   0.051   5.988 -1.5327  0.0315 -0.2110
 6558SOL     OW31309   1.562   2.449   7.603  0.5005  0.0513 -0.5415
 6558SOL    HW131310   1.537   2.360   7.577 -1.9275  0.5660  0.0542
 6558SOL    HW231311   1.559   2.503   7.524  0.1530  1.8019  0.6807
 6559SOL     OW31312   4.442   1.683   4.232 -0.0120 -0.1276  0.4114
 6559SOL    HW131313   4.468   1.766   4.273  0.9560 -0.3422  0.2338
 6559SOL    HW231314   4.470   1.698   4.142 -1.8479  1.7653  0.1605
 6560SOL     OW31315   3.706   0.540   5.488  0.3724 -0.5627  0.1333
 6560SOL    HW131316   3.702   0.630   5.456  2.0220 -0.3181  0.6217
 6560SOL    HW231317   3.652   0.547   5.567 -0.6405 -3.1357 -0.3467
 6561SOL     OW31318   4.100   2.570   9.384 -0.5252  0.3179 -0.8315
 6561SOL    HW131319   4.123   2.627   9.311 -1.7094  1.5023 -0.2889
 6561SOL    HW231320   4.146   2.610   9.459 -0.1338 -1.0862 -0.3341
 6562SOL     OW31321   0.451   1.001  14.185  0.3874  0.2269  0.1746
 6562SOL    HW131322   0.530   1.016  14.132 -0.5910 -2.0427 -1.9114
 6562SOL    HW231323   0.434   0.913  14.151 -0.8476  0.3530  0.4555
 6563SOL     OW31324   4.153   4.133   0.302  0.0834 -0.5786 -0.3252
 6563SOL    HW131325   4.206   4.211   0.289  0.6437 -0.6766  1.3322
 6563SOL    HW231326   4.225   4.072   0.284  1.1163  0.4662  0.2687
 6564SOL     OW31327   0.536   1.876   5.942  0.0173 -0.4936 -0.4385
 6564SOL    HW131328   0.597   1.904   6.010  0.6654  0.6089 -1.4600
 6564SOL    HW231329   0.454   1.869   5.991 -0.5538 -0.7986 -1.4410
 6565SOL     OW31330   3.032   1.816  10.339  0.2126  0.0937 -0.3439
 6565SOL    HW131331   3.012   1.866  10.418  1.0665 -0.3184  0.1342
 6565SOL    HW231332   3.005   1.878  10.272  0.7511  0.6019 -0.0916
 6566SOL     OW31333   0.727   2.844   7.145  0.0861  0.7705 -0.0151
 6566SOL    HW131334   0.744   2.785   7.072  0.3978 -0.0044  0.6894
 6566SOL    HW231335   0.646   2.887   7.119  0.5776  1.2213 -0.8317
 6567SOL     OW31336   1.922   0.214   3.346  0.0944  0.6855  0.1775
 6567SOL    HW131337   1.997   0.258   3.306  1.1673 -2.6130 -1.4735
 6567SOL    HW231338   1.952   0.208   3.436  0.6900 -0.6555 -0.1118
 6568SOL     OW31339   0.092   4.071   0.195  0.4684  0.5537 -0.4845
 6568SOL    HW131340   0.148   4.123   0.137  2.7350 -0.6293  0.6265
 6568SOL    HW231341   0.150   4.000   0.224  1.5512  1.6165 -0.0463
 6569SOL     OW31342   1.745   2.385   5.714  0.4511 -0.1442 -0.5574
 6569SOL    HW131343   1.673   2.332   5.679 -0.0365 -0.5610  1.0500
 6569SOL    HW231344   1.810   2.362   5.649 -1.7906 -2.9247 -1.7972
 6570SOL     OW31345   3.896   2.764   1.249  0.0118 -0.1429  0.5006
 6570SOL    HW131346   3.988   2.756   1.225  0.0007  0.9631  0.0943
 6570SOL    HW231347   3.908   2.729   1.337 -0.9353 -2.0425 -0.1347
 6571SOL     OW31348   0.817   0.847   4.071  0.0773  0.2012  0.1142
 6571SOL    HW131349   0.751   0.881   4.011  1.3952  0.1442 -1.3587
 6571SOL    HW231350   0.891   0.904   4.048 -0.5707  1.1187  0.3212
 6572SOL     OW31351   2.914   0.621   6.754  0.5594 -0.2479  0.4743
 6572SOL    HW131352   2.896   0.590   6.665 -0.2604  1.2248  0.1263
 6572SOL    HW231353   2.936   0.538   6.797  1.1752  0.7587  2.1019
 6573SOL     OW31354   0.096   0.239   6.991 -0.0605  0.4321  0.0247
 6573SOL    HW131355   0.165   0.243   6.926  0.4671  1.2932  0.6325
 6573SOL    HW231356   0.137   0.286   7.064 -1.1825  0.4117  0.6796
 6574SOL     OW31357   3.828   0.836   1.748 -0.2028 -0.0372  0.0168
 6574SOL    HW131358   3.795   0.919   1.781  0.7773  1.0501 -1.7222
 6574SOL    HW231359   3.900   0.858   1.688 -1.6097  1.7675 -1.0099
 6575SOL     OW31360   2.326   1.564  15.641  0.0284  0.0332  0.7426
 6575SOL    HW131361   2.255   1.561  15.577  0.9187 -3.0201 -0.0877
 6575SOL    HW231362   2.302   1.644  15.688 -0.3366 -0.6056  1.6742
 6576SOL     OW31363   2.458   2.688  12.316  0.4750 -0.0643  0.0296
 6576SOL    HW131364   2.438   2.595  12.328  3.7555 -0.6417  0.8754
 6576SOL    HW231365   2.372   2.720  12.286 -0.2424 -2.3402 -0.3731
 6577SOL     OW31366   1.063   0.963   5.538 -0.0278  0.5036 -0.2424
 6577SOL    HW131367   1.024   0.966   5.451  2.0538  1.1537 -1.1702
 6577SOL    HW231368   0.994   0.984   5.601 -1.4498 -4.1997 -0.2249
 6578SOL     OW31369   2.971   1.865   4.260  0.1022 -0.0579  0.1625
 6578SOL    HW131370   3.058   1.874   4.220  0.5478 -0.2454  1.0944
 6578SOL    HW231371   2.983   1.946   4.311 -0.1407 -1.4608  2.4200
 6579SOL     OW31372   4.440   0.350   7.801 -0.2806 -0.1825  0.2890
 6579SOL    HW131373   4.478   0.318   7.719 -1.6494  3.5766 -1.8277
 6579SOL    HW231374   4.347   0.346   7.776 -0.6066 -1.8241  1.8061
 6580SOL     OW31375   3.405   3.870   3.052 -0.1948 -0.2357 -0.0401
 6580SOL    HW131376   3.316   3.844   3.026  0.2352 -0.4628 -1.2667
 6580SOL    HW231377   3.427   3.916   2.971  0.6180 -2.3019 -1.0057
 6581SOL     OW31378   0.646   4.114   3.593  0.4480 -0.6400  0.0042
 6581SOL    HW131379   0.618   4.047   3.654  1.6051  0.7441  2.0556
 6581SOL    HW231380   0.737   4.088   3.575  0.1660 -0.2118 -2.0383
 6582SOL     OW31381   2.860   3.971   6.601  0.2422 -0.4306  0.0358
 6582SOL    HW131382   2.807   3.918   6.541  1.1278 -1.9167  0.5699
 6582SOL    HW231383   2.871   3.905   6.670  2.7738 -0.4356 -0.3792
 6583SOL     OW31384   0.850   1.171   2.793  0.0287  0.2424  0.2894
 6583SOL    HW131385   0.755   1.156   2.788  0.0475  0.6122 -1.1306
 6583SOL    HW231386   0.870   1.235   2.726  0.0581 -2.2492 -2.0728
 6584SOL     OW31387   1.388   1.537   9.331 -0.2185 -0.3596  0.0830
 6584SOL    HW131388   1.419   1.589   9.258  0.3334  0.8535  1.1780
 6584SOL    HW231389   1.313   1.589   9.357 -1.4421 -1.4061 -1.3633
 6585SOL     OW31390   2.490   1.517   4.764 -0.9046 -0.5661  0.8002
 6585SOL    HW131391   2.550   1.559   4.703 -0.6437  1.8606  2.7265
 6585SOL    HW231392   2.431   1.479   4.699 -1.2847 -1.2376  1.5389
 6586SOL     OW31393   3.547   0.461   2.315  0.1521  0.1611  0.5606
 6586SOL    HW131394   3.578   0.482   2.404  0.2600 -0.7566  0.7420
 6586SOL    HW231395   3.624   0.484   2.263  0.1177 -0.8970  0.0604
 6587SOL     OW31396   1.715   1.407   3.364  0.3219 -0.4591 -0.2477
 6587SOL    HW131397   1.773   1.394   3.289  1.8716 -1.4378  1.1089
 6587SOL    HW231398   1.738   1.491   3.405  0.4695 -1.6056  2.0412
 6588SOL     OW31399   4.124   4.397   4.628  0.1895  0.1199 -0.5496
 6588SOL    HW131400   4.144   4.420   4.718 -0.4350  3.9016 -1.3775
 6588SOL    HW231401   4.165   4.310   4.634  1.9274  1.1823  2.6326
 6589SOL     OW31402   2.630   0.578   2.502  0.0064  0.3116  0.0996
 6589SOL    HW131403   2.659   0.636   2.572  0.5253 -0.3979  0.4645
 6589SOL    HW231404   2.707   0.588   2.445  0.3331 -1.7090  0.2060
 6590SOL     OW31405   0.556   1.193  13.302  0.1057  0.3771  0.0514
 6590SOL    HW131406   0.505   1.220  13.226 -1.8303 -1.3258  0.7258
 6590SOL    HW231407   0.617   1.137  13.255  1.4015  2.0271 -0.1899
 6591SOL     OW31408   2.096   0.608  12.976 -0.0344 -0.4071  0.4838
 6591SOL    HW131409   2.047   0.600  13.057  0.8567  1.3304  1.1833
 6591SOL    HW231410   2.164   0.674  12.988 -1.1003  0.6653  0.5262
 6592SOL     OW31411   4.671   2.416   2.648 -0.7187  0.2786 -0.2535
 6592SOL    HW131412   4.615   2.493   2.653 -0.5231  0.5906 -2.8732
 6592SOL    HW231413   4.732   2.439   2.719 -2.4640 -2.8292  2.2261
 6593SOL     OW31414   0.400   0.523   3.617  0.0548 -0.4817 -0.0215
 6593SOL    HW131415   0.328   0.487   3.566 -0.8288  1.9628 -0.5098
 6593SOL    HW231416   0.408   0.609   3.575 -0.9547 -0.8619 -0.9770
 6594SOL     OW31417   1.666   0.004   0.954 -0.2182  0.3300 -0.2546
 6594SOL    HW131418   1.576   0.036   0.950 -0.3670 -0.1638 -0.8739
 6594SOL    HW231419   1.705   0.053   1.026 -0.7659  1.1020 -0.4763
 6595SOL     OW31420   4.730   3.270  11.363  0.4001 -0.7266  0.2368
 6595SOL    HW131421   4.711   3.320  11.442 -0.3236  2.7980 -2.1409
 6595SOL    HW231422   4.693   3.183  11.379 -0.7848 -0.6164 -1.8343
 6596SOL     OW31423   3.750   0.394   4.962 -0.1821  0.1170 -0.1158
 6596SOL    HW131424   3.663   0.353   4.964  0.8039 -2.1374 -3.2402
 6596SOL    HW231425   3.795   0.331   4.905  1.7460  2.0655 -0.7388
 6597SOL     OW31426   2.373   1.493   8.119  0.2159  0.4397 -0.6654
 6597SOL    HW131427   2.386   1.412   8.170  0.9680  0.5047 -0.7482
 6597SOL    HW231428   2.401   1.563   8.179  1.0579 -0.6260  0.1993
 6598SOL     OW31429   1.151   1.732   4.655  0.3508  0.4309  0.4040
 6598SOL    HW131430   1.065   1.735   4.696  0.5813  0.0520  0.9146
 6598SOL    HW231431   1.189   1.780   4.729 -1.5499  2.5141  0.0286
 6599SOL     OW31432   4.324   1.289   5.715  0.2853 -0.1549 -0.0858
 6599SOL    HW131433   4.356   1.353   5.651 -3.6743  2.2182  0.2913
 6599SOL    HW231434   4.272   1.336   5.781 -1.6116 -0.6978 -1.1849
 6600SOL     OW31435   4.010   4.075   5.398 -0.1271 -0.5430 -0.7114
 6600SOL    HW131436   4.034   4.115   5.481  0.5113  0.4441 -1.3704
 6600SOL    HW231437   4.061   4.135   5.343  1.5885 -1.1518  0.2027
 6601SOL     OW31438   0.664   3.139   5.994  0.1285  0.1797 -0.2788
 6601SOL    HW131439   0.591   3.077   6.001  0.3673 -0.1620 -0.8069
 6601SOL    HW231440   0.679   3.151   6.088 -0.4552 -1.9861  0.0862
 6602SOL     OW31441   2.404   0.903   3.651  0.4685 -0.1802 -0.3434
 6602SOL    HW131442   2.475   0.865   3.599 -0.7290 -0.5209 -1.7436
 6602SOL    HW231443   2.334   0.877   3.591  0.0148  0.5307 -0.1107
 6603SOL     OW31444   3.478   3.285   5.653 -0.2617  0.5496 -0.0390
 6603SOL    HW131445   3.465   3.271   5.747 -1.5913 -1.2466 -0.4852
 6603SOL    HW231446   3.573   3.294   5.647 -0.4290  1.2167 -1.7805
 6604SOL     OW31447   0.161   4.415  11.414 -0.2225 -0.5904 -0.2124
 6604SOL    HW131448   0.245   4.434  11.456 -0.9631  0.8648  0.6204
 6604SOL    HW231449   0.111   4.496  11.407  1.3782  0.3196 -1.3589
 6605SOL     OW31450   2.215   4.647  16.566  0.2962 -0.3782 -0.0706
 6605SOL    HW131451   2.303   4.634  16.530  1.1566 -0.3940  2.0502
 6605SOL    HW231452   2.222   4.719  16.628  2.6800  0.2755 -1.1252
 6606SOL     OW31453   0.158   4.054   4.438  0.1470  0.5834 -0.2084
 6606SOL    HW131454   0.222   4.124   4.455  0.5319 -0.1744  1.5704
 6606SOL    HW231455   0.202   3.983   4.484  0.2005  0.3546 -0.6184
 6607SOL     OW31456   3.207   4.207   2.821  0.2462 -0.3424 -0.0943
 6607SOL    HW131457   3.193   4.199   2.915  2.0201  1.2534  0.3078
 6607SOL    HW231458   3.294   4.248   2.821 -1.1430  2.5687  1.1832
 6608SOL     OW31459   2.938   0.025   4.663 -0.3490  0.0787  0.0926
 6608SOL    HW131460   2.963   0.112   4.693 -0.5276 -0.0749  0.6868
 6608SOL    HW231461   2.928   0.039   4.569  0.0618  0.1197  0.0525
 6609SOL     OW31462   0.463   3.418   6.672  0.1645 -0.4544  0.0067
 6609SOL    HW131463   0.493   3.385   6.757 -1.0798 -1.3677  0.0934
 6609SOL    HW231464   0.506   3.352   6.617 -4.2208 -0.0196 -3.9667
 6610SOL     OW31465   2.592   1.371   9.415 -0.2295 -0.0644 -0.7616
 6610SOL    HW131466   2.664   1.327   9.461  0.2430  0.6979 -0.7719
 6610SOL    HW231467   2.582   1.452   9.465 -1.8461  0.1121 -1.3514
 6611SOL     OW31468   0.328   4.518   9.083 -0.4357  0.8678 -0.5972
 6611SOL    HW131469   0.357   4.484   9.167  0.5175  2.1175 -0.4218
 6611SOL    HW231470   0.305   4.610   9.099  0.5380  0.8992  0.6406
 6612SOL     OW31471   1.412   2.297   7.271  0.3976  0.0956 -0.3784
 6612SOL    HW131472   1.409   2.261   7.183 -0.8021  0.2731 -0.4146
 6612SOL    HW231473   1.458   2.227   7.317 -1.0870  0.6706  2.0244
 6613SOL     OW31474   4.600   0.190  12.487 -0.0305 -0.2372  1.0619
 6613SOL    HW131475   4.660   0.236  12.429 -0.9259 -2.2934 -1.5194
 6613SOL    HW231476   4.561   0.265  12.532  2.1872  0.5251  1.6854
 6614SOL     OW31477   0.969   2.749   8.114 -0.5483  0.2486 -0.1874
 6614SOL    HW131478   0.906   2.708   8.055  1.7629  1.3431 -3.4019
 6614SOL    HW231479   0.924   2.797   8.183 -1.6120 -1.5204  0.3586
 6615SOL     OW31480   0.314   0.443   7.691  0.0331  0.0457 -0.2159
 6615SOL    HW131481   0.369   0.385   7.745  0.3806  0.8381  0.2803
 6615SOL    HW231482   0.334   0.524   7.738  3.6210 -1.0670  0.2081
 6616SOL     OW31483   4.443   3.462   9.485 -0.3554 -0.3439 -0.0345
 6616SOL    HW131484   4.499   3.505   9.421 -0.5076 -1.2554 -0.7696
 6616SOL    HW231485   4.392   3.414   9.421  1.1552 -1.5469 -0.3461
 6617SOL     OW31486   1.342   0.606   3.795  0.4907 -0.0334  0.6886
 6617SOL    HW131487   1.360   0.514   3.778  0.1616 -0.2881  1.7688
 6617SOL    HW231488   1.421   0.634   3.842  0.9205 -0.1473  0.0337
 6618SOL     OW31489   3.250   3.652  15.990  0.3053 -0.3529  0.0307
 6618SOL    HW131490   3.344   3.666  16.001  0.2623  0.9074 -1.1127
 6618SOL    HW231491   3.240   3.718  15.922 -1.0043 -0.1750  0.3900
 6619SOL     OW31492   1.799   0.839   2.680 -0.5146 -0.1602  0.4602
 6619SOL    HW131493   1.846   0.757   2.687 -1.0882 -0.4494  0.8840
 6619SOL    HW231494   1.716   0.819   2.637  0.3222 -0.8211 -0.8337
 6620SOL     OW31495   4.246   3.823   5.128 -0.0749 -1.7839  0.0757
 6620SOL    HW131496   4.166   3.772   5.137  0.2204 -2.2275  0.1846
 6620SOL    HW231497   4.289   3.811   5.213  0.3610  0.6262  0.1957
 6621SOL     OW31498   2.152   2.976  14.678  0.9613  0.6729  0.3064
 6621SOL    HW131499   2.215   2.933  14.736 -0.6557 -1.1090  0.7468
 6621SOL    HW231500   2.213   3.011  14.613 -0.0405  0.5911 -0.6663
 6622SOL     OW31501   1.583   2.799   3.991 -0.4765 -0.2400  0.1635
 6622SOL    HW131502   1.598   2.891   3.969 -0.2991 -0.9874 -2.7700
 6622SOL    HW231503   1.498   2.790   3.949 -0.1176 -0.1826 -0.5853
 6623SOL     OW31504   0.510   4.019   0.501  0.0820  0.6882 -0.2474
 6623SOL    HW131505   0.591   4.044   0.457  1.1095 -0.1636  1.1662
 6623SOL    HW231506   0.444   4.077   0.463  0.5435  1.6745  0.4853
 6624SOL     OW31507   3.867   4.284   2.335 -0.5571  0.4415 -0.8605
 6624SOL    HW131508   3.958   4.269   2.310  0.0329  0.8723  1.0369
 6624SOL    HW231509   3.823   4.289   2.250 -0.2527 -2.4291 -1.2001
 6625SOL     OW31510   3.172   3.583   1.648 -0.1065 -0.3113  0.2920
 6625SOL    HW131511   3.144   3.495   1.674  0.9468 -0.4674  0.8943
 6625SOL    HW231512   3.212   3.561   1.564 -1.0170 -2.0378  0.3169
 6626SOL     OW31513   1.284   1.571  14.606 -1.3751 -0.7158  0.0450
 6626SOL    HW131514   1.305   1.613  14.522 -0.6564  3.0769  2.1003
 6626SOL    HW231515   1.341   1.494  14.596 -0.9002 -0.0729 -2.4059
 6627SOL     OW31516   3.245   3.428   8.896  0.1093 -0.5427 -0.0125
 6627SOL    HW131517   3.159   3.450   8.932  0.4632  1.6766 -0.5748
 6627SOL    HW231518   3.306   3.487   8.940  1.3091 -0.1538 -2.2273
 6628SOL     OW31519   2.127   2.914  17.669 -0.3129 -0.1163  0.1395
 6628SOL    HW131520   2.214   2.887  17.700 -0.8805  1.5403  3.2105
 6628SOL    HW231521   2.118   2.867  17.587  0.4847 -0.5613  0.3046
 6629SOL     OW31522   4.626   1.098   2.525  0.1005  0.3221  0.7386
 6629SOL    HW131523   4.569   1.022   2.539  0.8652 -0.6150 -1.2068
 6629SOL    HW231524   4.636   1.093   2.430 -0.5096 -0.6542  0.7183
 6630SOL     OW31525   3.251   3.891  17.016 -0.4648 -0.1917  0.0080
 6630SOL    HW131526   3.287   3.803  17.003  0.9545  0.4012 -0.1547
 6630SOL    HW231527   3.200   3.917  16.939 -0.2562 -1.1644 -0.4527
 6631SOL     OW31528   2.670   1.043   9.479  0.3202 -0.0379  0.8176
 6631SOL    HW131529   2.584   1.010   9.450  0.6729 -0.0146 -0.2420
 6631SOL    HW231530   2.639   1.099   9.550  1.7481  1.5188  0.2129
 6632SOL     OW31531   1.281   4.361   4.521 -0.5978  0.3571  0.1796
 6632SOL    HW131532   1.356   4.380   4.577 -1.4271  3.1314  0.3565
 6632SOL    HW231533   1.232   4.442   4.512 -1.0502  0.2273  1.5512
 6633SOL     OW31534   1.974   2.044  12.941  0.0501  0.2824  0.2714
 6633SOL    HW131535   2.005   2.054  13.031 -0.7577 -1.0778  0.7011
 6633SOL    HW231536   2.024   1.976  12.898 -2.3155 -2.8999  2.5446
 6634SOL     OW31537   3.902   2.988  14.680 -0.4158 -0.0297 -0.3763
 6634SOL    HW131538   3.816   2.947  14.667 -0.4590  0.4730 -1.6796
 6634SOL    HW231539   3.901   3.020  14.770 -0.9502 -0.4197 -0.2440
 6635SOL     OW31540   1.569   0.855   1.101  0.2830  0.3440 -0.4396
 6635SOL    HW131541   1.601   0.887   1.186  1.3862  0.9461 -1.0880
 6635SOL    HW231542   1.612   0.771   1.087 -1.5480 -0.5400 -0.7542
 6636SOL     OW31543   2.001   1.467   3.604 -0.2975  0.4017  0.7856
 6636SOL    HW131544   2.018   1.468   3.699  1.4093  1.3282  0.4773
 6636SOL    HW231545   1.960   1.381   3.602 -0.3397  0.4308  0.3817
 6637SOL     OW31546   2.716   1.039   5.921  0.2661 -0.2127  0.1090
 6637SOL    HW131547   2.720   1.089   6.002 -1.5916 -0.5581  0.3983
 6637SOL    HW231548   2.636   1.075   5.884  0.4264  0.3508  0.3034
 6638SOL     OW31549   2.714   2.274   1.999 -0.0145 -0.3192  0.1623
 6638SOL    HW131550   2.647   2.333   1.965 -2.6270 -3.0703  0.5636
 6638SOL    HW231551   2.699   2.284   2.093 -3.8747  0.3504 -0.5435
 6639SOL     OW31552   0.562   3.549   7.224  0.0365 -0.1226  1.2747
 6639SOL    HW131553   0.585   3.636   7.256  0.0084  0.0826  0.7384
 6639SOL    HW231554   0.646   3.512   7.194 -1.5214 -2.5340 -0.1012
 6640SOL     OW31555   2.825   4.589  13.445  0.0822  0.3110 -0.0252
 6640SOL    HW131556   2.780   4.621  13.523 -0.5899  1.8197 -1.0281
 6640SOL    HW231557   2.904   4.548  13.480 -0.5411  0.0073  1.0262
 6641SOL     OW31558   2.465   0.172   2.074 -0.7293 -0.0113 -0.0246
 6641SOL    HW131559   2.549   0.148   2.035 -2.0096 -2.4667 -1.2343
 6641SOL    HW231560   2.488   0.231   2.146  0.5828  0.7935 -1.1039
 6642SOL     OW31561   2.474   1.184   2.209 -0.1713 -0.3041 -0.3004
 6642SOL    HW131562   2.516   1.267   2.228 -2.1244  0.8930 -1.2540
 6642SOL    HW231563   2.387   1.181   2.250 -0.3229 -1.0074 -0.6661
 6643SOL     OW31564   0.557   1.220   5.658 -0.2850 -0.7430 -0.4182
 6643SOL    HW131565   0.580   1.199   5.568  0.9698 -1.8056  0.1449
 6643SOL    HW231566   0.521   1.308   5.653  2.1577  0.3154  0.4030
 6644SOL     OW31567   3.544   3.942   3.570  0.1895 -0.2582 -0.3155
 6644SOL    HW131568   3.517   3.900   3.489  1.3291 -0.1015 -0.7703
 6644SOL    HW231569   3.622   3.894   3.598 -0.1360  0.5486  2.0223
 6645SOL     OW31570   0.130   2.157  16.618 -0.9423  0.2235 -0.0271
 6645SOL    HW131571   0.166   2.076  16.583  0.4614  0.6144  0.5288
 6645SOL    HW231572   0.081   2.113  16.688  0.3536 -1.5180 -0.2177
 6646SOL     OW31573   3.800   3.195   9.019 -0.4104 -0.1807  0.4093
 6646SOL    HW131574   3.754   3.176   8.938  0.0938 -0.6823  0.2378
 6646SOL    HW231575   3.889   3.164   9.001 -1.2957 -2.8165  0.5248
 6647SOL     OW31576   3.965   1.442   6.566  0.5460 -0.3079 -0.1812
 6647SOL    HW131577   3.876   1.477   6.571 -0.6005 -3.8103  4.1058
 6647SOL    HW231578   3.939   1.350   6.561 -1.2039  0.3003 -2.2711
 6648SOL     OW31579   4.223   4.704  16.343  0.3209 -0.5287 -0.4005
 6648SOL    HW131580   4.184   4.680  16.259  2.7512 -2.4614 -0.9845
 6648SOL    HW231581   4.211   0.061  16.354  1.9721 -0.3112 -0.4704
 6649SOL     OW31582   4.581   3.948   0.021  0.7980 -0.1691 -0.1170
 6649SOL    HW131583   4.658   3.970   0.072 -0.4895  0.1921  1.6525
 6649SOL    HW231584   4.608   3.862  17.734  0.3770 -0.7304  0.9636
 6650SOL     OW31585   1.958   1.170   2.070 -0.1428 -0.1885  0.1341
 6650SOL    HW131586   1.923   1.246   2.023  0.3225  0.6845  1.2071
 6650SOL    HW231587   2.013   1.131   2.002 -0.2445  2.7030 -1.6217
 6651SOL     OW31588   1.364   0.899   0.917 -0.5013  0.0913  0.1712
 6651SOL    HW131589   1.438   0.894   0.976 -0.4879  2.6049  0.3448
 6651SOL    HW231590   1.290   0.891   0.978  0.5507 -0.4055  1.3620
 6652SOL     OW31591   3.066   0.035  13.309  0.1231  0.3954 -0.8628
 6652SOL    HW131592   3.006   0.020  13.236  0.7238  1.9367 -1.6588
 6652SOL    HW231593   3.007   0.016  13.382  1.0547  0.2624 -0.1437
 6653SOL     OW31594   2.116   1.364   7.498  0.4756 -0.3060 -0.5445
 6653SOL    HW131595   2.105   1.354   7.593  1.8741 -0.3307 -0.3712
 6653SOL    HW231596   2.049   1.301   7.472 -0.6064  0.2333  0.9388
 6654SOL     OW31597   4.235   3.057  15.374  0.2625 -0.3855  0.1319
 6654SOL    HW131598   4.197   3.098  15.452 -0.3294 -0.6502 -0.0142
 6654SOL    HW231599   4.303   3.117  15.341 -0.8355  0.2269 -1.0406
 6655SOL     OW31600   1.050   2.807   7.548  0.0654  0.1864 -0.3668
 6655SOL    HW131601   1.032   2.743   7.617 -0.0949 -0.7312 -1.2733
 6655SOL    HW231602   0.984   2.790   7.482  0.3060  1.6866 -0.9919
 6656SOL     OW31603   2.846   3.782   7.794  0.4580 -0.4431 -0.5109
 6656SOL    HW131604   2.849   3.836   7.874 -0.4984 -0.0783 -0.7245
 6656SOL    HW231605   2.897   3.712   7.834 -0.6709 -0.8066  0.2792
 6657SOL     OW31606   4.614   4.109   8.190 -0.1881 -0.1142  0.2554
 6657SOL    HW131607   4.648   4.030   8.149  2.1916  1.1095 -0.0948
 6657SOL    HW231608   4.582   4.063   8.268 -2.3350  0.7128 -0.1160
 6658SOL     OW31609   0.927   0.195   4.323  0.1440 -0.8005  0.0548
 6658SOL    HW131610   0.949   0.231   4.237 -1.9984  1.5019  0.4814
 6658SOL    HW231611   0.879   0.114   4.304 -1.0235  0.5381 -2.7064
 6659SOL     OW31612   0.269   3.321   7.039  0.1010 -0.2085  0.8283
 6659SOL    HW131613   0.276   3.407   6.996 -0.2640 -0.2145  0.7623
 6659SOL    HW231614   0.285   3.347   7.130  0.0240  1.8190  0.2606
 6660SOL     OW31615   1.389   2.310   4.213  0.3451  0.2341  0.5572
 6660SOL    HW131616   1.464   2.337   4.160  1.1831  0.8156  2.0408
 6660SOL    HW231617   1.339   2.265   4.146  0.0729  0.4865  0.5894
 6661SOL     OW31618   0.440   3.630   3.594  0.0751 -0.4833  0.1665
 6661SOL    HW131619   0.464   3.672   3.677 -0.6697  0.5536 -0.1430
 6661SOL    HW231620   0.508   3.563   3.587 -1.4524 -1.8325 -1.5049
 6662SOL     OW31621   4.483   1.113   7.030  0.2983  0.0552 -0.1656
 6662SOL    HW131622   4.410   1.171   7.006 -0.6952 -0.3417  1.8954
 6662SOL    HW231623   4.444   1.060   7.100  0.2983 -3.0375 -2.5400
 6663SOL     OW31624   1.597   2.371  12.679 -0.4232  0.2200 -0.3819
 6663SOL    HW131625   1.529   2.394  12.743  1.5814 -0.7635  2.0619
 6663SOL    HW231626   1.658   2.331  12.741 -2.8092  0.9972  2.4895
 6664SOL     OW31627   2.475   1.358   7.142  0.2866 -0.7563 -0.6343
 6664SOL    HW131628   2.410   1.373   7.212  0.4246 -0.2060 -0.6274
 6664SOL    HW231629   2.471   1.447   7.107  0.7082 -1.0009 -1.2842
 6665SOL     OW31630   3.160   2.854   7.332  0.0773 -0.0541 -0.2790
 6665SOL    HW131631   3.085   2.796   7.348  0.9023 -0.9022  0.5103
 6665SOL    HW231632   3.216   2.814   7.399 -0.1472  1.1508  0.6407
 6666SOL     OW31633   3.980   1.640  17.335  0.2339  0.3833 -0.4764
 6666SOL    HW131634   3.995   1.673  17.246 -0.3245  1.2357 -0.2459
 6666SOL    HW231635   3.935   1.713  17.376 -2.3130  0.2154 -3.0334
 6667SOL     OW31636   2.115   2.656   6.166  1.0019  0.3086 -0.0422
 6667SOL    HW131637   2.159   2.675   6.083 -2.4019  1.0949 -1.6533
 6667SOL    HW231638   2.039   2.622   6.119  2.6062  0.2331 -2.5625
 6668SOL     OW31639   1.639   2.623   4.516 -0.6681 -0.0379  0.9401
 6668SOL    HW131640   1.639   2.593   4.425 -0.0058 -0.2522  1.0159
 6668SOL    HW231641   1.545   2.644   4.522 -0.7535  0.1316 -1.0406
 6669SOL     OW31642   0.585   2.284   2.748  0.3777  0.2229  1.0286
 6669SOL    HW131643   0.520   2.220   2.718  2.4940 -0.0540 -3.0321
 6669SOL    HW231644   0.654   2.221   2.767 -2.3876 -2.7935  1.1891
 6670SOL     OW31645   0.235   4.536   3.107  1.0156 -0.1643 -0.4675
 6670SOL    HW131646   0.277   4.484   3.176 -0.4643 -0.5702  0.1286
 6670SOL    HW231647   0.155   4.486   3.095  2.0070 -1.7800 -0.3128
 6671SOL     OW31648   1.616   2.748   1.790 -0.0498  0.4507 -0.1705
 6671SOL    HW131649   1.539   2.759   1.846  0.0477 -0.4539  0.1317
 6671SOL    HW231650   1.666   2.830   1.796  1.5182 -0.5217 -0.0720
 6672SOL     OW31651   3.948   2.982   8.079 -0.0688 -0.3850  0.5684
 6672SOL    HW131652   3.855   3.004   8.076  0.7420  2.6960 -2.1173
 6672SOL    HW231653   3.966   2.945   8.166  1.5232  0.8662  0.7615
 6673SOL     OW31654   1.431   4.057   1.737 -0.8041 -0.0382 -0.1268
 6673SOL    HW131655   1.522   4.046   1.764 -0.6367 -0.2298 -0.7765
 6673SOL    HW231656   1.444   4.143   1.698 -0.7901  0.0312  0.0291
 6674SOL     OW31657   0.268   4.390   7.646 -0.1101  0.2835  0.2844
 6674SOL    HW131658   0.323   4.428   7.715  1.2629  1.6152 -1.5531
 6674SOL    HW231659   0.185   4.439   7.643 -0.4959 -0.4590 -1.0282
 6675SOL     OW31660   0.046   0.881   5.312 -0.1971  0.2241  0.5293
 6675SOL    HW131661   0.114   0.843   5.367  1.4566 -0.8483 -2.2389
 6675SOL    HW231662   4.702   0.840   5.339  0.8365 -3.6348 -2.2507
 6676SOL     OW31663   1.646   1.024  14.820  0.3060  0.0480  0.5434
 6676SOL    HW131664   1.595   1.103  14.834 -0.3052 -0.1495 -0.5837
 6676SOL    HW231665   1.633   0.981  14.905  1.4114 -1.8446 -0.2378
 6677SOL     OW31666   4.718   1.313   1.323 -0.3562  0.5668  1.2051
 6677SOL    HW131667   4.733   1.367   1.246 -3.0968  1.1954  1.1352
 6677SOL    HW231668   0.064   1.339   1.364  1.2499 -1.1543 -0.9764
 6678SOL     OW31669   3.286   2.376   9.122 -0.4650  0.4916  0.7042
 6678SOL    HW131670   3.266   2.453   9.069 -2.6357  0.9901  2.1983
 6678SOL    HW231671   3.373   2.394   9.158 -0.1107  1.1306 -0.4816
 6679SOL     OW31672   3.605   3.932  12.778 -0.2251  0.1251  0.0345
 6679SOL    HW131673   3.526   3.880  12.771 -1.4511  2.1583 -1.3276
 6679SOL    HW231674   3.677   3.877  12.748  0.7517  0.7476  1.2458
 6680SOL     OW31675   3.486   3.888   8.363 -0.1617 -0.2361 -0.2270
 6680SOL    HW131676   3.461   3.953   8.297  2.3696  0.0823 -0.8477
 6680SOL    HW231677   3.562   3.846   8.323  1.1799 -1.5294  3.7245
 6681SOL     OW31678   0.567   4.100   5.243 -0.6124 -0.0441  0.3668
 6681SOL    HW131679   0.573   4.050   5.161 -0.0280 -1.3407  1.1971
 6681SOL    HW231680   0.516   4.041   5.299  3.6577 -2.5306  1.6745
 6682SOL     OW31681   3.278   1.535   2.111 -0.4812  0.3714  0.0270
 6682SOL    HW131682   3.206   1.505   2.055  0.8668 -1.3475 -0.8077
 6682SOL    HW231683   3.235   1.541   2.196  1.2185 -1.8645  1.0594
 6683SOL     OW31684   3.470   2.264   1.392  0.6524  0.4509 -0.2363
 6683SOL    HW131685   3.503   2.321   1.461  1.2068 -1.4666  1.0935
 6683SOL    HW231686   3.547   2.254   1.336  0.8038  0.8763 -0.1080
 6684SOL     OW31687   1.272   4.008   8.560  0.3756  0.0029  0.5306
 6684SOL    HW131688   1.229   3.998   8.645  0.3510  0.9557  0.6309
 6684SOL    HW231689   1.339   4.067   8.595  0.3614  0.3110  0.0339
 6685SOL     OW31690   2.540   4.525  13.307  0.8350 -0.2777  0.0715
 6685SOL    HW131691   2.625   4.541  13.348  0.7177 -2.6382  1.2508
 6685SOL    HW231692   2.526   4.602  13.252  0.7470 -2.5604 -3.0974
 6686SOL     OW31693   2.136   0.226   6.701 -0.0040 -0.2205 -0.3411
 6686SOL    HW131694   2.113   0.242   6.792 -1.8086  2.0150 -1.2009
 6686SOL    HW231695   2.048   0.220   6.664 -0.5253 -0.8070  0.9957
 6687SOL     OW31696   0.470   1.676   7.999  0.3865  0.3511  0.3197
 6687SOL    HW131697   0.398   1.735   8.023 -1.1567 -1.5549  0.2876
 6687SOL    HW231698   0.473   1.693   7.905 -0.8651  0.0320  0.2274
 6688SOL     OW31699   3.323   1.802  13.173  0.0247 -0.4484  0.4959
 6688SOL    HW131700   3.374   1.861  13.119  0.1706 -0.3111  0.7843
 6688SOL    HW231701   3.396   1.757  13.215  0.1697 -1.8716 -1.3332
 6689SOL     OW31702   4.675   4.026   3.955 -0.6534 -0.3767 -0.5614
 6689SOL    HW131703   4.703   3.943   3.917 -1.0713 -0.4074 -0.8040
 6689SOL    HW231704   0.002   4.042   4.024 -0.1056 -1.7718 -0.7632
 6690SOL     OW31705   2.867   4.151  11.148  0.0635 -0.4774 -0.4650
 6690SOL    HW131706   2.901   4.108  11.227 -0.4268  0.5568  0.3133
 6690SOL    HW231707   2.875   4.242  11.175  0.0551 -1.1233  1.7540
 6691SOL     OW31708   3.107   0.461   9.040 -0.5373 -0.0990  0.5114
 6691SOL    HW131709   3.182   0.401   9.038 -0.9770 -0.5776 -1.0094
 6691SOL    HW231710   3.132   0.506   9.121  1.0420 -1.4055  0.7659
 6692SOL     OW31711   1.719   4.147   2.988 -0.2906  0.1012  0.1264
 6692SOL    HW131712   1.789   4.209   2.969 -0.0643  0.0074  0.6607
 6692SOL    HW231713   1.731   4.117   3.078  0.4181 -0.2642 -0.0930
 6693SOL     OW31714   4.142   2.498   6.793 -0.1446  0.1535 -0.5718
 6693SOL    HW131715   4.217   2.440   6.806 -0.5459 -0.6552 -1.9516
 6693SOL    HW231716   4.140   2.551   6.873  0.8266 -1.9239  0.8226
 6694SOL     OW31717   1.531   4.152  10.652 -0.3793 -0.1674 -0.2003
 6694SOL    HW131718   1.463   4.116  10.595 -1.6336 -1.1793  1.9582
 6694SOL    HW231719   1.577   4.069  10.665 -2.4940 -1.3244 -0.1892
 6695SOL     OW31720   1.628   4.557   1.906  0.2903 -0.0917 -0.3648
 6695SOL    HW131721   1.723   4.541   1.910  0.4038  0.7032 -0.0242
 6695SOL    HW231722   1.620   4.558   1.810 -0.4683  2.8760 -0.2443
 6696SOL     OW31723   2.872   1.168  14.217 -0.3392  0.4252 -0.3914
 6696SOL    HW131724   2.808   1.112  14.173  2.2098 -2.2637 -0.7136
 6696SOL    HW231725   2.890   1.225  14.143  1.3294  0.4618  0.0560
 6697SOL     OW31726   3.008   0.255   8.058  0.7333  0.0387 -0.6140
 6697SOL    HW131727   3.028   0.162   8.047  1.0147 -0.0982  1.1330
 6697SOL    HW231728   2.964   0.256   8.143 -1.5537  0.5157 -1.7996
 6698SOL     OW31729   4.180   0.927   7.683 -0.2014  1.1959 -0.0241
 6698SOL    HW131730   4.103   0.909   7.736  0.0377  1.1513  0.3056
 6698SOL    HW231731   4.147   0.964   7.601 -0.8205 -1.2591 -0.8916
 6699SOL     OW31732   1.476   2.180   7.646 -0.4555  0.3952 -0.0996
 6699SOL    HW131733   1.495   2.087   7.649 -1.7958  0.0844 -1.1691
 6699SOL    HW231734   1.465   2.202   7.739 -3.7763  0.4308 -0.4748
 6700SOL     OW31735   1.403   3.538   2.865 -0.6727  0.5956  0.1220
 6700SOL    HW131736   1.481   3.499   2.905 -1.4504  0.7019  1.7388
 6700SOL    HW231737   1.438   3.627   2.862  1.7943 -0.3815 -0.3909
 6701SOL     OW31738   0.970   2.372   9.375 -0.2358 -0.0574 -1.0294
 6701SOL    HW131739   1.053   2.331   9.400  1.1669  1.2238 -3.5793
 6701SOL    HW231740   0.915   2.297   9.395 -0.0453  0.2655  0.7441
 6702SOL     OW31741   4.598   3.791   2.988 -0.1013  0.5553 -0.5835
 6702SOL    HW131742   4.528   3.837   2.941  0.0311  0.3846 -0.9478
 6702SOL    HW231743   4.667   3.852   2.961  0.1233 -0.1424 -1.6006
 6703SOL     OW31744   2.607   0.037  13.186  0.3637  0.1728  0.0066
 6703SOL    HW131745   2.635   0.118  13.144  0.9383 -0.2682 -0.4649
 6703SOL    HW231746   2.548   0.066  13.256  1.1774 -0.8626  1.1239
 6704SOL     OW31747   3.192   1.079   2.855 -0.1013 -0.0365  0.1041
 6704SOL    HW131748   3.258   1.038   2.799 -1.0491 -1.2275 -0.1560
 6704SOL    HW231749   3.137   1.002   2.870  1.3242 -1.5064 -2.1048
 6705SOL     OW31750   1.921   0.928   1.010 -0.0414 -0.1678 -0.4998
 6705SOL    HW131751   1.932   0.946   0.916 -0.6905  1.2581 -0.3030
 6705SOL    HW231752   1.876   1.008   1.037 -2.2518 -1.2976 -0.8387
 6706SOL     OW31753   4.098   1.393   7.675  0.1668  0.1434  0.0471
 6706SOL    HW131754   4.034   1.333   7.713 -0.5324  0.4415 -0.6402
 6706SOL    HW231755   4.180   1.351   7.698 -0.7232 -1.1358  0.8435
 6707SOL     OW31756   0.920   3.229   6.384  0.3617 -0.5953  0.1886
 6707SOL    HW131757   0.845   3.289   6.383 -1.0019 -2.3179 -0.5580
 6707SOL    HW231758   0.881   3.147   6.415 -0.2808 -0.7003 -0.9052
 6708SOL     OW31759   3.674   4.429   1.271  0.4843  0.2755 -0.1897
 6708SOL    HW131760   3.677   4.516   1.232  0.8885  0.7553  0.8992
 6708SOL    HW231761   3.594   4.437   1.323  1.2911 -0.0151  1.0940
 6709SOL     OW31762   4.440   1.564  11.603  0.2037 -0.3885  0.2554
 6709SOL    HW131763   4.463   1.656  11.591  1.1687 -0.6671 -0.0524
 6709SOL    HW231764   4.386   1.570  11.682  0.3282 -2.1126  0.4788
 6710SOL     OW31765   3.665   3.255   6.132  0.3946  0.3120  0.3741
 6710SOL    HW131766   3.597   3.278   6.195  1.0465 -0.3097  1.3178
 6710SOL    HW231767   3.688   3.343   6.103 -0.1042  0.9670  1.9325
 6711SOL     OW31768   2.855   4.154   3.199  0.1597  0.7462  0.0892
 6711SOL    HW131769   2.808   4.093   3.255 -2.0143  0.9422 -1.5121
 6711SOL    HW231770   2.881   4.227   3.255  3.0847  0.9442 -1.5161
 6712SOL     OW31771   1.299   2.098   2.837 -0.0612 -0.1653  0.1121
 6712SOL    HW131772   1.388   2.065   2.830 -0.0886  0.0074 -1.0328
 6712SOL    HW231773   1.250   2.016   2.827 -1.4718  0.6791  0.1708
 6713SOL     OW31774   2.399   4.358   5.615  0.1944 -0.0644  0.1401
 6713SOL    HW131775   2.380   4.277   5.663 -2.4787  0.5767  0.2011
 6713SOL    HW231776   2.455   4.327   5.544 -1.0936  1.2221 -1.4296
 6714SOL     OW31777   2.024   1.067   9.636 -0.4407 -0.3085  0.2509
 6714SOL    HW131778   2.061   1.090   9.722  0.0577  0.1859 -0.0915
 6714SOL    HW231779   1.943   1.115   9.652 -0.8022 -1.2530  1.2478
 6715SOL     OW31780   2.138   3.284   9.131  0.3760  0.3289 -0.0702
 6715SOL    HW131781   2.146   3.259   9.223  0.9672 -0.9938 -0.4853
 6715SOL    HW231782   2.055   3.331   9.134 -0.5873 -1.2462 -2.3745
 6716SOL     OW31783   0.577   4.688   6.762  0.4100  0.3086 -0.3811
 6716SOL    HW131784   0.668   4.717   6.771  0.4484  0.0053  0.2048
 6716SOL    HW231785   0.545   4.703   6.851  1.0537  2.6817 -0.5597
 6717SOL     OW31786   3.734   3.848   8.199  0.0281 -0.4818 -0.5792
 6717SOL    HW131787   3.756   3.816   8.112  1.0736  0.4331 -0.6526
 6717SOL    HW231788   3.798   3.812   8.260  0.5735  1.3323 -0.0679
 6718SOL     OW31789   1.205   4.658   3.877 -0.0311  0.0914  0.0747
 6718SOL    HW131790   1.249   4.578   3.848  1.4795  0.0286  2.5986
 6718SOL    HW231791   1.190   4.691   3.788  1.7480  0.4832 -0.0802
 6719SOL     OW31792   2.864   2.831  12.359 -0.4281 -0.3226 -0.1735
 6719SOL    HW131793   2.780   2.848  12.316 -0.4816  0.5169  0.2739
 6719SOL    HW231794   2.909   2.915  12.358  0.1735 -0.6284  1.1927
 6720SOL     OW31795   2.872   3.694   9.116 -0.6366  0.2269  0.1433
 6720SOL    HW131796   2.778   3.692   9.101 -0.7256 -0.2258  0.7516
 6720SOL    HW231797   2.895   3.768   9.061 -0.9445  0.9948  1.0398
 6721SOL     OW31798   2.456   3.274   2.021 -0.5731 -0.2027 -0.2623
 6721SOL    HW131799   2.516   3.311   1.955  2.8208 -1.5169  2.0793
 6721SOL    HW231800   2.416   3.349   2.064  1.9642  1.0086  0.0169
 6722SOL     OW31801   2.180   1.483   5.537 -0.0826  0.4569  0.3416
 6722SOL    HW131802   2.261   1.470   5.488 -1.8385 -1.3046 -2.0983
 6722SOL    HW231803   2.117   1.433   5.485  1.0714 -1.7914  1.0798
 6723SOL     OW31804   3.660   1.744   2.620  0.6587  0.2877  0.2869
 6723SOL    HW131805   3.655   1.776   2.710  0.4329 -1.6228  0.9592
 6723SOL    HW231806   3.596   1.672   2.617  0.2143  0.6574  0.9237
 6724SOL     OW31807   3.687   1.276   8.362  0.2932 -0.2426  0.3598
 6724SOL    HW131808   3.725   1.335   8.426  1.3036  0.0375 -0.4978
 6724SOL    HW231809   3.767   1.244   8.320 -0.0655 -1.0563  0.2746
 6725SOL     OW31810   2.108   0.315   5.103  0.1919  0.0745 -0.1814
 6725SOL    HW131811   2.029   0.364   5.128 -0.6151 -0.5279 -1.5130
 6725SOL    HW231812   2.077   0.261   5.030 -0.2799  1.3438 -0.9363
 6726SOL     OW31813   2.757   2.167  10.571  0.1942 -0.7464  0.4213
 6726SOL    HW131814   2.807   2.209  10.641 -0.7015  1.0375 -0.0099
 6726SOL    HW231815   2.825   2.110  10.534  1.6786  1.1413  0.2891
 6727SOL     OW31816   0.353   3.602   4.120  0.3092 -0.4441 -1.1834
 6727SOL    HW131817   0.431   3.603   4.065 -0.7499 -1.9955 -2.7090
 6727SOL    HW231818   0.289   3.664   4.087 -0.9404 -1.0125  0.1633
 6728SOL     OW31819   2.151   3.933   0.223 -0.2479  0.7680 -0.2811
 6728SOL    HW131820   2.236   3.961   0.188 -0.6724  2.0847 -0.2277
 6728SOL    HW231821   2.102   3.916   0.143  0.8738 -1.4894 -0.4867
 6729SOL     OW31822   3.735   0.197   3.353 -0.1962  0.3313  0.4100
 6729SOL    HW131823   3.762   0.215   3.442  0.5579  0.7381  0.0963
 6729SOL    HW231824   3.821   0.165   3.326 -0.0354  0.9583  0.1777
 6730SOL     OW31825   3.505   4.726   1.465  0.5739  0.9441  0.4625
 6730SOL    HW131826   3.472   4.659   1.525 -0.3085  0.1550 -0.9096
 6730SOL    HW231827   3.439   0.057   1.474  0.2172  0.9384 -2.1176
 6731SOL     OW31828   2.228   0.635   1.990  0.8673 -0.2348  0.3915
 6731SOL    HW131829   2.189   0.694   1.926  0.0682  0.6742  1.7166
 6731SOL    HW231830   2.322   0.649   1.975  1.0986 -0.7639  1.3075
 6732SOL     OW31831   1.809   0.822  16.397  0.2231 -0.1493  0.4928
 6732SOL    HW131832   1.718   0.835  16.370  0.0698 -1.9079  0.1522
 6732SOL    HW231833   1.822   0.727  16.393 -1.6059 -0.3643 -0.7196
 6733SOL     OW31834   1.711   1.652  11.916 -0.4517  0.5591 -0.6029
 6733SOL    HW131835   1.725   1.621  12.005 -1.6887 -0.4501 -0.7733
 6733SOL    HW231836   1.635   1.604  11.884  1.1466 -2.2353 -0.2054
 6734SOL     OW31837   0.046   2.752   6.632  0.0461 -0.0648 -0.4256
 6734SOL    HW131838   0.065   2.692   6.705 -0.5797  0.5230  0.2219
 6734SOL    HW231839   0.122   2.733   6.578  0.6261  0.9253  0.0500
 6735SOL     OW31840   4.352   1.577  14.267  0.2440 -0.2519  0.2118
 6735SOL    HW131841   4.347   1.504  14.205  0.0772  0.5792 -0.7524
 6735SOL    HW231842   4.434   1.550  14.308  1.5151 -0.3033 -2.3155
 6736SOL     OW31843   3.778   0.148   6.380 -0.9963 -0.2316  0.5462
 6736SOL    HW131844   3.814   0.193   6.457  3.0385 -1.5170 -0.5679
 6736SOL    HW231845   3.773   0.055   6.400  1.1033 -0.5166 -0.1837
 6737SOL     OW31846   1.244   0.900   6.901 -0.1410 -0.7724  0.3916
 6737SOL    HW131847   1.265   0.806   6.902 -0.5000 -0.8580 -0.6789
 6737SOL    HW231848   1.317   0.941   6.857  0.7362 -0.4728  2.1179
 6738SOL     OW31849   0.951   2.027   2.327 -0.5499 -0.5685  0.0489
 6738SOL    HW131850   0.990   1.982   2.402 -1.1157 -2.2166 -0.6253
 6738SOL    HW231851   1.005   1.991   2.256  0.2182 -0.4476  0.5793
 6739SOL     OW31852   1.678   0.975  17.679 -0.4361 -0.1553  0.8007
 6739SOL    HW131853   1.708   0.934   0.014  1.9151 -0.3266 -0.1415
 6739SOL    HW231854   1.708   1.064  17.698  1.8860 -0.7000 -0.3349
 6740SOL     OW31855   4.044   0.546   5.390  0.0673  0.6926 -0.0387
 6740SOL    HW131856   3.966   0.490   5.389 -0.3446  1.2795 -0.2742
 6740SOL    HW231857   4.035   0.591   5.306  0.0900 -0.6489 -0.7593
 6741SOL     OW31858   4.280   2.416   3.768  0.1296  0.3294  0.6400
 6741SOL    HW131859   4.197   2.448   3.804 -0.7977 -2.2128  0.7178
 6741SOL    HW231860   4.323   2.498   3.793  4.3146 -1.7060  0.1066
 6742SOL     OW31861   4.322   3.783   1.758  0.3307  0.5109 -0.3431
 6742SOL    HW131862   4.280   3.801   1.842  0.3572 -0.2407 -0.1645
 6742SOL    HW231863   4.411   3.814   1.776  1.8456 -2.7670 -2.2778
 6743SOL     OW31864   3.815   1.171   7.433  0.2630  0.1475  0.3655
 6743SOL    HW131865   3.836   1.101   7.371 -0.9172  2.5487 -2.7199
 6743SOL    HW231866   3.888   1.233   7.431 -0.4554  1.0423  2.1262
 6744SOL     OW31867   2.172   2.345   7.910 -0.5340 -0.8911 -0.7314
 6744SOL    HW131868   2.146   2.427   7.868  0.3510  0.4695  1.3357
 6744SOL    HW231869   2.085   2.312   7.931  1.1066 -4.0279  1.0574
 6745SOL     OW31870   4.332   0.247   5.214 -0.0112 -0.3220 -0.1309
 6745SOL    HW131871   4.318   0.314   5.281 -2.6815 -1.2676  0.2478
 6745SOL    HW231872   4.288   0.264   5.132 -0.4124 -1.1914 -0.0951
 6746SOL     OW31873   0.556   3.520   2.573 -0.4279 -0.0880 -0.8175
 6746SOL    HW131874   0.548   3.468   2.654  0.6361 -2.1035 -2.0098
 6746SOL    HW231875   0.608   3.593   2.607 -2.1890  0.1741  1.3694
 6747SOL     OW31876   0.129   2.194  14.734 -0.2559 -0.0676 -0.2985
 6747SOL    HW131877   0.187   2.230  14.801 -0.1512 -0.5571 -0.1329
 6747SOL    HW231878   0.183   2.192  14.654  1.2756 -0.8378  0.7537
 6748SOL     OW31879   3.108   0.033   1.060 -0.6539 -0.2102 -0.1648
 6748SOL    HW131880   3.063   4.709   1.117 -2.0937 -0.9591 -2.0948
 6748SOL    HW231881   3.038   0.079   1.013  1.3086  0.9850 -1.9394
 6749SOL     OW31882   1.167   1.627   5.027 -0.2238  0.4173  0.0791
 6749SOL    HW131883   1.077   1.660   5.033 -0.6894 -0.4338 -2.1003
 6749SOL    HW231884   1.173   1.565   5.099 -0.6850  0.1282 -0.1323
 6750SOL     OW31885   4.203   0.119   8.617 -0.2524  0.4435 -0.0410
 6750SOL    HW131886   4.137   0.174   8.576 -0.7574  1.5090  2.1966
 6750SOL    HW231887   4.264   0.174   8.666  0.0114 -1.8333  2.1855
 6751SOL     OW31888   3.210   2.574  15.841  0.2606  0.4834  0.1462
 6751SOL    HW131889   3.126   2.617  15.860 -0.0033  0.1289 -0.2090
 6751SOL    HW231890   3.248   2.572  15.928  0.0650  1.6471  0.2550
 6752SOL     OW31891   1.763   2.672   7.366  0.1291 -0.0429 -0.3392
 6752SOL    HW131892   1.790   2.594   7.317  0.8087  0.9726 -1.5695
 6752SOL    HW231893   1.785   2.639   7.454  0.9071  1.6741  0.1083
 6753SOL     OW31894   3.453   2.169   5.939 -0.0479 -0.3652 -0.7831
 6753SOL    HW131895   3.430   2.098   5.880  0.9576 -0.4822 -1.0327
 6753SOL    HW231896   3.442   2.137   6.029 -0.3008 -0.7926 -0.9694
 6754SOL     OW31897   4.562   3.218   7.881 -0.0033  0.1967 -0.0765
 6754SOL    HW131898   4.596   3.297   7.841 -0.5000 -0.1192 -1.1428
 6754SOL    HW231899   4.630   3.151   7.876 -0.0369  0.2664 -1.6981
 6755SOL     OW31900   3.343   3.142  15.791  0.3476  0.4718 -0.0053
 6755SOL    HW131901   3.317   3.231  15.817 -1.2543  0.0350 -0.1080
 6755SOL    HW231902   3.260   3.117  15.751  0.5271  0.1699 -0.1838
 6756SOL     OW31903   0.387   4.405  17.243 -0.0594  0.4888 -0.6501
 6756SOL    HW131904   0.374   4.495  17.271  0.1100  0.2745  0.1200
 6756SOL    HW231905   0.294   4.394  17.225 -0.2844 -0.8136  1.1973
 6757SOL     OW31906   4.340   4.215   6.259 -0.5964 -0.0908 -0.4341
 6757SOL    HW131907   4.420   4.266   6.272  0.9323 -2.6859  0.3940
 6757SOL    HW231908   4.350   4.212   6.164  2.1000  0.3536 -0.1766
 6758SOL     OW31909   1.236   1.330   9.222 -0.2688 -0.1332 -0.3907
 6758SOL    HW131910   1.306   1.283   9.268 -0.9660 -1.7164 -0.9305
 6758SOL    HW231911   1.275   1.417   9.216 -2.0227  0.6713 -0.0889
 6759SOL     OW31912   4.249   1.090   9.204  0.0416  0.1514 -0.3549
 6759SOL    HW131913   4.226   1.046   9.287 -0.9295  0.1606 -0.6172
 6759SOL    HW231914   4.172   1.067   9.153  0.3168 -2.4281  0.3941
 6760SOL     OW31915   4.377   4.008   6.775 -0.0166  0.2750  0.4523
 6760SOL    HW131916   4.372   4.044   6.864  1.5749 -0.5567  0.8738
 6760SOL    HW231917   4.287   4.028   6.749  0.0012 -0.2108  0.0181
 6761SOL     OW31918   1.745   0.321  14.339  0.0166  0.2473  0.7186
 6761SOL    HW131919   1.805   0.352  14.408  0.4539  0.9930  0.0097
 6761SOL    HW231920   1.802   0.341  14.265  0.6397  0.4048  1.2320
 6762SOL     OW31921   1.463   0.508   9.955 -0.2056  0.2460 -0.2619
 6762SOL    HW131922   1.420   0.474  10.034  0.3536  1.2041  0.4614
 6762SOL    HW231923   1.555   0.522   9.979 -0.4518  1.0239  0.2447
 6763SOL     OW31924   3.152   1.682   8.858 -0.6121  0.4043  0.1557
 6763SOL    HW131925   3.121   1.680   8.949  1.8366  1.1851  1.0093
 6763SOL    HW231926   3.236   1.726   8.869  0.2784 -1.3736  0.5177
 6764SOL     OW31927   2.996   1.275   7.216 -0.1151 -0.8231 -0.2423
 6764SOL    HW131928   3.036   1.191   7.192 -0.4951 -0.7613 -1.0916
 6764SOL    HW231929   2.991   1.275   7.311  2.6195  0.3823 -0.0907
 6765SOL     OW31930   2.437   2.246   4.022  0.9188  0.1090 -0.4371
 6765SOL    HW131931   2.347   2.275   4.037  1.1382 -0.3846  1.8835
 6765SOL    HW231932   2.421   2.220   3.931 -0.3980  1.0360 -0.4724
 6766SOL     OW31933   3.664   0.902   2.505  0.1417  0.0942 -0.7149
 6766SOL    HW131934   3.640   0.994   2.503 -1.4212 -0.3159 -0.5717
 6766SOL    HW231935   3.725   0.902   2.432 -1.4694 -1.9113 -2.0672
 6767SOL     OW31936   4.138   2.539   1.376  0.0101  0.4136  0.7466
 6767SOL    HW131937   4.180   2.454   1.387  1.3941  1.0356  0.1935
 6767SOL    HW231938   4.087   2.532   1.296  1.7209 -1.4711 -0.1804
 6768SOL     OW31939   4.318   1.987   1.505 -0.3152 -0.1186  0.2141
 6768SOL    HW131940   4.357   1.917   1.452 -0.1013 -1.5536  2.2613
 6768SOL    HW231941   4.231   1.950   1.523 -0.4068 -1.8184 -3.7580
 6769SOL     OW31942   3.571   4.216   2.200 -0.0635  0.0068  1.1208
 6769SOL    HW131943   3.583   4.199   2.106  0.8953 -0.8801  1.4142
 6769SOL    HW231944   3.509   4.289   2.188 -0.8806 -0.6259  1.4934
 6770SOL     OW31945   2.426   3.338   9.305 -0.0265  0.1305 -0.4349
 6770SOL    HW131946   2.412   3.278   9.378 -0.4284 -0.9003 -1.3581
 6770SOL    HW231947   2.428   3.424   9.346 -1.5512  0.6625 -1.4847
 6771SOL     OW31948   3.871   0.775   4.586  0.3023  0.8459  0.6152
 6771SOL    HW131949   3.798   0.755   4.527  0.7392  1.9750 -0.3162
 6771SOL    HW231950   3.870   0.694   4.636  0.6296  0.4909  0.0544
 6772SOL     OW31951   2.840   2.821   8.287 -0.9588  0.1303 -0.1059
 6772SOL    HW131952   2.890   2.776   8.355 -1.2827  0.3647  0.2790
 6772SOL    HW231953   2.787   2.874   8.345 -1.9919  2.0744 -2.8390
 6773SOL     OW31954   0.716   1.320   6.389  0.9466  0.2017 -0.0328
 6773SOL    HW131955   0.805   1.354   6.376  1.4017 -1.0142 -0.0394
 6773SOL    HW231956   0.713   1.274   6.305  0.0675  0.2925 -0.0497
 6774SOL     OW31957   0.704   2.965   2.264 -0.4343 -0.2607  0.0595
 6774SOL    HW131958   0.766   2.919   2.208 -0.1713 -1.7134  1.5571
 6774SOL    HW231959   0.765   3.008   2.323  0.2467  1.9016 -2.2220
 6775SOL     OW31960   3.455   4.577  11.872 -0.1726 -0.1829  0.7349
 6775SOL    HW131961   3.412   4.637  11.934 -1.1229  0.5476 -0.6222
 6775SOL    HW231962   3.403   4.590  11.792 -1.5640 -1.1581  1.4690
 6776SOL     OW31963   0.838   3.848  14.641 -0.7693 -0.6824  0.8314
 6776SOL    HW131964   0.744   3.853  14.653 -0.7004  1.4023  0.5230
 6776SOL    HW231965   0.860   3.788  14.712 -1.0051 -0.2056  1.3028
 6777SOL     OW31966   4.591   2.242   2.420  0.3272  0.1863  0.2062
 6777SOL    HW131967   4.595   2.311   2.354 -0.1648 -0.3555 -0.3801
 6777SOL    HW231968   4.590   2.297   2.499 -0.5605 -1.0019  1.0250
 6778SOL     OW31969   2.521   3.498   0.243  0.0087  0.4403  0.4746
 6778SOL    HW131970   2.503   3.471   0.333  1.7194 -1.3999  0.2490
 6778SOL    HW231971   2.616   3.500   0.239 -0.1227 -2.6059 -3.7453
 6779SOL     OW31972   3.165   2.153   5.218  0.3161 -0.1489 -0.2117
 6779SOL    HW131973   3.118   2.104   5.150 -0.4337  1.5019 -0.8806
 6779SOL    HW231974   3.230   2.205   5.172  1.3265 -2.7855 -1.7935
 6780SOL     OW31975   3.687   2.524  17.507 -0.3264  0.0396  0.0838
 6780SOL    HW131976   3.593   2.535  17.521 -0.7197 -2.0233 -0.9565
 6780SOL    HW231977   3.714   2.615  17.514  1.6417 -0.6874  1.8405
 6781SOL     OW31978   0.623   1.937  13.743 -0.4365  0.5944  0.0177
 6781SOL    HW131979   0.663   2.024  13.742  0.1115  0.3424 -0.4967
 6781SOL    HW231980   0.592   1.923  13.653  1.9328 -2.1057 -0.3911
 6782SOL     OW31981   3.534   0.953  17.536 -0.0810 -0.0658  0.2498
 6782SOL    HW131982   3.589   0.882  17.503 -0.3742  0.0728 -0.5567
 6782SOL    HW231983   3.537   0.939  17.630  2.7427 -0.8497  0.0515
 6783SOL     OW31984   4.487   0.390  12.211 -0.1650  0.3868 -0.0703
 6783SOL    HW131985   4.560   0.367  12.268 -0.2482 -1.3467 -0.6475
 6783SOL    HW231986   4.534   0.403  12.129 -2.0901 -1.9746 -1.5734
 6784SOL     OW31987   1.097   2.156  11.854  0.0481 -0.3621 -0.2194
 6784SOL    HW131988   1.174   2.184  11.903 -0.4565  0.7183 -0.0612
 6784SOL    HW231989   1.128   2.070  11.824  0.3906  0.7002 -2.8515
 6785SOL     OW31990   1.373   3.051  11.782  0.5559 -0.2359  0.3870
 6785SOL    HW131991   1.351   2.972  11.734 -0.3346 -1.4148  2.7274
 6785SOL    HW231992   1.394   3.111  11.710 -1.3424  0.1942  0.1889
 6786SOL     OW31993   2.137   0.070   6.968 -0.0345 -0.2449 -0.3595
 6786SOL    HW131994   2.145   4.723   6.923 -1.8681 -0.2812 -0.5829
 6786SOL    HW231995   2.148   0.061   7.062  0.3902  3.4515 -0.0570
 6787SOL     OW31996   2.627   4.055   1.404  0.3818 -0.5256  0.1544
 6787SOL    HW131997   2.588   4.120   1.462 -0.1594 -0.0750 -0.7030
 6787SOL    HW231998   2.549   4.001   1.386 -1.3534  1.5161  1.5074
 6788SOL     OW31999   0.051   4.557   8.887  0.2563  0.4344  0.0708
 6788SOL    HW132000   4.733   4.608   8.947  0.1664  2.0863 -1.4189
 6788SOL    HW232001   0.069   4.491   8.954  0.1672 -0.7956 -1.1120
 6789SOL     OW32002   4.576   1.846   6.684 -0.0779  0.4941 -0.1071
 6789SOL    HW132003   4.622   1.929   6.695  1.2712 -0.4976  1.6754
 6789SOL    HW232004   4.541   1.874   6.599 -0.9629  2.0662  0.7871
 6790SOL     OW32005   2.353   0.812  15.714  0.1071  0.0333 -0.4781
 6790SOL    HW132006   2.268   0.814  15.670 -0.8366  1.3368  1.3952
 6790SOL    HW232007   2.407   0.850  15.646  2.1146  2.4960  2.5096
 6791SOL     OW32008   0.977   2.747   2.460 -0.1597  0.2436  0.1975
 6791SOL    HW132009   0.886   2.723   2.473 -0.0041 -0.3760  0.1222
 6791SOL    HW232010   1.000   2.686   2.390  1.1203 -0.8660  1.5825
 6792SOL     OW32011   3.485   2.868   8.722 -0.1952  0.1863  0.5072
 6792SOL    HW132012   3.481   2.778   8.756 -1.1080  0.6042  1.4842
 6792SOL    HW232013   3.573   2.859   8.686 -0.7044 -1.4240 -0.3395
 6793SOL     OW32014   4.186   2.955   1.019  1.0057 -0.0137 -0.1801
 6793SOL    HW132015   4.144   3.012   0.953  0.1222  0.0036  0.3948
 6793SOL    HW232016   4.179   3.019   1.089  1.2820  0.9406 -1.0167
 6794SOL     OW32017   1.895   2.873   2.875 -0.0320 -0.0758 -0.1390
 6794SOL    HW132018   1.940   2.837   2.952 -1.4769  0.8218  1.1180
 6794SOL    HW232019   1.967   2.905   2.820 -1.2793  1.3272 -0.9395
 6795SOL     OW32020   0.236   2.937   8.346  1.2424 -0.1018 -0.1846
 6795SOL    HW132021   0.202   3.023   8.319 -2.2954 -1.1152  0.9724
 6795SOL    HW232022   0.314   2.932   8.292  0.9341 -0.4565 -0.5944
 6796SOL     OW32023   0.525   2.376   9.136  0.4067 -0.1481  0.0563
 6796SOL    HW132024   0.556   2.295   9.175 -0.4260 -0.3490  0.2836
 6796SOL    HW232025   0.514   2.361   9.042  0.3163 -0.6305  0.1466
 6797SOL     OW32026   1.836   2.039   5.164  0.1509  0.3862  0.2675
 6797SOL    HW132027   1.889   2.107   5.206  0.9429 -1.1944  1.8327
 6797SOL    HW232028   1.767   2.094   5.127  2.1210  1.6630 -1.5304
 6798SOL     OW32029   0.477   2.240  13.496  0.3716  0.3631 -0.4482
 6798SOL    HW132030   0.455   2.297  13.422 -0.4182  0.9623  0.2485
 6798SOL    HW232031   0.567   2.216  13.474 -0.8062 -5.5124  1.4194
 6799SOL     OW32032   0.629   4.339   3.788  0.0230 -0.1366  0.2677
 6799SOL    HW132033   0.718   4.349   3.755 -0.0687 -0.9041 -0.2035
 6799SOL    HW232034   0.588   4.299   3.712 -1.2258  2.1549 -0.2638
 6800SOL     OW32035   0.590   1.632   3.358 -0.1028  1.0125 -0.2781
 6800SOL    HW132036   0.511   1.633   3.412 -0.0278  1.5334 -0.1727
 6800SOL    HW232037   0.623   1.720   3.377  0.8913 -0.4829  5.0533
 6801SOL     OW32038   4.008   2.619  11.837  0.1074 -0.4076 -0.0583
 6801SOL    HW132039   3.958   2.634  11.757  0.2216 -2.5032 -0.5268
 6801SOL    HW232040   4.091   2.646  11.798 -0.0148  0.6016  0.3691
 6802SOL     OW32041   3.137   0.764  11.733  0.5233  0.5936  0.0024
 6802SOL    HW132042   3.232   0.771  11.730  0.4951 -0.4648 -2.9782
 6802SOL    HW232043   3.104   0.834  11.677 -0.2177  1.2758  1.2963
 6803SOL     OW32044   3.794   1.884  17.355 -0.0408  0.0247  0.4983
 6803SOL    HW132045   3.703   1.891  17.329 -0.0166 -2.1008 -0.1758
 6803SOL    HW232046   3.812   1.969  17.395 -1.0828 -0.0384  1.0804
 6804SOL     OW32047   0.453   0.717   2.024  0.2632  0.3208 -0.2452
 6804SOL    HW132048   0.448   0.803   2.065 -1.7525 -0.6831  1.6219
 6804SOL    HW232049   0.471   0.751   1.936 -1.8450  3.2798  0.4739
 6805SOL     OW32050   2.202   2.049  11.698 -0.8569 -0.2843 -0.2432
 6805SOL    HW132051   2.179   1.980  11.760 -0.6979 -0.8778 -0.8499
 6805SOL    HW232052   2.120   2.057  11.651 -1.0512 -0.7799  0.0136
 6806SOL     OW32053   3.216   3.325  16.707  0.1694  0.1123  0.7957
 6806SOL    HW132054   3.157   3.250  16.717  0.8046 -0.3135  1.2990
 6806SOL    HW232055   3.286   3.289  16.653 -1.1735 -1.0360 -0.1715
 6807SOL     OW32056   0.846   4.396   3.644 -0.0284  0.3010  0.6271
 6807SOL    HW132057   0.886   4.353   3.568 -0.0743  0.7256  0.3606
 6807SOL    HW232058   0.872   4.487   3.629  2.0844 -0.3257  0.5626
 6808SOL     OW32059   3.104   2.696  16.361 -0.3429  0.0421  0.2545
 6808SOL    HW132060   3.039   2.763  16.383 -0.3195  0.4312 -0.8671
 6808SOL    HW232061   3.143   2.685  16.448 -2.6191 -0.9687  1.1458
 6809SOL     OW32062   3.653   1.812  13.115 -0.1459 -0.2020  0.0218
 6809SOL    HW132063   3.678   1.750  13.046 -0.6242  0.2672 -0.5754
 6809SOL    HW232064   3.638   1.881  13.051 -0.0611  1.2969  1.6351
 6810SOL     OW32065   2.334   1.743   4.126  0.3814 -0.1774  0.4299
 6810SOL    HW132066   2.412   1.782   4.164 -0.4232  2.9712 -1.1206
 6810SOL    HW232067   2.272   1.806   4.162 -3.0367 -1.8774 -2.4573
 6811SOL     OW32068   2.960   2.477   8.507  0.0234 -0.4183  0.2751
 6811SOL    HW132069   2.920   2.413   8.565 -0.9529  0.2880  0.3751
 6811SOL    HW232070   2.941   2.563   8.544  1.1297 -0.9200  2.0041
 6812SOL     OW32071   3.559   2.755   6.447 -0.1493  0.5184  0.3564
 6812SOL    HW132072   3.574   2.700   6.370 -1.0221  0.4438  0.2437
 6812SOL    HW232073   3.516   2.690   6.502  3.7490 -1.8013  0.6852
 6813SOL     OW32074   1.380   2.936   5.694 -0.6845  0.1535  0.2764
 6813SOL    HW132075   1.314   2.869   5.714  0.4762 -1.5093 -1.4589
 6813SOL    HW232076   1.398   2.923   5.601  0.4939 -0.4093  0.5928
 6814SOL     OW32077   1.042   4.586  12.144 -0.0988 -0.4860  0.4225
 6814SOL    HW132078   1.073   4.653  12.205 -1.3207  1.3279 -0.9668
 6814SOL    HW232079   1.111   4.580  12.078 -0.8453 -1.4094 -0.2833
 6815SOL     OW32080   3.736   0.368   5.277 -0.5789 -0.4284  0.8141
 6815SOL    HW132081   3.745   0.428   5.203 -0.6174  0.0491  1.1951
 6815SOL    HW232082   3.716   0.426   5.350 -1.5792 -0.9827  0.9787
 6816SOL     OW32083   0.908   2.161  10.690 -0.8213 -0.1210 -0.1083
 6816SOL    HW132084   0.838   2.139  10.628 -0.3495  1.0727 -1.0656
 6816SOL    HW232085   0.855   2.194  10.763  0.7511 -0.4693  1.1873
 6817SOL     OW32086   2.228   2.948   1.639  0.0808  0.5329  0.4119
 6817SOL    HW132087   2.307   2.996   1.614 -0.2804 -2.4303 -6.4576
 6817SOL    HW232088   2.161   3.003   1.600  0.0405 -1.3944 -2.2554
 6818SOL     OW32089   2.570   1.865   2.712 -0.5094 -0.4439 -0.0916
 6818SOL    HW132090   2.658   1.900   2.696 -1.2327  1.6805  0.5031
 6818SOL    HW232091   2.589   1.794   2.773 -0.3336  1.2147  1.7921
 6819SOL     OW32092   0.773   2.797   5.428 -0.5709 -0.3638 -0.1279
 6819SOL    HW132093   0.695   2.774   5.479  0.2906  1.1000  1.8429
 6819SOL    HW232094   0.760   2.892   5.428 -0.0420 -0.2909  0.2574
 6820SOL     OW32095   0.690   4.537   5.965  0.2379  0.0937 -0.0324
 6820SOL    HW132096   0.712   4.454   6.007 -2.1739  0.1511  1.3889
 6820SOL    HW232097   0.732   4.533   5.880  0.5010  1.1557  0.0387
 6821SOL     OW32098   0.797   4.598   3.135 -0.1103 -0.6531  0.0372
 6821SOL    HW132099   0.887   4.614   3.160 -0.4762  1.4536 -0.0586
 6821SOL    HW232100   0.780   4.518   3.185 -0.3725 -0.6611 -0.0630
 6822SOL     OW32101   1.011   3.622   5.359  0.1455  0.0276 -0.5659
 6822SOL    HW132102   1.057   3.701   5.388  1.0464 -1.3622  1.7599
 6822SOL    HW232103   0.923   3.631   5.395  0.7232  0.3624  0.7560
 6823SOL     OW32104   1.968   3.561   2.749 -0.0969 -0.1210 -0.0192
 6823SOL    HW132105   2.006   3.493   2.694  1.0109 -0.4511  1.1491
 6823SOL    HW232106   1.904   3.603   2.691  0.1016  0.4074  0.1428
 6824SOL     OW32107   3.174   3.519   7.293 -0.1212 -1.0289  0.8152
 6824SOL    HW132108   3.201   3.427   7.296  0.3089 -0.9488 -0.7498
 6824SOL    HW232109   3.089   3.522   7.337 -0.3721  0.8696  0.2107
 6825SOL     OW32110   3.775   3.992   7.666  0.0510 -0.0685  0.2991
 6825SOL    HW132111   3.819   4.033   7.741 -1.6395 -0.5032  1.5319
 6825SOL    HW232112   3.792   3.898   7.672 -1.4232 -0.2310  2.0940
 6826SOL     OW32113   2.415   2.149   5.985 -0.0714 -0.1627 -0.1082
 6826SOL    HW132114   2.478   2.195   5.929  0.0670  0.3268  0.4551
 6826SOL    HW232115   2.410   2.069   5.933 -0.4590 -1.2024  1.5370
 6827SOL     OW32116   2.950   4.182   6.941 -0.3433 -0.2006  0.8109
 6827SOL    HW132117   2.947   4.099   6.990  1.4951 -1.0194 -0.4298
 6827SOL    HW232118   2.858   4.208   6.938  0.1264  1.1964 -1.1124
 6828SOL     OW32119   1.610   1.282  16.127 -0.0954 -0.5676 -0.1945
 6828SOL    HW132120   1.685   1.317  16.080  0.0660 -1.0375 -0.2795
 6828SOL    HW232121   1.619   1.188  16.115  1.0341 -0.5011  0.1727
 6829SOL     OW32122   3.716   1.353   1.715  0.3463  0.1379 -0.5136
 6829SOL    HW132123   3.628   1.386   1.736 -0.0803 -1.0119 -0.5190
 6829SOL    HW232124   3.735   1.409   1.639  1.7637 -0.4754 -0.6127
 6830SOL     OW32125   2.973   0.674   8.001 -0.1641 -0.1911 -0.4110
 6830SOL    HW132126   2.888   0.632   8.001 -0.3583  0.2007 -0.2227
 6830SOL    HW232127   2.968   0.754   7.949 -1.0947 -1.5565 -2.4204
 6831SOL     OW32128   1.661   4.735  11.719 -0.3999 -0.0616  0.1058
 6831SOL    HW132129   1.625   4.649  11.698  0.3062  0.2415 -2.3703
 6831SOL    HW232130   1.686   4.723  11.810  0.0085  0.0670  0.0094
 6832SOL     OW32131   2.965   1.763   6.331  0.5486  0.2856 -0.1163
 6832SOL    HW132132   2.877   1.734   6.356  0.9329 -0.2383  0.6220
 6832SOL    HW232133   2.982   1.685   6.278 -1.0831 -0.0486 -0.1456
 6833SOL     OW32134   1.188   4.221  16.519 -0.8467  0.0947  0.1063
 6833SOL    HW132135   1.191   4.129  16.545 -0.0833  0.6802  2.1100
 6833SOL    HW232136   1.193   4.261  16.605 -0.6764 -1.2655  0.7286
 6834SOL     OW32137   0.130   4.128   5.437 -0.0405 -0.3084 -0.3298
 6834SOL    HW132138   0.103   4.195   5.500 -1.6292 -0.8445 -0.4497
 6834SOL    HW232139   0.200   4.182   5.399  1.7109 -1.3636  1.3729
 6835SOL     OW32140   3.097   4.404   9.173  0.1377 -0.2253  0.1450
 6835SOL    HW132141   3.057   4.327   9.212  0.9501 -0.2905  0.8600
 6835SOL    HW232142   3.057   4.475   9.224  1.6374  0.6030  0.1914
 6836SOL     OW32143   2.328   0.555   7.700  0.4288 -0.2158 -0.1398
 6836SOL    HW132144   2.418   0.532   7.720  0.2317  0.0664  1.0676
 6836SOL    HW232145   2.322   0.560   7.604 -0.2541  2.2981  0.0184
 6837SOL     OW32146   1.976   2.663   1.867  0.9555 -0.7942 -0.0418
 6837SOL    HW132147   1.883   2.643   1.867  0.3659  1.9677 -0.0323
 6837SOL    HW232148   1.991   2.706   1.782  1.4695 -1.0390 -0.0742
 6838SOL     OW32149   1.073   2.034  15.019  0.3081  0.4715  1.1577
 6838SOL    HW132150   1.065   2.021  14.924 -1.9387 -0.5552  1.5048
 6838SOL    HW232151   1.041   2.123  15.028  0.6279  0.7736 -0.7269
 6839SOL     OW32152   0.943   4.448  16.695 -0.1327  0.1621  0.1934
 6839SOL    HW132153   1.028   4.482  16.723 -1.1206 -0.1869  3.7116
 6839SOL    HW232154   0.891   4.433  16.774 -1.7058  0.4901 -0.7879
 6840SOL     OW32155   0.110   3.812   6.324  0.6649 -0.4787  0.1875
 6840SOL    HW132156   0.178   3.846   6.382  0.8824  0.2454 -0.4879
 6840SOL    HW232157   0.130   3.718   6.319  1.0806 -0.4163  0.7040
 6841SOL     OW32158   2.373   2.985   7.819 -0.7782  0.2277 -0.1530
 6841SOL    HW132159   2.458   3.028   7.818 -1.8466  2.3582 -0.0780
 6841SOL    HW232160   2.320   3.055   7.857 -0.2105  0.5933 -0.0302
 6842SOL     OW32161   1.354   2.681   5.965  0.7645 -0.2221 -0.0821
 6842SOL    HW132162   1.300   2.723   5.898  1.5497  0.9985  0.0415
 6842SOL    HW232163   1.436   2.732   5.958  0.4923  0.5721  2.3371
 6843SOL     OW32164   4.250   3.296   6.412 -0.8554  0.1748  0.7026
 6843SOL    HW132165   4.242   3.391   6.402 -0.6135  0.0509 -0.7306
 6843SOL    HW232166   4.344   3.293   6.433 -0.9374 -2.2725  0.7468
 6844SOL     OW32167   0.915   3.844   2.260 -0.1746 -0.4067 -0.2398
 6844SOL    HW132168   0.857   3.909   2.220 -0.6311  1.1849  3.0444
 6844SOL    HW232169   0.970   3.821   2.185 -1.0097 -1.6676 -0.4545
 6845SOL     OW32170   1.396   2.154  11.654 -0.2067  0.0601 -0.1269
 6845SOL    HW132171   1.396   2.153  11.750 -0.4644 -1.5236 -0.1451
 6845SOL    HW232172   1.362   2.243  11.643  1.8467  1.1251  1.9984
 6846SOL     OW32173   1.779   4.134   3.257  0.0750  0.5644  0.0888
 6846SOL    HW132174   1.723   4.211   3.266 -0.7760  0.0097 -0.5397
 6846SOL    HW232175   1.831   4.149   3.336  1.4937 -0.5061 -0.6496
 6847SOL     OW32176   4.333   0.568   2.715  0.3711  0.3308 -0.5017
 6847SOL    HW132177   4.413   0.557   2.766 -1.4823 -0.3554  2.2380
 6847SOL    HW232178   4.267   0.600   2.776  0.6132  0.8845 -0.5331
 6848SOL     OW32179   4.169   2.956   6.111 -0.3312 -0.5095 -0.2187
 6848SOL    HW132180   4.109   3.023   6.143  0.4975  1.1933 -2.2427
 6848SOL    HW232181   4.136   2.956   6.021  0.3792  0.9212 -0.4708
 6849SOL     OW32182   3.358   4.122   0.031 -0.2319 -0.0190  0.7397
 6849SOL    HW132183   3.285   4.084  17.731  1.6046  3.1342 -4.5892
 6849SOL    HW232184   3.391   4.180  17.709 -0.7478 -2.7666 -1.7832
 6850SOL     OW32185   1.678   3.691   1.908 -0.4105 -0.1559 -0.2313
 6850SOL    HW132186   1.636   3.638   1.975 -0.0174 -2.2482 -1.6349
 6850SOL    HW232187   1.767   3.687   1.943 -0.2460  0.5686 -0.5766
 6851SOL     OW32188   1.657   4.407   6.433 -0.7135 -0.5803  0.2253
 6851SOL    HW132189   1.579   4.402   6.488 -1.2789 -0.4089 -0.5538
 6851SOL    HW232190   1.634   4.488   6.386  1.3736  1.5726  2.9060
 6852SOL     OW32191   0.871   1.956   4.675 -0.9372  0.3466  0.1370
 6852SOL    HW132192   0.867   1.878   4.731 -0.2918  0.6029  0.5342
 6852SOL    HW232193   0.928   1.932   4.602 -1.0358 -2.6641  1.0520
 6853SOL     OW32194   2.299   2.557   4.572  0.1273 -0.4420 -0.1233
 6853SOL    HW132195   2.311   2.648   4.599  0.7034 -1.0093  1.5541
 6853SOL    HW232196   2.249   2.518   4.644  0.5353 -3.0662 -1.2476
 6854SOL     OW32197   1.452   2.116   3.075 -0.3072 -0.2608 -0.5166
 6854SOL    HW132198   1.389   2.052   3.107  0.9197 -0.9085  0.5859
 6854SOL    HW232199   1.401   2.161   3.007 -0.4572  0.1213 -0.1560
 6855SOL     OW32200   0.168   0.763   8.125  0.4075  0.6435 -0.1506
 6855SOL    HW132201   0.132   0.848   8.099 -0.6101  0.0001 -0.8531
 6855SOL    HW232202   0.087   0.712   8.119  1.4001 -0.5757 -2.8938
 6856SOL     OW32203   0.777   4.360   6.786  0.0457  0.0725 -0.4937
 6856SOL    HW132204   0.797   4.440   6.737  0.0442  0.4054  0.0443
 6856SOL    HW232205   0.695   4.330   6.745 -1.4988  1.0728  1.8524
 6857SOL     OW32206   3.591   4.425   7.911 -0.0495  0.7332 -0.0213
 6857SOL    HW132207   3.606   4.519   7.909  0.2648  0.7243  1.5093
 6857SOL    HW232208   3.623   4.400   7.824  3.1002  3.4575  0.3438
 6858SOL     OW32209   0.492   4.144   2.841 -0.4096 -0.4541 -0.2064
 6858SOL    HW132210   0.542   4.079   2.890  2.7743  2.3480  0.3332
 6858SOL    HW232211   0.512   4.219   2.897  0.5851 -1.3487  0.6301
 6859SOL     OW32212   0.002   4.626  11.457  0.5274  0.0401  0.4142
 6859SOL    HW132213   4.671   4.601  11.519  0.3342 -0.5226 -0.0344
 6859SOL    HW232214   0.059   4.675  11.517  0.0438  0.8402  0.2190
 6860SOL     OW32215   2.177   3.239   7.691  0.0470 -0.2850 -0.0613
 6860SOL    HW132216   2.218   3.221   7.776 -1.3612  2.8465  1.2985
 6860SOL    HW232217   2.087   3.212   7.709 -0.6603  3.7297  2.6853
 6861SOL     OW32218   3.421   0.173   2.711  0.0204  0.3461  0.3711
 6861SOL    HW132219   3.352   0.116   2.745  1.6955 -1.8562  0.1128
 6861SOL    HW232220   3.372   0.206   2.636  0.1296  0.6461  0.4329
 6862SOL     OW32221   2.267   0.335  12.011  0.2129 -0.3779  0.5518
 6862SOL    HW132222   2.289   0.275  12.082  1.9816  1.5690  1.6797
 6862SOL    HW232223   2.199   0.389  12.052  1.1122  0.9777  0.2862
 6863SOL     OW32224   3.508   4.312  16.661 -0.1823  0.0418 -0.4767
 6863SOL    HW132225   3.543   4.337  16.576  1.4700 -0.7131 -0.0240
 6863SOL    HW232226   3.418   4.300  16.633 -0.0306  1.1255 -1.4355
 6864SOL     OW32227   0.113   2.380   3.498  0.2547  0.4761  0.0516
 6864SOL    HW132228   0.040   2.361   3.557 -0.3622  0.3095 -0.7533
 6864SOL    HW232229   0.132   2.294   3.460  0.1990  0.3806  0.2427
 6865SOL     OW32230   3.308   0.191   7.869  0.2967 -0.5961  1.0431
 6865SOL    HW132231   3.393   0.214   7.907  1.0424  0.2886 -1.1803
 6865SOL    HW232232   3.341   0.149   7.790 -0.9065 -3.2366  1.9433
 6866SOL     OW32233   3.231   0.976  14.377 -0.1055 -0.5514 -0.2482
 6866SOL    HW132234   3.290   0.962  14.452 -0.3540 -0.4203 -0.0315
 6866SOL    HW232235   3.298   0.969  14.309 -0.1770  2.5380 -0.5997
 6867SOL     OW32236   0.131   3.406   0.444  0.6673 -0.5470 -0.2238
 6867SOL    HW132237   0.088   3.489   0.462 -2.7403 -2.5931  1.1016
 6867SOL    HW232238   0.097   3.358   0.520 -0.4915 -1.6071 -1.4215
 6868SOL     OW32239   0.792   1.465   4.700  0.0998  0.0427 -0.2226
 6868SOL    HW132240   0.831   1.381   4.722 -1.3732 -0.8781 -1.1104
 6868SOL    HW232241   0.706   1.433   4.674  0.0061 -0.1275  0.2988
 6869SOL     OW32242   1.349   2.928   1.523  0.0363 -0.2382 -0.3019
 6869SOL    HW132243   1.347   2.997   1.457  1.4891 -1.0677 -1.2244
 6869SOL    HW232244   1.338   2.858   1.459 -0.1041 -1.6851  1.2860
 6870SOL     OW32245   2.067   2.104  10.506 -0.2688 -0.0170  0.1710
 6870SOL    HW132246   2.072   2.010  10.521  0.6564  0.2283  1.3299
 6870SOL    HW232247   2.158   2.131  10.518 -0.2330  0.0865 -0.3340
 6871SOL     OW32248   1.049   2.481   4.110  0.4979  0.0548  0.0325
 6871SOL    HW132249   1.128   2.535   4.110 -0.3875  1.3291 -1.4951
 6871SOL    HW232250   1.042   2.446   4.021  0.4870  1.6744 -0.6022
 6872SOL     OW32251   4.331   1.113   3.807 -0.1071 -0.1560 -0.2332
 6872SOL    HW132252   4.353   1.185   3.866  0.8767  0.2911 -1.1576
 6872SOL    HW232253   4.296   1.163   3.733 -0.1550  0.0762 -0.0555
 6873SOL     OW32254   2.244   1.576   9.460  0.2989 -0.3127  0.2913
 6873SOL    HW132255   2.290   1.644   9.509  2.1747  0.8203 -3.0378
 6873SOL    HW232256   2.156   1.613   9.461 -0.3415 -1.8447 -0.2330
 6874SOL     OW32257   3.803   1.808   4.870 -0.4065 -0.1801  0.4852
 6874SOL    HW132258   3.791   1.903   4.878 -1.0573 -0.1138 -1.2422
 6874SOL    HW232259   3.783   1.778   4.959  3.4102  1.0915  1.7800
 6875SOL     OW32260   2.561   3.010   8.703  0.0992  0.0457  0.3265
 6875SOL    HW132261   2.477   2.994   8.746  0.3029 -2.1374 -0.0851
 6875SOL    HW232262   2.623   2.970   8.764 -0.5478 -1.2757  0.0974
 6876SOL     OW32263   2.519   1.448  15.992  0.1183  0.0900 -0.5120
 6876SOL    HW132264   2.529   1.369  16.045 -1.3268  2.1484  2.8234
 6876SOL    HW232265   2.551   1.417  15.907 -0.6679  1.2370 -1.2252
 6877SOL     OW32266   2.748   2.556   6.581 -0.2691 -0.3107 -0.1466
 6877SOL    HW132267   2.696   2.636   6.583 -1.3009 -1.0682  2.1600
 6877SOL    HW232268   2.818   2.582   6.640 -0.8837  0.0002  0.4380
 6878SOL     OW32269   2.467   4.612   3.291 -0.1708  0.1164 -0.1552
 6878SOL    HW132270   2.414   4.644   3.218  1.0488  3.5421  0.4539
 6878SOL    HW232271   2.547   4.578   3.249 -0.4868  1.2808 -1.7219
 6879SOL     OW32272   2.900   1.242   3.020 -0.3856  0.0101  0.3897
 6879SOL    HW132273   2.973   1.215   3.076 -0.4504 -1.9875 -0.4611
 6879SOL    HW232274   2.947   1.268   2.941 -0.7519  3.3900  1.2997
 6880SOL     OW32275   1.409   0.798   6.279  0.4796 -0.3945  0.1154
 6880SOL    HW132276   1.361   0.717   6.260 -0.5847 -0.1260  1.5906
 6880SOL    HW232277   1.481   0.785   6.218  1.5506  0.6252  1.1647
 6881SOL     OW32278   4.641   3.926   2.722 -0.2397  0.2569 -0.1136
 6881SOL    HW132279   4.690   3.988   2.668  0.1918  0.0560  0.0475
 6881SOL    HW232280   4.669   3.842   2.684 -0.1789  0.4924 -0.5983
 6882SOL     OW32281   4.357   1.645   4.499 -0.0607  0.3250 -0.4025
 6882SOL    HW132282   4.344   1.737   4.519  1.1545  0.3653  0.1692
 6882SOL    HW232283   4.398   1.649   4.413 -1.8823  1.1458 -1.2372
 6883SOL     OW32284   4.610   1.059   4.030  0.0772 -0.4208 -0.0683
 6883SOL    HW132285   4.590   1.075   4.122  0.8404 -0.5809  0.1200
 6883SOL    HW232286   4.592   1.143   3.988 -1.6094 -1.6059 -1.7095
 6884SOL     OW32287   0.707   4.584   8.036 -0.0454  0.0547 -0.4813
 6884SOL    HW132288   0.668   4.671   8.034 -0.2865 -0.0348  0.0466
 6884SOL    HW232289   0.702   4.570   8.131 -0.6531  0.9672 -0.3816
 6885SOL     OW32290   1.540   3.856  12.220 -0.2000  0.1566 -0.2352
 6885SOL    HW132291   1.458   3.875  12.266  0.5709 -3.4248  2.5605
 6885SOL    HW232292   1.538   3.761  12.218 -0.9391  0.1492  1.0590
 6886SOL     OW32293   2.759   1.058   8.089 -0.0258 -0.2300  0.1344
 6886SOL    HW132294   2.781   1.142   8.048  0.1552 -0.7409 -0.8110
 6886SOL    HW232295   2.734   1.079   8.179  0.3250  0.4961  0.0696
 6887SOL     OW32296   2.451   4.568   8.196 -0.0387 -0.1781 -0.4741
 6887SOL    HW132297   2.371   4.610   8.165 -0.7195 -1.1870 -0.0659
 6887SOL    HW232298   2.514   4.572   8.124 -1.0194  0.8546 -1.2596
 6888SOL     OW32299   0.477   3.609   0.733 -0.7066 -0.3253 -0.5391
 6888SOL    HW132300   0.563   3.576   0.708  0.4311  0.5160  2.2952
 6888SOL    HW232301   0.464   3.678   0.667  1.7277  2.9466  2.3933
 6889SOL     OW32302   3.516   4.591  15.548 -0.7077  0.4641  0.1420
 6889SOL    HW132303   3.542   4.672  15.591 -1.3070  1.4021 -1.2770
 6889SOL    HW232304   3.424   4.606  15.567 -0.8273 -0.2282  0.1367
 6890SOL     OW32305   1.420   1.577   0.957  0.5500  0.3125 -0.1464
 6890SOL    HW132306   1.428   1.483   0.973  1.9386  0.6922  1.4099
 6890SOL    HW232307   1.401   1.576   0.863  1.7840  0.4958 -0.4027
 6891SOL     OW32308   0.967   0.172   3.039  0.2243 -0.3388  0.1612
 6891SOL    HW132309   0.917   0.237   2.991  0.3170  0.2202  0.8246
 6891SOL    HW232310   0.950   0.181   3.132  0.8535 -1.2045  0.3666
 6892SOL     OW32311   3.205   2.071   4.053  0.1112 -0.5498  0.0984
 6892SOL    HW132312   3.288   2.120   4.056 -0.9311  1.0390  2.4908
 6892SOL    HW232313   3.222   2.008   3.983 -2.2896 -1.7476  0.6104
 6893SOL     OW32314   0.696   1.218   4.409  0.5013 -0.4357 -0.0638
 6893SOL    HW132315   0.670   1.308   4.431  0.7061  0.1432 -2.2497
 6893SOL    HW232316   0.673   1.213   4.317  1.1928  0.4215 -0.2848
 6894SOL     OW32317   4.242   2.267   1.368  0.7327 -0.3313 -0.0453
 6894SOL    HW132318   4.295   2.253   1.446 -0.9519  2.8011  1.6678
 6894SOL    HW232319   4.192   2.187   1.351 -0.5419  0.5900 -0.6806
 6895SOL     OW32320   2.120   0.704  13.855 -0.1453  0.6814  0.0137
 6895SOL    HW132321   2.146   0.637  13.918  0.5564 -1.3162 -2.4149
 6895SOL    HW232322   2.057   0.667  13.794 -1.1924 -0.0118  1.5253
 6896SOL     OW32323   1.884   3.419   6.990  0.0648 -0.0846 -0.5861
 6896SOL    HW132324   1.964   3.401   7.039 -0.9452 -0.2773  1.0055
 6896SOL    HW232325   1.909   3.503   6.950 -0.2298 -1.2513 -3.2359
 6897SOL     OW32326   2.494   1.502  12.091 -0.4272 -0.4367 -0.2153
 6897SOL    HW132327   2.575   1.490  12.141 -1.2479  1.4681  1.5993
 6897SOL    HW232328   2.466   1.411  12.078 -1.7841 -0.2025  1.0691
 6898SOL     OW32329   3.737   4.314  10.561  0.2282  0.2974 -0.4601
 6898SOL    HW132330   3.711   4.406  10.556 -0.2535  0.2184  0.6327
 6898SOL    HW232331   3.683   4.295  10.638  0.9204 -1.1968 -0.3340
 6899SOL     OW32332   0.961   1.520   7.814 -0.0390 -0.6532 -0.1257
 6899SOL    HW132333   0.929   1.440   7.773  0.9981 -0.2692 -1.6808
 6899SOL    HW232334   0.967   1.584   7.744  1.8050 -0.1661  0.4506
 6900SOL     OW32335   3.002   1.000   5.487  0.0731 -0.0268 -0.4259
 6900SOL    HW132336   2.980   1.013   5.580  1.5001  0.6459 -0.1798
 6900SOL    HW232337   2.944   0.927   5.466 -0.9801  0.7451 -0.1499
 6901SOL     OW32338   1.992   1.522   5.116  0.4497  0.0827  0.2605
 6901SOL    HW132339   1.947   1.596   5.156  0.9992  1.3412 -1.4709
 6901SOL    HW232340   2.004   1.452   5.180 -0.5036 -0.3484 -0.0361
 6902SOL     OW32341   0.258   3.029   2.436  0.6969  0.1437 -0.0259
 6902SOL    HW132342   0.201   3.014   2.361 -0.7234 -2.0995  1.5196
 6902SOL    HW232343   0.341   2.991   2.406 -0.4618 -1.9134 -0.5710
 6903SOL     OW32344   0.508   4.181   7.700  0.7598  0.2846 -0.2490
 6903SOL    HW132345   0.520   4.264   7.746 -3.1147  0.4440  0.4386
 6903SOL    HW232346   0.514   4.226   7.615  2.9038  0.5877  0.0563
 6904SOL     OW32347   3.010   2.978  14.031 -0.4256 -0.4333  0.1701
 6904SOL    HW132348   3.044   3.058  14.072 -1.1310 -0.0491  0.0114
 6904SOL    HW232349   3.012   3.014  13.942 -2.0637 -0.4167  0.1381
 6905SOL     OW32350   0.864   1.633   3.023 -0.3199  0.0646 -0.1841
 6905SOL    HW132351   0.830   1.546   3.001 -0.2123 -0.2907  1.0631
 6905SOL    HW232352   0.949   1.624   3.065 -0.7141 -0.6191  0.4702
 6906SOL     OW32353   4.519   2.918  17.564 -0.2136 -0.1231 -0.0495
 6906SOL    HW132354   4.508   3.012  17.582 -0.7453  0.1820 -1.8888
 6906SOL    HW232355   4.525   2.911  17.468  2.1111 -1.9662  0.2492
 6907SOL     OW32356   0.570   4.447   7.769  0.5669 -0.0837  0.1120
 6907SOL    HW132357   0.599   4.466   7.858  0.6095  0.3258  0.0111
 6907SOL    HW232358   0.592   4.533   7.732  0.8935 -0.5151 -0.6875
 6908SOL     OW32359   1.321   0.204  12.153  0.1431  0.2919 -0.1747
 6908SOL    HW132360   1.398   0.208  12.096 -0.1395  2.1790 -0.4325
 6908SOL    HW232361   1.351   0.149  12.225  2.1883 -1.5142 -2.4020
 6909SOL     OW32362   2.721   0.913   0.285 -0.0421  0.3156 -0.2606
 6909SOL    HW132363   2.754   0.833   0.242  3.1832  1.3150  0.4203
 6909SOL    HW232364   2.807   0.955   0.286  0.7918 -1.4008  0.0622
 6910SOL     OW32365   0.262   2.706   0.264  0.9687 -0.0272 -0.3277
 6910SOL    HW132366   0.293   2.616   0.264 -0.3285 -0.4680  1.1672
 6910SOL    HW232367   0.236   2.708   0.172 -0.9569 -0.1156  0.2333
 6911SOL     OW32368   1.377   3.618   5.800 -0.5680  0.0293 -0.0293
 6911SOL    HW132369   1.447   3.553   5.803  0.1441  0.8526  1.0758
 6911SOL    HW232370   1.316   3.571   5.742 -0.4917 -1.6229  1.2122
 6912SOL     OW32371   3.682   2.881   1.655 -0.3828  0.1848  0.0508
 6912SOL    HW132372   3.598   2.853   1.690 -2.5339  3.4975 -2.4033
 6912SOL    HW232373   3.744   2.897   1.726  0.7289  1.5804 -1.2183
 6913SOL     OW32374   4.247   3.955  12.361 -0.3785  0.2079  0.2192
 6913SOL    HW132375   4.250   4.031  12.302 -0.4833  2.3936  3.0297
 6913SOL    HW232376   4.163   3.912  12.345 -0.3083  0.6144 -1.2544
 6914SOL     OW32377   2.850   4.253  11.892  0.3015  0.0373 -0.1410
 6914SOL    HW132378   2.787   4.305  11.842  0.7410  3.6113  3.0489
 6914SOL    HW232379   2.850   4.319  11.961  4.4255 -2.3163  2.1292
 6915SOL     OW32380   4.448   2.895   7.657 -0.4112 -0.2076 -0.7311
 6915SOL    HW132381   4.445   2.802   7.678 -2.4337  0.4322  1.8678
 6915SOL    HW232382   4.405   2.920   7.739  1.2995 -0.7525  0.3278
 6916SOL     OW32383   2.070   4.521   1.637  0.0483  0.5896 -0.4730
 6916SOL    HW132384   2.099   4.431   1.650 -0.5394  0.8610  2.6958
 6916SOL    HW232385   2.130   4.546   1.566  0.3618  0.6313 -0.1928
 6917SOL     OW32386   1.962   3.035   7.733 -0.0277  0.2181 -0.0086
 6917SOL    HW132387   1.894   3.101   7.744  0.6783  0.9950 -0.3232
 6917SOL    HW232388   1.917   2.979   7.670  0.3626 -0.0478 -0.0517
 6918SOL     OW32389   2.683   0.708  17.686 -0.1194  0.1340 -0.3655
 6918SOL    HW132390   2.592   0.677  17.691  0.6972 -2.0201  1.1056
 6918SOL    HW232391   2.725   0.661   0.011 -1.0372 -0.3609 -0.1426
 6919SOL     OW32392   2.661   2.649  17.695  0.5371  0.5971 -0.2762
 6919SOL    HW132393   2.612   2.569  17.675  0.8417  0.1387  0.8396
 6919SOL    HW232394   2.714   2.636   0.026  0.2484 -2.3347 -0.5979
 6920SOL     OW32395   2.909   0.435   6.123 -0.2061  0.3937 -0.1419
 6920SOL    HW132396   2.938   0.499   6.058 -4.2999 -0.5341 -2.9239
 6920SOL    HW232397   2.867   0.498   6.180  0.7765 -0.2447  1.2921
 6921SOL     OW32398   2.615   1.224   6.081  0.5300  0.4340  0.5236
 6921SOL    HW132399   2.637   1.190   6.168  1.2101  0.0760  0.2107
 6921SOL    HW232400   2.523   1.226   6.107 -0.0065  0.8696 -1.3695
 6922SOL     OW32401   2.326   0.375  12.724 -0.3999 -0.1531  0.2772
 6922SOL    HW132402   2.347   0.448  12.783 -0.5450  0.2795 -0.2111
 6922SOL    HW232403   2.342   0.421  12.642  1.3559 -0.9125  0.1999
 6923SOL     OW32404   2.655   3.018  12.192  0.2030 -0.6575 -0.0320
 6923SOL    HW132405   2.635   3.075  12.267 -1.1145 -1.6350  0.3556
 6923SOL    HW232406   2.605   3.074  12.132 -1.3382 -0.5222  1.3866
 6924SOL     OW32407   4.226   1.522   4.947 -0.4693 -0.3356 -0.3262
 6924SOL    HW132408   4.180   1.604   4.929 -1.7900 -0.5431  2.1008
 6924SOL    HW232409   4.158   1.460   4.972  0.2894 -1.3252 -0.7509
 6925SOL     OW32410   1.059   0.349   0.534  0.0505 -0.4575  0.5252
 6925SOL    HW132411   1.006   0.391   0.602 -0.9278  1.4011 -1.3738
 6925SOL    HW232412   1.119   0.422   0.522 -0.8854  0.4688  1.4365
 6926SOL     OW32413   1.884   1.952   2.616  0.0369  0.1826 -0.5039
 6926SOL    HW132414   1.928   2.024   2.573  2.7688 -0.8754  0.5136
 6926SOL    HW232415   1.812   1.935   2.555 -0.0015  0.3560 -0.5078
 6927SOL     OW32416   3.925   3.655   2.243 -0.0238 -0.0558  0.6244
 6927SOL    HW132417   3.931   3.588   2.174 -0.9183  2.0685 -1.5081
 6927SOL    HW232418   3.836   3.681   2.219  0.3077  1.1205  0.6687
 6928SOL     OW32419   2.903   0.690  11.842  0.0484 -0.3748 -0.0903
 6928SOL    HW132420   2.953   0.672  11.922 -1.0480 -0.2024  0.6271
 6928SOL    HW232421   2.973   0.694  11.777  0.7048 -0.1008  0.6206
 6929SOL     OW32422   1.973   2.189   3.302  0.2322  0.1984  0.5712
 6929SOL    HW132423   2.039   2.159   3.239  0.8217  1.4295  0.6005
 6929SOL    HW232424   1.894   2.176   3.249  0.2896 -0.6560  0.6896
 6930SOL     OW32425   1.511   2.844   4.897 -0.3600 -0.0560 -0.1600
 6930SOL    HW132426   1.455   2.769   4.915  3.5479 -2.5116  2.0261
 6930SOL    HW232427   1.519   2.878   4.986 -1.3956 -1.4859  0.4784
 6931SOL     OW32428   1.664   1.942   1.516 -0.0698  0.2223  0.8059
 6931SOL    HW132429   1.708   2.009   1.567  1.1173 -0.6611  0.9520
 6931SOL    HW232430   1.692   1.975   1.430 -0.1514 -1.5850  0.0724
 6932SOL     OW32431   3.975   1.247  16.979 -0.5023  0.4056  0.1237
 6932SOL    HW132432   3.892   1.224  17.020  1.6393 -1.7049  3.2571
 6932SOL    HW232433   3.969   1.196  16.898 -2.1830  1.1211 -0.2045
 6933SOL     OW32434   2.549   4.592   7.076 -0.4795  0.0822 -0.5193
 6933SOL    HW132435   2.523   4.671   7.124 -1.4981 -1.4943  1.5384
 6933SOL    HW232436   2.526   4.618   6.986 -0.1393  1.3018 -0.2528
 6934SOL     OW32437   1.282   0.719   3.535 -0.6131  0.0032  0.0635
 6934SOL    HW132438   1.215   0.784   3.551  0.1918  0.9624 -0.4643
 6934SOL    HW232439   1.295   0.685   3.623  2.3470 -0.1288 -0.4162
 6935SOL     OW32440   2.627   4.521   8.505  0.2764  0.5318 -0.1749
 6935SOL    HW132441   2.617   4.616   8.500  1.3769  0.7560  1.6252
 6935SOL    HW232442   2.628   4.501   8.599 -2.1880  2.0492  0.1536
 6936SOL     OW32443   1.621   2.560   2.789 -0.1260 -0.6848 -0.0989
 6936SOL    HW132444   1.554   2.519   2.845 -1.0183  1.3110  0.3060
 6936SOL    HW232445   1.693   2.558   2.852  1.8045 -1.6880 -2.3825
 6937SOL     OW32446   4.636   3.968   6.599 -0.9423 -0.7040 -0.0378
 6937SOL    HW132447   4.680   3.884   6.606  0.2676 -0.0736 -0.1010
 6937SOL    HW232448   4.581   3.965   6.677 -0.5518  1.4189  0.3290
 6938SOL     OW32449   0.581   4.147   3.305  0.0759  0.4560 -0.4418
 6938SOL    HW132450   0.671   4.117   3.309 -0.2036 -0.3933 -0.4878
 6938SOL    HW232451   0.550   4.114   3.389  0.8845  1.2249  0.1499
 6939SOL     OW32452   2.157   1.025   1.426  0.5349 -0.0212  0.0455
 6939SOL    HW132453   2.086   0.966   1.400 -0.4535  0.8162  0.8647
 6939SOL    HW232454   2.239   0.976   1.415  2.2272  2.5289  1.1887
 6940SOL     OW32455   0.217   0.291   6.733 -0.3845  0.2789  0.1330
 6940SOL    HW132456   0.232   0.202   6.702 -3.3893  0.2168 -1.2019
 6940SOL    HW232457   0.302   0.333   6.730  0.0389 -0.6568 -0.8330
 6941SOL     OW32458   4.337   1.538   7.102 -0.1020 -0.6269 -0.7569
 6941SOL    HW132459   4.349   1.598   7.029 -2.5764 -2.0220 -2.2867
 6941SOL    HW232460   4.426   1.535   7.137 -0.2383  0.2466 -0.3173
 6942SOL     OW32461   4.265   2.953   3.113 -0.1433  0.4731  0.7555
 6942SOL    HW132462   4.178   2.987   3.131 -0.4040  0.3114 -0.2225
 6942SOL    HW232463   4.293   3.009   3.041 -1.7947  0.1191 -0.1596
 6943SOL     OW32464   0.384   3.623   9.162 -0.5376  0.8546  0.5259
 6943SOL    HW132465   0.307   3.641   9.215 -2.9992  0.1970 -2.7764
 6943SOL    HW232466   0.356   3.549   9.107 -0.0306  0.8120  0.3250
 6944SOL     OW32467   2.932   0.333   8.775 -0.0694  0.4114 -0.3527
 6944SOL    HW132468   2.914   0.266   8.709  0.7319  0.9205 -1.0829
 6944SOL    HW232469   3.024   0.351   8.757  0.5358 -0.0601  2.3208
 6945SOL     OW32470   0.680   0.341   4.930 -0.5301 -0.3294  0.4941
 6945SOL    HW132471   0.624   0.268   4.955 -0.3640 -0.4444  0.5330
 6945SOL    HW232472   0.619   0.410   4.903 -1.6787 -2.1473 -1.5517
 6946SOL     OW32473   2.805   3.774   2.565  0.4921 -0.0690 -0.0614
 6946SOL    HW132474   2.806   3.852   2.510  0.1805  0.0509  0.1016
 6946SOL    HW232475   2.750   3.788   2.643 -1.7113 -2.5700 -1.1614
 6947SOL     OW32476   4.421   4.171  17.303  0.0542  0.1489  0.0489
 6947SOL    HW132477   4.331   4.187  17.329 -0.0495  1.0964 -0.9285
 6947SOL    HW232478   4.405   4.168  17.209 -3.2303  1.4894  0.5591
 6948SOL     OW32479   0.680   3.155  11.062 -0.4168  0.1218  0.1579
 6948SOL    HW132480   0.658   3.248  11.058 -0.4683  0.0159 -1.9798
 6948SOL    HW232481   0.775   3.163  11.060 -0.5453  1.6332  0.0597
 6949SOL     OW32482   1.011   0.840  10.825 -0.1468 -0.6752 -0.2541
 6949SOL    HW132483   1.076   0.840  10.896 -0.3765  0.1840 -0.0448
 6949SOL    HW232484   0.934   0.803  10.868  0.9578 -0.9483  1.5072
 6950SOL     OW32485   3.904   0.814   4.905  0.0588  0.0490 -0.1327
 6950SOL    HW132486   3.845   0.761   4.852  0.5274  0.7338 -1.3475
 6950SOL    HW232487   3.841   0.847   4.968  1.6847  1.3268  0.8301
 6951SOL     OW32488   3.714   0.043  11.327 -0.7174  1.2808 -0.2628
 6951SOL    HW132489   3.638   4.723  11.332 -1.4317  1.9785 -3.1310
 6951SOL    HW232490   3.702   0.086  11.412 -1.9239 -1.0087  0.7190
 6952SOL     OW32491   0.676   4.248  17.521  0.1580  0.1868 -0.1976
 6952SOL    HW132492   0.615   4.315  17.551 -1.1758 -2.5164  3.0708
 6952SOL    HW232493   0.615   4.196  17.468 -0.2761 -1.2361  1.7224
 6953SOL     OW32494   4.222   3.892  17.529  0.1634 -0.5105  0.3300
 6953SOL    HW132495   4.168   3.880  17.451 -0.2697  1.6974  0.3058
 6953SOL    HW232496   4.312   3.869  17.507 -0.6945 -2.0179 -1.6485
 6954SOL     OW32497   0.877   1.198   2.401 -0.2711 -0.1563  0.3380
 6954SOL    HW132498   0.932   1.258   2.452  0.1394  0.5154 -0.8954
 6954SOL    HW232499   0.938   1.125   2.392 -1.3574 -1.2063  1.5898
 6955SOL     OW32500   1.087   1.486  16.652  0.3185  0.4449  0.0082
 6955SOL    HW132501   1.170   1.504  16.695  1.4301 -2.1798 -1.0727
 6955SOL    HW232502   1.071   1.573  16.614 -0.0894 -0.7540 -2.5896
 6956SOL     OW32503   0.089   0.932   6.316  0.4280  0.2809  0.3194
 6956SOL    HW132504   0.128   0.847   6.294  0.2639  0.1520  0.5196
 6956SOL    HW232505   4.734   0.914   6.301  0.5009 -1.2486  1.6661
 6957SOL     OW32506   3.823   3.700  11.737 -0.3051  0.2898 -0.1563
 6957SOL    HW132507   3.864   3.621  11.774  1.0088  0.6198 -0.9151
 6957SOL    HW232508   3.817   3.672  11.646  1.6540 -0.1551 -0.1478
 6958SOL     OW32509   4.465   3.152   8.607  0.1439 -0.2820  0.2753
 6958SOL    HW132510   4.441   3.164   8.515 -1.0614  0.3902  0.6738
 6958SOL    HW232511   4.484   3.058   8.606 -0.6420 -0.4613  2.9814
 6959SOL     OW32512   2.443   4.138   8.512  0.0022  0.0111 -0.1731
 6959SOL    HW132513   2.463   4.185   8.430 -2.1166  2.0540  0.4729
 6959SOL    HW232514   2.469   4.052   8.480  2.2031  0.1071  1.4227
 6960SOL     OW32515   4.435   1.560  12.930 -0.1966  0.1008  0.1101
 6960SOL    HW132516   4.463   1.648  12.904 -2.1990  1.6195  3.0607
 6960SOL    HW232517   4.449   1.505  12.853 -0.1330 -0.1386  0.2911
 6961SOL     OW32518   3.522   0.251   6.261  0.8949 -0.1433  0.5226
 6961SOL    HW132519   3.517   0.197   6.340 -1.1572 -1.1979 -0.3435
 6961SOL    HW232520   3.525   0.340   6.295 -1.0252  0.1155 -0.0198
 6962SOL     OW32521   0.530   1.655   8.547  0.0177  0.2314  0.3121
 6962SOL    HW132522   0.512   1.739   8.590  0.6441 -0.5488  2.0957
 6962SOL    HW232523   0.440   1.626   8.532  0.0141 -0.3196  1.3635
 6963SOL     OW32524   0.213   3.840   5.463 -0.3176  0.8665 -0.0001
 6963SOL    HW132525   0.160   3.798   5.396  1.9303 -1.6470 -0.2044
 6963SOL    HW232526   0.171   3.925   5.478  0.6569  1.7736 -2.3583
 6964SOL     OW32527   0.084   0.623   5.606  0.3716  0.1047  0.8598
 6964SOL    HW132528   0.148   0.670   5.552  0.6040 -2.3719 -1.0280
 6964SOL    HW232529   0.144   0.567   5.655  0.3890  0.5983  1.4050
 6965SOL     OW32530   2.264   3.280  13.156 -0.4085 -0.1752  0.2686
 6965SOL    HW132531   2.262   3.214  13.086  1.6178 -0.1240  0.1756
 6965SOL    HW232532   2.310   3.351  13.113 -0.2706  0.0096  0.7184
 6966SOL     OW32533   3.798   0.347   3.843 -0.2228  0.3329  0.3824
 6966SOL    HW132534   3.860   0.285   3.880 -0.2038 -0.1344 -0.4378
 6966SOL    HW232535   3.724   0.349   3.903 -1.6299  0.7055 -1.3451
 6967SOL     OW32536   3.908   1.288   9.663 -0.0821 -0.5507 -0.0128
 6967SOL    HW132537   3.964   1.363   9.643  1.8844 -1.7660  0.9621
 6967SOL    HW232538   3.952   1.251   9.740  3.3381 -0.8779 -2.0801
 6968SOL     OW32539   1.727   2.131   9.408 -0.0701 -0.4268  0.7142
 6968SOL    HW132540   1.648   2.096   9.450 -0.9264  1.5938  0.8257
 6968SOL    HW232541   1.789   2.152   9.478  0.9179 -1.0560  0.0214
 6969SOL     OW32542   1.602   0.794   2.237  0.2693 -0.3393 -0.0583
 6969SOL    HW132543   1.538   0.851   2.280  0.0477 -1.5060  1.1859
 6969SOL    HW232544   1.592   0.710   2.282 -1.1293  0.3695  0.9868
 6970SOL     OW32545   1.716   0.568   1.108 -0.1710  0.3562  0.3753
 6970SOL    HW132546   1.787   0.624   1.139  0.1330 -0.2294  0.7297
 6970SOL    HW232547   1.657   0.577   1.183 -1.2960  1.3012 -0.6182
 6971SOL     OW32548   2.866   2.558   2.010  0.2969  0.7313 -0.1893
 6971SOL    HW132549   2.834   2.566   2.099  1.0043 -0.1219  0.1479
 6971SOL    HW232550   2.945   2.612   2.004  1.6346 -1.3592 -1.4849
 6972SOL     OW32551   0.419   2.084   9.558 -0.5817 -0.2353  0.0903
 6972SOL    HW132552   0.512   2.064   9.566 -0.0765  1.8750 -0.5998
 6972SOL    HW232553   0.386   2.074   9.647  2.1220 -0.4092  1.0788
 6973SOL     OW32554   0.962   0.449  13.525  0.2322  0.2591  0.6639
 6973SOL    HW132555   1.000   0.535  13.545 -1.1393  0.9657  0.2534
 6973SOL    HW232556   0.885   0.477  13.476 -0.0934  1.2347  1.7161
 6974SOL     OW32557   3.915   2.643   8.196  0.2300 -0.2913  0.6799
 6974SOL    HW132558   3.997   2.594   8.194 -0.1511 -0.9122  0.3738
 6974SOL    HW232559   3.939   2.713   8.256 -1.3840 -0.0916  1.0978
 6975SOL     OW32560   0.687   2.230   5.250  0.5013 -0.2875  0.1919
 6975SOL    HW132561   0.727   2.230   5.336  0.4480  0.1114  0.2139
 6975SOL    HW232562   0.704   2.141   5.219  0.0219 -0.2621 -0.1435
 6976SOL     OW32563   0.611   2.714   7.536 -0.2540 -0.2685 -0.2223
 6976SOL    HW132564   0.687   2.721   7.478  0.0770 -1.5876  0.0523
 6976SOL    HW232565   0.547   2.770   7.491 -2.7166 -2.7429  0.2181
 6977SOL     OW32566   4.561   3.635   0.786 -0.5213 -0.1330  0.1112
 6977SOL    HW132567   4.621   3.597   0.850  0.6611 -2.6401 -2.4830
 6977SOL    HW232568   4.512   3.697   0.841  1.2982  1.9638 -0.6178
 6978SOL     OW32569   2.467   4.600  17.176  0.3566  0.3733 -0.8654
 6978SOL    HW132570   2.492   4.623  17.087  0.6936  1.2936 -0.5392
 6978SOL    HW232571   2.533   4.534  17.200  0.1040  0.0883 -0.9638
 6979SOL     OW32572   0.318   1.069   7.073 -0.4947 -0.4120 -0.2604
 6979SOL    HW132573   0.229   1.104   7.073 -0.9694 -1.6373  1.2438
 6979SOL    HW232574   0.326   1.040   6.982  1.6421 -3.1278  0.8005
 6980SOL     OW32575   4.315   1.900   9.345 -0.0142  0.4903 -0.1402
 6980SOL    HW132576   4.329   1.814   9.305  1.7803  0.7180 -0.0176
 6980SOL    HW232577   4.393   1.951   9.322  0.9103 -0.5156  0.7713
 6981SOL     OW32578   4.661   4.029   5.269  0.0817 -0.0441  0.8053
 6981SOL    HW132579   4.730   4.071   5.320 -0.5898  1.7867  0.2093
 6981SOL    HW232580   4.633   4.100   5.210 -1.2429 -0.2777  1.1539
 6982SOL     OW32581   1.152   1.674   1.390  0.1588 -0.1350  0.1085
 6982SOL    HW132582   1.172   1.632   1.474 -2.1379  0.5619  0.9960
 6982SOL    HW232583   1.239   1.709   1.375  0.3031 -0.7378 -0.4871
 6983SOL     OW32584   2.308   3.213   3.103  0.1122  0.0791 -0.0337
 6983SOL    HW132585   2.248   3.206   3.177  0.8334  0.4578  0.5781
 6983SOL    HW232586   2.235   3.218   3.041  0.4440  0.3075 -0.4052
 6984SOL     OW32587   3.683   1.518   4.532 -0.3513 -0.2528 -0.0114
 6984SOL    HW132588   3.681   1.435   4.581  1.1536 -0.4495 -0.2664
 6984SOL    HW232589   3.753   1.563   4.580  0.2521 -0.9705 -0.2149
 6985SOL     OW32590   3.499   0.498   6.354 -1.0120  0.9491  0.7371
 6985SOL    HW132591   3.500   0.580   6.304  1.1699  1.0496  0.9428
 6985SOL    HW232592   3.523   0.514   6.445 -2.0761  2.4175  0.7596
 6986SOL     OW32593   0.746   0.609   9.391 -0.0447 -0.2480  0.1285
 6986SOL    HW132594   0.686   0.556   9.339  0.2332 -2.0349  1.6341
 6986SOL    HW232595   0.805   0.641   9.323 -1.1304 -0.6922 -1.0281
 6987SOL     OW32596   3.280   2.811   4.322 -0.0672 -0.0213  0.1980
 6987SOL    HW132597   3.257   2.868   4.396  1.4647  0.8000  0.0454
 6987SOL    HW232598   3.199   2.766   4.300 -0.8454  0.3130  2.3306
 6988SOL     OW32599   2.331   4.156   8.087 -0.2270 -0.8491  0.2469
 6988SOL    HW132600   2.285   4.197   8.160  2.1436  1.0645  0.6442
 6988SOL    HW232601   2.374   4.087   8.137  1.5514 -1.1071 -1.6360
 6989SOL     OW32602   4.404   3.739   2.284 -0.6084 -0.1298 -0.4128
 6989SOL    HW132603   4.346   3.814   2.301 -0.8116 -0.4819  0.4597
 6989SOL    HW232604   4.402   3.691   2.367 -2.3505  1.0363  0.2430
 6990SOL     OW32605   2.001   4.455   2.131 -0.4059  0.6220  0.5076
 6990SOL    HW132606   2.075   4.515   2.121  1.5024 -1.7488  0.6790
 6990SOL    HW232607   2.047   4.373   2.114 -1.8978  0.2217 -1.6446
 6991SOL     OW32608   4.305   0.670   5.771  0.7318 -0.2314 -0.2269
 6991SOL    HW132609   4.236   0.677   5.706 -0.9738  0.9624  1.7108
 6991SOL    HW232610   4.279   0.579   5.784  0.6012 -0.3129 -1.0837
 6992SOL     OW32611   4.188   4.530   3.591  0.1105  0.1510  0.2363
 6992SOL    HW132612   4.246   4.562   3.521  1.9100 -1.5985  0.9190
 6992SOL    HW232613   4.124   4.473   3.548 -1.1332  2.7654 -1.3539
 6993SOL     OW32614   2.828   1.677   4.135 -0.3404  0.1749 -0.6727
 6993SOL    HW132615   2.888   1.736   4.180 -0.7615  0.6353 -0.7109
 6993SOL    HW232616   2.817   1.714   4.047  2.5984 -1.5974 -1.7932
 6994SOL     OW32617   1.284   3.063   3.379 -0.4383  0.1505 -0.5463
 6994SOL    HW132618   1.324   3.133   3.430 -2.6551  1.1866 -0.2043
 6994SOL    HW232619   1.362   3.016   3.351 -0.1362  0.5661 -0.4074
 6995SOL     OW32620   3.011   1.925   5.458 -0.8282 -0.1578  0.1048
 6995SOL    HW132621   2.994   1.884   5.374  2.5055 -1.4408  0.0661
 6995SOL    HW232622   3.106   1.934   5.460 -0.5592 -2.7851 -1.7337
 6996SOL     OW32623   1.691   3.176   3.719  0.3642 -0.3530 -0.5970
 6996SOL    HW132624   1.667   3.267   3.701 -0.6887 -0.6940 -0.8710
 6996SOL    HW232625   1.778   3.179   3.679  0.2705  1.8949 -0.6432
 6997SOL     OW32626   0.662   4.328   8.930  0.7543 -0.0861 -0.1218
 6997SOL    HW132627   0.670   4.409   8.980 -0.4450 -0.5656  0.8388
 6997SOL    HW232628   0.584   4.282   8.961  1.3041 -0.0054  1.3738
 6998SOL     OW32629   1.756   1.294   6.056 -0.1253  0.3257 -0.3511
 6998SOL    HW132630   1.790   1.382   6.041 -0.3378  0.1800 -1.6665
 6998SOL    HW232631   1.788   1.253   5.976 -1.5426 -1.5479  0.0495
 6999SOL     OW32632   4.165   4.687  13.077  0.0727  0.7934  0.3308
 6999SOL    HW132633   4.170   4.703  13.171 -1.2385  1.5043  0.2770
 6999SOL    HW232634   4.092   4.625  13.085  1.2078 -0.7286 -1.1036
 7000SOL     OW32635   0.085   3.217   7.758  0.5709  0.2478 -0.3745
 7000SOL    HW132636   0.137   3.280   7.707  1.9046 -0.9186 -0.4685
 7000SOL    HW232637   0.148   3.146   7.773  0.1146  0.6991  3.5821
 7001SOL     OW32638   2.478   3.714   4.348 -0.1751  0.1423  0.0046
 7001SOL    HW132639   2.455   3.805   4.369 -1.2912 -0.6660  2.2788
 7001SOL    HW232640   2.573   3.719   4.354 -0.1392  0.2411 -0.6630
 7002SOL     OW32641   0.221   4.190   9.706 -0.2419  0.1298 -0.3406
 7002SOL    HW132642   0.215   4.191   9.802 -0.8401  1.0890 -0.3920
 7002SOL    HW232643   0.302   4.240   9.693 -1.5376  1.5904 -2.7331
 7003SOL     OW32644   1.230   1.336   8.424 -0.9544  0.4171  0.1652
 7003SOL    HW132645   1.223   1.261   8.484  1.4840  0.8932  1.0434
 7003SOL    HW232646   1.137   1.356   8.416 -0.9564  0.9215  1.4324
 7004SOL     OW32647   4.673   2.341   7.989 -0.4721 -0.3837 -0.4726
 7004SOL    HW132648   0.011   2.300   7.945 -0.6684  0.1408 -1.3060
 7004SOL    HW232649   4.703   2.365   8.076 -2.4468 -0.2706  0.1594
 7005SOL     OW32650   2.821   3.076   1.817 -0.3170 -0.2342  0.8138
 7005SOL    HW132651   2.906   3.071   1.861  0.2114 -0.4421 -0.2202
 7005SOL    HW232652   2.834   3.016   1.743 -0.4649  0.8796 -0.1164
 7006SOL     OW32653   2.482   1.633   7.045 -0.0010 -0.1149  0.2457
 7006SOL    HW132654   2.522   1.610   6.961  0.5934  1.4413  0.1028
 7006SOL    HW232655   2.409   1.686   7.014  1.0159  0.7337 -0.7002
 7007SOL     OW32656   0.771   4.006   6.242 -0.1547  0.5226 -0.0225
 7007SOL    HW132657   0.753   3.931   6.298  2.5742 -1.1059 -1.3141
 7007SOL    HW232658   0.726   3.994   6.158 -1.5019 -1.1090  0.9373
 7008SOL     OW32659   3.884   2.527  10.218 -0.3022  0.2039  0.1232
 7008SOL    HW132660   3.971   2.505  10.251  0.3543 -0.1016 -1.8405
 7008SOL    HW232661   3.890   2.603  10.160  0.5124  0.8172  0.9979
 7009SOL     OW32662   1.118   2.858  10.181 -0.1204  0.2800  0.0282
 7009SOL    HW132663   1.091   2.945  10.153 -2.2137 -0.7881 -1.3241
 7009SOL    HW232664   1.150   2.819  10.100  2.4269  0.8751  0.7606
 7010SOL     OW32665   1.365   0.832   2.403  0.5588 -0.1990  0.4406
 7010SOL    HW132666   1.312   0.755   2.384  1.2302 -0.9787  1.7787
 7010SOL    HW232667   1.316   0.888   2.344  1.8710 -1.0544 -1.4887
 7011SOL     OW32668   3.607   1.810   7.010 -0.1944  0.1602 -0.2375
 7011SOL    HW132669   3.625   1.719   7.034 -1.6059 -0.4086 -1.3729
 7011SOL    HW232670   3.520   1.814   7.048 -1.4598  2.8654 -3.3938
 7012SOL     OW32671   4.316   4.439  12.229 -0.3351 -0.1155 -0.5358
 7012SOL    HW132672   4.409   4.431  12.248 -0.7818 -1.7911  0.9097
 7012SOL    HW232673   4.297   4.481  12.313  4.7280  0.2820  0.4228
 7013SOL     OW32674   3.548   2.011   9.072  0.1738 -0.2276 -0.3946
 7013SOL    HW132675   3.599   2.035   8.995  0.7626  0.2749  0.1526
 7013SOL    HW232676   3.603   2.035   9.147  0.0347  1.0585 -0.7071
 7014SOL     OW32677   2.668   1.504  16.222 -0.4903 -0.1351 -0.0365
 7014SOL    HW132678   2.759   1.478  16.209 -0.0230  1.0434  0.8179
 7014SOL    HW232679   2.630   1.485  16.137 -1.8296 -2.0665  1.0036
 7015SOL     OW32680   0.572   2.001  12.668 -0.0509  0.4125  0.2742
 7015SOL    HW132681   0.652   1.999  12.721 -0.1090 -0.7093  0.3288
 7015SOL    HW232682   0.530   1.916  12.683 -1.8113  1.3790  0.6677
 7016SOL     OW32683   1.473   1.188   9.277 -0.0868 -0.0038  0.2530
 7016SOL    HW132684   1.537   1.257   9.297  0.1399 -0.3929  0.8536
 7016SOL    HW232685   1.477   1.201   9.182 -2.7348 -1.2077 -0.0109
 7017SOL     OW32686   0.951   0.077   1.839  0.5070  0.2902  0.4456
 7017SOL    HW132687   0.907   0.161   1.824 -0.1224 -0.4943 -2.1146
 7017SOL    HW232688   1.020   0.094   1.775  1.0280 -0.7878  0.7148
 7018SOL     OW32689   4.736   0.114   6.592 -0.0027  0.1321 -0.2974
 7018SOL    HW132690   4.725   0.131   6.499 -0.7199 -2.4647 -0.6800
 7018SOL    HW232691   4.717   0.200   6.629 -0.7747 -1.1526  2.3452
 7019SOL     OW32692   3.478   2.824   4.150 -0.1740 -0.5937  0.2282
 7019SOL    HW132693   3.523   2.743   4.175  1.4251 -0.6861 -2.9375
 7019SOL    HW232694   3.413   2.828   4.219  0.1139  0.1580  0.4603
 7020SOL     OW32695   2.965   0.864   9.490  0.0660 -0.7574 -0.4201
 7020SOL    HW132696   2.989   0.836   9.402 -0.0147  0.0608 -0.7059
 7020SOL    HW232697   2.904   0.936   9.472  1.8586  1.4418  2.2961
 7021SOL     OW32698   4.493   2.564   8.770  0.5128  0.2811 -0.8194
 7021SOL    HW132699   4.413   2.540   8.722  2.0219 -1.7694 -2.3482
 7021SOL    HW232700   4.522   2.631   8.708  1.4425  0.0008 -0.6900
 7022SOL     OW32701   0.090   1.164   3.738 -0.1350  0.0377 -0.4920
 7022SOL    HW132702   0.149   1.104   3.693 -0.6941 -1.5369  0.8490
 7022SOL    HW232703   0.006   1.125   3.712  0.4703 -1.1647 -0.6113
 7023SOL     OW32704   4.429   1.202   7.314 -0.0221  0.0451 -0.2813
 7023SOL    HW132705   4.470   1.226   7.397 -3.2591 -0.2799  1.4369
 7023SOL    HW232706   4.506   1.210   7.259 -0.1897  1.0250 -0.3711
 7024SOL     OW32707   1.489   2.044   7.348  0.0215  0.3422 -0.5008
 7024SOL    HW132708   1.412   1.999   7.385  0.1587  1.1803  0.8185
 7024SOL    HW232709   1.563   2.025   7.405  1.5105  0.3573 -2.4348
 7025SOL     OW32710   2.066   0.154   2.048  0.1888 -0.1084  0.1457
 7025SOL    HW132711   2.135   0.205   2.007 -0.4676  0.6813  0.0101
 7025SOL    HW232712   1.992   0.207   2.016 -1.0052 -1.5780  0.4349
 7026SOL     OW32713   0.746   0.579   6.517  0.1492 -0.2128 -0.4299
 7026SOL    HW132714   0.698   0.653   6.556  1.2596 -0.3716  1.2390
 7026SOL    HW232715   0.679   0.517   6.545  0.1238 -0.3614 -0.8249
 7027SOL     OW32716   2.141   2.781  12.452 -0.5325 -0.0881  0.0625
 7027SOL    HW132717   2.170   2.830  12.376  0.7260 -1.8191 -0.5734
 7027SOL    HW232718   2.152   2.698  12.405 -2.3390  0.4103 -1.2372
 7028SOL     OW32719   3.602   2.450   5.321  0.1987  0.4757  0.4215
 7028SOL    HW132720   3.612   2.530   5.373  1.0274 -0.3571  1.5614
 7028SOL    HW232721   3.506   2.446   5.328  0.1691 -1.4940 -1.1619
 7029SOL     OW32722   4.541   0.961  13.498 -0.5998 -0.0499 -0.2224
 7029SOL    HW132723   4.561   1.003  13.581  0.1202  0.9384 -0.8948
 7029SOL    HW232724   4.626   0.948  13.456 -1.4713 -1.8776 -1.4635
 7030SOL     OW32725   4.213   2.173   7.668 -0.4957  0.2095 -0.5464
 7030SOL    HW132726   4.259   2.196   7.750  0.5490 -1.0386 -0.7841
 7030SOL    HW232727   4.168   2.092   7.690  0.6543  0.0670  1.3258
 7031SOL     OW32728   3.161   0.782   3.169  0.4831 -0.1382 -0.2016
 7031SOL    HW132729   3.103   0.755   3.098 -0.8957 -0.7328  1.1395
 7031SOL    HW232730   3.160   0.720   3.242  0.4677  0.5579  0.3876
 7032SOL     OW32731   0.911   4.265  15.055  0.0917 -0.1786  0.2245
 7032SOL    HW132732   0.991   4.302  15.015 -1.4326 -0.0460 -2.7083
 7032SOL    HW232733   0.850   4.338  15.046 -0.8756 -1.1040 -0.6782
 7033SOL     OW32734   3.876   3.293   1.751  0.1896 -0.4294 -0.2746
 7033SOL    HW132735   3.870   3.269   1.659  0.9280 -0.0528 -0.4227
 7033SOL    HW232736   3.866   3.205   1.789  1.1309 -0.3869  0.0699
 7034SOL     OW32737   0.704   1.698   8.189 -0.5236  0.4943  0.2950
 7034SOL    HW132738   0.765   1.658   8.127 -0.9447  1.1657 -0.5447
 7034SOL    HW232739   0.614   1.673   8.170 -0.7381  1.1076  0.4853
 7035SOL     OW32740   2.198   4.624  14.349  0.2212 -0.7326 -0.1488
 7035SOL    HW132741   2.121   4.622  14.291 -0.9414  0.0269  1.3516
 7035SOL    HW232742   2.268   4.635  14.285 -0.7847 -2.7345 -1.6042
 7036SOL     OW32743   1.551   4.419   8.382  0.2607 -0.0804 -0.6238
 7036SOL    HW132744   1.538   4.460   8.468  1.3905 -1.3861  0.1668
 7036SOL    HW232745   1.572   4.494   8.326 -1.9853 -0.5346 -2.0445
 7037SOL     OW32746   4.291   1.802  10.297  0.1793 -0.5441  0.4636
 7037SOL    HW132747   4.225   1.854  10.342 -0.6496 -0.9967 -0.2337
 7037SOL    HW232748   4.318   1.742  10.367  1.5259  1.2028  1.4312
 7038SOL     OW32749   3.246   0.109   2.963  0.8306  0.0518  0.4934
 7038SOL    HW132750   3.319   0.047   2.956  1.4824  1.0302 -1.1080
 7038SOL    HW232751   3.179   0.074   2.904  1.6640  2.1335 -1.6377
 7039SOL     OW32752   2.514   0.254   0.903  0.0287 -0.3150  0.0997
 7039SOL    HW132753   2.569   0.218   0.973 -0.2130 -0.5023  0.1948
 7039SOL    HW232754   2.448   0.293   0.961 -1.5473 -0.5522 -1.5438
 7040SOL     OW32755   4.606   1.463   3.737  0.0567  0.6551 -0.1385
 7040SOL    HW132756   4.606   1.398   3.667 -1.5973 -1.5292  1.8911
 7040SOL    HW232757   4.620   1.542   3.684  0.1090  0.2519 -0.7236
 7041SOL     OW32758   1.432   4.048  10.944 -0.0644  0.0345 -0.1970
 7041SOL    HW132759   1.417   4.143  10.938  0.3415 -0.0171 -2.0321
 7041SOL    HW232760   1.354   4.017  10.898 -0.8115 -3.1368  3.2199
 7042SOL     OW32761   2.144   1.124  10.194 -0.5097  0.4192 -0.2900
 7042SOL    HW132762   2.238   1.144  10.201 -0.1716 -0.3162 -2.8923
 7042SOL    HW232763   2.143   1.034  10.227  3.6725 -0.1495 -1.7294
 7043SOL     OW32764   0.640   2.350   2.137  0.2872  0.2058  0.0898
 7043SOL    HW132765   0.703   2.383   2.073 -1.7970  2.0390 -1.0123
 7043SOL    HW232766   0.592   2.292   2.078  1.9332 -0.1950 -0.8632
 7044SOL     OW32767   1.439   2.573   2.353  0.2233 -0.4087 -0.2453
 7044SOL    HW132768   1.495   2.610   2.421  0.4294 -0.3269 -0.4610
 7044SOL    HW232769   1.404   2.498   2.401  1.9084 -1.2033 -0.2720
 7045SOL     OW32770   3.365   0.886  17.109  0.4097  0.3210 -0.3871
 7045SOL    HW132771   3.328   0.954  17.054  1.9260  0.1137 -1.6684
 7045SOL    HW232772   3.289   0.856  17.159  0.2981  1.1557 -0.0664
 7046SOL     OW32773   0.051   4.372   3.644 -0.7807 -0.2622  0.4799
 7046SOL    HW132774   0.069   4.456   3.685 -1.1584 -0.3935  0.9182
 7046SOL    HW232775   4.726   4.391   3.574 -2.6839 -1.9803  1.6928
 7047SOL     OW32776   3.582   2.491  15.363  0.0710  0.0940 -0.6345
 7047SOL    HW132777   3.583   2.415  15.421  2.2228  2.2112  2.1251
 7047SOL    HW232778   3.652   2.473  15.301  1.5241  1.8493  0.4888
 7048SOL     OW32779   0.018   0.694   7.527  0.0352  0.5168 -0.1039
 7048SOL    HW132780   4.676   0.658   7.487 -1.0315  2.5039  0.2278
 7048SOL    HW232781   0.061   0.611   7.549 -0.8523  0.1412  0.2521
 7049SOL     OW32782   2.109   3.740   7.182  0.2769 -0.1309  0.5359
 7049SOL    HW132783   2.090   3.674   7.115  1.9625  2.3598 -2.4224
 7049SOL    HW232784   2.020   3.766   7.205  0.4933 -1.5269  2.9335
 7050SOL     OW32785   1.878   2.468   8.686  0.6253  0.0408 -0.7246
 7050SOL    HW132786   1.849   2.394   8.741 -0.8923  0.7637 -0.5364
 7050SOL    HW232787   1.873   2.534   8.755  1.1811 -2.1274  1.3876
 7051SOL     OW32788   4.267   2.625   9.590  0.1344 -0.7902  0.3660
 7051SOL    HW132789   4.344   2.577   9.622  1.0528  1.2078  1.1704
 7051SOL    HW232790   4.264   2.690   9.661 -1.0578 -0.5423  0.0817
 7052SOL     OW32791   1.317   2.092  16.426  0.2678  0.5570 -0.0377
 7052SOL    HW132792   1.250   2.024  16.425  0.5354  0.2562  2.5115
 7052SOL    HW232793   1.378   2.067  16.495 -0.8239  1.8198  1.3697
 7053SOL     OW32794   1.374   2.625  10.936  0.2199  0.2149  0.0494
 7053SOL    HW132795   1.423   2.545  10.957  2.0975  1.3152 -0.1159
 7053SOL    HW232796   1.403   2.631  10.845  0.4385 -0.0810  0.0984
 7054SOL     OW32797   1.868   4.639   2.437 -1.0590  0.3116 -0.5647
 7054SOL    HW132798   1.783   4.643   2.394 -0.3744  1.9079 -1.7554
 7054SOL    HW232799   1.920   4.680   2.369  0.6107  1.2239  1.2706
 7055SOL     OW32800   1.172   0.182   4.464 -0.0760 -0.2602 -0.0186
 7055SOL    HW132801   1.092   0.190   4.412 -0.2328  0.5155  0.3414
 7055SOL    HW232802   1.228   0.239   4.412 -0.1909 -1.8414 -1.9091
 7056SOL     OW32803   2.492   0.966   8.642  0.5328  0.3287 -0.0321
 7056SOL    HW132804   2.580   0.967   8.680  0.1895  0.5884  0.7470
 7056SOL    HW232805   2.467   0.878   8.670  0.8406  0.2360 -0.0449
 7057SOL     OW32806   1.542   2.095  15.608  0.5127  0.0842  0.1068
 7057SOL    HW132807   1.506   2.162  15.666  4.0124  0.4039  1.8726
 7057SOL    HW232808   1.530   2.020  15.666  1.8166 -0.5712 -0.4796
 7058SOL     OW32809   4.310   2.722   1.454  0.6056 -0.6159  0.1814
 7058SOL    HW132810   4.250   2.661   1.412 -0.6925  0.1528  0.9341
 7058SOL    HW232811   4.281   2.728   1.545 -1.8176 -1.8659 -0.5334
 7059SOL     OW32812   3.060   1.100   4.433  0.5432  0.1861 -0.6892
 7059SOL    HW132813   2.993   1.137   4.376 -1.1597  0.2811  1.3855
 7059SOL    HW232814   3.136   1.111   4.375  1.4208  1.3127  0.6862
 7060SOL     OW32815   4.188   1.575  16.331  0.2094  0.4872  0.2939
 7060SOL    HW132816   4.097   1.601  16.344  0.1529  1.2874 -1.7347
 7060SOL    HW232817   4.176   1.489  16.292  0.5304 -0.1301  1.5501
 7061SOL     OW32818   1.892   0.777   4.482  0.3117 -0.1425  0.3342
 7061SOL    HW132819   1.981   0.794   4.452  0.0944 -2.3253 -1.5302
 7061SOL    HW232820   1.850   0.859   4.455  1.6837  0.5374  0.2905
 7062SOL     OW32821   1.844   4.661   3.365 -0.0090  0.5396 -0.5065
 7062SOL    HW132822   1.927   4.679   3.409 -0.4565  1.4994 -0.0634
 7062SOL    HW232823   1.821   0.015   3.345 -1.3023 -0.2182 -2.4768
 7063SOL     OW32824   4.723   4.325   4.911 -0.1775  0.2119  0.0103
 7063SOL    HW132825   4.699   4.244   4.865  1.4270 -0.0984 -0.2872
 7063SOL    HW232826   0.081   4.318   4.918 -0.6491 -4.0931  1.9984
 7064SOL     OW32827   3.703   2.308   2.887 -0.4478  0.2220  0.6322
 7064SOL    HW132828   3.729   2.234   2.832  0.8048  3.1126 -2.6591
 7064SOL    HW232829   3.612   2.294   2.913 -0.3058 -1.4260  0.2216
 7065SOL     OW32830   2.791   3.400  11.559 -0.3755 -0.1056  0.3203
 7065SOL    HW132831   2.865   3.415  11.618 -0.4662  3.4969 -0.4585
 7065SOL    HW232832   2.735   3.347  11.617  1.2591  0.0973  2.0675
 7066SOL     OW32833   3.843   0.371   4.272 -0.2240  0.0340 -0.2161
 7066SOL    HW132834   3.838   0.452   4.323 -1.0839 -0.3698  0.3435
 7066SOL    HW232835   3.796   0.394   4.192 -1.8358  0.0349  0.7257
 7067SOL     OW32836   2.167   1.785  16.063 -0.6703  0.0642  0.3055
 7067SOL    HW132837   2.252   1.763  16.026 -0.7423  0.2164  0.0510
 7067SOL    HW232838   2.171   1.881  16.063  1.5948 -0.0455 -0.6880
 7068SOL     OW32839   2.135   4.167   5.924  0.1299 -0.7072  0.4383
 7068SOL    HW132840   2.158   4.178   6.016  0.2357 -0.2233  0.3559
 7068SOL    HW232841   2.099   4.079   5.918 -1.9988  0.2776 -1.0563
 7069SOL     OW32842   3.212   2.384  15.359 -0.4405  0.3089 -0.4386
 7069SOL    HW132843   3.231   2.446  15.429 -1.8721  1.2980 -0.9184
 7069SOL    HW232844   3.123   2.414  15.342 -0.6471 -0.1612 -0.1737
 7070SOL     OW32845   2.128   2.473   5.436 -0.7392 -0.6593 -0.4731
 7070SOL    HW132846   2.144   2.400   5.495  0.0948 -0.2288 -0.1631
 7070SOL    HW232847   2.111   2.542   5.500 -1.8629  0.0555 -1.5412
 7071SOL     OW32848   2.088   3.627   7.972 -0.1425  0.0501 -0.1632
 7071SOL    HW132849   2.094   3.615   7.877 -0.4269  3.3763 -0.5905
 7071SOL    HW232850   2.160   3.568   7.993  0.6529  0.5182 -1.6233
 7072SOL     OW32851   1.364   2.495   9.577 -0.0482  0.1277  0.6411
 7072SOL    HW132852   1.426   2.424   9.561  1.5944  1.2800  2.0008
 7072SOL    HW232853   1.411   2.563   9.530 -1.4672  1.0533  0.5701
 7073SOL     OW32854   4.352   4.310  14.308  0.0915 -0.3897 -0.2152
 7073SOL    HW132855   4.285   4.295  14.241 -0.2469  0.0665  0.0201
 7073SOL    HW232856   4.396   4.228  14.329 -1.7445 -1.5405 -0.9186
 7074SOL     OW32857   2.247   0.745   2.278  0.1585 -0.0500 -0.7650
 7074SOL    HW132858   2.296   0.707   2.205 -1.6468 -1.2921 -1.3479
 7074SOL    HW232859   2.303   0.818   2.303  0.1387  0.1260 -1.2339
 7075SOL     OW32860   0.356   3.659   3.127  0.0982  0.0169  0.3363
 7075SOL    HW132861   0.397   3.582   3.165  0.8843  1.4381  2.3559
 7075SOL    HW232862   0.279   3.664   3.184  0.5607 -0.0356  0.9604
 7076SOL     OW32863   0.167   2.798   4.445 -0.6884 -0.3381 -0.3666
 7076SOL    HW132864   0.081   2.801   4.403 -1.5493  2.1436  1.5332
 7076SOL    HW232865   0.222   2.807   4.367  0.4722 -0.7933  0.4063
 7077SOL     OW32866   4.702   3.171   7.260  0.1239  0.0374  0.6761
 7077SOL    HW132867   4.631   3.212   7.309 -0.3922  0.5378 -0.4792
 7077SOL    HW232868   0.026   3.152   7.331  1.1302  2.2596  0.4155
 7078SOL     OW32869   3.741   3.279   2.803 -0.1761 -0.3429  0.0603
 7078SOL    HW132870   3.673   3.247   2.744  0.3489  0.3749 -0.9190
 7078SOL    HW232871   3.796   3.324   2.739  0.7969 -1.2874  0.2440
 7079SOL     OW32872   1.782   2.025   4.483 -1.2562  0.1638  0.1663
 7079SOL    HW132873   1.804   2.107   4.438  1.5744 -0.6984 -0.0301
 7079SOL    HW232874   1.827   2.033   4.568  1.0267 -1.3536 -0.8973
 7080SOL     OW32875   2.736   2.326  15.981  0.6325  0.1876  0.1797
 7080SOL    HW132876   2.730   2.287  16.069 -0.8905 -4.8141 -2.1350
 7080SOL    HW232877   2.687   2.407  15.992  2.4523  1.2846  0.1406
 7081SOL     OW32878   3.243   2.564  15.564 -0.2466 -0.1516  0.1774
 7081SOL    HW132879   3.157   2.592  15.531 -0.1081 -1.3627 -1.1568
 7081SOL    HW232880   3.231   2.583  15.658 -0.0845  0.6328  0.0445
 7082SOL     OW32881   0.983   4.369   6.563  0.2961  0.2593 -0.0304
 7082SOL    HW132882   0.907   4.366   6.622  1.0654  0.4679  0.9727
 7082SOL    HW232883   1.042   4.300   6.595 -0.3118  0.2639  1.1146
 7083SOL     OW32884   2.431   0.620   1.208 -0.1361 -0.0207  0.1704
 7083SOL    HW132885   2.469   0.542   1.168  0.4225 -0.5949  1.8350
 7083SOL    HW232886   2.502   0.680   1.183  0.4150  0.0517  1.9568
 7084SOL     OW32887   1.399   1.649   0.039 -0.1698  0.2541 -0.0656
 7084SOL    HW132888   1.372   1.712   0.106 -0.9352  0.6466 -0.7320
 7084SOL    HW232889   1.313   1.607   0.041 -0.4802  0.9342  1.0955
 7085SOL     OW32890   0.045   2.582  15.590 -0.2199 -0.1116 -0.0780
 7085SOL    HW132891   4.735   2.573  15.507 -1.5565  6.2288 -0.0145
 7085SOL    HW232892   0.117   2.519  15.582 -0.3098 -0.4612  1.9428
 7086SOL     OW32893   3.746   4.073   8.500  0.3870  0.4744 -0.0930
 7086SOL    HW132894   3.821   4.131   8.489  0.6625 -0.0547 -1.0931
 7086SOL    HW232895   3.722   4.046   8.411  1.7846  1.4513 -0.7589
 7087SOL     OW32896   3.660   4.232  13.682 -0.0278 -0.3658 -0.3585
 7087SOL    HW132897   3.575   4.196  13.657  0.3194 -0.6536 -1.1386
 7087SOL    HW232898   3.643   4.254  13.773 -1.2020  0.3172 -0.7386
 7088SOL     OW32899   2.143   4.011   5.348 -0.0401  0.1039 -0.1501
 7088SOL    HW132900   2.125   4.104   5.361 -1.8188  0.0628 -2.3993
 7088SOL    HW232901   2.189   3.994   5.431 -2.0053  0.5630  1.0426
 7089SOL     OW32902   4.037   4.247   2.757  0.1375 -0.2195  0.1376
 7089SOL    HW132903   4.043   4.154   2.779 -0.8099 -0.5662 -1.0737
 7089SOL    HW232904   4.129   4.272   2.770 -0.3241  0.0488  2.7284
 7090SOL     OW32905   2.230   2.827   2.902 -0.2586 -0.3381 -0.1050
 7090SOL    HW132906   2.198   2.865   2.984  1.0149  0.5852 -0.0346
 7090SOL    HW232907   2.324   2.844   2.906 -0.1678 -0.7516 -0.4995
 7091SOL     OW32908   3.882   1.312  15.598  0.1600  0.3548  0.0783
 7091SOL    HW132909   3.927   1.360  15.668 -2.5164  0.0723  2.0142
 7091SOL    HW232910   3.809   1.271  15.645 -1.1378 -0.8984 -3.0267
 7092SOL     OW32911   1.828   3.831   4.170 -0.5256 -0.1406 -0.0638
 7092SOL    HW132912   1.805   3.865   4.257  0.1821  0.1907 -0.0071
 7092SOL    HW232913   1.886   3.757   4.191  3.3760  3.0909  0.6176
 7093SOL     OW32914   3.827   0.132   5.344  0.2361  0.1508 -0.3974
 7093SOL    HW132915   3.805   0.218   5.309  1.7672 -0.0252 -1.8147
 7093SOL    HW232916   3.902   0.156   5.399 -2.5176  0.1377  3.3961
 7094SOL     OW32917   1.913   4.691   1.483 -0.0759 -0.4110 -0.0476
 7094SOL    HW132918   1.983   4.646   1.530  0.7939  2.5400  1.4592
 7094SOL    HW232919   1.875   0.014   1.547  1.4705  0.3561  0.1450
 7095SOL     OW32920   1.023   0.237   5.043 -0.2498 -0.4736  0.3475
 7095SOL    HW132921   1.116   0.215   5.041 -0.4611 -1.3529  0.2135
 7095SOL    HW232922   0.982   0.195   5.120  2.2450 -3.6630 -0.0676
 7096SOL     OW32923   1.050   0.776   6.690  0.1658 -0.3592  0.0411
 7096SOL    HW132924   1.117   0.826   6.737 -1.3745  1.3783  0.4082
 7096SOL    HW232925   1.076   0.783   6.598  1.3199  0.5281  0.4324
 7097SOL     OW32926   3.470   1.652   5.017  0.1368 -0.7106  0.3239
 7097SOL    HW132927   3.475   1.691   5.105  1.2254 -1.9352  0.7957
 7097SOL    HW232928   3.463   1.727   4.958  1.1597 -0.8266  0.0656
 7098SOL     OW32929   1.540   2.665   5.194  0.7780  0.0464 -0.0718
 7098SOL    HW132930   1.462   2.627   5.154  0.3627 -0.0674  0.8201
 7098SOL    HW232931   1.545   2.613   5.275 -0.9449  0.9024  0.6005
 7099SOL     OW32932   1.317   4.658   8.104 -0.2148  0.4676  0.2312
 7099SOL    HW132933   1.389   4.657   8.167  0.7709  0.8837 -0.8818
 7099SOL    HW232934   1.319   0.013   8.079  0.5221  0.4611  0.2600
 7100SOL     OW32935   3.750   3.845   6.938  0.3888 -0.2769 -0.2735
 7100SOL    HW132936   3.743   3.927   6.987 -1.3813 -0.9875  0.6737
 7100SOL    HW232937   3.677   3.797   6.978  1.6734 -1.9254  0.1005
 7101SOL     OW32938   0.437   0.213   3.182 -0.5096 -0.6081  0.1595
 7101SOL    HW132939   0.435   0.238   3.090 -1.7518 -0.1244  0.3140
 7101SOL    HW232940   0.522   0.169   3.184 -0.6332 -0.8365  0.5141
 7102SOL     OW32941   1.083   3.945   4.006 -0.1125  0.1533 -0.5519
 7102SOL    HW132942   1.045   3.913   4.087 -1.5181  2.2650 -0.3739
 7102SOL    HW232943   1.117   3.861   3.976  1.0875  0.3756  0.1808
 7103SOL     OW32944   2.375   2.909   0.475 -0.0891 -0.3175 -0.2671
 7103SOL    HW132945   2.426   2.952   0.407  0.4837 -0.4484  0.0802
 7103SOL    HW232946   2.453   2.882   0.524 -0.3879 -1.1882 -0.2725
 7104SOL     OW32947   2.420   4.088   3.595  0.8427 -0.5010 -0.0668
 7104SOL    HW132948   2.358   4.079   3.668 -0.0289 -2.6130 -1.0704
 7104SOL    HW232949   2.426   3.994   3.577 -1.9791 -1.2346  2.7803
 7105SOL     OW32950   3.153   0.387   3.681 -0.1119  0.4252 -0.1626
 7105SOL    HW132951   3.141   0.476   3.648  1.7554  0.9570  0.5783
 7105SOL    HW232952   3.247   0.370   3.674 -0.4813 -1.6913 -0.2280
 7106SOL     OW32953   1.299   1.778   8.226  0.2091  0.0049  0.2296
 7106SOL    HW132954   1.341   1.819   8.150  1.5480 -3.5138 -0.9637
 7106SOL    HW232955   1.268   1.851   8.279  1.5136 -0.2467  1.3481
 7107SOL     OW32956   4.100   2.592   5.676 -0.3111  0.0428 -0.3329
 7107SOL    HW132957   4.126   2.532   5.607  2.5786  0.3541  0.5069
 7107SOL    HW232958   4.005   2.604   5.665 -0.5408 -0.5935  1.0560
 7108SOL     OW32959   1.274   4.163   3.027 -0.9617  0.4080 -0.2600
 7108SOL    HW132960   1.317   4.100   2.969 -2.0543 -0.8735  0.3188
 7108SOL    HW232961   1.323   4.243   3.008  0.7279 -1.2548 -2.8148
 7109SOL     OW32962   0.480   0.980   0.214  0.1075  0.2700 -0.3051
 7109SOL    HW132963   0.516   0.997   0.302  1.0843  0.4497 -0.7354
 7109SOL    HW232964   0.445   0.893   0.234  3.0618 -1.5512 -3.0661
 7110SOL     OW32965   1.483   4.005   1.317 -0.1994  0.4837 -0.1299
 7110SOL    HW132966   1.473   3.919   1.359 -0.1596  0.3006 -0.4888
 7110SOL    HW232967   1.502   3.969   1.230 -0.2473 -0.6480  0.3293
 7111SOL     OW32968   0.947   0.572   5.479  0.1164  0.1434  0.2485
 7111SOL    HW132969   0.971   0.480   5.491  0.8645  0.2752 -0.2517
 7111SOL    HW232970   1.023   0.622   5.449  0.5755 -0.7663 -0.0993
 7112SOL     OW32971   3.515   4.006   1.393 -0.4541 -0.4582 -0.3895
 7112SOL    HW132972   3.515   4.024   1.487 -0.3748 -0.4631 -0.3879
 7112SOL    HW232973   3.531   3.911   1.388  0.0423 -0.3460 -0.9002
 7113SOL     OW32974   4.289   0.236  16.310  0.0645 -0.0295  0.7289
 7113SOL    HW132975   4.348   0.222  16.236 -1.1575 -0.0579 -0.2372
 7113SOL    HW232976   4.232   0.311  16.295 -2.9122 -2.1142  1.4132
 7114SOL     OW32977   3.006   0.460  10.038  0.0530  0.1193  0.1117
 7114SOL    HW132978   3.012   0.478  10.132  4.2193 -2.3615  0.3325
 7114SOL    HW232979   2.911   0.458  10.031 -0.0650  0.3260  1.7942
 7115SOL     OW32980   4.172   4.191   1.993 -0.5004  0.1574 -0.2016
 7115SOL    HW132981   4.245   4.253   1.990 -0.4150 -0.0651 -2.3655
 7115SOL    HW232982   4.173   4.152   1.906 -1.3726  2.3748 -1.1935
 7116SOL     OW32983   2.051   0.050   2.286  0.5994 -0.0645  0.5138
 7116SOL    HW132984   2.030   0.090   2.202 -1.4363 -0.8269  0.6620
 7116SOL    HW232985   2.145   0.036   2.276  0.3836  1.6128 -3.8814
 7117SOL     OW32986   3.859   0.706   8.510 -0.7646  0.2922 -0.0408
 7117SOL    HW132987   3.793   0.638   8.496 -0.2804  0.0352 -1.1084
 7117SOL    HW232988   3.807   0.786   8.508  1.0314  1.4149 -1.5237
 7118SOL     OW32989   1.900   0.625  13.645  0.2601  0.4383 -0.3380
 7118SOL    HW132990   1.856   0.674  13.575 -1.0070  0.5021  0.4879
 7118SOL    HW232991   1.892   0.534  13.619  1.5941 -0.2528  1.6892
 7119SOL     OW32992   2.362   0.636   2.569  0.6406 -0.0753 -0.6848
 7119SOL    HW132993   2.338   0.725   2.543 -0.3580  0.0007  0.4851
 7119SOL    HW232994   2.453   0.631   2.540  0.2150 -1.5184 -1.7610
 7120SOL     OW32995   0.729   2.033   2.768 -0.0804 -0.0243 -0.5604
 7120SOL    HW132996   0.680   1.966   2.816 -1.8351  0.8373 -1.1443
 7120SOL    HW232997   0.712   2.004   2.678  0.5407  0.2482 -0.7631
 7121SOL     OW32998   0.443   2.828   2.912 -0.5838 -0.1476 -0.0031
 7121SOL    HW132999   0.474   2.744   2.879  1.3408 -0.0304  1.4991
 7121SOL    HW233000   0.358   2.811   2.953 -1.0466 -0.9166 -1.2884
 7122SOL     OW33001   2.290   3.783   1.971  0.4226 -0.0148 -0.3442
 7122SOL    HW133002   2.385   3.794   1.983  0.5062 -1.9166  0.7654
 7122SOL    HW233003   2.252   3.862   2.008 -1.2980 -0.5646 -0.9346
 7123SOL     OW33004   4.700   4.565  14.997  0.2235 -1.0179 -0.3216
 7123SOL    HW133005   0.032   4.506  14.967  0.0853 -0.8917 -0.8725
 7123SOL    HW233006   4.730   4.652  14.973  1.4878 -0.8495  1.8229
 7124SOL     OW33007   0.940   4.393   7.722  0.7219 -0.3130  0.3537
 7124SOL    HW133008   0.970   4.453   7.790 -0.3568 -0.3385  0.8568
 7124SOL    HW233009   0.875   4.339   7.767  0.5865 -0.1328  0.3743
 7125SOL     OW33010   4.500   0.315   8.759  0.3842  0.2086 -0.1906
 7125SOL    HW133011   4.589   0.288   8.739  0.1058 -0.6108 -0.3613
 7125SOL    HW233012   4.501   0.402   8.719 -0.2144 -0.1996 -1.0993
 7126SOL     OW33013   0.788   2.000   0.095 -0.3089 -0.0073  0.3306
 7126SOL    HW133014   0.730   2.006   0.019  0.1164 -0.2560 -0.0089
 7126SOL    HW233015   0.816   2.090   0.111 -2.1185  0.4386  0.9582
 7127SOL     OW33016   3.221   4.601   5.916  0.6275 -0.3909 -0.3044
 7127SOL    HW133017   3.180   4.687   5.906  0.8376 -0.2605 -0.0598
 7127SOL    HW233018   3.278   4.618   5.991 -2.4517 -0.3273  2.0401
 7128SOL     OW33019   4.658   3.584   4.560  0.5994 -0.2504  0.2343
 7128SOL    HW133020   4.563   3.580   4.545  0.3482  1.1365  1.5054
 7128SOL    HW233021   4.676   3.495   4.590 -1.1373  0.1872  2.5076
 7129SOL     OW33022   3.059   1.606   5.758  0.1020 -0.4625  0.2914
 7129SOL    HW133023   3.027   1.696   5.749  1.8534  0.3268  1.7797
 7129SOL    HW233024   2.981   1.577   5.806  0.4922  0.8334  1.7267
 7130SOL     OW33025   2.364   1.089  10.345 -0.3942 -0.1375 -0.5840
 7130SOL    HW133026   2.447   1.136  10.356 -0.5468  0.2833 -1.1828
 7130SOL    HW233027   2.365   1.030  10.420 -2.4587  0.6207  0.0351
 7131SOL     OW33028   2.774   2.345   4.618  0.1894  0.4951 -0.3058
 7131SOL    HW133029   2.726   2.368   4.698  2.1687  1.6347  0.5323
 7131SOL    HW233030   2.840   2.282   4.647 -0.5401 -0.1407 -0.0121
 7132SOL     OW33031   0.075   1.898   5.424 -0.1459  0.6684  0.3230
 7132SOL    HW133032   0.165   1.893   5.390  0.4393  4.5418  1.4029
 7132SOL    HW233033   0.076   1.856   5.511  3.8226  2.3286  1.0817
 7133SOL     OW33034   0.098   0.638  11.613 -0.5512  0.4665 -0.4321
 7133SOL    HW133035   0.071   0.611  11.525  0.8246 -1.6230 -0.2096
 7133SOL    HW233036   0.033   0.587  11.660  1.4466 -2.2170 -0.5957
 7134SOL     OW33037   3.072   3.032   1.922  0.1803  0.3988 -0.1503
 7134SOL    HW133038   3.167   3.022   1.915  0.2990  0.9691  0.7250
 7134SOL    HW233039   3.074   3.095   1.993  2.0331  1.3513 -1.0378
 7135SOL     OW33040   0.914   4.027   0.890 -0.8977  0.6516 -0.7270
 7135SOL    HW133041   0.914   4.063   0.979 -1.8243 -1.3502  0.0753
 7135SOL    HW233042   0.963   3.945   0.897 -0.1114  1.2214  0.3465
 7136SOL     OW33043   1.830   4.481   5.144  0.6002  0.7128 -0.2956
 7136SOL    HW133044   1.868   4.406   5.189  0.3927  1.2219  0.7529
 7136SOL    HW233045   1.751   4.499   5.196  0.5843  1.8103 -0.7069
 7137SOL     OW33046   1.883   2.189   3.550  0.4115 -0.3163 -0.4723
 7137SOL    HW133047   1.790   2.180   3.526  0.2441 -0.7839  0.3571
 7137SOL    HW233048   1.924   2.182   3.463  0.4854 -1.0041 -0.3826
 7138SOL     OW33049   0.375   0.471   6.127 -0.2928 -0.2109 -0.7271
 7138SOL    HW133050   0.380   0.491   6.033 -2.5341 -0.1757 -0.8282
 7138SOL    HW233051   0.453   0.417   6.140 -0.2789 -0.5508 -2.1637
 7139SOL     OW33052   4.205   4.348   1.474  0.0262  0.1287  0.1514
 7139SOL    HW133053   4.296   4.326   1.454 -0.2814 -1.0442  0.0303
 7139SOL    HW233054   4.160   4.301   1.404  0.2529 -0.1434  0.1889
 7140SOL     OW33055   4.682   1.229   4.824  0.1056  0.0517 -0.5671
 7140SOL    HW133056   4.648   1.209   4.911  1.1762  0.0286 -0.1577
 7140SOL    HW233057   4.639   1.165   4.768 -2.6506  0.0620  1.5478
 7141SOL     OW33058   0.359   4.020  11.034  0.3593  0.1490 -0.1047
 7141SOL    HW133059   0.297   4.092  11.028  0.1418 -0.0501 -0.2436
 7141SOL    HW233060   0.438   4.068  11.009  1.6079 -1.7181  0.2867
 7142SOL     OW33061   1.393   0.071  11.745  0.6270 -0.1451 -0.8815
 7142SOL    HW133062   1.468   0.087  11.803 -0.8840 -1.3255  1.3803
 7142SOL    HW233063   1.323   0.096  11.805 -0.4847 -0.9037 -1.8590
 7143SOL     OW33064   0.692   0.013   3.523 -0.8271  0.0955  0.1842
 7143SOL    HW133065   0.727   0.016   3.434  2.8685  0.9222  1.6778
 7143SOL    HW233066   0.664   4.659   3.519 -0.0520 -0.2268  2.1109
 7144SOL     OW33067   1.884   1.830  14.038 -0.0552 -0.2238 -0.2524
 7144SOL    HW133068   1.807   1.839  13.982  0.0644  1.1557 -0.1835
 7144SOL    HW233069   1.878   1.913  14.085  0.4583  0.5556 -1.5415
 7145SOL     OW33070   2.593   3.366   7.019  0.3683 -0.5027 -0.2465
 7145SOL    HW133071   2.565   3.356   6.928  1.9443  0.0714 -0.8074
 7145SOL    HW233072   2.514   3.338   7.064 -1.1692  0.4490 -2.3489
 7146SOL     OW33073   1.409   0.527   8.090  0.0784  0.4471  0.3792
 7146SOL    HW133074   1.472   0.459   8.065 -0.6451  0.2346 -0.8694
 7146SOL    HW233075   1.447   0.597   8.037  0.4123  0.3054  0.4279
 7147SOL     OW33076   2.426   4.120   2.548  0.0868  0.0547 -0.3606
 7147SOL    HW133077   2.431   4.094   2.640 -0.7556  0.6961 -0.1326
 7147SOL    HW233078   2.339   4.082   2.533 -0.2896  1.3233 -1.3688
 7148SOL     OW33079   3.499   1.887   4.103  0.7619  0.5352 -0.0848
 7148SOL    HW133080   3.582   1.846   4.126 -0.0932 -1.3648 -0.3835
 7148SOL    HW233081   3.464   1.819   4.046 -0.1299  1.0339 -0.1344
 7149SOL     OW33082   1.184   3.549   6.690  0.6112  0.1724  0.7452
 7149SOL    HW133083   1.160   3.467   6.648 -1.5145  1.7527 -1.1386
 7149SOL    HW233084   1.122   3.611   6.650  0.3543 -0.9040 -0.5003
 7150SOL     OW33085   0.832   4.585  11.955  0.2008  0.0694  0.0957
 7150SOL    HW133086   0.907   4.563  12.011 -1.4920  2.1510  3.1587
 7150SOL    HW233087   0.808   4.501  11.917  0.0755  0.0410  0.2402
 7151SOL     OW33088   1.129   3.207   5.192  0.9654 -0.5291 -0.5112
 7151SOL    HW133089   1.056   3.251   5.150  0.1547 -1.0010  0.4082
 7151SOL    HW233090   1.207   3.222   5.138  2.1985 -0.6487  1.2311
 7152SOL     OW33091   1.309   2.118   2.244  0.1840 -0.5189  0.1132
 7152SOL    HW133092   1.282   2.107   2.335 -0.0177 -2.3628 -0.1768
 7152SOL    HW233093   1.239   2.179   2.221  1.1142  0.4728 -0.1297
 7153SOL     OW33094   0.851   1.003   4.422 -0.4477 -0.0267 -0.6819
 7153SOL    HW133095   0.786   1.072   4.425  0.9385  1.2973 -1.1183
 7153SOL    HW233096   0.907   1.038   4.492  0.4240  1.8414 -2.3104
 7154SOL     OW33097   3.422   1.159   0.979 -0.2279 -0.3688 -0.0180
 7154SOL    HW133098   3.473   1.086   0.944  0.3760  0.6144 -1.1624
 7154SOL    HW233099   3.404   1.216   0.904  1.2483 -0.5986 -0.5449
 7155SOL     OW33100   1.477   3.805   2.976 -0.7925  0.0857 -0.2476
 7155SOL    HW133101   1.424   3.875   2.938 -0.6094  1.0427  1.2514
 7155SOL    HW233102   1.473   3.814   3.071  1.4000 -1.1493 -0.0395
 7156SOL     OW33103   2.147   2.219   7.384 -0.5499  0.7916  0.0376
 7156SOL    HW133104   2.069   2.189   7.431 -0.0265 -1.6315 -0.6494
 7156SOL    HW233105   2.155   2.308   7.419 -0.1529  0.3966  0.9648
 7157SOL     OW33106   1.684   1.712  12.358 -0.3862 -0.6308 -0.2502
 7157SOL    HW133107   1.598   1.753  12.366 -0.1200 -0.0171 -0.6228
 7157SOL    HW233108   1.701   1.695  12.451 -0.0641 -0.9778 -0.3702
 7158SOL     OW33109   4.222   2.855   4.564  0.2621 -0.1034  0.1350
 7158SOL    HW133110   4.176   2.896   4.490  2.2366  2.1862  0.1543
 7158SOL    HW233111   4.309   2.831   4.531  0.4696 -0.4438  0.9278
 7159SOL     OW33112   3.868   0.663   1.962 -0.0931  0.0644 -0.2177
 7159SOL    HW133113   3.960   0.672   1.989  0.1820 -0.8931 -0.8446
 7159SOL    HW233114   3.863   0.739   1.904  0.8639  1.5917  1.6655
 7160SOL     OW33115   1.586   3.041  12.450 -0.2710 -0.0493 -0.0769
 7160SOL    HW133116   1.657   2.989  12.487 -2.5390 -1.6357  2.0927
 7160SOL    HW233117   1.601   3.047  12.356 -0.2179  1.1999  0.0149
 7161SOL     OW33118   3.420   1.051   5.958  0.3752  0.0391 -0.1850
 7161SOL    HW133119   3.492   1.114   5.961 -0.6277  1.2324 -1.4739
 7161SOL    HW233120   3.369   1.088   5.886 -0.8876  1.6524  1.5406
 7162SOL     OW33121   4.607   0.071   0.803  0.5429  0.0355 -0.4372
 7162SOL    HW133122   4.597   0.133   0.731 -1.0539 -0.7078 -0.8364
 7162SOL    HW233123   4.645   0.000   0.751  1.1931 -0.8907  1.2833
 7163SOL     OW33124   0.598   1.469   7.294  0.4528  0.6411  0.4645
 7163SOL    HW133125   0.657   1.517   7.351 -0.7825  0.0157  2.2736
 7163SOL    HW233126   0.550   1.423   7.363 -1.7246  1.2560 -0.6339
 7164SOL     OW33127   3.733   0.912   6.705  0.3136  0.4164 -0.3840
 7164SOL    HW133128   3.649   0.917   6.660 -1.3069  1.7000  2.7498
 7164SOL    HW233129   3.732   0.999   6.747  1.1006 -0.2250  0.9521
 7165SOL     OW33130   0.644   1.701  14.842 -0.1638  0.5849 -0.1441
 7165SOL    HW133131   0.703   1.683  14.770 -0.7421 -1.1956 -0.1801
 7165SOL    HW233132   0.704   1.743  14.904  0.2961  0.6341 -0.6289
 7166SOL     OW33133   1.641   4.252  17.117  0.5172  0.4730  0.1674
 7166SOL    HW133134   1.579   4.184  17.090  0.5042  0.7690 -0.5364
 7166SOL    HW233135   1.635   4.310  17.041 -0.7709 -1.0520 -0.9076
 7167SOL     OW33136   3.815   2.982   4.323 -0.0142 -0.1281 -0.3810
 7167SOL    HW133137   3.740   3.005   4.377  1.7355  1.3357  1.4518
 7167SOL    HW233138   3.814   2.887   4.312 -2.5391 -0.0295 -0.8344
 7168SOL     OW33139   3.417   2.616   6.102 -0.0013  0.2448  0.2603
 7168SOL    HW133140   3.412   2.678   6.030  0.3349 -2.5883 -2.2003
 7168SOL    HW233141   3.508   2.623   6.130  0.2532 -1.4117 -0.1206
 7169SOL     OW33142   2.758   0.767   6.967 -0.1670  0.2250 -0.0545
 7169SOL    HW133143   2.813   0.754   7.045 -0.1196  1.6279  0.1605
 7169SOL    HW233144   2.815   0.736   6.897  0.4029  1.0074  0.0598
 7170SOL     OW33145   2.281   3.248   5.502 -0.2037 -0.1330 -0.6223
 7170SOL    HW133146   2.372   3.273   5.515 -0.2688  0.7149 -1.7778
 7170SOL    HW233147   2.261   3.180   5.567 -0.1846  4.0904  3.7815
 7171SOL     OW33148   0.503   3.141   6.574 -0.5683  0.0442  0.1809
 7171SOL    HW133149   0.457   3.070   6.618 -0.7124 -0.6270 -1.0682
 7171SOL    HW233150   0.442   3.168   6.505  0.5218  1.1755 -0.3450
 7172SOL     OW33151   0.386   1.725   3.051 -0.7537 -0.0152 -0.7443
 7172SOL    HW133152   0.296   1.693   3.041 -0.5428 -2.1439  3.9785
 7172SOL    HW233153   0.428   1.645   3.083 -0.6758  0.8636  1.3730
 7173SOL     OW33154   0.771   3.050  12.760 -0.3578 -0.4262  0.3215
 7173SOL    HW133155   0.724   3.040  12.677 -0.5529 -1.0526  0.5135
 7173SOL    HW233156   0.714   3.106  12.813  0.2027  1.3984 -0.9877
 7174SOL     OW33157   2.961   0.539   2.588  0.3543  0.3628  0.2586
 7174SOL    HW133158   2.988   0.580   2.505  1.9163 -0.5668  0.3111
 7174SOL    HW233159   2.998   0.453   2.567 -0.1018 -0.5803  3.3605
 7175SOL     OW33160   0.469   1.790   1.785 -0.0369 -0.6437 -0.1958
 7175SOL    HW133161   0.500   1.717   1.838 -0.4126  0.1805  1.1823
 7175SOL    HW233162   0.517   1.863   1.824  0.1340  0.1139 -1.8454
 7176SOL     OW33163   2.944   1.854  14.274 -0.5425 -0.1369  0.9462
 7176SOL    HW133164   3.017   1.813  14.228  0.0854  3.1777 -1.0126
 7176SOL    HW233165   2.989   1.924  14.321 -0.3477  1.5763 -1.7918
 7177SOL     OW33166   0.723   4.369   5.723  0.3099 -0.1264  0.4401
 7177SOL    HW133167   0.781   4.443   5.708 -0.1736  0.0539 -0.5012
 7177SOL    HW233168   0.786   4.298   5.739 -1.2128 -1.6043 -0.0435
 7178SOL     OW33169   1.111   0.014   8.625 -0.2751  0.7319 -0.2787
 7178SOL    HW133170   1.195   0.049   8.596  1.6154 -1.1083  3.0036
 7178SOL    HW233171   1.091   0.049   8.711  0.2614  0.3717 -0.0013
 7179SOL     OW33172   4.054   4.237  14.275 -0.1327 -0.2061  0.0284
 7179SOL    HW133173   4.007   4.315  14.304 -0.3656 -0.0382 -0.8274
 7179SOL    HW233174   4.063   4.195  14.361 -1.4800  0.7678  0.6460
 7180SOL     OW33175   1.765   3.099  12.129 -0.6490  0.2618 -0.5390
 7180SOL    HW133176   1.833   3.055  12.078  0.9718  1.8114  0.2562
 7180SOL    HW233177   1.793   3.078  12.218 -0.2814  1.4369 -0.3645
 7181SOL     OW33178   0.861   0.391   8.922  0.2435 -0.0591 -0.6209
 7181SOL    HW133179   0.820   0.332   8.858  2.4388 -1.7686 -0.4605
 7181SOL    HW233180   0.835   0.480   8.898  0.5692  0.0689 -0.4994
 7182SOL     OW33181   2.024   2.798   4.481  0.6003 -0.0464  0.1242
 7182SOL    HW133182   1.942   2.842   4.459  0.4740  0.0378  0.7583
 7182SOL    HW233183   2.012   2.790   4.576  2.7965 -0.5095  0.3646
 7183SOL     OW33184   0.776   0.954  14.296 -0.3331 -0.6246  0.1060
 7183SOL    HW133185   0.800   0.871  14.253  1.3092 -0.3061  0.4394
 7183SOL    HW233186   0.829   1.015  14.245 -1.2569 -0.1572 -0.2929
 7184SOL     OW33187   0.317   2.277  14.905 -0.1395 -0.3734  0.4237
 7184SOL    HW133188   0.310   2.359  14.954  2.6361 -0.0311  0.2306
 7184SOL    HW233189   0.371   2.298  14.829 -0.9524  0.8943  0.1938
 7185SOL     OW33190   1.811   1.291   7.822  0.4287  0.1593 -0.0528
 7185SOL    HW133191   1.898   1.331   7.819  0.4094  0.1904 -0.1970
 7185SOL    HW233192   1.797   1.291   7.917 -1.5220  0.5579 -0.3542
 7186SOL     OW33193   2.977   0.956  11.587 -0.0664 -0.7761  0.4039
 7186SOL    HW133194   2.974   1.007  11.669 -1.7397 -1.1541  0.5828
 7186SOL    HW233195   2.941   1.019  11.524  0.2319  0.6808  1.6833
 7187SOL     OW33196   3.619   0.800  15.794 -0.3103  0.2621 -0.3855
 7187SOL    HW133197   3.618   0.793  15.699  2.3128  2.0242 -0.5411
 7187SOL    HW233198   3.656   0.888  15.799 -1.2438  0.6454 -0.1595
 7188SOL     OW33199   0.304   3.945   2.443  0.1249 -0.0522  0.1323
 7188SOL    HW133200   0.211   3.926   2.430 -0.1645 -0.1936  2.4315
 7188SOL    HW233201   0.325   3.892   2.520  0.0983  0.1742  0.2930
 7189SOL     OW33202   1.131   3.877   2.852 -0.3361  0.5552  0.3316
 7189SOL    HW133203   1.056   3.850   2.799 -0.2099 -0.0550  0.4635
 7189SOL    HW233204   1.148   3.789   2.885  0.6124  0.8583  0.6471
 7190SOL     OW33205   0.819   1.910   5.462  0.0076 -0.2240  0.0725
 7190SOL    HW133206   0.741   1.931   5.514  1.2683  1.0380  1.4461
 7190SOL    HW233207   0.792   1.820   5.441  0.6332 -0.2987 -0.4148
 7191SOL     OW33208   2.146   3.039  16.551  0.2284 -0.3915 -0.3100
 7191SOL    HW133209   2.194   3.122  16.550 -0.7462  0.1570 -1.9935
 7191SOL    HW233210   2.213   2.980  16.586 -1.7739 -3.0841 -1.0092
 7192SOL     OW33211   3.143   3.445   9.652 -0.4829 -0.7826  0.2330
 7192SOL    HW133212   3.172   3.375   9.594  0.8580  1.1608 -1.4558
 7192SOL    HW233213   3.076   3.407   9.708  1.4500  0.1571  3.2434
 7193SOL     OW33214   3.132   2.157   7.880  0.1709  0.2189  0.5541
 7193SOL    HW133215   3.125   2.095   7.807 -0.1831  2.9094 -1.6741
 7193SOL    HW233216   3.071   2.222   7.846  1.2071  1.4336  1.0296
 7194SOL     OW33217   0.458   0.517   1.681 -0.0009  0.4963  0.4758
 7194SOL    HW133218   0.485   0.444   1.738 -2.3716 -2.2386 -1.9301
 7194SOL    HW233219   0.363   0.513   1.675  0.1308 -0.8756 -0.6972
 7195SOL     OW33220   3.707   1.788  13.540  0.0132  0.2087 -0.1062
 7195SOL    HW133221   3.687   1.785  13.633  1.7617  1.2620  0.3021
 7195SOL    HW233222   3.797   1.758  13.555 -0.0594 -0.2254 -0.5039
 7196SOL     OW33223   1.198   1.758   7.856  0.6265  0.0680  0.6495
 7196SOL    HW133224   1.278   1.803   7.885  0.4768  0.4617  0.4506
 7196SOL    HW233225   1.228   1.668   7.870  1.8228  0.5166  1.0366
 7197SOL     OW33226   0.076   2.242   7.186  0.1800  0.2739 -0.7080
 7197SOL    HW133227   0.014   2.305   7.224  2.7073  2.5079 -0.3039
 7197SOL    HW233228   0.015   2.171   7.166  0.2640  0.2686 -0.9478
 7198SOL     OW33229   4.234   3.992  15.997  0.4416  0.4137  0.2457
 7198SOL    HW133230   4.147   3.952  16.000  0.4770  0.0846 -2.7824
 7198SOL    HW233231   4.279   3.948  16.069  2.3236 -1.0402 -1.7922
 7199SOL     OW33232   2.277   1.820   6.271  0.0999  0.3630  0.1542
 7199SOL    HW133233   2.356   1.846   6.223 -1.2704  0.7593 -1.9043
 7199SOL    HW233234   2.306   1.820   6.362  1.8742 -1.5082 -0.4027
 7200SOL     OW33235   0.277   2.167  10.494 -0.6644 -0.0503 -0.4564
 7200SOL    HW133236   0.358   2.181  10.542 -1.3455  2.6442 -0.0696
 7200SOL    HW233237   0.295   2.129  10.409 -0.6268  0.9438 -0.8909
 7201SOL     OW33238   1.652   4.460   4.937  0.3551 -0.9310  0.1101
 7201SOL    HW133239   1.697   4.530   4.984  1.3061 -1.4184 -0.0656
 7201SOL    HW233240   1.720   4.394   4.948  0.3614 -0.6894  1.5651
 7202SOL     OW33241   0.924   4.147  17.532  0.1483  0.2313  0.3707
 7202SOL    HW133242   0.882   4.066  17.503  0.1336  0.3779 -0.0051
 7202SOL    HW233243   0.864   4.216  17.505  0.5970  0.2099 -0.6843
 7203SOL     OW33244   2.256   0.488  13.523 -0.0076 -0.4716  0.2700
 7203SOL    HW133245   2.207   0.566  13.553  1.8027  0.7463  0.0512
 7203SOL    HW233246   2.277   0.449  13.608  1.1719  0.8460  0.5798
 7204SOL     OW33247   4.480   1.661   5.857  0.0060  0.2888  0.4294
 7204SOL    HW133248   4.543   1.619   5.800 -0.8385  0.3479 -0.5459
 7204SOL    HW233249   4.419   1.704   5.797  0.8978 -0.3632 -0.9178
 7205SOL     OW33250   3.489   2.782   4.484  0.0444 -0.0913 -0.3389
 7205SOL    HW133251   3.407   2.773   4.436 -0.9916  0.0621  1.4184
 7205SOL    HW233252   3.513   2.692   4.509  1.8424  0.8957  1.4763
 7206SOL     OW33253   2.705   1.233   1.575  0.8240  0.0011 -0.0454
 7206SOL    HW133254   2.709   1.150   1.529 -1.6882  0.4797 -1.1494
 7206SOL    HW233255   2.697   1.289   1.498 -1.5556 -1.8156 -1.1084
 7207SOL     OW33256   3.727   0.513   7.016 -0.1266  0.2654 -0.4478
 7207SOL    HW133257   3.682   0.491   7.097 -2.7467  0.8541 -1.7493
 7207SOL    HW233258   3.691   0.600   6.999  1.2068  1.1672  1.3237
 7208SOL     OW33259   0.846   2.457  17.652  0.5857 -0.1132 -1.0505
 7208SOL    HW133260   0.808   2.378  17.614 -0.6975 -0.0905  0.2060
 7208SOL    HW233261   0.772   2.502  17.693 -0.4918 -1.4619 -1.5258
 7209SOL     OW33262   2.383   3.621   6.237 -0.1519 -0.1194 -0.7442
 7209SOL    HW133263   2.291   3.619   6.209 -0.3049  0.6376 -0.2995
 7209SOL    HW233264   2.379   3.707   6.279 -2.6547 -1.0088  0.8375
 7210SOL     OW33265   0.537   3.349   2.786 -0.1607 -0.7469 -0.0515
 7210SOL    HW133266   0.571   3.260   2.794  0.5350 -0.5147 -0.3912
 7210SOL    HW233267   0.457   3.348   2.838  0.1038  1.4316  0.4322
 7211SOL     OW33268   2.991   1.322  15.074 -0.2644 -0.7171  0.5175
 7211SOL    HW133269   2.942   1.267  15.012  1.7219 -0.8771 -0.9035
 7211SOL    HW233270   2.929   1.328  15.147 -1.3618  1.8845 -0.6151
 7212SOL     OW33271   1.505   1.727   7.215 -0.2140 -0.1409  0.2261
 7212SOL    HW133272   1.479   1.805   7.165  1.6964  0.1807 -0.2468
 7212SOL    HW233273   1.596   1.705   7.200 -0.0966  0.4449  0.0620
 7213SOL     OW33274   2.378   3.435  15.247  0.2186 -0.1282 -0.2134
 7213SOL    HW133275   2.290   3.426  15.211  0.2684 -1.2199 -0.0518
 7213SOL    HW233276   2.425   3.487  15.182  0.1501 -0.0711 -0.2181
 7214SOL     OW33277   0.133   1.296   0.136 -0.0567  0.3762 -0.6716
 7214SOL    HW133278   0.222   1.267   0.157 -0.8875 -3.5767 -2.5654
 7214SOL    HW233279   0.081   1.230   0.182  1.9093 -0.0224  0.9676
 7215SOL     OW33280   4.477   3.996   7.425 -0.1533 -0.3597 -0.2316
 7215SOL    HW133281   4.521   4.025   7.345 -2.2970  0.1015 -1.2713
 7215SOL    HW233282   4.464   3.903   7.409  1.2580 -0.3867 -1.2205
 7216SOL     OW33283   1.405   3.113  17.413  0.4434 -0.0709 -0.0371
 7216SOL    HW133284   1.479   3.165  17.444  0.9364 -0.6444 -0.2827
 7216SOL    HW233285   1.357   3.071  17.484 -2.3023  0.0436 -1.7914
 7217SOL     OW33286   4.465   4.616  17.612 -0.1701 -0.3921  0.3278
 7217SOL    HW133287   4.511   4.571  17.684  0.3594 -0.4882 -0.0687
 7217SOL    HW233288   4.525   4.600  17.540 -0.5853  0.0110 -0.1025
 7218SOL     OW33289   1.435   4.351   4.158 -0.2315  0.3549  0.1504
 7218SOL    HW133290   1.527   4.340   4.135 -0.7200 -1.0885 -1.0752
 7218SOL    HW233291   1.417   4.274   4.211 -0.5236 -0.4649 -1.1558
 7219SOL     OW33292   1.480   2.874   2.018  0.2091 -0.1694 -0.0266
 7219SOL    HW133293   1.508   2.906   2.103  0.1138  0.8055 -0.3508
 7219SOL    HW233294   1.446   2.961   1.993  4.4544  1.6591  0.5630
 7220SOL     OW33295   0.194   2.627   8.974 -0.4546  0.3378 -0.3779
 7220SOL    HW133296   0.223   2.584   8.894  0.7121 -0.0238  0.2356
 7220SOL    HW233297   0.244   2.576   9.038 -0.9633  0.1955 -0.0876
 7221SOL     OW33298   4.727   1.002   2.007 -0.1785  0.0376 -0.3926
 7221SOL    HW133299   4.642   0.970   2.036 -0.1485  0.5271  0.2299
 7221SOL    HW233300   0.033   0.917   2.014  1.0524  0.7155  0.1342
 7222SOL     OW33301   3.431   4.200   3.078  0.0892 -0.6016 -0.2863
 7222SOL    HW133302   3.509   4.233   3.122  0.2199  0.0906 -1.0360
 7222SOL    HW233303   3.462   4.187   2.988  1.6810 -3.5518  0.6731
 7223SOL     OW33304   2.065   4.093  12.351  0.7654  0.0011 -0.1941
 7223SOL    HW133305   2.073   4.064  12.441 -0.8081  1.2363  0.3562
 7223SOL    HW233306   1.977   4.062  12.327 -0.4607  2.1083  1.5589
 7224SOL     OW33307   0.181   3.433   6.594  0.3497  0.8821 -0.3921
 7224SOL    HW133308   0.257   3.434   6.652  1.1055  2.2828 -1.4169
 7224SOL    HW233309   0.162   3.339   6.590 -1.1121  1.1176  1.0988
 7225SOL     OW33310   0.731   0.956   7.749 -0.0873 -0.4197  0.6365
 7225SOL    HW133311   0.705   0.987   7.663  0.5533 -2.7447 -0.4110
 7225SOL    HW233312   0.822   0.987   7.753  0.3683 -1.8634  1.5689
 7226SOL     OW33313   3.917   3.053  10.547  0.0265 -0.1433  0.2112
 7226SOL    HW133314   3.849   3.053  10.615 -0.2645  1.9694 -0.0941
 7226SOL    HW233315   3.902   2.966  10.511 -1.1813  0.9533 -1.9344
 7227SOL     OW33316   2.736   1.947   0.970  0.2316  0.4123  0.6011
 7227SOL    HW133317   2.808   1.899   1.012 -0.0334 -1.1673 -0.7470
 7227SOL    HW233318   2.784   1.980   0.894 -0.1258  0.0397  0.2158
 7228SOL     OW33319   2.662   0.775   1.068  0.3950 -0.5492  0.0603
 7228SOL    HW133320   2.644   0.720   0.993 -0.2654 -0.7969  0.4048
 7228SOL    HW233321   2.677   0.863   1.033  2.0546  0.0249  2.1779
 7229SOL     OW33322   2.308   4.503  11.732  0.1272 -0.2191  0.1309
 7229SOL    HW133323   2.312   4.523  11.825 -0.1143 -0.8986  0.2827
 7229SOL    HW233324   2.326   4.588  11.691  1.7598 -0.6503 -0.0442
 7230SOL     OW33325   1.648   1.947   4.246  0.7290 -0.7946 -0.7262
 7230SOL    HW133326   1.686   2.035   4.234 -0.5047  0.0919  2.0362
 7230SOL    HW233327   1.696   1.916   4.322  0.4194 -2.8060 -1.3459
 7231SOL     OW33328   0.602   3.384  10.952 -0.4369  0.0325 -0.0151
 7231SOL    HW133329   0.662   3.459  10.954 -2.9980  2.1725 -2.5325
 7231SOL    HW233330   0.604   3.367  10.858 -0.4905  1.3054 -0.2562
 7232SOL     OW33331   1.870   0.264   3.032 -0.2962  0.1361 -0.4884
 7232SOL    HW133332   1.852   0.280   3.125 -0.7476 -1.0091 -0.3691
 7232SOL    HW233333   1.929   0.334   3.005 -0.8708  0.1837 -1.6248
 7233SOL     OW33334   3.063   1.257   1.330  0.1708  0.4432 -0.2143
 7233SOL    HW133335   3.154   1.233   1.312  0.7722  1.8028  1.0673
 7233SOL    HW233336   3.066   1.297   1.416 -1.1559  1.4735 -0.6560
 7234SOL     OW33337   4.268   3.958   1.514 -0.2710 -0.6265 -0.0707
 7234SOL    HW133338   4.205   3.909   1.567  1.2639 -3.3070 -0.7188
 7234SOL    HW233339   4.344   3.901   1.514  0.3552  0.2573 -3.7499
 7235SOL     OW33340   0.514   1.954   8.652  0.4375  0.5469  0.2345
 7235SOL    HW133341   0.552   1.997   8.728 -0.7760  0.5525  0.8461
 7235SOL    HW233342   0.527   2.019   8.583 -0.5337  3.6858  3.0175
 7236SOL     OW33343   3.355   1.032   0.516 -0.4408  0.1400  0.6355
 7236SOL    HW133344   3.412   1.086   0.461 -2.4148 -0.1226 -1.6412
 7236SOL    HW233345   3.305   1.107   0.549  1.1536  1.6767 -0.4461
 7237SOL     OW33346   1.484   1.224   4.407 -0.3932 -0.3449 -0.3775
 7237SOL    HW133347   1.404   1.276   4.404  0.3368  0.8349  0.7890
 7237SOL    HW233348   1.543   1.283   4.360 -0.9880  0.2848 -0.3233
 7238SOL     OW33349   3.936   2.278   8.906  0.5847  0.1620  0.2170
 7238SOL    HW133350   4.022   2.279   8.864  0.4763 -0.4333 -0.0170
 7238SOL    HW233351   3.899   2.190   8.905 -2.9226  1.6280 -0.0208
 7239SOL     OW33352   0.864   0.400   7.478  0.0043 -0.3149 -0.1913
 7239SOL    HW133353   0.806   0.345   7.426 -0.4334 -1.2005  1.2432
 7239SOL    HW233354   0.868   0.470   7.413  1.9837  0.3265  0.6293
 7240SOL     OW33355   0.605   1.469   4.450  0.1323 -0.4471 -0.2453
 7240SOL    HW133356   0.524   1.481   4.500 -0.6091  1.8502 -2.0361
 7240SOL    HW233357   0.576   1.502   4.365 -0.9734  1.9999  1.0948
 7241SOL     OW33358   1.533   0.832   3.541 -0.2273 -0.5564 -0.3663
 7241SOL    HW133359   1.486   0.914   3.526 -0.2831 -0.4122  0.5832
 7241SOL    HW233360   1.459   0.771   3.544  0.9727 -2.0161  0.1114
 7242SOL     OW33361   2.735   4.187   9.897 -0.4884 -0.1064 -0.3726
 7242SOL    HW133362   2.732   4.278   9.927 -1.0803  0.8250 -3.2952
 7242SOL    HW233363   2.675   4.148   9.961 -1.9930  1.2145 -0.9719
 7243SOL     OW33364   4.428   3.132   4.145  0.3629 -0.4390 -0.2365
 7243SOL    HW133365   4.484   3.140   4.069 -0.3477  0.0531 -0.7041
 7243SOL    HW233366   4.343   3.113   4.104 -0.0173  1.2609 -0.2372
 7244SOL     OW33367   1.175   1.001  14.024 -0.6869  0.0074  0.5626
 7244SOL    HW133368   1.091   1.045  14.035 -0.4211  0.5771  0.2988
 7244SOL    HW233369   1.229   1.074  13.993  0.4675 -0.2266  2.0254
 7245SOL     OW33370   4.702   3.100   5.363 -0.1537 -0.0098  0.1942
 7245SOL    HW133371   4.652   3.174   5.399  0.0365  0.0019  0.4363
 7245SOL    HW233372   4.655   3.092   5.280  0.7287 -0.6836 -0.2338
 7246SOL     OW33373   0.712   4.228   0.946 -0.5219 -0.2728  0.0783
 7246SOL    HW133374   0.661   4.271   1.015 -0.8860 -1.7807  0.7535
 7246SOL    HW233375   0.777   4.181   0.998  0.0371 -2.2203 -2.4321
 7247SOL     OW33376   2.718   3.424   6.403  0.0796  0.3870 -0.5014
 7247SOL    HW133377   2.694   3.457   6.316  0.7248 -0.5157 -1.0159
 7247SOL    HW233378   2.798   3.376   6.384 -0.0222 -0.2722  0.7170
 7248SOL     OW33379   0.314   3.730   4.880 -0.3330  0.3803  0.5580
 7248SOL    HW133380   0.306   3.728   4.785 -0.8144 -0.4650  0.6235
 7248SOL    HW233381   0.246   3.663   4.889 -0.7645  0.5316 -1.5057
 7249SOL     OW33382   3.260   1.174   2.572 -0.4695  0.1280  0.0829
 7249SOL    HW133383   3.245   1.080   2.582 -0.3405  0.0502 -0.4912
 7249SOL    HW233384   3.268   1.186   2.477  0.7803 -1.6166 -0.0291
 7250SOL     OW33385   1.330   4.458  11.075  0.1652  0.3193 -0.3767
 7250SOL    HW133386   1.389   4.419  11.011 -0.4101  0.4283 -0.9728
 7250SOL    HW233387   1.373   4.542  11.089  2.7187 -0.8097 -1.4573
 7251SOL     OW33388   2.510   1.688   8.297 -0.1633 -0.0235 -0.1237
 7251SOL    HW133389   2.469   1.743   8.364  0.1270  1.1213 -0.8999
 7251SOL    HW233390   2.587   1.741   8.277 -0.0268 -0.4669 -0.7926
 7252SOL     OW33391   2.330   1.421  11.353  0.0097 -0.5104  0.1038
 7252SOL    HW133392   2.323   1.516  11.362 -2.0340 -0.4566 -2.0929
 7252SOL    HW233393   2.241   1.385  11.358 -0.9050  1.2681 -4.1809
 7253SOL     OW33394   0.800   0.342  11.372 -0.5686 -0.1345 -0.7419
 7253SOL    HW133395   0.812   0.282  11.445 -0.2517  0.5904 -0.1952
 7253SOL    HW233396   0.788   0.280  11.300 -0.2080  0.5841 -1.4303
 7254SOL     OW33397   2.345   3.938  10.565 -0.3578  0.2651  0.0251
 7254SOL    HW133398   2.377   3.954  10.476  0.4463 -0.5712  0.1604
 7254SOL    HW233399   2.285   4.010  10.582  0.5041  0.6946  1.2151
 7255SOL     OW33400   3.783   3.146  16.845  0.4339 -0.4669  0.1972
 7255SOL    HW133401   3.855   3.087  16.824  1.9237  1.8088 -1.0864
 7255SOL    HW233402   3.829   3.226  16.871 -2.5473  1.4324 -0.3093
 7256SOL     OW33403   2.888   4.510   6.789  0.0682  0.2764 -0.5449
 7256SOL    HW133404   2.874   4.486   6.697  1.7414 -0.6543 -0.5652
 7256SOL    HW233405   2.837   4.448   6.840  1.1033 -1.3331 -1.4774
 7257SOL     OW33406   4.007   2.716   3.477 -0.3010 -0.6128 -0.1235
 7257SOL    HW133407   4.086   2.686   3.432  1.4118 -2.1190  3.8775
 7257SOL    HW233408   4.031   2.808   3.468 -1.0573 -0.2655  1.4437
 7258SOL     OW33409   3.610   2.956  15.688  0.1021 -0.3924 -0.0603
 7258SOL    HW133410   3.524   2.920  15.712  0.3486  0.4475  2.0720
 7258SOL    HW233411   3.628   2.890  15.621 -1.1033 -0.7275 -0.0678
 7259SOL     OW33412   1.963   3.829   2.263  0.1053  0.0776 -0.1482
 7259SOL    HW133413   1.909   3.875   2.327  0.7252  1.2672 -0.4992
 7259SOL    HW233414   2.047   3.833   2.309 -0.8273  1.8780  1.3886
 7260SOL     OW33415   1.015   3.026   8.878  0.0566  0.3226 -0.0205
 7260SOL    HW133416   0.975   3.022   8.965 -0.3591 -0.2595 -0.2441
 7260SOL    HW233417   0.947   3.078   8.834 -1.7568 -1.3357  0.8372
 7261SOL     OW33418   4.144   2.503  12.923  0.1644  0.1274 -0.1654
 7261SOL    HW133419   4.139   2.485  13.017  2.2641 -0.3416 -0.1458
 7261SOL    HW233420   4.192   2.585  12.931  0.9905 -0.5454  1.6512
 7262SOL     OW33421   1.372   1.894   9.364  0.3474  0.0875 -0.0362
 7262SOL    HW133422   1.458   1.864   9.396  0.4027  0.4735  0.1775
 7262SOL    HW233423   1.309   1.824   9.376  0.6908 -0.1465  0.4397
 7263SOL     OW33424   0.469   3.752   0.495  0.2783 -0.0474 -0.0274
 7263SOL    HW133425   0.481   3.846   0.505  0.3036 -0.0232 -0.2925
 7263SOL    HW233426   0.561   3.732   0.475  0.4470  0.2245  0.4894
 7264SOL     OW33427   4.368   3.595   2.532 -0.3129 -0.0035  0.7816
 7264SOL    HW133428   4.313   3.622   2.605 -0.3226  0.2178  0.6921
 7264SOL    HW233429   4.435   3.540   2.573  1.9274  0.6284 -2.0377
 7265SOL     OW33430   0.446   2.891   2.291  0.0046  0.0981  0.2412
 7265SOL    HW133431   0.437   2.812   2.238  1.6710 -1.1740  1.8451
 7265SOL    HW233432   0.539   2.915   2.282 -0.6440  2.4168 -0.1764
 7266SOL     OW33433   3.828   0.028   9.197  0.3964  0.2806 -0.5529
 7266SOL    HW133434   3.913   4.721   9.196  0.6465  0.7353  2.1545
 7266SOL    HW233435   3.828   0.056   9.288  2.0769 -0.2918 -0.3660
 7267SOL     OW33436   4.145   4.683   6.733  0.5231 -0.2072  0.4293
 7267SOL    HW133437   4.075   4.704   6.794 -0.0601  0.3496 -0.4242
 7267SOL    HW233438   4.217   4.718   6.786  0.1031 -1.2158  1.6409
 7268SOL     OW33439   4.488   2.132  14.261  0.0383 -0.2203 -0.3785
 7268SOL    HW133440   4.475   2.065  14.193 -1.8922 -1.4759  1.2147
 7268SOL    HW233441   4.411   2.184  14.240 -0.9046 -0.5568  2.3057
 7269SOL     OW33442   4.078   1.895   8.976 -0.2297 -0.3307  0.3007
 7269SOL    HW133443   4.160   1.932   8.944 -0.8806  3.6050  3.1879
 7269SOL    HW233444   4.051   1.948   9.051  0.2775  0.3389  0.0078
 7270SOL     OW33445   3.780   4.673   7.183 -0.3114  0.3291 -0.4901
 7270SOL    HW133446   3.765   4.596   7.237 -0.4263  1.2740  0.8146
 7270SOL    HW233447   3.865   4.699   7.220 -1.3405  2.6826  0.1939
 7271SOL     OW33448   3.326   2.980   2.134  0.2836 -0.3913 -0.6765
 7271SOL    HW133449   3.258   2.926   2.174  0.7279  0.2527  0.9807
 7271SOL    HW233450   3.331   3.053   2.196  0.0421 -0.6339 -0.3670
 7272SOL     OW33451   0.032   0.173   7.933  0.6427 -0.7707  0.3051
 7272SOL    HW133452   0.085   0.251   7.951  0.3800 -0.8652  1.5060
 7272SOL    HW233453   4.688   0.199   7.978 -0.3751 -0.5032 -1.7006
 7273SOL     OW33454   3.301   4.406   0.646  0.5164  0.6150 -0.7065
 7273SOL    HW133455   3.387   4.408   0.689 -0.3731  0.4154  1.0885
 7273SOL    HW233456   3.334   4.397   0.557  0.9792 -0.0377 -0.4725
 7274SOL     OW33457   1.704   3.588   3.986  0.6042 -0.1686  0.0232
 7274SOL    HW133458   1.735   3.640   4.060  0.0980 -1.9480  1.4823
 7274SOL    HW233459   1.785   3.566   3.940  0.9774 -2.3050  1.7347
 7275SOL     OW33460   1.739   3.321  13.721  0.0911 -0.2458  0.3430
 7275SOL    HW133461   1.708   3.304  13.632  0.2744 -3.1350  0.8051
 7275SOL    HW233462   1.832   3.331  13.699 -0.9358  0.9497 -3.4937
 7276SOL     OW33463   2.399   0.231   7.722  0.1666 -0.2010 -0.1650
 7276SOL    HW133464   2.469   0.294   7.737  0.6181 -0.5618 -0.7601
 7276SOL    HW233465   2.433   0.196   7.640  0.5180 -3.0440  1.1834
 7277SOL     OW33466   3.390   0.688   7.977  0.1724  0.6011 -0.2518
 7277SOL    HW133467   3.357   0.604   8.008  0.8079 -0.0393 -1.3408
 7277SOL    HW233468   3.431   0.731   8.053 -0.3854 -0.5355  0.6880
 7278SOL     OW33469   4.242   1.926   7.929  0.4549  0.2907 -0.2665
 7278SOL    HW133470   4.163   1.929   7.875 -0.1471  0.4406  0.6334
 7278SOL    HW233471   4.308   1.914   7.861  2.4209 -1.1099  1.8812
 7279SOL     OW33472   2.711   1.125   3.891 -0.1411 -0.3965  0.2258
 7279SOL    HW133473   2.711   1.032   3.866  2.4426  0.2362 -2.1191
 7279SOL    HW233474   2.804   1.144   3.896  0.2087 -2.8178  2.6916
 7280SOL     OW33475   2.127   0.167   2.823  0.6304 -0.0217  0.1056
 7280SOL    HW133476   2.086   0.125   2.747  0.0508 -1.4096  1.1866
 7280SOL    HW233477   2.099   0.259   2.817  0.5542 -0.0723 -0.3252
 7281SOL     OW33478   2.853   1.637   2.900  0.2643 -0.3904  0.2395
 7281SOL    HW133479   2.876   1.577   2.829  0.3709  0.3346 -0.3386
 7281SOL    HW233480   2.757   1.644   2.898  0.1072 -2.5036  0.6871
 7282SOL     OW33481   0.252   2.331  11.182  0.5234  0.3487 -0.6392
 7282SOL    HW133482   0.296   2.260  11.229 -2.1546 -0.7229  0.2909
 7282SOL    HW233483   0.299   2.333  11.099 -0.5499  1.6892 -1.2101
 7283SOL     OW33484   1.698   4.030   1.812 -0.0682  0.1766  0.4499
 7283SOL    HW133485   1.668   4.118   1.836  0.6341  1.0045 -1.6147
 7283SOL    HW233486   1.780   4.036   1.861 -1.1885 -0.8470  2.4331
 7284SOL     OW33487   3.937   3.956   2.075 -0.1498 -0.3781 -0.1555
 7284SOL    HW133488   3.903   4.045   2.072 -0.7516 -0.5573  1.2834
 7284SOL    HW233489   3.882   3.904   2.016 -1.1334  0.0324  0.3980
 7285SOL     OW33490   4.428   3.651  13.077 -0.2252 -0.2176  0.3087
 7285SOL    HW133491   4.457   3.615  13.160  1.0449 -1.6607 -0.7610
 7285SOL    HW233492   4.492   3.722  13.077  0.7248 -1.0825 -2.1595
 7286SOL     OW33493   1.423   4.421   6.610 -0.2128  0.6962 -0.3808
 7286SOL    HW133494   1.355   4.380   6.556  0.6606 -0.0615 -0.9135
 7286SOL    HW233495   1.370   4.477   6.666 -1.6319  0.5238 -1.5308
 7287SOL     OW33496   4.336   0.434  14.845  0.1386  0.7318  0.2442
 7287SOL    HW133497   4.346   0.494  14.771 -1.1232 -0.0019 -0.5295
 7287SOL    HW233498   4.411   0.451  14.902  2.5863 -1.1707 -2.4347
 7288SOL     OW33499   0.963   0.672   9.206  0.6666 -0.2594 -0.0913
 7288SOL    HW133500   1.029   0.685   9.274 -0.6895 -0.4507  1.2320
 7288SOL    HW233501   0.978   0.743   9.143  3.1414 -1.4548 -0.8726
 7289SOL     OW33502   2.609   2.680   6.117  0.0586  0.5693  0.2617
 7289SOL    HW133503   2.674   2.627   6.072  2.4884  3.9167 -0.2124
 7289SOL    HW233504   2.539   2.671   6.054  2.0928  2.7773 -2.3295
 7290SOL     OW33505   4.402   3.970   3.206 -0.8654 -0.5151 -0.2077
 7290SOL    HW133506   4.393   3.916   3.128 -1.0047  0.7930 -1.0942
 7290SOL    HW233507   4.405   4.053   3.157 -1.5680 -0.3456  0.0363
 7291SOL     OW33508   2.959   3.013   3.182  0.0541 -0.1576  0.2333
 7291SOL    HW133509   2.875   3.013   3.229  0.2223  0.9374  0.5475
 7291SOL    HW233510   2.966   2.918   3.175 -0.3552 -0.0853 -1.2055
 7292SOL     OW33511   0.394   2.742   4.228  0.6267  0.2342 -0.4487
 7292SOL    HW133512   0.455   2.815   4.235  0.4606  0.3103  0.1909
 7292SOL    HW233513   0.418   2.702   4.311  0.0561 -0.9343 -0.8455
 7293SOL     OW33514   2.142   4.253   3.532 -0.0970  0.1587  0.4615
 7293SOL    HW133515   2.229   4.225   3.560 -0.2770 -1.7100 -0.8760
 7293SOL    HW233516   2.163   4.333   3.484  1.7350 -0.6625 -0.1093
 7294SOL     OW33517   2.854   0.672   1.906 -0.1028  0.1309  0.2962
 7294SOL    HW133518   2.822   0.755   1.942  2.8489  0.2899  2.5869
 7294SOL    HW233519   2.770   0.633   1.883  1.0631 -1.5396 -1.1564
 7295SOL     OW33520   1.067   3.214   3.759  0.8336  0.0135 -0.5384
 7295SOL    HW133521   0.992   3.212   3.819  0.5091  0.9379 -0.9099
 7295SOL    HW233522   1.073   3.121   3.737 -0.0012  0.2405 -1.7234
 7296SOL     OW33523   2.796   3.095   5.508  0.6452  0.0066 -0.0873
 7296SOL    HW133524   2.825   3.156   5.441  0.2621 -0.3115 -0.5391
 7296SOL    HW233525   2.762   3.156   5.574  0.0933 -0.1842 -0.1920
 7297SOL     OW33526   2.058   4.589   5.065  0.3485  0.0473  0.0981
 7297SOL    HW133527   1.970   4.566   5.092 -0.2380  0.2593 -1.5953
 7297SOL    HW233528   2.101   4.617   5.146 -2.3605 -1.2058  1.9351
 7298SOL     OW33529   1.135   3.817   0.867 -0.2227 -0.0551 -0.2912
 7298SOL    HW133530   1.171   3.888   0.814 -1.4948 -0.0022 -1.0800
 7298SOL    HW233531   1.218   3.777   0.893  0.6920  1.9413 -0.1463
 7299SOL     OW33532   4.075   0.853   9.221  0.8821 -0.2164  0.3327
 7299SOL    HW133533   4.035   0.835   9.136  0.2122  0.5633  0.4849
 7299SOL    HW233534   4.164   0.828   9.196 -0.1841 -3.2704 -0.3372
 7300SOL     OW33535   4.036   3.152   0.444  0.7167 -0.2094 -0.7679
 7300SOL    HW133536   4.039   3.057   0.455 -2.8252 -0.0794  1.2407
 7300SOL    HW233537   4.108   3.163   0.382  0.3616 -0.2087 -1.1831
 7301SOL     OW33538   3.824   3.707  12.704  0.3077  0.4923  0.1637
 7301SOL    HW133539   3.761   3.638  12.727  1.3643 -0.4811  0.1734
 7301SOL    HW233540   3.899   3.689  12.761  1.2720  0.7392 -1.0407
 7302SOL     OW33541   2.962   0.203   1.731 -0.3761 -0.9654 -0.1391
 7302SOL    HW133542   2.908   0.162   1.798 -1.1944 -0.2363 -0.3508
 7302SOL    HW233543   2.905   0.192   1.654  0.8108  1.0425 -1.3052
 7303SOL     OW33544   4.213   4.521   3.128 -0.3450  0.4131 -0.0257
 7303SOL    HW133545   4.123   4.504   3.100 -0.4506  0.3496  0.3455
 7303SOL    HW233546   4.256   4.572   3.060 -0.3613  0.9411  0.3552
 7304SOL     OW33547   3.730   2.268   0.837  0.4319  0.8549  0.1268
 7304SOL    HW133548   3.695   2.222   0.913  1.7368 -1.4974 -0.7173
 7304SOL    HW233549   3.667   2.340   0.837 -2.4541 -1.6955  0.5439
 7305SOL     OW33550   3.356   0.252   1.459  0.3549 -0.5483  0.3690
 7305SOL    HW133551   3.396   0.339   1.471 -0.3872 -0.1928  0.2525
 7305SOL    HW233552   3.333   0.248   1.366  0.5314 -1.5184  0.3664
 7306SOL     OW33553   1.056   1.853   2.536  0.5751  0.2569 -0.2912
 7306SOL    HW133554   1.091   1.850   2.625 -4.4075  2.7341  1.7411
 7306SOL    HW233555   1.103   1.778   2.501  0.1268  0.3822 -1.1691
 7307SOL     OW33556   2.308   3.221  11.009  0.4021 -0.3746  0.0335
 7307SOL    HW133557   2.329   3.243  11.100  2.1619 -0.1162 -0.4339
 7307SOL    HW233558   2.388   3.250  10.965  0.0645  2.0497  0.9933
 7308SOL     OW33559   0.599   1.218   5.928 -0.5942  0.0954 -0.1631
 7308SOL    HW133560   0.566   1.212   5.839  0.4718  0.0092 -0.5466
 7308SOL    HW233561   0.628   1.309   5.934 -1.1906  0.2596  0.3114
 7309SOL     OW33562   0.555   3.015  15.988  0.0226  0.2131  0.0442
 7309SOL    HW133563   0.566   3.036  15.895 -3.6443 -4.7773 -1.5139
 7309SOL    HW233564   0.483   3.072  16.013  0.5103  0.6293  0.5099
 7310SOL     OW33565   2.840   1.159  15.870  0.0078 -0.1969  0.2902
 7310SOL    HW133566   2.834   1.114  15.785 -0.6251  0.9554 -0.2750
 7310SOL    HW233567   2.935   1.157  15.873 -0.1170 -1.0243  3.4926
 7311SOL     OW33568   2.435   3.566   2.703  0.3239 -0.2288  0.6023
 7311SOL    HW133569   2.416   3.474   2.723  0.2071 -0.2804  0.2620
 7311SOL    HW233570   2.373   3.585   2.633  1.0103  0.7604  0.2629
 7312SOL     OW33571   3.715   4.473  10.997  0.0296  0.0680 -0.6821
 7312SOL    HW133572   3.774   4.547  11.005 -2.5834  2.2849 -1.9698
 7312SOL    HW233573   3.784   4.411  11.021 -0.6690 -1.0306 -1.4735
 7313SOL     OW33574   3.957   1.146  16.740  0.0297  0.3325  0.0720
 7313SOL    HW133575   3.883   1.201  16.714 -0.7616 -0.5241  0.5122
 7313SOL    HW233576   3.932   1.063  16.698 -1.1352 -0.8585  3.0587
 7314SOL     OW33577   1.205   3.358   7.625  0.4859  0.0137 -0.1114
 7314SOL    HW133578   1.178   3.442   7.662  1.1501  0.7210 -1.2582
 7314SOL    HW233579   1.208   3.384   7.533 -0.9149  1.6876  0.3224
 7315SOL     OW33580   2.452   1.110   6.864 -0.0444  0.2111  0.1709
 7315SOL    HW133581   2.368   1.106   6.910  0.1656 -0.9927  0.4579
 7315SOL    HW233582   2.512   1.065   6.923 -0.9459 -0.2259  0.7571
 7316SOL     OW33583   3.249   1.814   2.007 -0.3603 -0.4097 -0.4554
 7316SOL    HW133584   3.273   1.721   2.017 -2.0171 -0.7988 -0.1415
 7316SOL    HW233585   3.267   1.841   2.097 -1.0049 -0.7540 -0.2238
 7317SOL     OW33586   2.599   0.779   1.869  0.5562  0.6366 -0.7733
 7317SOL    HW133587   2.519   0.783   1.816  0.3896  1.9565 -0.4242
 7317SOL    HW233588   2.600   0.857   1.925 -0.6465 -0.7041  1.0687
 7318SOL     OW33589   2.545   3.889   1.655 -0.0437 -0.3853  0.0519
 7318SOL    HW133590   2.639   3.905   1.656 -0.2481  0.8263  0.5078
 7318SOL    HW233591   2.531   3.842   1.573  1.9409  1.5602 -1.4126
 7319SOL     OW33592   0.035   1.902  13.970 -0.9361  0.4822  0.4143
 7319SOL    HW133593   0.052   1.896  13.876 -3.0528  2.1289 -0.0663
 7319SOL    HW233594   4.699   1.842  13.983 -0.8912  0.6361  1.3747
 7320SOL     OW33595   4.484   3.436   5.808  0.0535  0.7795 -0.2842
 7320SOL    HW133596   4.566   3.388   5.824 -2.2709 -3.4782 -1.0255
 7320SOL    HW233597   4.518   3.520   5.778  2.0964 -0.0607 -0.3927
 7321SOL     OW33598   4.331   0.502   8.198  0.2707  0.0563 -0.4727
 7321SOL    HW133599   4.382   0.443   8.254 -0.5744  1.5007  1.8010
 7321SOL    HW233600   4.251   0.457   8.225 -0.3622  2.1023  1.0506
 7322SOL     OW33601   1.668   4.157   5.093  0.9558  0.2490 -0.4486
 7322SOL    HW133602   1.649   4.068   5.124  3.2344 -0.2368 -0.4389
 7322SOL    HW233603   1.614   4.198   5.160 -0.0873 -0.5454 -0.7964
 7323SOL     OW33604   1.762   3.970   3.917  0.6419  0.4813  0.3456
 7323SOL    HW133605   1.769   3.955   4.011  0.8316  0.7958  0.3798
 7323SOL    HW233606   1.814   3.897   3.883  0.2652  1.2577 -1.8935
 7324SOL     OW33607   1.264   3.449   3.294  0.9298 -0.4349  0.1612
 7324SOL    HW133608   1.274   3.530   3.244 -0.1410 -0.9526 -0.8885
 7324SOL    HW233609   1.243   3.396   3.217  0.0952 -1.3711  1.0359
 7325SOL     OW33610   0.067   2.701   5.239 -0.1022 -0.2968  0.4572
 7325SOL    HW133611   0.116   2.623   5.213 -0.5919  0.2061 -1.9775
 7325SOL    HW233612   4.714   2.670   5.250 -0.4779  0.5879 -0.1450
 7326SOL     OW33613   1.395   2.395   5.316  0.0589 -0.1088 -0.0007
 7326SOL    HW133614   1.308   2.368   5.288  0.5551 -0.6192 -1.0655
 7326SOL    HW233615   1.380   2.409   5.409  0.0050  3.1662 -0.5128
 7327SOL     OW33616   2.355   0.029   6.682  0.3157  0.0775 -0.0374
 7327SOL    HW133617   2.283   4.707   6.703  0.1828  0.7575  1.4202
 7327SOL    HW233618   2.309   0.113   6.680  0.4328  0.0887 -3.1307
 7328SOL     OW33619   1.489   3.551   1.193 -0.0782  0.3932  0.5279
 7328SOL    HW133620   1.472   3.533   1.286  0.0013 -1.5606  0.1639
 7328SOL    HW233621   1.412   3.514   1.151  0.4406 -1.5101  1.2614
 7329SOL     OW33622   1.432   3.278   3.506  0.2284 -0.3518 -0.7552
 7329SOL    HW133623   1.512   3.317   3.540 -0.8587  1.4468 -0.2977
 7329SOL    HW233624   1.366   3.328   3.553  0.2369 -0.9539 -0.1101
 7330SOL     OW33625   2.006   4.736   7.728  0.0707 -0.8853 -0.0127
 7330SOL    HW133626   2.009   4.684   7.648 -2.2342 -0.7832 -0.1402
 7330SOL    HW233627   2.064   4.687   7.787 -1.0333 -2.9121 -0.6154
 7331SOL     OW33628   0.910   2.089  10.063  0.0874  0.3350 -0.1978
 7331SOL    HW133629   0.887   2.081  10.156  2.7160  1.5869  0.5531
 7331SOL    HW233630   0.889   2.000  10.036 -1.2730 -0.0973  2.2190
 7332SOL     OW33631   1.687   2.052   1.038  0.2335  0.8771 -0.4056
 7332SOL    HW133632   1.709   1.970   0.993  0.8533  0.4553  0.6624
 7332SOL    HW233633   1.702   2.118   0.969  0.8728  1.7871  0.5955
 7333SOL     OW33634   0.405   2.490   4.063  0.1474 -0.2948 -0.2529
 7333SOL    HW133635   0.415   2.531   3.978 -0.2116  1.7719  0.6972
 7333SOL    HW233636   0.373   2.561   4.119  1.8835 -0.5127  1.0106
 7334SOL     OW33637   3.861   1.124  10.861  0.1305  0.6376  0.0450
 7334SOL    HW133638   3.893   1.214  10.872 -4.0405  2.0875  0.3758
 7334SOL    HW233639   3.796   1.132  10.792  0.4958  0.7686 -0.2854
 7335SOL     OW33640   3.518   3.988  13.398  0.3945 -0.0702  0.1270
 7335SOL    HW133641   3.592   3.948  13.443  0.1246 -0.5075  0.1849
 7335SOL    HW233642   3.462   3.914  13.374  0.4514  0.9174 -2.9712
 7336SOL     OW33643   4.241   1.281   2.778 -0.0274  0.0843  0.3929
 7336SOL    HW133644   4.312   1.315   2.723  0.1943  0.5274  0.9605
 7336SOL    HW233645   4.258   1.306   2.869  0.1541  0.4629  0.2551
 7337SOL     OW33646   1.524   1.350   1.166 -0.4511 -0.2250  0.4276
 7337SOL    HW133647   1.454   1.285   1.170  0.2677 -1.1448 -1.9444
 7337SOL    HW233648   1.513   1.400   1.247 -0.8461  0.2796  0.0630
 7338SOL     OW33649   0.996   4.094   6.817 -0.0704  0.0336 -0.0005
 7338SOL    HW133650   1.063   4.150   6.857 -0.7674  1.1300 -0.3878
 7338SOL    HW233651   1.025   4.100   6.726  1.9795 -1.4326  0.5444
 7339SOL     OW33652   0.245   0.606   6.595 -0.6892 -0.2111  0.3786
 7339SOL    HW133653   0.191   0.674   6.636 -1.7387 -0.7342 -0.1232
 7339SOL    HW233654   0.170   0.553   6.568 -2.3554  0.4827  3.6360
 7340SOL     OW33655   4.357   3.396  17.375  0.0604 -0.2736 -0.2771
 7340SOL    HW133656   4.316   3.483  17.371 -0.6220 -0.5903 -0.1762
 7340SOL    HW233657   4.442   3.430  17.404 -0.6860 -1.1743  2.9388
 7341SOL     OW33658   3.634   2.421   6.773  0.3639 -0.4735 -0.9447
 7341SOL    HW133659   3.671   2.337   6.799 -3.3105 -1.0949  2.3922
 7341SOL    HW233660   3.706   2.477   6.802  0.3071 -0.7746 -0.2185
 7342SOL     OW33661   4.222   2.941   8.421 -0.4215 -0.2238  0.0226
 7342SOL    HW133662   4.256   2.943   8.332 -2.1258 -4.5817 -0.7139
 7342SOL    HW233663   4.252   3.028   8.447 -0.8750 -0.6736  2.0883
 7343SOL     OW33664   4.532   0.930   1.779  0.2488 -0.7046  0.4453
 7343SOL    HW133665   4.444   0.918   1.743  0.7523 -0.4915 -0.8685
 7343SOL    HW233666   4.520   1.008   1.834  1.4565 -0.9894  1.1105
 7344SOL     OW33667   3.551   2.180   1.036  0.3145  0.3165 -0.5072
 7344SOL    HW133668   3.464   2.215   1.058  0.3976 -0.0534  0.3994
 7344SOL    HW233669   3.596   2.245   1.090  2.9128 -2.5464  0.7302
 7345SOL     OW33670   4.148   0.162   2.450  0.1064 -0.0980  0.8288
 7345SOL    HW133671   4.131   0.247   2.411 -1.5961 -0.1582  1.4666
 7345SOL    HW233672   4.153   0.101   2.376 -1.5304  0.4302  0.2945
 7346SOL     OW33673   1.103   2.711   4.667 -0.5228 -0.3861  0.2915
 7346SOL    HW133674   1.080   2.647   4.735  0.5939 -0.5355  0.5364
 7346SOL    HW233675   1.087   2.796   4.708  0.9708 -0.9924  2.1100
 7347SOL     OW33676   0.560   4.724   7.308 -0.3296 -0.0841 -0.0110
 7347SOL    HW133677   0.631   4.717   7.372  1.0666  0.6204 -1.4683
 7347SOL    HW233678   0.585   4.679   7.227 -1.3839  1.7947 -1.3894
 7348SOL     OW33679   4.035   2.932   0.646  0.5116  0.1914  0.4017
 7348SOL    HW133680   4.079   2.890   0.572 -1.1557 -1.4927  0.3626
 7348SOL    HW233681   3.982   2.858   0.676  0.2390 -0.4213 -1.5698
 7349SOL     OW33682   2.712   1.845   8.195  0.5224 -0.3912  0.2828
 7349SOL    HW133683   2.782   1.802   8.244 -1.2299 -1.1696  2.1068
 7349SOL    HW233684   2.760   1.902   8.135  0.4849 -0.2704  0.3669
 7350SOL     OW33685   1.595   1.975   5.787 -0.5134  0.2768 -0.1585
 7350SOL    HW133686   1.538   2.045   5.754 -0.8397  0.3819  0.6187
 7350SOL    HW233687   1.594   1.917   5.711  0.1701  0.7216 -0.5006
 7351SOL     OW33688   3.802   4.443   2.526  0.0201  0.5141  0.1575
 7351SOL    HW133689   3.825   4.377   2.461 -0.7837  1.2908 -0.9069
 7351SOL    HW233690   3.845   4.519   2.488  0.6790  1.4570  2.7781
 7352SOL     OW33691   2.825   3.212  13.992  0.1229 -0.1945  0.3203
 7352SOL    HW133692   2.913   3.229  13.959  0.0823  0.5327  0.5867
 7352SOL    HW233693   2.778   3.259  13.923 -1.1751 -1.3465  0.4010
 7353SOL     OW33694   1.067   3.157   3.249 -0.3138  0.0838  0.2326
 7353SOL    HW133695   1.154   3.135   3.282 -0.3973 -3.4895 -1.9070
 7353SOL    HW233696   1.028   3.181   3.333 -1.3973  0.7775 -0.4623
 7354SOL     OW33697   3.134   3.449   0.358 -0.1654 -0.4101 -0.1969
 7354SOL    HW133698   3.221   3.487   0.361 -0.0787 -0.5722 -0.6167
 7354SOL    HW233699   3.095   3.478   0.275  1.3372  1.1980 -0.3388
 7355SOL     OW33700   0.547   2.508   7.711  0.2925  0.6375  0.1553
 7355SOL    HW133701   0.455   2.529   7.699  0.1074  2.3891  4.4039
 7355SOL    HW233702   0.577   2.576   7.650 -0.9999  0.5194 -0.5966
 7356SOL     OW33703   2.311   0.688   6.546  0.2151  0.5485  0.3562
 7356SOL    HW133704   2.296   0.779   6.573 -0.3933  0.7479 -0.6556
 7356SOL    HW233705   2.326   0.642   6.629  0.3901 -0.0429 -0.0094
 7357SOL     OW33706   2.356   4.729   5.753  0.2590 -0.3120 -0.3140
 7357SOL    HW133707   2.373   4.668   5.681  0.3095 -0.7494  0.0734
 7357SOL    HW233708   2.266   4.709   5.778 -0.4132  2.8314 -0.2739
 7358SOL     OW33709   1.540   1.187   1.748 -0.4411 -0.3197 -0.0390
 7358SOL    HW133710   1.606   1.171   1.681  0.0185  2.8797 -0.3559
 7358SOL    HW233711   1.518   1.101   1.785  0.2728 -0.4260  0.1453
 7359SOL     OW33712   2.670   0.841   4.757  0.2987 -0.0011 -0.0748
 7359SOL    HW133713   2.691   0.747   4.761  4.0254  0.8485  0.3538
 7359SOL    HW233714   2.729   0.886   4.697 -0.0316 -1.9325 -1.8627
 7360SOL     OW33715   2.412   2.293   7.798  0.2031 -0.2355 -0.3003
 7360SOL    HW133716   2.323   2.314   7.826 -0.1620  1.2605 -2.5437
 7360SOL    HW233717   2.453   2.380   7.801 -0.1730 -0.0040 -1.7299
 7361SOL     OW33718   3.726   3.521   8.156 -0.0834 -0.2959 -0.6213
 7361SOL    HW133719   3.643   3.568   8.164  0.1122 -0.2053  0.8106
 7361SOL    HW233720   3.700   3.435   8.187 -0.6043  0.2956  0.5918
 7362SOL     OW33721   2.854   3.759   8.684  0.1521 -0.5589  0.0142
 7362SOL    HW133722   2.862   3.778   8.591  1.4067  3.1461  0.9118
 7362SOL    HW233723   2.776   3.702   8.687  1.0955 -1.9097 -1.2661
 7363SOL     OW33724   3.877   3.761   5.783 -0.1842 -0.6290  0.0268
 7363SOL    HW133725   3.859   3.847   5.820  0.0982 -0.7491  0.4476
 7363SOL    HW233726   3.942   3.782   5.716 -0.4371 -2.8493 -0.9159
 7364SOL     OW33727   2.489   3.094   1.586  0.1286 -0.0152  0.2213
 7364SOL    HW133728   2.550   3.021   1.574  0.8264  0.3064  1.8386
 7364SOL    HW233729   2.487   3.093   1.681  1.2989 -0.9386  0.2417
 7365SOL     OW33730   0.078   2.177   7.666  0.9806  0.6058  1.2842
 7365SOL    HW133731   0.125   2.131   7.597 -0.8528  1.2943 -0.4067
 7365SOL    HW233732   0.086   2.103   7.727 -2.3505 -0.6093  0.2140
 7366SOL     OW33733   2.476   0.504   6.852  0.8559  0.1292 -0.4488
 7366SOL    HW133734   2.391   0.466   6.877  0.5674  0.7003 -0.5508
 7366SOL    HW233735   2.535   0.454   6.908  0.4364 -1.3689 -1.3335
 7367SOL     OW33736   2.572   0.153   8.246  0.0729 -0.1664 -1.0845
 7367SOL    HW133737   2.560   0.247   8.231 -0.4618 -0.0431  0.1384
 7367SOL    HW233738   2.566   0.121   8.156  0.1463 -0.0796 -1.1206
 7368SOL     OW33739   4.017   1.691  15.298  0.3452 -0.0024  0.1304
 7368SOL    HW133740   4.056   1.611  15.262 -1.4632 -0.1530 -1.4752
 7368SOL    HW233741   3.948   1.694  15.232  0.7143 -1.1493 -0.3100
 7369SOL     OW33742   1.961   2.895   2.201  0.0735 -0.1305 -0.1635
 7369SOL    HW133743   1.903   2.957   2.157  0.1638 -1.0186 -1.5328
 7369SOL    HW233744   1.893   2.850   2.251 -0.1651  1.1478  0.6413
 7370SOL     OW33745   1.545   0.676   7.794 -0.4352 -0.0290 -0.2973
 7370SOL    HW133746   1.596   0.599   7.771 -0.0370  0.3647 -0.7479
 7370SOL    HW233747   1.457   0.642   7.780 -0.3961 -0.3522  0.2329
 7371SOL     OW33748   1.896   1.606   1.434 -0.7879 -0.1976  0.3555
 7371SOL    HW133749   1.974   1.631   1.384 -0.3561 -0.1087  1.0711
 7371SOL    HW233750   1.930   1.616   1.523 -1.2449 -0.1760  0.5301
 7372SOL     OW33751   1.981   0.943   8.326 -0.0450 -0.0172  0.2458
 7372SOL    HW133752   1.957   1.034   8.305 -0.2174 -0.4622 -1.5290
 7372SOL    HW233753   2.015   0.904   8.245 -0.1170  0.1409  0.1384
 7373SOL     OW33754   4.354   0.810   4.487 -0.5088  0.2896  0.1360
 7373SOL    HW133755   4.336   0.776   4.575  3.5820 -1.1378  0.3823
 7373SOL    HW233756   4.334   0.904   4.487  3.1221  1.0429  1.2571
 7374SOL     OW33757   4.578   3.455   2.654  0.4180  0.3458  0.2489
 7374SOL    HW133758   4.612   3.499   2.732 -1.1904  1.2614  0.4464
 7374SOL    HW233759   4.632   3.492   2.584 -1.4939 -2.0143 -2.4346
 7375SOL     OW33760   4.291   3.995   9.752 -0.6636  0.4908  0.8684
 7375SOL    HW133761   4.268   4.058   9.820 -1.0023  1.3813 -0.0673
 7375SOL    HW233762   4.359   4.043   9.704 -1.1082  1.3709  1.1088
 7376SOL     OW33763   1.547   2.014   2.697 -0.2759 -0.5124 -0.1866
 7376SOL    HW133764   1.627   2.058   2.671  1.3115 -2.5483  1.1937
 7376SOL    HW233765   1.576   1.928   2.728  0.8557 -0.5901 -1.5163
 7377SOL     OW33766   3.712   2.307   1.205 -0.1852  0.4052  0.5046
 7377SOL    HW133767   3.708   2.388   1.255 -1.5447  0.5390  0.1569
 7377SOL    HW233768   3.799   2.301   1.166 -0.2531  1.9002  0.1494
 7378SOL     OW33769   1.935   0.159   0.819 -0.4217  0.0680 -0.9664
 7378SOL    HW133770   1.863   0.195   0.871  0.2680  2.7862 -1.9036
 7378SOL    HW233771   1.947   0.073   0.859 -0.8960  0.5159  0.1369
 7379SOL     OW33772   3.181   0.731  17.219  0.1519 -0.4705 -0.1084
 7379SOL    HW133773   3.105   0.686  17.181 -0.5062  0.1692  0.4553
 7379SOL    HW233774   3.139   0.722  17.304  1.2319 -1.0923  0.3600
 7380SOL     OW33775   3.082   1.723   1.623  0.5645 -0.0995 -0.0275
 7380SOL    HW133776   3.012   1.696   1.682  0.4027  0.5052  0.0582
 7380SOL    HW233777   3.047   1.806   1.592 -1.3465 -1.2213 -0.9068
 7381SOL     OW33778   2.542   2.036   1.667 -0.7001 -0.5372  0.3681
 7381SOL    HW133779   2.530   2.093   1.591 -0.9862 -0.6724  0.3112
 7381SOL    HW233780   2.450   2.022   1.692 -0.8920 -1.3650 -0.8046
 7382SOL     OW33781   2.089   2.597   4.303  0.0772 -0.3673  0.2893
 7382SOL    HW133782   2.068   2.650   4.380 -2.2379  0.3993 -0.8422
 7382SOL    HW233783   2.067   2.667   4.241 -0.3457 -0.2915  0.5215
 7383SOL     OW33784   2.090   4.365  12.405  0.7910 -0.2676 -0.0293
 7383SOL    HW133785   2.176   4.357  12.446  1.0357  0.1550 -0.4682
 7383SOL    HW233786   2.070   4.272  12.394  0.7672 -0.3939  1.1223
 7384SOL     OW33787   1.067   3.673  16.165 -0.3338  0.1985 -0.0630
 7384SOL    HW133788   1.136   3.607  16.158  0.9474  1.7667 -2.0900
 7384SOL    HW233789   1.022   3.669  16.080 -0.1835  0.2996 -0.1468
 7385SOL     OW33790   4.531   0.683  15.721  0.6405 -0.0161 -0.1707
 7385SOL    HW133791   4.465   0.739  15.761  0.4436 -0.7953  0.6023
 7385SOL    HW233792   4.492   0.637  15.647  0.7698  1.1703 -0.9778
 7386SOL     OW33793   0.418   3.340   0.739  0.4891 -0.1311  0.2883
 7386SOL    HW133794   0.483   3.409   0.752 -0.5855  0.4831  2.4683
 7386SOL    HW233795   0.397   3.336   0.646  1.1059 -0.1068  0.1453
 7387SOL     OW33796   1.879   4.260   1.821  0.2228 -0.6680 -0.0142
 7387SOL    HW133797   1.834   4.264   1.737  2.9354  2.6914 -1.3107
 7387SOL    HW233798   1.968   4.288   1.802  0.6260 -1.1005  1.2454
 7388SOL     OW33799   2.879   3.907  17.186  0.1846 -0.0959  0.2379
 7388SOL    HW133800   2.874   4.000  17.164  1.7016 -0.3606 -1.1991
 7388SOL    HW233801   2.816   3.872  17.122  1.6999 -0.2215 -1.1643
 7389SOL     OW33802   2.417   2.543   3.748 -0.0288  0.4816  1.0774
 7389SOL    HW133803   2.332   2.581   3.723 -0.5150 -0.4234  1.3481
 7389SOL    HW233804   2.438   2.604   3.818 -0.6632  0.3096  1.4158
 7390SOL     OW33805   3.675   3.275   7.545  0.2280  0.2645  0.1921
 7390SOL    HW133806   3.615   3.277   7.619 -1.1583 -2.5147 -0.8538
 7390SOL    HW233807   3.626   3.334   7.488 -0.9878  0.4174  1.4140
 7391SOL     OW33808   0.412   0.244  15.743 -0.4632 -0.0676 -0.0892
 7391SOL    HW133809   0.488   0.302  15.751  0.6557 -1.9640  3.0548
 7391SOL    HW233810   0.360   0.292  15.679  1.9828  0.7604 -1.4711
 7392SOL     OW33811   4.593   2.115   6.985 -0.0093  0.4415  0.2593
 7392SOL    HW133812   4.581   2.081   7.073 -2.2495  0.2255 -0.1427
 7392SOL    HW233813   4.520   2.177   6.985  0.5637  1.1402 -1.5327
 7393SOL     OW33814   3.279   4.180   6.465 -0.5859 -0.1793 -0.1912
 7393SOL    HW133815   3.325   4.248   6.514  0.7098 -0.4977 -0.9420
 7393SOL    HW233816   3.201   4.163   6.517 -0.7985  1.6954  0.0953
 7394SOL     OW33817   0.878   3.400   5.166  0.3803  0.0041 -0.2077
 7394SOL    HW133818   0.891   3.490   5.197 -0.4184 -0.6269  2.0403
 7394SOL    HW233819   0.872   3.421   5.073 -0.5512  2.4426  0.4025
 7395SOL     OW33820   4.267   1.550   2.972  0.4303 -0.0587 -0.9824
 7395SOL    HW133821   4.175   1.525   2.976  0.4883  0.2238  1.8164
 7395SOL    HW233822   4.310   1.474   3.009  2.4058  0.8809 -1.3483
 7396SOL     OW33823   0.294   2.495   2.658 -0.0074  0.1230 -0.0731
 7396SOL    HW133824   0.319   2.521   2.569  0.7482 -0.2029  0.0435
 7396SOL    HW233825   0.236   2.426   2.626 -0.0726  0.6116 -1.0119
 7397SOL     OW33826   2.614   0.141   2.669  0.0673 -0.0053  0.1142
 7397SOL    HW133827   2.658   0.182   2.743  3.0184  1.8019 -2.6385
 7397SOL    HW233828   2.533   0.116   2.714  0.4482 -3.4425 -1.1551
 7398SOL     OW33829   0.347   3.544   7.651 -0.0311  0.3627  1.0793
 7398SOL    HW133830   0.417   3.531   7.715  1.0549  0.7235 -0.0482
 7398SOL    HW233831   0.389   3.614   7.601  0.4344 -0.3703  0.4511
 7399SOL     OW33832   3.754   3.627   1.522  0.0719  0.1602 -0.0076
 7399SOL    HW133833   3.833   3.582   1.552 -0.6711  1.8070  4.4767
 7399SOL    HW233834   3.737   3.681   1.599 -1.1503  1.7571 -1.3962
 7400SOL     OW33835   3.521   2.170   5.486 -0.2462  0.2807 -0.1777
 7400SOL    HW133836   3.584   2.144   5.553  1.2220  1.8343 -0.9561
 7400SOL    HW233837   3.582   2.166   5.412  0.6439 -0.5431  0.6011
 7401SOL     OW33838   4.349   1.904   6.825  0.0366 -0.4853  0.1771
 7401SOL    HW133839   4.286   1.848   6.780  1.9205 -0.5180 -2.4180
 7401SOL    HW233840   4.425   1.885   6.770  0.4890 -0.1005  0.6667
 7402SOL     OW33841   2.206   1.773   0.241  0.3896  0.1665  0.4190
 7402SOL    HW133842   2.116   1.776   0.210 -0.2777 -2.0250  2.1567
 7402SOL    HW233843   2.204   1.788   0.335  1.2738  1.8054  0.1839
 7403SOL     OW33844   4.027   4.394   3.431  0.2247 -0.2113  0.3244
 7403SOL    HW133845   4.065   4.355   3.352  0.6743  1.7527 -0.4229
 7403SOL    HW233846   3.948   4.343   3.449  0.1556  0.5064  1.9969
 7404SOL     OW33847   1.281   3.028   8.815 -0.5477  0.3597  0.0794
 7404SOL    HW133848   1.223   2.988   8.879  0.6428 -0.9023  0.3614
 7404SOL    HW233849   1.228   3.039   8.736 -1.1609 -0.7276  0.3522
 7405SOL     OW33850   2.778   1.959   6.726 -0.0996 -0.8157 -0.3857
 7405SOL    HW133851   2.805   2.010   6.802 -0.8026  1.4507 -1.6522
 7405SOL    HW233852   2.682   1.952   6.728 -0.2093  1.3871  2.4847
 7406SOL     OW33853   4.287   4.161   4.608  0.2919  0.0589 -0.3408
 7406SOL    HW133854   4.205   4.126   4.573  0.8574  0.0351 -1.6290
 7406SOL    HW233855   4.352   4.111   4.558 -2.0611 -1.0173 -2.3565
 7407SOL     OW33856   2.404   2.045   2.813  0.1178  0.4685 -0.9341
 7407SOL    HW133857   2.463   1.978   2.779  0.3800 -0.7068  1.8479
 7407SOL    HW233858   2.393   1.999   2.896  0.2405 -0.6654 -1.5432
 7408SOL     OW33859   3.011   2.600   5.763 -0.8277 -0.0210  0.0409
 7408SOL    HW133860   3.042   2.513   5.788 -0.5765 -0.6077 -2.2850
 7408SOL    HW233861   3.035   2.598   5.670 -0.7271  1.4804  0.0415
 7409SOL     OW33862   3.258   3.440   3.998 -0.0819  0.0338  0.2354
 7409SOL    HW133863   3.233   3.393   3.919  2.8002 -0.0252 -0.6506
 7409SOL    HW233864   3.334   3.490   3.968  1.0565 -1.1716  1.0817
 7410SOL     OW33865   1.304   2.720   6.512 -0.4334 -0.7470 -0.1901
 7410SOL    HW133866   1.293   2.704   6.419 -2.0517  0.9620 -0.2866
 7410SOL    HW233867   1.292   2.815   6.512  0.4560 -0.6320 -0.1036
 7411SOL     OW33868   0.685   2.380   3.296 -0.1094 -0.1458 -0.3456
 7411SOL    HW133869   0.643   2.313   3.242 -1.0785  1.4192 -1.5704
 7411SOL    HW233870   0.733   2.432   3.232 -0.3642  0.9511  0.3522
 7412SOL     OW33871   2.224   2.886   8.234  0.1427  0.3669 -0.1565
 7412SOL    HW133872   2.241   2.823   8.304 -0.0094 -0.2132 -0.6428
 7412SOL    HW233873   2.161   2.946   8.275 -1.8368 -2.0292  0.2901
 7413SOL     OW33874   4.047   4.650   4.634 -0.3031  0.4553 -0.3667
 7413SOL    HW133875   4.114   4.700   4.588 -0.2453  1.6133  0.9920
 7413SOL    HW233876   4.067   4.558   4.615 -0.4816  0.7149 -1.8083
 7414SOL     OW33877   0.831   1.763  12.754  0.0071 -0.4002 -0.0559
 7414SOL    HW133878   0.858   1.738  12.842 -2.7187 -0.4635  0.7506
 7414SOL    HW233879   0.841   1.858  12.757 -0.0837 -0.2476 -3.5706
 7415SOL     OW33880   2.627   3.843   6.506 -0.6014 -0.2884 -0.3581
 7415SOL    HW133881   2.633   3.768   6.565  2.5404  1.0728  1.0919
 7415SOL    HW233882   2.680   3.822   6.429 -0.1772  0.1119 -0.1773
 7416SOL     OW33883   2.822   1.595   8.014 -0.6399 -0.2698  0.1909
 7416SOL    HW133884   2.827   1.648   8.094  1.0376 -2.9369  1.8809
 7416SOL    HW233885   2.885   1.633   7.953 -0.7149 -2.7515 -1.4196
 7417SOL     OW33886   3.327   3.464   7.874  0.0818 -0.1093 -0.2038
 7417SOL    HW133887   3.393   3.396   7.861  1.9574  1.6368  0.1766
 7417SOL    HW233888   3.299   3.473   7.783  0.3297 -1.6598 -0.4285
 7418SOL     OW33889   3.722   2.930   3.158 -0.0842 -0.5212 -0.4591
 7418SOL    HW133890   3.681   3.009   3.193  2.7948  0.6195  0.3893
 7418SOL    HW233891   3.732   2.874   3.235  1.2098 -3.5523 -2.8074
 7419SOL     OW33892   1.246   4.127   1.472  0.1880  0.1111 -1.2917
 7419SOL    HW133893   1.202   4.151   1.390 -1.6806  0.3434 -0.2273
 7419SOL    HW233894   1.313   4.071   1.434 -0.1302 -0.4063 -1.0846
 7420SOL     OW33895   1.791   4.349  16.672  0.5232  0.9183  0.6480
 7420SOL    HW133896   1.855   4.330  16.742  1.1423 -1.4585 -0.5386
 7420SOL    HW233897   1.748   4.264  16.663 -1.7767  2.2017 -0.3260
 7421SOL     OW33898   1.914   2.324   4.647 -0.2161  0.4262 -0.6215
 7421SOL    HW133899   1.990   2.365   4.605 -1.1866  1.2162 -1.5875
 7421SOL    HW233900   1.903   2.363   4.733 -1.1518  2.3756 -1.6169
 7422SOL     OW33901   1.954   0.008   5.423  0.8294  0.1375 -0.0692
 7422SOL    HW133902   1.935   0.046   5.509 -0.6587 -0.2063 -0.2484
 7422SOL    HW233903   1.922   4.656   5.433  1.7903 -0.1749  0.1528
 7423SOL     OW33904   2.967   4.159  10.009  0.2698  0.1312 -0.0523
 7423SOL    HW133905   2.884   4.171   9.962 -0.7538  0.0286  1.6930
 7423SOL    HW233906   2.955   4.076  10.054  1.2517  0.3769  0.6739
 7424SOL     OW33907   0.659   3.378   1.706  0.3911 -0.0058  0.3651
 7424SOL    HW133908   0.683   3.289   1.734  2.8633  0.6625  0.4053
 7424SOL    HW233909   0.697   3.393   1.619  1.2200 -2.2761  0.3181
 7425SOL     OW33910   4.390   0.113   8.871  0.7327  0.1591  0.0095
 7425SOL    HW133911   4.320   0.141   8.930  1.9123 -0.0812  1.5332
 7425SOL    HW233912   4.427   0.194   8.835 -0.9202  1.1714  0.5651
 7426SOL     OW33913   2.861   3.049   8.504 -0.0418  0.2382 -0.3985
 7426SOL    HW133914   2.885   3.012   8.588 -0.9588  1.3746  0.3571
 7426SOL    HW233915   2.788   2.994   8.476 -0.7772  0.3408  1.3590
 7427SOL     OW33916   2.286   3.711  15.838 -0.6240  0.6720  0.2828
 7427SOL    HW133917   2.202   3.719  15.883 -1.1550  0.1893 -0.6096
 7427SOL    HW233918   2.280   3.778  15.770  0.9306 -1.9777 -2.4606
 7428SOL     OW33919   1.311   1.197   7.370 -0.6809  0.0908 -0.4016
 7428SOL    HW133920   1.294   1.150   7.452  0.0935  1.5019  0.5605
 7428SOL    HW233921   1.406   1.206   7.357 -0.8611  0.9567 -1.0973
 7429SOL     OW33922   2.524   3.030   2.306  0.4063  0.1341  0.1338
 7429SOL    HW133923   2.569   3.109   2.337 -0.6322  0.5216  0.6481
 7429SOL    HW233924   2.541   3.029   2.211 -2.7435 -0.8272 -0.4172
 7430SOL     OW33925   0.054   2.105   2.089  0.6454 -0.1053  0.3764
 7430SOL    HW133926   0.075   2.197   2.074  0.2469 -0.2575 -1.1310
 7430SOL    HW233927   0.058   2.100   2.185  0.9184 -2.1270  0.2567
 7431SOL     OW33928   0.800   2.615  11.783 -0.3110 -0.5242  0.3012
 7431SOL    HW133929   0.795   2.519  11.779 -0.9283 -0.5471  1.5305
 7431SOL    HW233930   0.892   2.624  11.759 -0.0103  1.4309  2.2557
 7432SOL     OW33931   2.735   2.609   8.129 -0.2801  0.3728 -0.9899
 7432SOL    HW133932   2.750   2.696   8.166 -1.0957 -0.2406  0.8079
 7432SOL    HW233933   2.764   2.617   8.038 -1.7636 -0.1294 -1.5150
 7433SOL     OW33934   0.552   3.981   5.002 -0.5482 -0.1880  0.1025
 7433SOL    HW133935   0.457   3.970   4.994 -0.7070  0.7151  0.7443
 7433SOL    HW233936   0.567   3.949   4.912 -1.0050  1.1335 -0.4371
 7434SOL     OW33937   0.270   3.200  16.265  0.3161 -0.0254 -0.2048
 7434SOL    HW133938   0.205   3.148  16.311 -0.0960 -0.6339 -1.4565
 7434SOL    HW233939   0.343   3.182  16.323 -0.0141  0.0112  0.2176
 7435SOL     OW33940   1.740   0.372  10.585 -0.6570 -0.3934 -0.4706
 7435SOL    HW133941   1.825   0.410  10.606 -1.0377  0.3491 -0.2778
 7435SOL    HW233942   1.723   0.316  10.661 -0.2002 -0.1793 -0.2143
 7436SOL     OW33943   2.840   4.644  13.181  0.0382 -0.0830 -0.7176
 7436SOL    HW133944   2.842   4.644  13.276  1.5339 -1.1228 -0.7421
 7436SOL    HW233945   2.749   4.668  13.161  0.5786  1.9659 -0.6378
 7437SOL     OW33946   1.674   1.820   9.176 -0.7130 -0.3607  0.1193
 7437SOL    HW133947   1.591   1.802   9.221 -1.0106  1.1613  0.1830
 7437SOL    HW233948   1.644   1.806   9.086 -0.7289  1.2611 -0.1191
 7438SOL     OW33949   1.212   1.930  11.788 -0.2282 -0.4406  0.7126
 7438SOL    HW133950   1.224   1.836  11.774 -1.2978 -0.2383 -1.6463
 7438SOL    HW233951   1.284   1.949  11.848 -0.9318 -2.0781  2.1017
 7439SOL     OW33952   0.352   2.731   4.684  0.6096 -0.0659 -0.0115
 7439SOL    HW133953   0.266   2.752   4.722  0.1255  0.2375 -1.2688
 7439SOL    HW233954   0.397   2.677   4.749  0.7434 -1.4160 -1.2352
 7440SOL     OW33955   2.537   2.707   6.539 -0.3902  0.7868 -0.7564
 7440SOL    HW133956   2.511   2.657   6.617  0.1741 -2.8393 -2.9105
 7440SOL    HW233957   2.457   2.758   6.524 -1.1349 -0.4311 -0.8773
 7441SOL     OW33958   4.060   4.370   6.023  0.2478  0.3170 -0.2158
 7441SOL    HW133959   4.130   4.305   6.029  1.2979  1.5148  0.5811
 7441SOL    HW233960   4.062   4.410   6.110 -2.8968  0.1134 -0.0752
 7442SOL     OW33961   0.539   0.658   7.749 -0.0740  0.2216 -0.6414
 7442SOL    HW133962   0.632   0.648   7.734  0.2423  3.0194 -0.6248
 7442SOL    HW233963   0.502   0.667   7.661 -0.0336 -0.9529 -0.7754
 7443SOL     OW33964   3.255   2.974  10.129 -0.1669  0.0606 -0.1421
 7443SOL    HW133965   3.270   3.056  10.081 -1.1247  0.0724 -0.4211
 7443SOL    HW233966   3.253   2.899  10.070 -6.2138 -0.0138  0.1122
 7444SOL     OW33967   2.221   2.293   6.083 -0.2592 -0.0694 -0.1729
 7444SOL    HW133968   2.301   2.249   6.053 -1.9568 -3.1470 -0.0919
 7444SOL    HW233969   2.202   2.255   6.169 -2.7863  1.2875 -0.1290
 7445SOL     OW33970   0.136   2.892   3.159 -0.4465 -0.3551 -0.0491
 7445SOL    HW133971   0.089   2.886   3.076 -1.1030  0.1771  0.2853
 7445SOL    HW233972   0.111   2.807   3.197  3.0823 -1.2734  0.2383
 7446SOL     OW33973   1.402   2.026   4.372 -0.1055  0.2455  0.0658
 7446SOL    HW133974   1.326   2.023   4.315  0.4382 -1.7108 -0.5605
 7446SOL    HW233975   1.472   1.977   4.328 -0.5704 -0.1909 -0.1774
 7447SOL     OW33976   0.127   0.997   3.049 -0.2754 -0.2776 -0.1066
 7447SOL    HW133977   0.187   0.994   2.975  1.3730  2.6756  1.1247
 7447SOL    HW233978   0.162   1.054   3.117 -0.9576 -0.7718  0.6656
 7448SOL     OW33979   1.514   2.535   7.342 -0.7963 -0.4629  0.0780
 7448SOL    HW133980   1.487   2.453   7.299 -1.5101 -0.4224  0.4477
 7448SOL    HW233981   1.581   2.564   7.281 -2.8299  2.0412 -0.9130
 7449SOL     OW33982   4.294   3.701   7.738 -0.1988 -0.3149  0.0846
 7449SOL    HW133983   4.285   3.641   7.664 -3.1738  0.5948 -0.2912
 7449SOL    HW233984   4.267   3.645   7.810  0.2445 -2.3950 -1.3854
 7450SOL     OW33985   2.420   1.950   2.202 -1.2934  0.4423  0.2384
 7450SOL    HW133986   2.495   1.965   2.259 -1.1445  0.2410  0.0969
 7450SOL    HW233987   2.462   1.910   2.126 -1.8053  0.2760  0.0475
 7451SOL     OW33988   0.369   1.974   3.844 -0.3952 -0.3124  0.0613
 7451SOL    HW133989   0.356   2.050   3.900  2.0763  0.7786 -0.8301
 7451SOL    HW233990   0.410   2.015   3.767 -0.1992 -0.7498 -0.0694
 7452SOL     OW33991   4.619   4.466   0.321 -0.2236 -0.3557  0.2151
 7452SOL    HW133992   4.582   4.475   0.408 -0.4417 -0.1983  0.1063
 7452SOL    HW233993   4.700   4.425   0.350  0.8142  0.9848 -0.7238
 7453SOL     OW33994   1.978   4.043   3.461 -0.2504 -0.0229 -0.3576
 7453SOL    HW133995   1.987   4.061   3.368  0.0630 -3.1167 -0.9347
 7453SOL    HW233996   2.037   4.106   3.502 -1.1237  2.7530 -3.4503
 7454SOL     OW33997   0.062   1.255   4.269 -0.0702  0.1717  0.0369
 7454SOL    HW133998   0.070   1.278   4.176 -4.4534  0.8252 -0.1660
 7454SOL    HW233999   0.085   1.162   4.270  0.5683  0.3316  0.0581
 7455SOL     OW34000   4.384   4.326   7.779  0.4478  0.0706 -0.2242
 7455SOL    HW134001   4.452   4.363   7.836 -2.5077  2.0234  2.0487
 7455SOL    HW234002   4.439   4.263   7.733  2.4439  2.3030 -0.8709
 7456SOL     OW34003   0.664   2.330  11.878  0.1445  0.1545 -0.0465
 7456SOL    HW134004   0.750   2.305  11.913  0.6190 -0.7952 -1.9262
 7456SOL    HW234005   0.629   2.379  11.953 -0.6059  1.2132 -1.0891
 7457SOL     OW34006   3.474   1.016   1.576 -0.4578 -0.3258  0.2523
 7457SOL    HW134007   3.395   0.984   1.531 -1.1880 -0.3144  1.5177
 7457SOL    HW234008   3.471   1.103   1.536  1.4734  0.1977  1.2717
 7458SOL     OW34009   0.428   0.973   4.136 -0.1248 -0.6379  0.5298
 7458SOL    HW134010   0.400   1.021   4.214  2.7844 -0.6891  1.6075
 7458SOL    HW234011   0.351   0.917   4.125 -0.1505 -0.4443 -0.2350
 7459SOL     OW34012   3.138   3.133   5.209 -0.2628  0.0421 -0.2379
 7459SOL    HW134013   3.194   3.056   5.215  1.2634  0.9973 -2.5200
 7459SOL    HW234014   3.206   3.200   5.210 -2.2454  2.0728 -1.7616
 7460SOL     OW34015   3.303   0.812   7.356 -0.1313  0.6915  0.7267
 7460SOL    HW134016   3.303   0.732   7.303  0.6750  0.6182  0.8365
 7460SOL    HW234017   3.217   0.850   7.339 -0.0004  0.9204  0.5727
 7461SOL     OW34018   0.268   0.589   5.894  0.0570  0.2018  0.6919
 7461SOL    HW134019   0.219   0.523   5.844  1.1915  0.4323 -0.7280
 7461SOL    HW234020   0.334   0.602   5.826 -1.8734  0.0039 -1.2175
 7462SOL     OW34021   1.480   3.466   6.140  0.4194 -0.0813  0.7823
 7462SOL    HW134022   1.467   3.558   6.162  0.5194 -0.3891  2.1077
 7462SOL    HW234023   1.574   3.468   6.154  0.3889 -0.5190  1.0464
 7463SOL     OW34024   3.239   1.951   5.813 -0.0534 -0.2321 -0.3256
 7463SOL    HW134025   3.198   1.989   5.735  2.0599 -0.4858 -1.5755
 7463SOL    HW234026   3.289   1.875   5.782 -0.9550 -0.7267 -0.5636
 7464SOL     OW34027   2.191   1.769  10.896 -0.1671 -0.2712 -0.0382
 7464SOL    HW134028   2.174   1.690  10.948 -0.3613  0.4896  1.0375
 7464SOL    HW234029   2.142   1.834  10.946 -1.6839 -1.8040  0.4691
 7465SOL     OW34030   0.200   2.788  11.132 -0.2438  0.0488 -0.1077
 7465SOL    HW134031   0.154   2.812  11.212  0.3258 -0.4486  0.3754
 7465SOL    HW234032   0.271   2.730  11.161  0.0716  1.2422  1.4722
 7466SOL     OW34033   1.970   0.699   9.304 -0.2617 -1.0445 -0.2432
 7466SOL    HW134034   2.058   0.737   9.308 -0.5209 -0.4412 -0.4218
 7466SOL    HW234035   1.989   0.605   9.295 -0.8309 -1.2363  0.5422
 7467SOL     OW34036   0.368   2.823  12.414 -0.8742 -0.0987 -0.4456
 7467SOL    HW134037   0.360   2.762  12.340 -1.9885 -0.9945  0.4038
 7467SOL    HW234038   0.335   2.759  12.478 -1.7750  0.4499 -0.3634
 7468SOL     OW34039   0.315   2.137  10.209  0.1523 -0.4763  0.3828
 7468SOL    HW134040   0.400   2.126  10.166 -0.0097 -0.7568  0.1308
 7468SOL    HW234041   0.285   2.046  10.216 -0.8920 -0.0989  0.8154
 7469SOL     OW34042   0.244   0.292   8.546 -0.0244 -0.5356  0.1556
 7469SOL    HW134043   0.225   0.207   8.505 -0.8914 -1.2301  1.9898
 7469SOL    HW234044   0.327   0.313   8.503 -0.2626 -0.7166 -0.3865
 7470SOL     OW34045   3.674   2.149  16.815 -0.1721  0.2305  0.0829
 7470SOL    HW134046   3.714   2.118  16.733 -2.2958  1.4965 -1.4123
 7470SOL    HW234047   3.696   2.241  16.825  1.0906 -0.1047  0.4345
 7471SOL     OW34048   3.178   3.446   5.397 -0.6996  0.2399 -0.6588
 7471SOL    HW134049   3.150   3.529   5.435 -0.1030 -0.8404  2.1540
 7471SOL    HW234050   3.174   3.466   5.303  0.9417 -0.2656 -0.8384
 7472SOL     OW34051   0.142   0.849  11.454 -0.0579 -0.2799 -0.3148
 7472SOL    HW134052   0.061   0.901  11.449  0.0439 -0.1157 -0.2499
 7472SOL    HW234053   0.135   0.793  11.531  3.3830  1.3415  1.1626
 7473SOL     OW34054   3.629   1.707   8.449  0.0157 -0.0445  0.3691
 7473SOL    HW134055   3.623   1.711   8.354  0.6640  0.4462  0.3550
 7473SOL    HW234056   3.566   1.635   8.461  0.8928 -0.8058  0.4213
 7474SOL     OW34057   2.156   0.847   4.424  0.0813 -0.2454 -0.2925
 7474SOL    HW134058   2.148   0.932   4.468 -0.8577  0.1199 -1.1678
 7474SOL    HW234059   2.192   0.796   4.497 -1.8427 -1.9237 -0.5181
 7475SOL     OW34060   4.328   1.257   7.778  0.2253 -0.1955 -0.4007
 7475SOL    HW134061   4.317   1.172   7.735  0.9683  0.2374 -1.4557
 7475SOL    HW234062   4.414   1.283   7.744 -0.1960  2.1148  0.3365
 7476SOL     OW34063   2.322   1.342   8.992  0.0172  0.2007  0.6133
 7476SOL    HW134064   2.278   1.258   8.980 -0.3207  0.2077  1.8052
 7476SOL    HW234065   2.413   1.316   9.006 -0.6188 -0.5687  3.2596
 7477SOL     OW34066   0.204   1.419   9.087  0.0241 -0.6820 -0.3445
 7477SOL    HW134067   0.286   1.463   9.109 -0.8446  0.4188  0.6953
 7477SOL    HW234068   0.156   1.498   9.062  1.6992 -0.0423 -1.5040
 7478SOL     OW34069   4.346   3.468   3.895 -0.5173 -0.5579  0.5098
 7478SOL    HW134070   4.269   3.460   3.840 -0.8247 -1.0081  1.0049
 7478SOL    HW234071   4.412   3.412   3.854 -0.3054 -0.5650  0.8596
 7479SOL     OW34072   3.395   1.496   5.334 -0.3118  0.1035  0.0190
 7479SOL    HW134073   3.402   1.590   5.320  2.2060 -0.0381  0.3821
 7479SOL    HW234074   3.362   1.507   5.423 -2.4442  0.3700 -0.8024
 7480SOL     OW34075   3.645   1.917   2.370  0.3653 -0.1205 -0.2058
 7480SOL    HW134076   3.701   1.885   2.440 -0.1870 -1.1087 -0.2179
 7480SOL    HW234077   3.571   1.857   2.375 -0.7239  1.1827 -0.7292
 7481SOL     OW34078   4.085   0.415   2.343 -0.0245  0.0173  0.3680
 7481SOL    HW134079   4.161   0.431   2.399  0.3548 -0.1326 -0.1031
 7481SOL    HW234080   4.026   0.477   2.386  0.5816  0.0781  1.1173
 7482SOL     OW34081   2.166   1.497  15.388  0.4829  0.1232 -0.3356
 7482SOL    HW134082   2.234   1.436  15.360  1.6420  0.0467  2.6112
 7482SOL    HW234083   2.086   1.447  15.380 -1.5350  3.1846  0.6017
 7483SOL     OW34084   2.408   3.556   0.724  0.6168  0.5642 -0.3459
 7483SOL    HW134085   2.471   3.522   0.661  2.1702  2.9517 -0.0480
 7483SOL    HW234086   2.328   3.525   0.682 -2.0962  3.3452  2.7439
 7484SOL     OW34087   2.987   0.801   9.200  0.0001  0.7960  0.1370
 7484SOL    HW134088   2.899   0.774   9.176 -0.2181 -0.8913  2.8109
 7484SOL    HW234089   3.044   0.725   9.190 -0.7611 -0.2918  4.0707
 7485SOL     OW34090   1.594   0.914   1.799 -0.5047 -0.4795  0.2156
 7485SOL    HW134091   1.536   0.842   1.777 -0.0540 -0.9189  0.4720
 7485SOL    HW234092   1.643   0.870   1.868  0.4708  1.5197  0.8142
 7486SOL     OW34093   2.456   3.207   6.818 -0.4596  0.1951 -0.1666
 7486SOL    HW134094   2.482   3.116   6.810 -0.2818  0.4111 -1.9307
 7486SOL    HW234095   2.482   3.250   6.737  0.4688 -0.7206 -0.3440
 7487SOL     OW34096   3.022   2.068   7.185  0.6612  0.5124  0.0279
 7487SOL    HW134097   3.004   2.124   7.111  0.2304 -0.1324 -0.3503
 7487SOL    HW234098   3.108   2.031   7.166  0.7563  0.7352  0.0226
 7488SOL     OW34099   2.806   4.480   7.101  0.3940 -0.4012  0.0851
 7488SOL    HW134100   2.793   4.415   7.032 -1.1882  0.5704 -0.5232
 7488SOL    HW234101   2.724   4.527   7.118 -0.1723 -0.3313 -2.8535
 7489SOL     OW34102   0.270   2.696   6.433 -0.2328 -0.4568  0.3641
 7489SOL    HW134103   0.278   2.615   6.382  1.0393  0.8422 -1.5117
 7489SOL    HW234104   0.242   2.763   6.370  2.1246 -1.4140 -1.6875
 7490SOL     OW34105   4.531   4.615   7.554  0.0767  0.4214 -0.1637
 7490SOL    HW134106   4.544   4.631   7.461  0.8258  0.7595 -0.0053
 7490SOL    HW234107   4.443   4.650   7.564 -1.0580 -1.9145 -1.9667
 7491SOL     OW34108   1.599   0.768   4.542  0.1136 -0.1559  0.0130
 7491SOL    HW134109   1.693   0.758   4.560 -0.8138 -1.9543  3.9660
 7491SOL    HW234110   1.577   0.675   4.550  0.7784 -0.4880 -2.0206
 7492SOL     OW34111   4.137   2.122   1.965 -0.2758 -0.0141 -0.4815
 7492SOL    HW134112   4.201   2.189   1.989 -1.3328  1.0178 -0.5871
 7492SOL    HW234113   4.190   2.064   1.909  1.2970  1.1524 -0.2164
 7493SOL     OW34114   1.498   1.465   4.029  0.3458  0.1486  0.0816
 7493SOL    HW134115   1.567   1.492   4.090 -0.7209  0.8312  1.0066
 7493SOL    HW234116   1.494   1.548   3.981  1.3184 -0.7290 -1.4901
 7494SOL     OW34117   1.123   4.565   7.892 -0.2502  0.6333  0.3037
 7494SOL    HW134118   1.080   4.500   7.947 -0.4893 -0.9015 -1.6699
 7494SOL    HW234119   1.168   4.625   7.951 -0.7209 -1.2553  2.5962
 7495SOL     OW34120   2.115   2.782   6.403 -0.4202 -0.3686 -0.5373
 7495SOL    HW134121   2.113   2.742   6.316  0.7825  0.4483 -0.9450
 7495SOL    HW234122   2.027   2.765   6.436 -0.5937  2.3800  0.3455
 7496SOL     OW34123   1.765   3.746  12.895  0.1914 -0.1709  0.2077
 7496SOL    HW134124   1.833   3.798  12.937  1.4391 -0.3825 -1.5509
 7496SOL    HW234125   1.823   3.686  12.848  0.2863 -0.3414  0.5407
 7497SOL     OW34126   1.638   3.961   2.094 -0.0976  0.8028 -0.1280
 7497SOL    HW134127   1.697   4.001   2.158  0.2460  0.0742  0.0147
 7497SOL    HW234128   1.702   3.931   2.029 -0.4766 -0.8054  0.2239
 7498SOL     OW34129   4.729   1.425   6.957  0.4019  0.5816  0.8020
 7498SOL    HW134130   0.003   1.444   6.863  1.0049 -3.4118  0.0875
 7498SOL    HW234131   4.717   1.513   6.993  1.3667  0.5220  1.2778
 7499SOL     OW34132   1.589   3.477  16.112 -0.1545  0.2042 -0.6271
 7499SOL    HW134133   1.660   3.445  16.168 -0.7423  0.5370  0.3033
 7499SOL    HW234134   1.630   3.493  16.027  2.3848 -3.0758 -0.0680
 7500SOL     OW34135   4.254   0.796   6.939  0.0882 -0.1142 -0.4286
 7500SOL    HW134136   4.209   0.877   6.918  0.6948  0.3122 -0.0924
 7500SOL    HW234137   4.187   0.737   6.904  0.7743 -3.0861  3.2498
 7501SOL     OW34138   1.894   3.125   9.271  0.1449  0.4613  0.4502
 7501SOL    HW134139   1.946   3.187   9.322  0.5018  0.0944  0.5313
 7501SOL    HW234140   1.812   3.118   9.320 -0.6899  1.8168 -0.7413
 7502SOL     OW34141   1.495   1.480   7.072 -0.2816 -0.1752  0.5665
 7502SOL    HW134142   1.476   1.553   7.131 -1.4562  1.6436 -2.0768
 7502SOL    HW234143   1.410   1.462   7.032  0.2127 -0.8078 -0.2125
 7503SOL     OW34144   1.731   2.237  12.901  0.1042 -0.2749 -0.2135
 7503SOL    HW134145   1.648   2.222  12.945  0.7723 -1.4641  0.6324
 7503SOL    HW234146   1.778   2.304  12.949  1.1634 -0.7102 -0.6218
 7504SOL     OW34147   2.173   4.008   8.663 -0.2558 -0.4432 -0.0203
 7504SOL    HW134148   2.194   3.939   8.601  1.5505 -0.1317  0.2432
 7504SOL    HW234149   2.090   4.041   8.629 -0.5741 -1.0631  0.1593
 7505SOL     OW34150   0.099   1.094  17.683 -0.1178 -0.3034  0.1184
 7505SOL    HW134151   0.047   1.129   0.008  0.0023 -3.5161  1.7814
 7505SOL    HW234152   0.129   1.178  17.650 -0.2336 -0.2479  0.1528
 7506SOL     OW34153   0.145   1.156   6.644  0.1089 -0.1351  0.5772
 7506SOL    HW134154   0.067   1.196   6.683 -0.9492  0.0940 -1.7730
 7506SOL    HW234155   0.200   1.226   6.609  0.6516 -0.0966  1.5141
 7507SOL     OW34156   0.277   2.785  10.043  0.1781  0.3884 -0.4366
 7507SOL    HW134157   0.232   2.720  10.097 -1.2073  1.4549 -0.2990
 7507SOL    HW234158   0.266   2.744   9.957 -1.1801  1.3589 -0.7233
 7508SOL     OW34159   2.374   2.784   2.301 -0.1103 -0.4067 -0.8363
 7508SOL    HW134160   2.307   2.820   2.242 -1.8493 -1.1916  0.6353
 7508SOL    HW234161   2.433   2.854   2.327 -1.0562  0.7270 -1.7488
 7509SOL     OW34162   1.989   2.276  10.288  0.6620  0.0395  0.2962
 7509SOL    HW134163   1.925   2.339  10.321 -1.0757  1.0666 -5.0468
 7509SOL    HW234164   2.033   2.240  10.364  0.3161 -1.9189 -0.4184
 7510SOL     OW34165   0.132   2.194   9.758 -0.1781  0.2968 -0.5161
 7510SOL    HW134166   0.176   2.273   9.789 -2.0882  1.5870 -1.1041
 7510SOL    HW234167   0.203   2.131   9.771 -1.4066 -0.9148  0.1904
 7511SOL     OW34168   0.936   3.088   8.482 -0.2194 -0.4557 -0.2944
 7511SOL    HW134169   1.026   3.072   8.508  0.0367  0.6440 -0.4700
 7511SOL    HW234170   0.927   3.183   8.471  0.7630 -0.1916  1.2307
 7512SOL     OW34171   0.744   3.364   7.955  0.4279  0.3588 -0.0558
 7512SOL    HW134172   0.767   3.457   7.955  0.6594  0.3012 -0.0454
 7512SOL    HW234173   0.822   3.326   7.915  0.1087 -0.1633 -0.1735
 7513SOL     OW34174   2.747   2.756   3.876  0.3724 -0.0938  0.5109
 7513SOL    HW134175   2.683   2.827   3.882 -0.1109 -0.6280  1.6581
 7513SOL    HW234176   2.781   2.754   3.965 -2.5379  3.6775  1.7550
 7514SOL     OW34177   3.394   2.682   7.901  0.1911  0.0402  0.3429
 7514SOL    HW134178   3.443   2.677   7.984 -0.3173 -1.1450  0.5688
 7514SOL    HW234179   3.459   2.734   7.853  0.4135  0.6912  1.3485
 7515SOL     OW34180   1.094   0.949   4.255 -0.0136 -0.0112  0.3128
 7515SOL    HW134181   1.066   0.931   4.165  0.6955 -0.7337  0.2356
 7515SOL    HW234182   1.015   0.970   4.303 -1.6290  2.0130 -3.1943
 7516SOL     OW34183   1.642   4.320  16.074  0.0032  0.4777  0.3966
 7516SOL    HW134184   1.588   4.298  15.999 -0.4633  0.9563  0.5941
 7516SOL    HW234185   1.644   4.414  16.057 -0.2469  0.4650  0.3021
 7517SOL     OW34186   1.615   1.848   6.309  0.1064  0.7505 -0.2279
 7517SOL    HW134187   1.671   1.823   6.236 -0.5631  1.3187 -0.9391
 7517SOL    HW234188   1.548   1.906   6.271 -1.6517  0.1170  1.9117
 7518SOL     OW34189   2.359   0.738   1.718 -0.6760 -0.2429 -0.5446
 7518SOL    HW134190   2.267   0.763   1.725 -0.6717 -0.2187 -0.5743
 7518SOL    HW234191   2.374   0.750   1.625  2.3091 -0.3687 -0.0625
 7519SOL     OW34192   1.015   0.777   7.690  0.4424 -0.0948 -0.3613
 7519SOL    HW134193   1.074   0.851   7.699  1.0132 -0.8584  2.1926
 7519SOL    HW234194   1.041   0.753   7.601  1.8442  2.7845 -0.6986
 7520SOL     OW34195   0.968   1.971   3.961 -0.4088 -0.0027 -0.3138
 7520SOL    HW134196   0.926   1.903   4.013 -0.9874  1.2416  0.8255
 7520SOL    HW234197   0.984   1.917   3.883  0.8631  0.3376 -0.2794
 7521SOL     OW34198   4.320   1.788   8.557 -0.1493  0.1533  0.6767
 7521SOL    HW134199   4.254   1.857   8.570 -0.0200  0.3334  0.3782
 7521SOL    HW234200   4.394   1.846   8.539 -0.4272  0.7920  1.6052
 7522SOL     OW34201   0.692   3.303  17.004  0.0711  0.1376 -0.1120
 7522SOL    HW134202   0.724   3.318  16.915  0.0716  1.9560  0.1920
 7522SOL    HW234203   0.771   3.280  17.055 -0.1370 -0.8339 -0.2278
 7523SOL     OW34204   0.726   3.626   6.814  0.0263 -0.3768 -0.5764
 7523SOL    HW134205   0.761   3.712   6.792  1.1485 -0.4716  0.8435
 7523SOL    HW234206   0.801   3.568   6.829  0.1752  0.3887  1.5388
 7524SOL     OW34207   2.816   3.749  14.937 -0.0525 -0.0552  0.2200
 7524SOL    HW134208   2.894   3.701  14.911 -0.8737 -0.9380 -0.6695
 7524SOL    HW234209   2.750   3.682  14.915 -0.1786  0.5911 -1.3568
 7525SOL     OW34210   1.902   4.716   5.718 -0.0148 -0.1574 -0.3162
 7525SOL    HW134211   1.883   4.624   5.697  0.9404 -0.3287 -0.4096
 7525SOL    HW234212   1.821   0.018   5.686  0.5105  0.1931 -1.2046
 7526SOL     OW34213   4.645   1.774   5.065  0.7734 -0.4348 -0.0817
 7526SOL    HW134214   0.002   1.781   5.077  0.7186  0.4226 -0.1453
 7526SOL    HW234215   4.661   1.705   5.001 -1.2032 -0.3708 -0.6491
 7527SOL     OW34216   3.936   3.123   8.506 -0.1660  0.4416 -0.4984
 7527SOL    HW134217   3.888   3.205   8.492  3.7688  2.5841 -1.4234
 7527SOL    HW234218   4.027   3.150   8.521  0.2009 -1.2250  0.2679
 7528SOL     OW34219   2.492   0.520  11.155  0.0201  0.7550  0.4861
 7528SOL    HW134220   2.568   0.461  11.160  1.0058  1.7966 -1.9326
 7528SOL    HW234221   2.463   0.530  11.245 -1.4609  1.3146 -0.0404
 7529SOL     OW34222   3.911   3.807   3.928  0.1022  0.2975 -0.1691
 7529SOL    HW134223   4.005   3.805   3.909  0.0398  0.2195 -0.4719
 7529SOL    HW234224   3.887   3.723   3.967 -0.7298  0.2553 -0.7688
 7530SOL     OW34225   2.691   4.456  17.225  0.3112 -0.0001  0.0355
 7530SOL    HW134226   2.706   4.515  17.299  0.4502  0.9983 -0.7857
 7530SOL    HW234227   2.780   4.438  17.193  0.0318  0.1946 -0.8392
 7531SOL     OW34228   2.446   0.336   3.549 -0.5100 -0.2188  0.2354
 7531SOL    HW134229   2.356   0.362   3.535 -0.9918 -1.7466  0.4647
 7531SOL    HW234230   2.449   0.254   3.500 -0.7860 -0.7611  1.1262
 7532SOL     OW34231   4.634   1.749  12.244  0.3429  0.2935  0.2183
 7532SOL    HW134232   4.722   1.732  12.278  0.9599 -1.6905 -2.3456
 7532SOL    HW234233   4.641   1.834  12.201  0.0031 -0.1272 -0.6818
 7533SOL     OW34234   1.576   2.903   6.956  0.3119 -0.1834 -0.2204
 7533SOL    HW134235   1.641   2.970   6.978  2.4947 -1.9206 -1.4079
 7533SOL    HW234236   1.575   2.858   7.040  0.5672  0.2135 -0.0056
 7534SOL     OW34237   3.869   2.835   2.178 -0.4428 -0.4732 -0.0721
 7534SOL    HW134238   3.840   2.789   2.257 -0.5821  2.4187  1.5363
 7534SOL    HW234239   3.818   2.916   2.179 -2.8593 -2.0371  2.5593
 7535SOL     OW34240   3.133   0.646   8.850  0.3502 -0.1688 -0.4233
 7535SOL    HW134241   3.123   0.579   8.918  1.6932 -0.0537 -0.1181
 7535SOL    HW234242   3.145   0.584   8.778  0.1455 -0.6599 -0.0361
 7536SOL     OW34243   3.379   2.880   7.533 -0.0738  0.0729 -0.0803
 7536SOL    HW134244   3.418   2.907   7.449 -1.3139 -2.2731 -1.4133
 7536SOL    HW234245   3.382   2.785   7.522 -0.5866  0.0605 -0.1137
 7537SOL     OW34246   0.235   2.164   3.411  0.6062  0.0112  0.3650
 7537SOL    HW134247   0.308   2.149   3.471  0.3434 -0.7843  0.4819
 7537SOL    HW234248   0.227   2.083   3.361  1.5118  0.5975 -0.7423
 7538SOL     OW34249   1.314   2.011  12.321 -0.4224 -0.2073  0.8289
 7538SOL    HW134250   1.334   1.984  12.231  2.0755 -1.2832  1.7269
 7538SOL    HW234251   1.335   1.929  12.365 -0.3991 -0.2471  0.7442
 7539SOL     OW34252   3.509   0.664  17.681 -0.5667  0.0401 -0.1796
 7539SOL    HW134253   3.560   0.681   0.012 -2.1240 -0.3752  0.9325
 7539SOL    HW234254   3.557   0.703  17.608  2.0546 -0.2260  1.4298
 7540SOL     OW34255   3.861   3.407   9.888 -0.2088 -0.1244  0.3191
 7540SOL    HW134256   3.844   3.317   9.914  1.0976 -0.3821  0.2877
 7540SOL    HW234257   3.774   3.444   9.877 -0.7718 -1.3598  0.6391
 7541SOL     OW34258   3.282   1.329   0.775  0.1131  0.2142 -0.2343
 7541SOL    HW134259   3.237   1.309   0.693 -3.1711  2.9261  0.9024
 7541SOL    HW234260   3.200   1.335   0.825  0.1689 -1.0985  0.0170
 7542SOL     OW34261   2.478   4.691   5.105 -0.0864  0.1530 -0.6966
 7542SOL    HW134262   2.403   4.650   5.147  0.1408  2.1674  1.6634
 7542SOL    HW234263   2.547   4.629   5.126  0.3986  0.6454 -0.8484
 7543SOL     OW34264   4.452   4.521  16.218 -0.1168 -0.1018 -0.3807
 7543SOL    HW134265   4.389   4.579  16.261 -0.1818 -2.1534  2.2711
 7543SOL    HW234266   4.488   4.577  16.150  0.7142 -0.8096 -0.5208
 7544SOL     OW34267   4.488   3.849  16.637 -0.1255 -0.6897  0.2508
 7544SOL    HW134268   4.407   3.810  16.605  0.0202 -0.9334  0.1837
 7544SOL    HW234269   4.480   3.930  16.586 -0.5278  0.0899  1.5596
 7545SOL     OW34270   0.607   0.324   5.628  0.1529 -0.2052  0.0440
 7545SOL    HW134271   0.653   0.303   5.547 -0.7160  0.6171 -0.6709
 7545SOL    HW234272   0.526   0.273   5.623 -0.3941  0.7750 -1.0039
 7546SOL     OW34273   1.315   1.891  15.102 -0.0556  0.1371  0.3962
 7546SOL    HW134274   1.231   1.930  15.076 -0.6115 -0.8775  0.6973
 7546SOL    HW234275   1.305   1.886  15.197 -1.2126  0.7196  0.3017
 7547SOL     OW34276   4.721   3.796   3.828 -0.5528  1.0777  0.0866
 7547SOL    HW134277   4.735   3.794   3.733  0.2013  0.4722  0.2135
 7547SOL    HW234278   0.065   3.751   3.851 -1.2389  0.0785  0.5823
 7548SOL     OW34279   2.432   0.483   1.803  0.1917 -0.2687  0.3293
 7548SOL    HW134280   2.421   0.578   1.797 -2.7193 -0.6251 -0.1636
 7548SOL    HW234281   2.525   0.469   1.786  0.0562 -1.7764  0.8176
 7549SOL     OW34282   3.897   4.320   8.523  0.5380  0.0986  0.7272
 7549SOL    HW134283   3.988   4.293   8.510  0.6547  1.3360 -1.0326
 7549SOL    HW234284   3.916   4.408   8.557  2.9575 -0.2237  0.2303
 7550SOL     OW34285   0.251   2.662  16.692 -0.1264 -0.0726 -0.2266
 7550SOL    HW134286   0.253   2.581  16.743 -0.0430  1.4756  2.2368
 7550SOL    HW234287   0.287   2.628  16.610  0.3031  0.2256 -0.1589
 7551SOL     OW34288   0.012   4.257   5.680  0.2308 -0.3737 -0.1243
 7551SOL    HW134289   4.707   4.341   5.696  0.4293 -0.0895 -1.1351
 7551SOL    HW234290   0.101   4.292   5.680  1.1888 -2.7504  0.3649
 7552SOL     OW34291   2.410   0.134  16.294 -0.2185  0.5551  0.1423
 7552SOL    HW134292   2.314   0.137  16.287 -0.1446  0.4415 -0.9472
 7552SOL    HW234293   2.435   0.184  16.217  2.1561 -1.2325 -0.2387
 7553SOL     OW34294   4.077   1.469   8.425 -0.0489  0.2889  0.3062
 7553SOL    HW134295   3.988   1.446   8.453 -0.4371  0.2588 -0.9773
 7553SOL    HW234296   4.123   1.494   8.505  0.1336 -2.0709  0.9363
 7554SOL     OW34297   0.992   1.048   4.006  0.4971  0.0274  0.2842
 7554SOL    HW134298   0.935   1.124   3.995  2.1213  0.9778 -1.5826
 7554SOL    HW234299   1.068   1.090   3.964  1.6955 -2.5911 -0.2090
 7555SOL     OW34300   3.234   0.253   1.207  0.5938 -0.3058 -0.5113
 7555SOL    HW134301   3.188   0.297   1.135  0.2752 -0.8933 -0.6662
 7555SOL    HW234302   3.209   0.162   1.192  0.4225 -0.4867  0.9032
 7556SOL     OW34303   0.912   0.282   4.059 -0.1431  0.0326 -0.2219
 7556SOL    HW134304   0.827   0.313   4.029  0.4326  0.1826 -1.6776
 7556SOL    HW234305   0.976   0.315   3.996  0.4836 -1.4096 -0.3459
 7557SOL     OW34306   2.487   1.562   5.229 -0.5659 -0.4141  0.3026
 7557SOL    HW134307   2.510   1.497   5.163 -0.7693  0.1679 -0.3452
 7557SOL    HW234308   2.426   1.621   5.185  0.9311  0.3822 -0.6919
 7558SOL     OW34309   1.452   4.658   5.913  0.0033  0.3082  0.1398
 7558SOL    HW134310   1.365   4.643   5.950  0.2293 -1.0951  0.1104
 7558SOL    HW234311   1.488   4.569   5.905 -0.3252  0.0952  1.0955
 7559SOL     OW34312   0.255   1.345   5.581  0.1514  0.1659  0.5367
 7559SOL    HW134313   0.268   1.356   5.675 -0.2020  0.4206  0.5567
 7559SOL    HW234314   0.344   1.340   5.547  0.2402 -0.4196  0.8584
 7560SOL     OW34315   2.673   1.459   8.395 -0.0678 -0.1738 -0.1823
 7560SOL    HW134316   2.655   1.547   8.361 -1.7115 -0.4800 -0.1052
 7560SOL    HW234317   2.606   1.400   8.360 -0.8377 -0.7724  2.2852
 7561SOL     OW34318   3.740   1.461   9.315 -0.3597 -0.8586  0.0544
 7561SOL    HW134319   3.782   1.437   9.233  1.4350  0.1193  0.6936
 7561SOL    HW234320   3.796   1.534   9.340 -0.9041  0.4739 -2.5719
 7562SOL     OW34321   2.946   2.094   2.803 -0.7469  0.0573  1.1319
 7562SOL    HW134322   2.913   2.037   2.873  1.6471 -1.2316  1.2062
 7562SOL    HW234323   2.933   2.172   2.856 -0.2084  0.4707  0.6426
 7563SOL     OW34324   2.952   3.235   4.563  0.1630 -0.0358 -0.4517
 7563SOL    HW134325   3.037   3.259   4.599 -1.3746  4.6012  0.0225
 7563SOL    HW234326   2.935   3.308   4.503 -1.4582  2.2062  2.7645
 7564SOL     OW34327   1.629   3.471   3.018  0.2877  0.4663 -0.0636
 7564SOL    HW134328   1.593   3.458   3.105  0.7406 -1.2636 -0.1419
 7564SOL    HW234329   1.697   3.535   3.040 -0.0073  0.3287  1.2407
 7565SOL     OW34330   1.434   2.088  10.357  0.0989  0.0443  0.0784
 7565SOL    HW134331   1.502   2.032  10.395  0.9588 -0.2454 -1.8806
 7565SOL    HW234332   1.486   2.136  10.292 -1.2668  0.3651 -0.7806
 7566SOL     OW34333   1.824   1.024   4.392 -0.1784  0.4929  0.3124
 7566SOL    HW134334   1.895   1.052   4.334 -0.3700  0.7992  0.2278
 7566SOL    HW234335   1.800   1.112   4.420 -2.4151 -0.6428  1.9098
 7567SOL     OW34336   1.013   2.237   3.153 -0.3529  0.1724 -0.1323
 7567SOL    HW134337   0.943   2.173   3.144  0.1083 -0.0087 -2.4999
 7567SOL    HW234338   0.956   2.313   3.140  0.8549  1.4288  1.9280
 7568SOL     OW34339   3.408   4.174  13.578 -0.2689  0.0072 -0.1148
 7568SOL    HW134340   3.438   4.104  13.520 -0.1534 -1.5026  1.7967
 7568SOL    HW234341   3.312   4.168  13.581 -0.1006 -0.6750  3.6808
 7569SOL     OW34342   0.767   1.594   7.517  0.1541 -0.2369  0.3514
 7569SOL    HW134343   0.782   1.499   7.516  1.0890 -0.0926  0.6098
 7569SOL    HW234344   0.702   1.595   7.587 -1.4659  1.6863 -1.1813
 7570SOL     OW34345   1.298   0.032   1.339  0.7001 -0.2346  0.5684
 7570SOL    HW134346   1.254   0.117   1.329  3.1083  1.0484  0.6987
 7570SOL    HW234347   1.258   4.721   1.411  0.0199  0.0298  0.3667
 7571SOL     OW34348   3.085   3.594  12.463  0.4515 -0.4815 -0.2294
 7571SOL    HW134349   3.154   3.558  12.519  0.0083 -0.4882  0.3084
 7571SOL    HW234350   3.017   3.608  12.528 -0.0312 -1.1066 -0.5985
 7572SOL     OW34351   2.192   4.702   4.183 -0.0594  0.1971  0.1450
 7572SOL    HW134352   2.113   4.667   4.142  0.4159 -1.8808  0.9648
 7572SOL    HW234353   2.238   4.618   4.195  0.7338  0.5539 -0.4078
 7573SOL     OW34354   0.385   2.318   8.536  0.4618  0.3125  0.2974
 7573SOL    HW134355   0.475   2.333   8.566 -0.1169  2.4643  1.0002
 7573SOL    HW234356   0.342   2.355   8.613 -1.0188  0.3213 -0.5355
 7574SOL     OW34357   0.851   4.704   2.298 -0.8136 -0.0144  0.1192
 7574SOL    HW134358   0.937   4.706   2.341 -0.7575 -0.6659  0.0369
 7574SOL    HW234359   0.823   4.613   2.305 -0.9171 -0.0488 -0.8381
 7575SOL     OW34360   3.303   0.602   2.769  0.3350  0.0727 -0.4811
 7575SOL    HW134361   3.217   0.645   2.766 -0.5414 -1.4553  2.0565
 7575SOL    HW234362   3.303   0.587   2.675  1.9867 -0.7462 -0.3517
 7576SOL     OW34363   2.980   2.912   5.611  0.2391  0.2646 -0.1980
 7576SOL    HW134364   2.926   2.986   5.586 -1.6169 -0.1544  2.6130
 7576SOL    HW234365   2.899   2.871   5.642  1.2183 -0.6113  1.2247
 7577SOL     OW34366   4.567   1.965   2.470 -0.6754 -0.5584 -0.3526
 7577SOL    HW134367   4.576   2.060   2.469 -0.1308 -0.6097 -0.3607
 7577SOL    HW234368   4.643   1.937   2.522 -1.8422 -2.4221  0.3779
 7578SOL     OW34369   3.661   0.730  13.513 -0.4596 -0.4603  0.6178
 7578SOL    HW134370   3.601   0.786  13.561  1.2881  2.1894 -0.3329
 7578SOL    HW234371   3.738   0.722  13.570  1.3941  1.4188 -1.6263
 7579SOL     OW34372   4.613   2.743   6.385  0.5318 -0.0837  0.1377
 7579SOL    HW134373   4.672   2.740   6.460  1.3273 -0.2966 -0.5054
 7579SOL    HW234374   4.573   2.656   6.385  0.8067 -0.1985 -1.9934
 7580SOL     OW34375   3.403   0.846   1.233 -0.1728  0.4193 -0.0784
 7580SOL    HW134376   3.468   0.834   1.302  0.2385  3.2839  0.0407
 7580SOL    HW234377   3.355   0.769   1.263 -2.2943  2.0599  0.7679
 7581SOL     OW34378   2.006   2.999   5.877 -0.4139  0.3146  0.4332
 7581SOL    HW134379   1.943   3.067   5.900 -0.0206  0.0920  2.2168
 7581SOL    HW234380   1.947   2.936   5.835  2.4004 -1.8266 -0.3127
 7582SOL     OW34381   0.226   0.377   4.384  0.4601  0.2265  0.1056
 7582SOL    HW134382   0.151   0.342   4.336  1.7483 -2.5317  0.1092
 7582SOL    HW234383   0.211   0.338   4.470  3.1033  0.7380  0.8058
 7583SOL     OW34384   4.680   3.090   1.508  0.1726  0.2221 -0.8347
 7583SOL    HW134385   4.716   3.178   1.499  0.3784  0.1001 -1.2308
 7583SOL    HW234386   0.000   3.060   1.579 -2.0149 -1.6695  0.1274
 7584SOL     OW34387   2.784   1.319   9.630  0.2768 -0.3536  0.5837
 7584SOL    HW134388   2.702   1.347   9.672 -0.0777  2.4578 -1.9789
 7584SOL    HW234389   2.817   1.260   9.697 -0.8203 -0.0859  1.3506
 7585SOL     OW34390   0.938   3.306   7.324 -0.0512  0.8368  0.0467
 7585SOL    HW134391   1.028   3.283   7.300 -0.7068  0.9074 -2.4829
 7585SOL    HW234392   0.909   3.216   7.311  1.3817  0.0413  2.3246
 7586SOL     OW34393   0.450   0.866   2.456 -0.3011  0.5110  0.1286
 7586SOL    HW134394   0.400   0.787   2.477  1.4269 -0.4723  0.5107
 7586SOL    HW234395   0.539   0.835   2.444 -0.8023 -1.7311  2.0826
 7587SOL     OW34396   3.547   0.772   3.325 -0.0791  0.8065  0.7349
 7587SOL    HW134397   3.622   0.753   3.382 -0.3905  1.0250  1.2216
 7587SOL    HW234398   3.518   0.684   3.302  2.4058 -0.1969  1.4009
 7588SOL     OW34399   3.361   3.574   1.427 -0.0445 -0.5931  0.2954
 7588SOL    HW134400   3.359   3.499   1.367  1.2377  0.2038 -0.7553
 7588SOL    HW234401   3.427   3.635   1.394 -1.2688 -0.9547 -2.8262
 7589SOL     OW34402   0.458   0.335   2.635  0.3402  0.0639 -0.5260
 7589SOL    HW134403   0.552   0.320   2.635  0.1667 -0.9945 -0.9630
 7589SOL    HW234404   0.433   0.255   2.682  1.9237  0.1075  0.3826
 7590SOL     OW34405   3.536   2.360  15.914 -0.2114  0.3791 -0.1231
 7590SOL    HW134406   3.555   2.360  16.008 -0.3996  2.6195 -0.0940
 7590SOL    HW234407   3.507   2.451  15.912 -2.8966 -0.3048  5.6788
 7591SOL     OW34408   2.651   4.096   6.728 -0.1382  0.4095 -0.2434
 7591SOL    HW134409   2.693   4.080   6.644 -0.2705 -0.0476 -0.2189
 7591SOL    HW234410   2.661   4.004   6.753  0.0147  0.7717  1.0607
 7592SOL     OW34411   2.235   2.127   2.037 -0.0168  0.6451  0.2879
 7592SOL    HW134412   2.295   2.089   2.101  1.5297  1.4734 -0.6717
 7592SOL    HW234413   2.176   2.051   2.037  1.7920 -0.7664 -0.9405
 7593SOL     OW34414   2.310   1.282  15.333 -0.8442 -0.3500  0.2011
 7593SOL    HW134415   2.333   1.253  15.245  1.7953 -1.5883  1.3172
 7593SOL    HW234416   2.229   1.236  15.357 -0.8578  0.1746  1.1496
 7594SOL     OW34417   0.654   0.573   2.792  0.3733  0.3245 -0.1601
 7594SOL    HW134418   0.575   0.566   2.738  0.7709 -1.1994 -0.5331
 7594SOL    HW234419   0.668   0.668   2.787 -1.0710  0.5327 -0.2312
 7595SOL     OW34420   1.911   0.876   3.045  0.7336 -0.2145  0.0708
 7595SOL    HW134421   1.830   0.890   2.996 -0.3745 -2.5450  1.1980
 7595SOL    HW234422   1.936   0.967   3.056 -1.3344  0.5261 -1.4100
 7596SOL     OW34423   4.625   2.959  11.443  0.4409 -0.1361  0.3201
 7596SOL    HW134424   4.660   2.983  11.529  1.4402 -1.0465  0.1790
 7596SOL    HW234425   4.701   2.912  11.407  0.9525  1.6256 -0.9201
 7597SOL     OW34426   2.316   1.457   3.519 -0.7250  0.5736  0.2538
 7597SOL    HW134427   2.243   1.503   3.561 -0.5215 -1.0924  2.4311
 7597SOL    HW234428   2.365   1.424   3.594  0.4130  0.2757 -0.6164
 7598SOL     OW34429   3.545   0.636  12.906  0.2766 -0.7919 -0.6283
 7598SOL    HW134430   3.559   0.578  12.831  0.2757 -2.4954  0.6810
 7598SOL    HW234431   3.508   0.709  12.857  0.9113  0.6458  1.0422
 7599SOL     OW34432   4.647   4.514  10.650  0.1576  0.0246  0.1761
 7599SOL    HW134433   4.688   4.462  10.581 -0.5203  0.9995 -0.9756
 7599SOL    HW234434   4.586   4.562  10.593  0.3603 -0.9971 -0.9194
 7600SOL     OW34435   0.195   3.414   4.262 -0.2969 -0.3190  0.1967
 7600SOL    HW134436   0.248   3.467   4.202 -1.0165  1.5277  1.2137
 7600SOL    HW234437   0.116   3.463   4.243  0.2480 -0.1408 -1.6449
 7601SOL     OW34438   2.145   2.939   9.461 -0.4482  0.3119 -0.4773
 7601SOL    HW134439   2.077   2.874   9.442 -2.2604  2.0516  0.0882
 7601SOL    HW234440   2.143   2.990   9.380 -3.4148 -2.9273 -2.4507
 7602SOL     OW34441   0.506   1.162  16.715 -0.1764  0.5670 -0.2932
 7602SOL    HW134442   0.439   1.225  16.692 -0.7639  0.4052  0.9708
 7602SOL    HW234443   0.456   1.083  16.735  0.8324  0.0370  0.1678
 7603SOL     OW34444   2.796   2.358   5.036 -0.4015  0.3378 -0.0680
 7603SOL    HW134445   2.726   2.377   5.098 -1.1167 -2.2994 -0.1047
 7603SOL    HW234446   2.750   2.388   4.958 -1.0086  2.5644  1.1469
 7604SOL     OW34447   0.929   4.497   8.750 -0.1096 -0.6283  0.0932
 7604SOL    HW134448   0.919   4.576   8.697  0.3564 -1.3368 -1.0498
 7604SOL    HW234449   0.836   4.480   8.760 -0.3171 -0.8123 -2.1756
 7605SOL     OW34450   1.918   0.643   8.559  0.0958  0.0670 -0.1426
 7605SOL    HW134451   1.849   0.665   8.621  0.7922  0.6103  0.4441
 7605SOL    HW234452   1.882   0.668   8.474 -0.1353  2.4496  0.6534
 7606SOL     OW34453   4.245   2.323   3.044  0.0094 -0.0885 -0.3316
 7606SOL    HW134454   4.181   2.392   3.024  1.1737  1.4424  1.1147
 7606SOL    HW234455   4.196   2.243   3.026  2.2935 -1.7259  0.6987
 7607SOL     OW34456   4.338   3.788   8.899 -0.7931  0.0258 -0.1864
 7607SOL    HW134457   4.378   3.847   8.835 -1.3867  2.1536  1.4104
 7607SOL    HW234458   4.267   3.842   8.933 -0.2143  0.6886 -0.0326
 7608SOL     OW34459   3.219   1.018  16.567 -0.7245 -0.0511 -0.2861
 7608SOL    HW134460   3.226   1.056  16.479 -3.3097  1.3902  0.1399
 7608SOL    HW234461   3.128   1.037  16.587 -0.0532  2.5446  0.3445
 7609SOL     OW34462   3.654   4.187  10.338  0.4150  0.4269 -0.0112
 7609SOL    HW134463   3.710   4.178  10.415  1.1861  1.6974 -0.4168
 7609SOL    HW234464   3.615   4.273  10.354 -1.7930 -0.6109  0.1971
 7610SOL     OW34465   1.026   2.134   4.785 -0.4586 -0.5194  0.2763
 7610SOL    HW134466   0.967   2.085   4.728 -0.2125  1.7977 -1.9852
 7610SOL    HW234467   1.037   2.210   4.728  2.2547 -1.9424 -1.0786
 7611SOL     OW34468   4.041   1.916   6.476 -0.3035  0.4663 -0.0167
 7611SOL    HW134469   4.015   1.852   6.542  0.4749  1.1188  0.9275
 7611SOL    HW234470   4.000   1.880   6.397 -1.4526  0.5267  0.5573
 7612SOL     OW34471   3.760   4.679   8.221 -0.2057 -0.4525  0.2970
 7612SOL    HW134472   3.681   4.701   8.271 -0.7052  1.0816 -1.1942
 7612SOL    HW234473   3.756   4.584   8.213 -0.5265 -0.3478 -0.7172
 7613SOL     OW34474   3.551   1.816  16.625  0.4718 -0.2818  0.3281
 7613SOL    HW134475   3.539   1.722  16.612 -1.0965 -0.0487  0.0773
 7613SOL    HW234476   3.521   1.828  16.715  1.0035 -1.9093  0.7199
 7614SOL     OW34477   1.099   4.485  16.090  0.1331  0.6702  0.4855
 7614SOL    HW134478   1.101   4.410  16.030  1.3976  0.5828  0.6363
 7614SOL    HW234479   1.097   4.438  16.173 -0.7528 -0.7651 -0.3346
 7615SOL     OW34480   1.930   4.061   7.017 -0.3848  0.2143 -0.0238
 7615SOL    HW134481   1.868   4.073   6.945  1.9259  0.3533 -1.9786
 7615SOL    HW234482   2.010   4.095   6.977 -0.2712 -2.3427 -1.9949
 7616SOL     OW34483   0.111   0.845   9.912 -0.0384 -0.1127  0.2006
 7616SOL    HW134484   0.132   0.919   9.968  0.1372  1.1084 -1.4948
 7616SOL    HW234485   0.142   0.773   9.967  2.0449  2.3846  2.2504
 7617SOL     OW34486   3.711   0.470  11.387  0.3732 -0.6419  0.0592
 7617SOL    HW134487   3.757   0.487  11.469  2.8797  1.2355 -1.7494
 7617SOL    HW234488   3.787   0.442  11.336  0.6315  0.1788 -0.0177
 7618SOL     OW34489   0.215   1.889   2.014 -0.1671 -0.3209 -0.1842
 7618SOL    HW134490   0.159   1.962   2.042 -1.0737 -0.9226 -0.4141
 7618SOL    HW234491   0.146   1.823   2.010  0.1927 -0.5102 -2.7013
 7619SOL     OW34492   3.954   4.324  12.165 -0.1247  0.0887  0.3637
 7619SOL    HW134493   4.031   4.277  12.196  0.6318  1.0797 -0.0135
 7619SOL    HW234494   3.961   4.404  12.216 -1.0121  0.8704 -0.7581
 7620SOL     OW34495   0.629   1.365   8.531 -0.8841 -0.3468  0.4704
 7620SOL    HW134496   0.599   1.456   8.531 -1.1808 -0.4376  1.5438
 7620SOL    HW234497   0.609   1.334   8.443 -2.8006  0.4078  0.6448
 7621SOL     OW34498   4.269   4.671  12.389 -0.2409  0.4003  0.4134
 7621SOL    HW134499   4.281   4.680  12.483  2.1978  3.1636 -0.1932
 7621SOL    HW234500   4.176   4.650  12.397 -0.4586  2.5061  3.0389
 7622SOL     OW34501   2.113   2.991   5.199 -0.1401 -0.0323  0.0591
 7622SOL    HW134502   2.034   3.043   5.190 -0.3580 -0.5218 -0.9256
 7622SOL    HW234503   2.135   2.975   5.107 -0.5947  1.9532 -0.3932
 7623SOL     OW34504   2.039   0.747   2.502 -0.5274 -0.2939  0.5287
 7623SOL    HW134505   2.035   0.825   2.447 -1.0314  0.7558  2.0555
 7623SOL    HW234506   1.972   0.704   2.449 -1.2001  0.8976  0.4136
 7624SOL     OW34507   4.106   3.940   0.004  0.1353 -0.2811  0.1888
 7624SOL    HW134508   4.175   3.978   0.058 -0.4926  1.2343 -0.0724
 7624SOL    HW234509   4.150   3.926  17.667 -0.5580  0.8445 -0.3606
 7625SOL     OW34510   2.800   4.037   5.927 -0.3233 -0.0291  0.7782
 7625SOL    HW134511   2.875   4.058   5.871  0.9357  0.5152  2.6516
 7625SOL    HW234512   2.751   3.988   5.862  0.0330 -0.3159  0.7276
 7626SOL     OW34513   0.200   1.131   0.572 -0.8546 -0.3828 -0.6334
 7626SOL    HW134514   0.196   1.127   0.477  0.3063 -1.7298 -0.6264
 7626SOL    HW234515   0.136   1.202   0.581 -0.5424  0.0422 -1.8194
 7627SOL     OW34516   4.699   3.856   8.113 -0.4540 -0.4512  0.1969
 7627SOL    HW134517   4.734   3.810   8.190  0.9652 -0.4924 -0.4705
 7627SOL    HW234518   0.039   3.860   8.057 -2.1309  0.2328 -2.0205
 7628SOL     OW34519   0.748   1.758   6.217  0.4886  0.0350 -0.1016
 7628SOL    HW134520   0.683   1.689   6.205 -0.6464  1.1889 -0.5478
 7628SOL    HW234521   0.695   1.838   6.224 -0.0979 -0.3828  0.2104
 7629SOL     OW34522   4.420   4.631   8.689 -0.0384  0.5170 -0.4296
 7629SOL    HW134523   4.508   4.649   8.656  0.3524 -0.7658 -0.0691
 7629SOL    HW234524   4.388   4.717   8.718  0.0703  0.7939 -1.1201
 7630SOL     OW34525   1.486   4.690   8.310  0.1923  0.4075 -0.3019
 7630SOL    HW134526   1.541   0.030   8.293 -0.4647  0.6183 -1.5139
 7630SOL    HW234527   1.428   4.714   8.382  1.9005  4.3194 -0.2495
 7631SOL     OW34528   2.942   3.785   5.283 -0.0895  0.0758  0.0906
 7631SOL    HW134529   2.989   3.804   5.202 -0.8246  0.3021 -0.2745
 7631SOL    HW234530   2.907   3.873   5.296 -1.0886 -0.3582  0.3564
 7632SOL     OW34531   4.710   0.083   2.496 -0.2850 -0.0460 -0.5204
 7632SOL    HW134532   4.679   0.066   2.585 -0.4600  0.9535 -0.3925
 7632SOL    HW234533   4.635   0.046   2.448  0.9153 -2.4040 -0.5890
 7633SOL     OW34534   3.077   4.151  10.686  0.3464 -0.6679  0.1039
 7633SOL    HW134535   3.017   4.092  10.640  0.8391  1.4283 -3.1643
 7633SOL    HW234536   3.101   4.212  10.617  0.6918  1.2922  1.9780
 7634SOL     OW34537   0.026   4.135   2.586  0.0156  0.1258  0.1961
 7634SOL    HW134538   4.737   4.170   2.501  1.7388 -0.2169 -0.4892
 7634SOL    HW234539   0.121   4.139   2.572  0.0399 -0.2409  0.2536
 7635SOL     OW34540   1.908   3.296   6.709  0.5845  0.6765  0.1797
 7635SOL    HW134541   1.817   3.322   6.703  0.5531  0.4669 -0.2279
 7635SOL    HW234542   1.908   3.296   6.805 -0.4463  0.7084  0.1736
 7636SOL     OW34543   2.990   2.367   1.066 -0.2880  0.1650  0.2418
 7636SOL    HW134544   2.931   2.426   1.019 -1.6754 -0.7308  0.8746
 7636SOL    HW234545   3.073   2.404   1.036 -0.6362  0.9672  0.2602
 7637SOL     OW34546   0.939   2.710   3.421 -0.4458 -0.2736  0.3515
 7637SOL    HW134547   0.913   2.801   3.438 -0.5039 -0.0128 -1.1315
 7637SOL    HW234548   0.896   2.704   3.335  2.9514 -0.0137 -1.3298
 7638SOL     OW34549   1.589   2.091   0.343  0.7258 -0.1255  0.3776
 7638SOL    HW134550   1.611   2.010   0.388  0.0636 -1.3157 -1.4565
 7638SOL    HW234551   1.496   2.107   0.357  0.6386  1.1364 -1.6270
 7639SOL     OW34552   0.421   0.961   5.043 -0.5030 -0.2868 -0.3971
 7639SOL    HW134553   0.338   1.005   5.061  0.7179  1.6878  0.3245
 7639SOL    HW234554   0.476   0.981   5.119  2.3855  0.7357 -2.7632
 7640SOL     OW34555   3.373   4.074   0.306 -0.1819  0.8516 -0.0197
 7640SOL    HW134556   3.337   4.143   0.362  0.3605  1.5779 -0.5635
 7640SOL    HW234557   3.359   4.103   0.216 -1.8351  0.4628  0.1191
 7641SOL     OW34558   2.510   4.042   0.471 -0.1704  0.0512 -0.1885
 7641SOL    HW134559   2.451   3.967   0.460 -0.4807  0.7394 -3.3586
 7641SOL    HW234560   2.546   4.041   0.382  1.5603 -0.2089  0.5227
 7642SOL     OW34561   1.121   3.495   7.152  0.2430  0.7799  0.3909
 7642SOL    HW134562   1.134   3.515   7.244  0.1179 -0.3183  0.6417
 7642SOL    HW234563   1.116   3.400   7.153  0.5497  0.7713  1.1075
 7643SOL     OW34564   1.625   4.206   3.548  0.5317  0.1013  0.2651
 7643SOL    HW134565   1.530   4.216   3.544  0.7055  1.5244 -0.2136
 7643SOL    HW234566   1.625   4.197   3.643  1.6140  0.5570  0.3147
 7644SOL     OW34567   0.879   0.582   7.257  0.8266 -0.3286  0.1837
 7644SOL    HW134568   0.886   0.527   7.179 -0.2430 -0.1752 -0.0104
 7644SOL    HW234569   0.809   0.646   7.253 -0.0383 -1.2150  0.9453
 7645SOL     OW34570   0.120   3.098   4.845 -0.4335  0.6874 -0.0753
 7645SOL    HW134571   0.206   3.082   4.885 -0.8587 -2.9986 -0.6363
 7645SOL    HW234572   0.117   3.022   4.786 -2.7652  1.6511 -1.1803
 7646SOL     OW34573   4.625   4.253   6.872 -0.4247  0.1272  0.3856
 7646SOL    HW134574   4.553   4.197   6.900 -0.0312 -1.3110 -1.4871
 7646SOL    HW234575   4.699   4.192   6.874  0.8830  1.7653  1.7449
 7647SOL     OW34576   2.693   0.580   4.565  0.0589 -0.5604  0.0954
 7647SOL    HW134577   2.748   0.626   4.502  0.7708  1.6412  2.3348
 7647SOL    HW234578   2.753   0.535   4.625  0.3815 -2.0783 -1.3668
 7648SOL     OW34579   2.256   3.692  12.678  0.2580  0.0083 -0.2216
 7648SOL    HW134580   2.256   3.752  12.752 -3.2040  0.8209 -0.8708
 7648SOL    HW234581   2.165   3.660  12.678  0.2198  0.1089  0.9557
 7649SOL     OW34582   4.103   1.927   4.334 -0.2201 -0.5830 -0.5217
 7649SOL    HW134583   4.145   1.842   4.330 -0.3926 -0.7042  0.2063
 7649SOL    HW234584   4.026   1.912   4.279 -0.3353 -1.0834 -0.2221
 7650SOL     OW34585   3.613   1.136  10.750 -0.2996  0.4097 -0.2193
 7650SOL    HW134586   3.559   1.205  10.790  2.6178  2.3510  0.3827
 7650SOL    HW234587   3.601   1.169  10.661 -1.5692 -1.0304 -0.5749
 7651SOL     OW34588   2.139   0.631   7.451 -0.2023  0.0260 -0.5910
 7651SOL    HW134589   2.130   0.716   7.408 -0.1960  0.9331  1.1797
 7651SOL    HW234590   2.078   0.632   7.525  0.0886  1.1993 -0.3705
 7652SOL     OW34591   2.296   4.004   7.044 -0.0474 -0.3264 -0.5065
 7652SOL    HW134592   2.372   3.988   7.100 -1.4496 -1.4662  1.0748
 7652SOL    HW234593   2.237   3.929   7.046  0.2212 -0.4623  1.9561
 7653SOL     OW34594   2.278   2.051  16.555 -0.0704 -0.1792  0.2863
 7653SOL    HW134595   2.363   2.006  16.566  0.8509  0.9247 -2.3634
 7653SOL    HW234596   2.263   2.075  16.646  2.3078 -0.8054  0.8715
 7654SOL     OW34597   2.336   4.394   3.041  0.1764 -0.2251 -0.6283
 7654SOL    HW134598   2.326   4.470   3.098 -0.1339  0.3374 -1.4491
 7654SOL    HW234599   2.410   4.434   2.996  0.5591  1.5216  1.5511
 7655SOL     OW34600   3.316   3.050   7.002  0.1469 -0.3140 -0.5352
 7655SOL    HW134601   3.281   3.117   7.061  1.5755  0.3126 -0.3992
 7655SOL    HW234602   3.410   3.067   6.995  0.1449 -0.4389 -0.8591
 7656SOL     OW34603   1.989   1.724   4.001 -0.0176  0.5686 -0.4361
 7656SOL    HW134604   2.026   1.707   4.087 -0.6311 -2.2442 -0.7290
 7656SOL    HW234605   1.927   1.794   4.022 -1.0540 -1.0628  1.9206
 7657SOL     OW34606   1.624   3.094   7.638  0.0904  0.1637  0.1525
 7657SOL    HW134607   1.542   3.120   7.595 -0.5795 -0.9120  0.7823
 7657SOL    HW234608   1.658   3.054   7.558  0.0877 -0.5773  0.5236
 7658SOL     OW34609   3.004   1.893  17.258 -0.2831  0.2021 -0.0792
 7658SOL    HW134610   3.053   1.968  17.293 -0.4247  0.5335 -0.5890
 7658SOL    HW234611   2.941   1.855  17.318  0.4449 -0.5679  0.2035
 7659SOL     OW34612   0.846   0.618  15.277  0.5216  0.0013 -0.1210
 7659SOL    HW134613   0.881   0.589  15.194  0.3225 -1.0902  0.1786
 7659SOL    HW234614   0.836   0.710  15.252  0.5805 -0.1626 -0.7370
 7660SOL     OW34615   3.992   3.169  14.506  0.7527 -0.0601  0.0829
 7660SOL    HW134616   3.983   3.097  14.568  2.3805  0.0222  0.3968
 7660SOL    HW234617   3.947   3.128  14.432  0.7357  1.4206 -0.7149
 7661SOL     OW34618   3.171   3.371   7.641  0.2594  0.0653 -0.2155
 7661SOL    HW134619   3.095   3.371   7.582  0.8033 -0.7918 -0.9081
 7661SOL    HW234620   3.193   3.278   7.634  3.0935  0.6195  1.4896
 7662SOL     OW34621   3.804   1.547   8.798 -1.0873  0.1238 -0.3415
 7662SOL    HW134622   3.841   1.519   8.882  1.1604  2.2398 -0.6241
 7662SOL    HW234623   3.722   1.498   8.799 -1.6164  1.0075 -0.0780
 7663SOL     OW34624   2.392   2.255   9.452  0.0445  0.3686 -0.4471
 7663SOL    HW134625   2.435   2.268   9.537 -0.8901  0.7555 -0.0406
 7663SOL    HW234626   2.340   2.335   9.454 -2.0105 -0.9587 -1.2931
 7664SOL     OW34627   1.670   2.426   3.287  0.0170  0.2369  0.5234
 7664SOL    HW134628   1.719   2.499   3.248 -2.8430  1.2089 -1.2732
 7664SOL    HW234629   1.583   2.466   3.294  0.6818  1.9324 -0.7931
 7665SOL     OW34630   4.340   3.611   8.297 -0.0582 -0.1484  0.3126
 7665SOL    HW134631   4.379   3.544   8.241 -0.7516 -1.9376  1.9459
 7665SOL    HW234632   4.340   3.687   8.239 -1.4999  0.2050  0.7686
 7666SOL     OW34633   2.481   1.366   4.233 -0.7188  0.2385  0.4919
 7666SOL    HW134634   2.387   1.379   4.221 -0.2592  2.6327 -0.4845
 7666SOL    HW234635   2.515   1.302   4.170  0.1662  1.8021 -0.6325
 7667SOL     OW34636   4.458   2.045  10.802 -0.0277  0.6496 -0.5196
 7667SOL    HW134637   4.529   2.097  10.764  0.7439  1.5599  2.1341
 7667SOL    HW234638   4.409   2.113  10.849 -0.6531 -1.5509  1.9942
 7668SOL     OW34639   1.652   0.036   4.691  0.5843 -0.8806  0.2625
 7668SOL    HW134640   1.747   0.046   4.691  0.6511 -1.4984 -0.2631
 7668SOL    HW234641   1.644   4.688   4.650 -0.2542 -0.3468 -0.6800
 7669SOL     OW34642   4.701   3.434  17.142  0.5967 -0.0980  0.7787
 7669SOL    HW134643   4.708   3.530  17.142 -1.4274  0.0456 -0.3679
 7669SOL    HW234644   4.698   3.412  17.235 -2.7147  0.0325  0.7094
 7670SOL     OW34645   0.739   1.557  12.595 -0.4840 -0.1250  0.1326
 7670SOL    HW134646   0.767   1.621  12.659  1.3620 -0.3364 -0.4534
 7670SOL    HW234647   0.818   1.505  12.578  0.6060  2.3646 -2.3888
 7671SOL     OW34648   4.262   2.564   6.166  0.0220  0.4307  0.2147
 7671SOL    HW134649   4.252   2.624   6.240 -0.1827  1.8607 -0.9659
 7671SOL    HW234650   4.227   2.620   6.096 -1.4201 -1.1836 -0.3458
 7672SOL     OW34651   3.787   3.803   1.902 -0.3002  0.5992 -0.5784
 7672SOL    HW134652   3.812   3.725   1.852  2.4112  1.9070 -1.2683
 7672SOL    HW234653   3.768   3.864   1.831 -0.7268  0.5276 -0.5252
 7673SOL     OW34654   0.376   3.406   4.530 -0.4109  0.2181  0.6592
 7673SOL    HW134655   0.311   3.464   4.491  0.7653 -0.8022 -2.8062
 7673SOL    HW234656   0.336   3.393   4.616 -0.2841 -2.2677  0.3405
 7674SOL     OW34657   3.712   2.194  15.793 -0.2190  0.0706  0.5056
 7674SOL    HW134658   3.637   2.234  15.836 -0.3727  0.1969  0.1215
 7674SOL    HW234659   3.678   2.199  15.704  1.1228  1.5463  0.0680
 7675SOL     OW34660   1.090   0.050   7.735 -0.5439  0.1726 -0.1714
 7675SOL    HW134661   1.113   4.698   7.761  1.2285  1.0721  1.3491
 7675SOL    HW234662   1.007   0.064   7.781 -1.8553 -3.0145 -1.6164
 7676SOL     OW34663   4.579   3.050  12.903  0.0153  0.0697  0.4235
 7676SOL    HW134664   4.584   3.025  12.996 -3.0414 -0.7105  0.3933
 7676SOL    HW234665   4.669   3.073  12.879 -0.3124  1.4504  0.5084
 7677SOL     OW34666   1.288   1.914   3.684  0.1223 -0.6106  0.2868
 7677SOL    HW134667   1.345   1.867   3.746 -0.2750  1.7882  2.4795
 7677SOL    HW234668   1.344   1.975   3.636  0.7920 -0.4268  1.2920
 7678SOL     OW34669   2.914   4.676   5.467  0.4736  0.3309  0.0253
 7678SOL    HW134670   2.917   4.593   5.421  0.9668  0.1370  0.4144
 7678SOL    HW234671   2.859   4.668   5.545 -0.7809 -1.3177 -1.0268
 7679SOL     OW34672   4.320   4.398  11.539  0.2302 -0.7709 -0.1603
 7679SOL    HW134673   4.232   4.430  11.559  0.0513 -1.6601  0.4841
 7679SOL    HW234674   4.317   4.305  11.519  2.0353 -1.0891  1.1193
 7680SOL     OW34675   4.353   3.085   4.993  0.2535 -0.0963  0.3474
 7680SOL    HW134676   4.358   3.122   4.904  1.4980  0.6663  0.7300
 7680SOL    HW234677   4.440   3.100   5.031 -0.0749 -0.4812  1.2413
 7681SOL     OW34678   3.063   3.952   0.338 -0.1159  0.2014  0.2962
 7681SOL    HW134679   3.142   3.983   0.383  0.4169  0.6170 -0.9329
 7681SOL    HW234680   3.018   4.036   0.347  1.0863  0.6709  1.9821
 7682SOL     OW34681   1.917   1.176  14.910 -0.4116  0.4796  0.2014
 7682SOL    HW134682   1.846   1.126  14.869 -0.8023  0.3347  1.0506
 7682SOL    HW234683   1.983   1.172  14.841 -1.5962 -0.0261 -0.8978
 7683SOL     OW34684   4.416   1.110   6.695  0.4292 -0.0720 -1.3069
 7683SOL    HW134685   4.402   1.099   6.789 -0.0505 -0.5877 -1.4379
 7683SOL    HW234686   4.426   1.019   6.666  1.1133 -1.2036  2.4043
 7684SOL     OW34687   3.194   0.174  16.939  0.2599  0.3093 -0.3615
 7684SOL    HW134688   3.120   0.232  16.922 -2.0099 -1.8109  2.2558
 7684SOL    HW234689   3.204   0.135  16.852 -0.4148  3.7309 -2.0024
 7685SOL     OW34690   1.495   3.796  17.652  0.2780  0.6693 -0.0645
 7685SOL    HW134691   1.471   3.835  17.567 -1.2628 -1.2010 -0.4780
 7685SOL    HW234692   1.408   3.794  17.692 -0.3854  1.7214 -1.4057
 7686SOL     OW34693   2.363   0.558   6.149  0.0765 -0.3447 -0.5003
 7686SOL    HW134694   2.354   0.464   6.137  0.6388 -0.4463 -0.0977
 7686SOL    HW234695   2.437   0.566   6.209  0.3912  0.3761 -0.9756
 7687SOL     OW34696   2.143   3.515   4.675 -0.5488 -0.0333 -0.0272
 7687SOL    HW134697   2.185   3.552   4.598 -2.3507  1.3325 -0.3240
 7687SOL    HW234698   2.128   3.424   4.648  0.9548  0.2371 -1.7376
 7688SOL     OW34699   1.363   4.423  16.219  0.7405  0.3292  0.0630
 7688SOL    HW134700   1.272   4.397  16.235  0.3097  1.3724 -0.6490
 7688SOL    HW234701   1.419   4.360  16.264  2.1602  1.9513  0.5767
 7689SOL     OW34702   1.468   1.956   2.092 -0.0874 -0.7238 -0.1778
 7689SOL    HW134703   1.412   1.999   2.156  1.4558 -0.3475  0.9100
 7689SOL    HW234704   1.557   1.966   2.127 -0.0697 -1.1602 -0.0910
 7690SOL     OW34705   0.523   3.614  16.423  0.2262  0.0031 -0.1921
 7690SOL    HW134706   0.501   3.530  16.465  2.3393 -0.3616  0.1542
 7690SOL    HW234707   0.436   3.652  16.409 -0.6724 -2.4245 -1.1429
 7691SOL     OW34708   0.893   0.302   6.350 -0.5300 -0.0098  0.8880
 7691SOL    HW134709   0.829   0.233   6.371 -1.6872  1.0419  0.7937
 7691SOL    HW234710   0.951   0.257   6.289  0.2708 -0.9851  2.3748
 7692SOL     OW34711   4.116   4.473   6.260  0.0125  0.0963 -0.7419
 7692SOL    HW134712   4.098   4.404   6.324 -0.9578  0.9814 -0.0588
 7692SOL    HW234713   4.145   4.533   6.329 -0.7732  0.1756 -0.4808
 7693SOL     OW34714   0.224   1.580   6.778  0.7022  0.4015  0.0437
 7693SOL    HW134715   0.138   1.581   6.736  1.9223  2.8575 -2.3593
 7693SOL    HW234716   0.287   1.580   6.706  0.5113  0.0988 -0.1244
 7694SOL     OW34717   4.638   3.467   3.924  0.0630  0.6965  0.3725
 7694SOL    HW134718   4.711   3.495   3.870 -0.8969 -1.4046 -2.0535
 7694SOL    HW234719   4.633   3.541   3.984 -0.3690  0.0464  1.1315
 7695SOL     OW34720   1.716   3.459   6.399  0.4842  0.1694 -0.0175
 7695SOL    HW134721   1.691   3.548   6.374 -1.3372 -0.2281  0.3463
 7695SOL    HW234722   1.649   3.442   6.466  0.3258  0.4539 -0.1002
 7696SOL     OW34723   1.227   0.691   2.955  0.1397  0.4339  0.0000
 7696SOL    HW134724   1.142   0.647   2.963  0.6885 -0.7698 -0.9116
 7696SOL    HW234725   1.263   0.676   3.043 -0.5928 -0.3955  0.1599
 7697SOL     OW34726   2.897   2.071  11.935  0.0656 -0.1851  0.1114
 7697SOL    HW134727   2.876   2.062  12.028 -3.3593  0.1571 -0.6422
 7697SOL    HW234728   2.882   2.165  11.935  0.6871 -0.0821  0.6108
 7698SOL     OW34729   2.115   0.992  10.611  0.1675 -0.6165  0.5890
 7698SOL    HW134730   2.128   0.936  10.534  0.5118  0.6112 -0.2519
 7698SOL    HW234731   2.207   1.004  10.634 -0.0198  2.5367 -0.2695
 7699SOL     OW34732   0.276   1.834   6.442 -0.3441  0.6288 -0.0776
 7699SOL    HW134733   0.332   1.911   6.444 -2.2478  2.0231 -0.2040
 7699SOL    HW234734   0.193   1.868   6.407 -1.7659 -1.7835  0.9185
 7700SOL     OW34735   0.270   3.161   6.283 -0.1612  0.7620  0.2558
 7700SOL    HW134736   0.240   3.165   6.374 -2.1769 -3.1783 -0.2305
 7700SOL    HW234737   0.214   3.229   6.246  0.1822 -0.9334 -3.4657
 7701SOL     OW34738   2.271   1.096   9.137 -0.0791  0.5275 -1.1054
 7701SOL    HW134739   2.183   1.113   9.171 -0.3965 -0.0284 -1.6685
 7701SOL    HW234740   2.318   1.098   9.221  0.7328  0.0340 -1.5530
 7702SOL     OW34741   2.164   2.100   6.267 -0.6135 -0.4346 -0.5085
 7702SOL    HW134742   2.109   2.027   6.296 -1.5853 -0.5808 -2.7665
 7702SOL    HW234743   2.248   2.055   6.277 -0.8278 -0.8200 -0.4532
 7703SOL     OW34744   4.482   3.472   2.007  0.4919  0.1837 -0.1712
 7703SOL    HW134745   4.530   3.407   1.956  0.6601  0.6316 -0.5858
 7703SOL    HW234746   4.513   3.462   2.097 -0.3451 -1.7870 -0.1014
 7704SOL     OW34747   1.600   2.363   4.030  0.1656 -0.0090  0.0641
 7704SOL    HW134748   1.651   2.308   3.970  1.4971 -0.4059  1.5751
 7704SOL    HW234749   1.543   2.409   3.968  0.7239 -2.8241 -2.5530
 7705SOL     OW34750   0.457   0.271  13.374  0.1027 -0.4551 -0.1448
 7705SOL    HW134751   0.479   0.239  13.287 -0.5009  1.8786 -1.1586
 7705SOL    HW234752   0.520   0.225  13.429  1.0345  1.0219  0.0161
 7706SOL     OW34753   4.442   1.542   1.591 -0.1219 -1.1066  0.5346
 7706SOL    HW134754   4.419   1.572   1.503  2.1036 -1.7940 -0.2751
 7706SOL    HW234755   4.480   1.456   1.576  0.4414 -0.5618 -1.1712
 7707SOL     OW34756   2.148   2.025  13.493  0.2317 -0.7540 -0.3340
 7707SOL    HW134757   2.086   2.095  13.472  0.4024  0.1131  1.9887
 7707SOL    HW234758   2.232   2.047  13.452  0.1483  0.0401 -0.0905
 7708SOL     OW34759   2.104   4.389   5.739  0.1142  0.0483 -0.2293
 7708SOL    HW134760   2.102   4.312   5.797  0.0372  0.4769  0.3298
 7708SOL    HW234761   2.111   4.449   5.813 -0.5264 -2.5302  1.9590
 7709SOL     OW34762   0.709   3.604  16.227 -0.7680 -0.4890 -0.1018
 7709SOL    HW134763   0.650   3.614  16.301  0.0147 -2.1166  0.7300
 7709SOL    HW234764   0.675   3.539  16.166  0.7569 -2.5733  1.2757
 7710SOL     OW34765   1.372   4.014   2.819 -0.4606 -0.8782  0.0540
 7710SOL    HW134766   1.280   3.996   2.801  0.1342 -0.9542 -2.9805
 7710SOL    HW234767   1.412   3.954   2.755  0.3432  1.1711 -1.3448
 7711SOL     OW34768   1.922   1.826   1.611  0.5318  0.6140  0.0895
 7711SOL    HW134769   1.973   1.877   1.547 -0.7378  1.9579  0.1592
 7711SOL    HW234770   1.839   1.818   1.565 -0.2337 -0.8369  1.7698
 7712SOL     OW34771   1.889   0.572   3.596  0.1799  0.3020  0.0393
 7712SOL    HW134772   1.830   0.646   3.605 -1.5867 -1.1080 -0.0872
 7712SOL    HW234773   1.843   0.524   3.527  0.6859 -1.3230  0.8500
 7713SOL     OW34774   4.303   1.305   6.952 -0.3203 -0.5746  0.0936
 7713SOL    HW134775   4.240   1.350   7.007 -0.7401 -0.9646 -0.0696
 7713SOL    HW234776   4.270   1.329   6.866 -0.1344 -1.4698 -0.2363
 7714SOL     OW34777   3.380   1.309   3.549  0.0180  0.2835 -0.4500
 7714SOL    HW134778   3.285   1.310   3.535 -0.3275  1.0418  1.9696
 7714SOL    HW234779   3.412   1.334   3.462  2.5846 -0.0165  0.4004
 7715SOL     OW34780   1.281   2.436   1.075 -0.3027  0.0620  0.1772
 7715SOL    HW134781   1.189   2.449   1.096 -0.7826 -1.8408 -0.8138
 7715SOL    HW234782   1.291   2.353   1.120  1.0998 -1.2371 -2.5265
 7716SOL     OW34783   2.346   3.298  15.714 -0.3940  0.6173 -0.6252
 7716SOL    HW134784   2.311   3.342  15.637 -1.2431  0.8052 -0.1434
 7716SOL    HW234785   2.411   3.365  15.737 -1.7114  1.8661 -0.4801
 7717SOL     OW34786   4.237   1.627   6.188  0.3937 -0.8655  0.6559
 7717SOL    HW134787   4.328   1.623   6.157  0.8771  0.4897  1.8994
 7717SOL    HW234788   4.202   1.567   6.122 -0.9745 -1.2009  1.6885
 7718SOL     OW34789   4.407   0.398   3.447 -0.4082  0.4541 -0.2033
 7718SOL    HW134790   4.491   0.420   3.407  0.4223 -2.4982 -0.0733
 7718SOL    HW234791   4.406   0.468   3.511 -0.5249  0.1590  0.1187
 7719SOL     OW34792   0.384   0.907   1.795 -0.7322  0.0108 -0.5781
 7719SOL    HW134793   0.315   0.969   1.773 -0.6497  0.6841  1.0037
 7719SOL    HW234794   0.450   0.965   1.833  0.3652 -1.9904  0.5897
 7720SOL     OW34795   0.653   3.761   5.179 -0.3863  0.1271 -0.2348
 7720SOL    HW134796   0.646   3.680   5.127  1.4378 -0.1703  0.0086
 7720SOL    HW234797   0.640   3.829   5.113 -0.0255  1.5210  1.1318
 7721SOL     OW34798   0.881   0.475   6.999 -0.8047 -0.3544 -0.1977
 7721SOL    HW134799   0.926   0.502   6.920  0.3863 -1.2489  0.1878
 7721SOL    HW234800   0.817   0.410   6.968 -0.8718 -0.8743  1.0193
 7722SOL     OW34801   2.486   2.529   5.085 -0.1431 -0.2538  0.1272
 7722SOL    HW134802   2.418   2.555   5.146  0.1236  0.3844  0.1540
 7722SOL    HW234803   2.540   2.474   5.142  0.0796 -1.8568 -1.5922
 7723SOL     OW34804   4.272   2.653   7.299  0.0751 -0.4716  0.1127
 7723SOL    HW134805   4.350   2.619   7.342 -0.5586  0.4900  2.0363
 7723SOL    HW234806   4.248   2.724   7.358  1.7725  0.7837 -0.7108
 7724SOL     OW34807   3.177   4.555   4.988 -0.0606  0.3768  0.7509
 7724SOL    HW134808   3.106   4.550   4.923  1.5220  1.0573 -1.0207
 7724SOL    HW234809   3.178   4.646   5.018  2.1333  0.1737  1.2977
 7725SOL     OW34810   2.285   0.912   6.690  0.2972  0.0007  0.0843
 7725SOL    HW134811   2.282   1.007   6.688  1.9631  0.0699  0.5240
 7725SOL    HW234812   2.376   0.900   6.718  0.8519 -0.5830 -1.9115
 7726SOL     OW34813   3.629   4.236   1.872  0.3823 -0.3767 -0.3108
 7726SOL    HW134814   3.669   4.320   1.895 -1.7707  0.8147 -0.8212
 7726SOL    HW234815   3.632   4.228   1.777 -0.3964 -1.1621 -0.2698
 7727SOL     OW34816   1.742   1.291   4.173 -0.2936  0.2345  0.6182
 7727SOL    HW134817   1.827   1.269   4.134 -1.0642 -1.8543  0.0958
 7727SOL    HW234818   1.693   1.223   4.126 -1.9256  0.5883  1.8321
 7728SOL     OW34819   1.254   2.650   2.871  0.8968 -0.4229  0.0518
 7728SOL    HW134820   1.254   2.565   2.916  0.3918 -0.5600 -0.2123
 7728SOL    HW234821   1.161   2.671   2.862  1.1397  0.7427  0.2775
 7729SOL     OW34822   1.464   1.591   0.692 -0.2106  0.0024 -0.2247
 7729SOL    HW134823   1.546   1.573   0.738 -0.9561 -1.4668  0.5363
 7729SOL    HW234824   1.479   1.685   0.703  0.3771  0.3971 -4.1942
 7730SOL     OW34825   4.234   3.234  17.211 -0.3679  0.0885 -0.4049
 7730SOL    HW134826   4.289   3.277  17.145  2.4989 -3.5061 -0.3599
 7730SOL    HW234827   4.257   3.281  17.291  1.3643  2.4614 -2.2748
 7731SOL     OW34828   2.065   1.191   2.662  0.4426 -0.2044 -0.0532
 7731SOL    HW134829   2.042   1.281   2.686  0.0528 -0.1606 -0.6044
 7731SOL    HW234830   2.003   1.180   2.590  0.1384  0.5958  0.0847
 7732SOL     OW34831   3.877   1.666   3.316 -0.1851  0.1904 -0.5242
 7732SOL    HW134832   3.841   1.753   3.301 -0.0233  0.3343 -0.0870
 7732SOL    HW234833   3.969   1.681   3.295  0.2563 -0.0587  1.1959
 7733SOL     OW34834   0.753   1.361   8.230  0.5109  0.1915 -0.9271
 7733SOL    HW134835   0.763   1.323   8.143  1.1214  2.7637 -1.9871
 7733SOL    HW234836   0.668   1.403   8.217  0.8869  0.7721 -1.5285
 7734SOL     OW34837   3.920   0.773   7.043  0.1489 -0.2326 -0.3480
 7734SOL    HW134838   3.919   0.866   7.020 -1.7668  0.4004  2.2532
 7734SOL    HW234839   3.920   0.731   6.957 -1.3392  3.6131 -2.2321
 7735SOL     OW34840   1.194   1.037   1.325  0.2135  0.0312  0.4338
 7735SOL    HW134841   1.105   1.008   1.346  0.2120  0.3615  0.8766
 7735SOL    HW234842   1.221   1.034   1.416  0.2977  0.7055  0.4300
 7736SOL     OW34843   3.704   3.851   2.570  0.4958  0.4618 -0.7495
 7736SOL    HW134844   3.712   3.759   2.548  2.3385  0.5341 -0.3228
 7736SOL    HW234845   3.744   3.897   2.496  1.9555  1.9573  0.9749
 7737SOL     OW34846   1.790   2.581   7.681  0.3699 -0.3382  0.1682
 7737SOL    HW134847   1.729   2.509   7.662 -0.5371 -0.0027  1.8317
 7737SOL    HW234848   1.792   2.576   7.776  0.0569  0.2019  0.2022
 7738SOL     OW34849   4.461   0.305  15.823  0.3912  0.0618  0.4637
 7738SOL    HW134850   4.526   0.372  15.843 -1.5505  2.1227 -0.1205
 7738SOL    HW234851   4.377   0.352  15.826  0.3984 -0.1415  3.3250
 7739SOL     OW34852   0.562   3.085   2.035  0.0769 -0.0848 -0.1731
 7739SOL    HW134853   0.537   3.174   2.060  0.7647  0.0940 -0.0997
 7739SOL    HW234854   0.617   3.065   2.111 -1.1681  1.4892  1.1505
 7740SOL     OW34855   4.398   4.332   9.188 -0.1037  0.6224  0.2055
 7740SOL    HW134856   4.413   4.423   9.215  1.4828  0.4361 -0.0717
 7740SOL    HW234857   4.315   4.350   9.143  0.9722  2.6698 -0.9636
 7741SOL     OW34858   2.403   1.695  14.818  0.4641  0.0480  0.2171
 7741SOL    HW134859   2.385   1.746  14.896  0.7274  2.9260 -1.5772
 7741SOL    HW234860   2.495   1.675  14.839 -0.2065 -2.2674  0.9053
 7742SOL     OW34861   2.005   2.106   8.965 -0.6495  0.0813  0.0121
 7742SOL    HW134862   1.981   2.116   9.057 -1.6185  0.6148 -0.3029
 7742SOL    HW234863   1.990   2.014   8.944  0.0886 -0.9340  3.8615
 7743SOL     OW34864   1.862   3.880   5.554  0.3450  0.7993  0.1931
 7743SOL    HW134865   1.945   3.832   5.558  0.6431  1.3953  1.2578
 7743SOL    HW234866   1.884   3.967   5.518 -0.0162  0.7279 -0.2008
 7744SOL     OW34867   4.421   1.467   5.554 -0.1017  0.0546 -0.2580
 7744SOL    HW134868   4.511   1.460   5.522 -0.3114  1.5073 -1.1650
 7744SOL    HW234869   4.409   1.560   5.574 -3.5266 -0.3615 -0.3918
 7745SOL     OW34870   1.352   1.879   0.176  0.1566  0.0157  0.4110
 7745SOL    HW134871   1.265   1.915   0.194 -0.1272 -0.4008 -0.1016
 7745SOL    HW234872   1.385   1.953   0.124 -0.3191 -0.4312 -0.5357
 7746SOL     OW34873   1.902   2.615   1.119  0.6143  0.0004  0.1960
 7746SOL    HW134874   1.943   2.701   1.108  1.1366 -0.2718  0.0298
 7746SOL    HW234875   1.856   2.620   1.203  2.5205  1.1798  1.1727
 7747SOL     OW34876   2.723   2.664   2.974 -0.0065 -0.1079 -0.0771
 7747SOL    HW134877   2.753   2.584   2.930 -1.2288 -0.1730 -0.7989
 7747SOL    HW234878   2.679   2.628   3.051 -1.7247 -0.7826 -1.3558
 7748SOL     OW34879   0.090   4.024  10.192 -0.0026  0.1491 -0.5579
 7748SOL    HW134880   0.106   3.998  10.283 -0.0447 -0.7281 -0.7996
 7748SOL    HW234881   0.080   4.118  10.206  1.6437 -0.1728  2.8388
 7749SOL     OW34882   2.316   3.081  15.504  0.6172 -0.3200 -1.1720
 7749SOL    HW134883   2.223   3.083  15.525  1.1756 -1.3864  1.4669
 7749SOL    HW234884   2.348   3.167  15.533 -0.4839 -0.0027 -0.8878
 7750SOL     OW34885   0.388   1.223   0.159 -0.1152  0.2925  0.1471
 7750SOL    HW134886   0.400   1.128   0.164 -0.7570  0.1096 -2.0267
 7750SOL    HW234887   0.427   1.262   0.238 -0.0845  4.1444 -1.7928
 7751SOL     OW34888   2.926   3.285   7.504  0.0747  0.1065  0.4016
 7751SOL    HW134889   2.851   3.326   7.462  0.7901  0.9451 -0.0436
 7751SOL    HW234890   2.893   3.195   7.515 -2.7205  1.2476  1.3243
 7752SOL     OW34891   1.726   3.694   0.015  0.0161  0.1901 -0.2321
 7752SOL    HW134892   1.637   3.730   0.015 -0.1642 -0.2492 -1.4709
 7752SOL    HW234893   1.716   3.642  17.683 -1.0633 -0.7588  0.5300
 7753SOL     OW34894   0.355   0.522   6.981  0.4080 -0.1219 -0.7689
 7753SOL    HW134895   0.409   0.600   6.968 -1.3331  1.0231 -1.1160
 7753SOL    HW234896   0.268   0.554   7.005  0.5866  1.2512 -1.9241
 7754SOL     OW34897   2.177   3.900   7.933 -0.1683 -0.2190  0.2774
 7754SOL    HW134898   2.200   3.936   8.019 -3.0967 -0.0915  1.0270
 7754SOL    HW234899   2.166   3.806   7.948 -0.2591 -0.3703 -0.7493
 7755SOL     OW34900   2.351   2.151   3.196  0.1769 -0.0068 -0.0228
 7755SOL    HW134901   2.431   2.114   3.235 -0.2936 -2.2530 -1.1597
 7755SOL    HW234902   2.322   2.073   3.148  2.1166 -0.8959  0.2511
 7756SOL     OW34903   3.218   3.718   7.107  0.0558 -0.4795  0.2311
 7756SOL    HW134904   3.221   3.652   7.176  2.0999  0.4528  1.0194
 7756SOL    HW234905   3.294   3.697   7.052  0.0884 -0.6157  0.3286
 7757SOL     OW34906   4.552   3.871  13.074 -0.1342 -0.5688 -0.1491
 7757SOL    HW134907   4.559   3.926  13.152  1.0864 -1.8494  0.6395
 7757SOL    HW234908   4.627   3.907  13.028  2.1012 -3.4203  1.2861
 7758SOL     OW34909   2.801   1.720   5.232  0.3363  0.0088 -0.1497
 7758SOL    HW134910   2.886   1.686   5.261  0.1570 -0.4897 -0.2073
 7758SOL    HW234911   2.770   1.644   5.183 -0.8449  0.5468 -0.2222
 7759SOL     OW34912   3.855   4.423   4.002  0.0644 -0.3446 -0.1750
 7759SOL    HW134913   3.775   4.373   4.023  0.8417 -1.4351  0.2048
 7759SOL    HW234914   3.892   4.443   4.088 -1.0500  1.1819 -0.0678
 7760SOL     OW34915   2.985   1.082   7.860 -0.1745  0.4224 -0.3321
 7760SOL    HW134916   2.924   1.149   7.890 -0.4581  0.1822 -0.3622
 7760SOL    HW234917   3.016   1.056   7.946  0.6288 -2.2648 -1.4271
 7761SOL     OW34918   1.810   1.054   9.967  0.3785  0.0303  0.4306
 7761SOL    HW134919   1.743   1.016   9.910 -0.5853  0.7217  1.1036
 7761SOL    HW234920   1.762   1.074  10.047 -0.0919  1.2202 -0.1543
 7762SOL     OW34921   1.224   4.072   6.365 -0.1951 -0.0425  0.1086
 7762SOL    HW134922   1.293   4.071   6.298  1.2558 -3.5131  1.6818
 7762SOL    HW234923   1.180   3.990   6.347 -0.1624 -0.0687  0.1479
 7763SOL     OW34924   3.138   1.085   3.744 -0.4763 -0.1971  0.2149
 7763SOL    HW134925   3.079   1.143   3.792 -0.5136  0.2007 -0.3119
 7763SOL    HW234926   3.088   1.004   3.737  1.2181 -1.1494 -1.0193
 7764SOL     OW34927   0.532   1.139   6.804 -0.6087  0.0087  0.0747
 7764SOL    HW134928   0.604   1.113   6.860 -0.6452 -3.4721 -1.5071
 7764SOL    HW234929   0.579   1.192   6.740 -0.7268  0.3402  0.2596
 7765SOL     OW34930   2.748   4.095   4.727  0.1306  0.2146 -0.8506
 7765SOL    HW134931   2.675   4.101   4.665 -0.8271  0.4899  0.3220
 7765SOL    HW234932   2.807   4.161   4.688  0.7820  0.8891  1.2960
 7766SOL     OW34933   3.514   2.553   8.731  0.2663  0.3841  0.5263
 7766SOL    HW134934   3.522   2.463   8.763 -1.1313  0.4754  1.0934
 7766SOL    HW234935   3.582   2.600   8.780  0.5979  1.0377 -0.5473
 7767SOL     OW34936   0.459   0.833   4.806 -0.2702  0.0520  0.1233
 7767SOL    HW134937   0.489   0.907   4.753 -2.4606 -0.2619 -1.5721
 7767SOL    HW234938   0.443   0.880   4.888 -1.5894 -0.6834  0.2875
 7768SOL     OW34939   1.072   4.032   7.518 -0.6789  0.4161 -0.0198
 7768SOL    HW134940   1.042   4.105   7.463  0.6879  0.8110 -0.2420
 7768SOL    HW234941   1.059   3.961   7.456  0.0873  2.7622 -2.8718
 7769SOL     OW34942   2.525   2.008   9.126  0.2676  0.2083  0.4563
 7769SOL    HW134943   2.522   1.912   9.124  1.3887  0.1825  0.0690
 7769SOL    HW234944   2.602   2.011   9.068  1.1582  2.5431  1.7545
 7770SOL     OW34945   2.962   0.380   2.069 -0.4427  0.1989 -0.0156
 7770SOL    HW134946   3.031   0.377   2.003  0.6078  0.4688  1.0705
 7770SOL    HW234947   3.008   0.387   2.152  1.0328 -0.6395 -0.7724
 7771SOL     OW34948   3.817   2.944   7.816 -0.4583 -0.1756  0.1102
 7771SOL    HW134949   3.859   2.994   7.745  1.1689 -1.0944  0.4337
 7771SOL    HW234950   3.865   2.968   7.895  1.3165  0.1677 -1.0760
 7772SOL     OW34951   0.717   2.194   8.418 -0.3490  0.1908  0.2989
 7772SOL    HW134952   0.726   2.260   8.486 -2.9878 -1.3442  2.1475
 7772SOL    HW234953   0.673   2.241   8.348  0.7247 -0.0073 -0.5030
 7773SOL     OW34954   2.597   1.991   5.026 -0.1155 -0.1536 -0.5632
 7773SOL    HW134955   2.654   1.932   5.076 -0.6552 -1.6745 -1.7327
 7773SOL    HW234956   2.547   2.036   5.094  0.1674  0.3816 -0.7126
 7774SOL     OW34957   0.522   3.514   5.744  0.1178  0.1347  0.0313
 7774SOL    HW134958   0.491   3.529   5.654  0.0060  0.1702  0.0763
 7774SOL    HW234959   0.451   3.554   5.794  0.1650  2.8296 -2.0557
 7775SOL     OW34960   2.767   4.227  13.080 -0.3193  0.8462  0.2060
 7775SOL    HW134961   2.757   4.288  13.006  3.0450  0.1114 -0.8740
 7775SOL    HW234962   2.849   4.270  13.107 -0.4309  1.1812  0.0152
 7776SOL     OW34963   1.864   3.033  12.365  0.7165  0.5000  0.0438
 7776SOL    HW134964   1.833   2.968  12.428  0.7280 -0.1389 -0.6097
 7776SOL    HW234965   1.952   3.046  12.401  1.5185  1.4861 -2.2600
 7777SOL     OW34966   2.328   1.864  14.419  0.1966 -0.2636  1.0394
 7777SOL    HW134967   2.418   1.829  14.418  0.2980  0.0064  0.5810
 7777SOL    HW234968   2.310   1.906  14.334  1.0917  0.2280  1.0903
 7778SOL     OW34969   2.587   4.647  12.588  0.2537 -0.2344  0.0267
 7778SOL    HW134970   2.513   4.708  12.599  2.1696  1.7520  1.8684
 7778SOL    HW234971   2.593   4.609  12.675  0.1046  1.3785  0.7448
 7779SOL     OW34972   1.867   4.714   0.620  0.4282 -0.4492 -0.2308
 7779SOL    HW134973   1.961   4.702   0.606  0.5218 -0.2061  0.1965
 7779SOL    HW234974   1.871   0.060   0.667 -1.7192 -0.6040  0.2004
 7780SOL     OW34975   2.583   2.115   0.774  0.0135 -0.8737 -0.0148
 7780SOL    HW134976   2.631   2.119   0.856 -0.2482 -1.0129  0.1463
 7780SOL    HW234977   2.557   2.207   0.767  0.0251 -0.6876  2.4347
 7781SOL     OW34978   1.679   2.282   9.141  0.0550  0.0177 -0.4908
 7781SOL    HW134979   1.603   2.229   9.167  0.0877  0.1049 -0.2129
 7781SOL    HW234980   1.656   2.300   9.050 -1.0219 -2.0889 -0.6530
 7782SOL     OW34981   2.906   4.158   1.092 -0.3445  0.0497  0.1369
 7782SOL    HW134982   2.922   4.133   1.183  1.7871  0.3633 -0.1581
 7782SOL    HW234983   2.823   4.115   1.072  0.2132 -1.7330  1.6999
 7783SOL     OW34984   1.213   3.979   8.982 -0.3839 -0.0084  0.0221
 7783SOL    HW134985   1.164   4.041   9.036  0.0494 -1.1011  1.6546
 7783SOL    HW234986   1.151   3.982   8.909 -1.7993  1.8215  1.2995
 7784SOL     OW34987   2.933   1.041  10.470  0.8164  0.2837 -0.7364
 7784SOL    HW134988   2.987   0.962  10.460 -0.6060 -0.6554 -1.0453
 7784SOL    HW234989   2.892   1.010  10.551 -0.6738  2.5778 -0.6255
 7785SOL     OW34990   4.086   1.172  11.021  0.0519  0.7534  0.0072
 7785SOL    HW134991   4.033   1.092  11.015  0.2163  0.6597 -0.1854
 7785SOL    HW234992   4.051   1.218  11.097  0.2396  0.6065  0.1850
 7786SOL     OW34993   1.861   3.329   1.482 -0.1297  0.4084  0.0335
 7786SOL    HW134994   1.900   3.342   1.569  0.6657 -0.6817 -0.1617
 7786SOL    HW234995   1.932   3.276   1.445 -1.2150 -0.5155 -0.7052
 7787SOL     OW34996   3.173   4.522   6.874  0.2275 -0.3554 -0.2202
 7787SOL    HW134997   3.145   4.490   6.960  1.2539  0.3697  0.3768
 7787SOL    HW234998   3.088   4.521   6.830 -0.2319  0.0569  0.6605
 7788SOL     OW34999   2.912   3.126   8.986  0.1716  0.2405 -0.0332
 7788SOL    HW135000   2.831   3.175   8.974 -1.6779 -2.9848 -0.4650
 7788SOL    HW235001   2.891   3.095   9.074  2.0509  1.0790  0.7065
 7789SOL     OW35002   2.596   2.339   5.233  0.2704  0.2470 -0.3546
 7789SOL    HW135003   2.610   2.333   5.327 -1.7325  0.8558 -0.0126
 7789SOL    HW235004   2.536   2.265   5.221  0.2585 -0.0067  1.3375
 7790SOL     OW35005   4.659   1.781   6.928  0.6899 -0.1511 -0.0659
 7790SOL    HW135006   0.010   1.819   6.934  0.1091  1.1903 -0.1421
 7790SOL    HW235007   4.613   1.808   6.849 -0.8178 -3.0531 -0.1737
 7791SOL     OW35008   1.203   4.572   2.867 -0.3666  0.0346 -0.6884
 7791SOL    HW135009   1.267   4.559   2.937 -2.2520 -0.5002  0.9220
 7791SOL    HW235010   1.246   4.645   2.823 -0.3542  0.5847  0.2219
 7792SOL     OW35011   4.276   4.680   7.506 -0.2818  0.3562  0.1507
 7792SOL    HW135012   4.264   4.589   7.480  2.2388  0.9776 -3.0969
 7792SOL    HW235013   4.227   4.675   7.588  0.0006 -0.3646  0.2825
 7793SOL     OW35014   1.230   1.160   4.148  0.5798  0.7015  0.3386
 7793SOL    HW135015   1.239   1.229   4.214  0.7344 -0.2465  1.3073
 7793SOL    HW235016   1.192   1.089   4.198 -0.1733  0.4737 -0.5621
 7794SOL     OW35017   2.009   2.196  10.814 -0.7022 -0.1965  0.0667
 7794SOL    HW135018   2.071   2.261  10.848  0.6672 -1.4284 -0.0442
 7794SOL    HW235019   2.025   2.185  10.720 -1.8536  0.9606 -0.2660
 7795SOL     OW35020   3.443   0.298  14.535  0.4081  0.4339 -0.2316
 7795SOL    HW135021   3.523   0.246  14.547  1.4531  1.8559 -1.0965
 7795SOL    HW235022   3.412   0.267  14.450 -1.5885 -4.5172  2.2747
 7796SOL     OW35023   3.693   0.092  11.063  0.4803 -0.5228 -0.2911
 7796SOL    HW135024   3.699   0.187  11.048 -0.0831 -0.5423 -0.6481
 7796SOL    HW235025   3.665   0.086  11.155 -0.2813 -0.7348 -0.5331
 7797SOL     OW35026   1.505   1.203  15.479  0.5606 -0.3432  0.0654
 7797SOL    HW135027   1.543   1.203  15.567 -1.8415 -0.4814  1.1095
 7797SOL    HW235028   1.530   1.287  15.441 -4.1872  1.1565  0.2561
 7798SOL     OW35029   3.650   4.327   1.582 -0.0967 -0.9752  0.2015
 7798SOL    HW135030   3.679   4.410   1.546 -1.5229 -1.6683 -2.5563
 7798SOL    HW235031   3.573   4.320   1.525  0.3073  1.0593 -0.6029
 7799SOL     OW35032   1.355   0.857   8.279 -0.3132  0.2002  0.3655
 7799SOL    HW135033   1.443   0.820   8.280  0.1883  1.3774 -1.2162
 7799SOL    HW235034   1.378   0.950   8.288  1.3122 -0.0830 -0.9857
 7800SOL     OW35035   2.942   1.379   8.451 -0.0711  0.3501 -0.1748
 7800SOL    HW135036   2.922   1.400   8.542 -2.4295  1.3109 -0.9038
 7800SOL    HW235037   2.866   1.417   8.406  1.8121  2.0169 -1.9573
 7801SOL     OW35038   4.092   4.554  11.646  0.8315 -0.1066  0.0346
 7801SOL    HW135039   4.079   4.580  11.738 -3.1224  2.1723 -1.1697
 7801SOL    HW235040   4.005   4.540  11.610  0.4910  1.9014  0.0566
 7802SOL     OW35041   2.034   2.160   4.160  0.0799  0.2196 -0.2038
 7802SOL    HW135042   1.939   2.167   4.168 -0.2355 -0.5709 -3.3113
 7802SOL    HW235043   2.049   2.199   4.074  2.8532 -0.6253 -0.1088
 7803SOL     OW35044   2.860   3.432   3.018  0.5240  0.0396 -0.1252
 7803SOL    HW135045   2.896   3.440   2.930  1.3205 -0.3822  0.1655
 7803SOL    HW235046   2.834   3.340   3.028  0.0829 -0.3795 -5.0252
 7804SOL     OW35047   1.686   4.489   7.197 -0.3007  0.1436 -0.6509
 7804SOL    HW135048   1.691   4.481   7.292 -0.4143 -3.7578 -0.9965
 7804SOL    HW235049   1.612   4.549   7.194 -1.1883 -1.0119 -1.7938
 7805SOL     OW35050   2.454   4.425   5.862  0.0669 -0.3279  0.1000
 7805SOL    HW135051   2.429   4.409   5.770 -0.8795 -0.5334  0.3898
 7805SOL    HW235052   2.511   4.350   5.875 -1.3056 -0.9549  2.4271
 7806SOL     OW35053   1.698   3.183   5.513 -0.2920 -0.4759  0.4926
 7806SOL    HW135054   1.716   3.273   5.486 -1.1572 -0.3698  0.2549
 7806SOL    HW235055   1.687   3.148   5.424 -2.3871  1.7357 -0.1280
 7807SOL     OW35056   0.611   3.635   0.128  0.1150  0.1995  0.0590
 7807SOL    HW135057   0.666   3.710   0.108 -0.2492 -0.1326 -2.1776
 7807SOL    HW235058   0.531   3.682   0.152  0.3130  2.2622 -3.3531
 7808SOL     OW35059   3.477   0.198   5.290  0.4371  0.1527  0.1039
 7808SOL    HW135060   3.533   0.195   5.367 -0.2707  3.1929  0.7285
 7808SOL    HW235061   3.521   0.129   5.241 -0.1312 -1.2502  1.5750
 7809SOL     OW35062   1.450   3.987   2.392  0.7724  0.4262  0.5111
 7809SOL    HW135063   1.444   4.082   2.380 -0.4182  0.5852  2.4937
 7809SOL    HW235064   1.361   3.956   2.377  0.8687  0.2330  0.3495
 7810SOL     OW35065   1.164   0.758   8.112  0.1816 -0.5667  0.2732
 7810SOL    HW135066   1.215   0.805   8.179  3.1115  0.8369 -2.9116
 7810SOL    HW235067   1.074   0.768   8.142 -0.5286  3.2706 -3.1569
 7811SOL     OW35068   0.880   3.690   3.963 -0.0013 -0.1830 -0.3195
 7811SOL    HW135069   0.968   3.681   3.927 -0.3227  0.6246 -1.2899
 7811SOL    HW235070   0.901   3.707   4.054  0.2947  1.7679 -0.7578
 7812SOL     OW35071   2.930   3.627  13.127  0.0969 -0.4421  0.1910
 7812SOL    HW135072   2.972   3.589  13.204 -1.3838 -0.6410  0.9041
 7812SOL    HW235073   2.841   3.595  13.139 -0.3363  1.3828  1.8533
 7813SOL     OW35074   0.673   2.308   5.511 -0.2350 -0.2247 -0.0841
 7813SOL    HW135075   0.717   2.393   5.515 -1.3251  0.3545 -0.0520
 7813SOL    HW235076   0.703   2.274   5.595 -1.7209  0.0736  0.5742
 7814SOL     OW35077   3.225   0.395   2.970  0.1955 -0.8677  0.3667
 7814SOL    HW135078   3.203   0.326   2.907 -1.9857  0.9851 -0.9191
 7814SOL    HW235079   3.252   0.465   2.911 -0.4957 -1.2386 -0.4114
 7815SOL     OW35080   3.957   0.562   1.531 -0.1348 -0.0295 -0.3019
 7815SOL    HW135081   3.954   0.471   1.561 -0.0591 -0.4997 -1.7052
 7815SOL    HW235082   3.884   0.603   1.577  0.2937  0.1649  0.2013
 7816SOL     OW35083   3.157   4.539  16.454  0.2665  0.2137  0.4680
 7816SOL    HW135084   3.250   4.561  16.463 -0.0265  0.5770  2.7688
 7816SOL    HW235085   3.122   4.628  16.448 -0.9417 -0.2969  0.1226
 7817SOL     OW35086   1.074   4.152   5.452  0.6570  0.0503 -0.5189
 7817SOL    HW135087   1.153   4.181   5.406  1.1707  1.1079  1.0229
 7817SOL    HW235088   0.999   4.164   5.394  0.6158  2.4472  0.0393
 7818SOL     OW35089   1.115   1.628   5.367  0.1128 -0.1944  0.4264
 7818SOL    HW135090   1.038   1.595   5.322  0.7718 -1.1645  0.0000
 7818SOL    HW235091   1.087   1.617   5.458  2.7630  2.9312  1.6453
 7819SOL     OW35092   0.037   2.617   7.199  0.3316 -0.0623  0.0362
 7819SOL    HW135093   4.696   2.592   7.248 -0.3169  0.8082 -0.5734
 7819SOL    HW235094   0.100   2.570   7.254 -0.3908 -0.2304  0.7271
 7820SOL     OW35095   1.476   0.053   5.196 -0.0256  0.1751 -0.4636
 7820SOL    HW135096   1.563   0.084   5.224 -0.6171  1.3824  0.0552
 7820SOL    HW235097   1.490   4.718   5.135  1.9533  0.8030 -0.7523
 7821SOL     OW35098   1.771   3.028   3.402  0.2954 -0.3392 -0.2049
 7821SOL    HW135099   1.819   3.110   3.404 -0.7973  0.3401 -1.9617
 7821SOL    HW235100   1.693   3.058   3.356  0.6698  0.2596 -0.4485
 7822SOL     OW35101   3.353   3.392   1.228  0.1738  0.2595 -0.3308
 7822SOL    HW135102   3.374   3.299   1.238  0.5007  0.6311  2.3991
 7822SOL    HW235103   3.414   3.417   1.158 -0.0167  0.6016 -0.3736
 7823SOL     OW35104   2.821   0.831   1.301 -0.1331  0.3190  0.2400
 7823SOL    HW135105   2.790   0.808   1.214 -1.7496  2.7281  0.1859
 7823SOL    HW235106   2.907   0.868   1.280  0.5270 -0.8023  0.9286
 7824SOL     OW35107   2.495   4.505   1.457  0.1726 -0.3618 -0.2953
 7824SOL    HW135108   2.477   4.414   1.478 -2.6931  0.0166 -1.1417
 7824SOL    HW235109   2.505   4.495   1.362 -0.1026  1.5984 -0.5437
 7825SOL     OW35110   2.012   0.033  13.344 -0.5789 -0.0783  0.0186
 7825SOL    HW135111   2.044   0.123  13.354 -0.6724  0.0338 -0.6969
 7825SOL    HW235112   2.070   4.724  13.284  0.2556 -0.1346  0.8718
 7826SOL     OW35113   2.544   3.090   2.650 -0.0015  0.7305  0.2036
 7826SOL    HW135114   2.636   3.067   2.666 -0.5270 -2.6891 -1.8074
 7826SOL    HW235115   2.548   3.142   2.571  1.5015 -0.6636 -0.6579
 7827SOL     OW35116   3.052   0.207  15.939 -0.4951  0.0430  0.4532
 7827SOL    HW135117   3.134   0.255  15.925 -0.5351  0.6145  2.1581
 7827SOL    HW235118   2.998   0.283  15.959 -1.3868 -0.4528 -0.0551
 7828SOL     OW35119   2.970   2.460   6.424  0.3145 -0.0956  0.0514
 7828SOL    HW135120   3.023   2.471   6.502  1.2179 -1.7995 -0.3273
 7828SOL    HW235121   2.883   2.487   6.454  1.0004  2.0465  0.0890
 7829SOL     OW35122   4.099   3.012   5.868  0.2397  0.5954  0.4396
 7829SOL    HW135123   4.182   3.054   5.847 -0.2790  1.9735  1.1740
 7829SOL    HW235124   4.048   3.022   5.788 -0.7824  1.0490  1.1348
 7830SOL     OW35125   3.086   3.793   5.707  0.7190  0.1501 -0.2101
 7830SOL    HW135126   3.104   3.729   5.777  3.5454 -0.2835 -1.3191
 7830SOL    HW235127   3.137   3.756   5.635 -1.3555 -0.8939 -1.1554
 7831SOL     OW35128   2.754   4.039   3.619  0.1971  0.2533 -0.0554
 7831SOL    HW135129   2.677   3.999   3.659  0.5114 -0.2825  0.0104
 7831SOL    HW235130   2.726   4.130   3.609  2.3327  0.9940  0.7438
 7832SOL     OW35131   3.131   1.633   7.649  0.7937  0.1209 -0.2188
 7832SOL    HW135132   3.161   1.578   7.722 -0.7325  2.8342  2.4732
 7832SOL    HW235133   3.182   1.608   7.572 -0.2896  0.3649 -1.0153
 7833SOL     OW35134   0.068   2.777  11.375 -0.1178 -0.2537 -0.3676
 7833SOL    HW135135   0.136   2.712  11.395 -0.8619 -0.2743  2.0912
 7833SOL    HW235136   4.737   2.710  11.378 -1.0517  0.8262  2.6450
 7834SOL     OW35137   0.406   4.344   3.270 -0.1722 -0.6030  0.3070
 7834SOL    HW135138   0.366   4.318   3.353 -0.2390 -1.2058  0.0808
 7834SOL    HW235139   0.473   4.276   3.263  0.8308  0.5470 -1.3894
 7835SOL     OW35140   1.915   1.392   8.364  0.0398  1.0177  0.4892
 7835SOL    HW135141   1.950   1.329   8.301 -1.7577 -0.8180  1.3345
 7835SOL    HW235142   1.911   1.329   8.435 -0.1538  1.8741  1.2335
 7836SOL     OW35143   0.292   1.732   7.722  0.5381 -0.1672 -0.0458
 7836SOL    HW135144   0.299   1.821   7.758 -1.4063 -0.1106  0.2196
 7836SOL    HW235145   0.355   1.744   7.651  1.7324 -1.1510  0.8675
 7837SOL     OW35146   1.048   3.376   4.671  0.3989  0.1328 -0.0925
 7837SOL    HW135147   1.091   3.292   4.685 -1.9198 -1.1616 -0.6245
 7837SOL    HW235148   1.063   3.389   4.577 -0.7904  0.8574 -0.1870
 7838SOL     OW35149   0.793   4.679  12.234 -0.4949  0.6132 -0.0276
 7838SOL    HW135150   0.867   4.620  12.218 -2.6095 -2.8396  3.1514
 7838SOL    HW235151   0.757   4.691  12.146 -0.8036 -0.1587 -0.0041
 7839SOL     OW35152   1.669   3.072   3.969  0.0258  0.0191  0.2066
 7839SOL    HW135153   1.693   3.090   3.878  0.7130  0.3518  0.4473
 7839SOL    HW235154   1.692   3.159   4.001 -1.0608  1.0900 -1.9530
 7840SOL     OW35155   0.071   1.432   4.569 -0.1770 -0.2155  0.3312
 7840SOL    HW135156   4.715   1.453   4.576 -0.1101  0.1422  0.1327
 7840SOL    HW235157   0.059   1.341   4.542 -0.2275 -0.3747  0.8805
 7841SOL     OW35158   1.970   3.287  12.407 -0.2017 -1.1776  0.3869
 7841SOL    HW135159   1.944   3.199  12.383 -2.2884 -0.6145  0.5748
 7841SOL    HW235160   1.946   3.335  12.328  0.4251  0.2084  1.0182
 7842SOL     OW35161   4.438   4.399   4.806 -0.6764 -0.5335 -0.3206
 7842SOL    HW135162   4.496   4.369   4.876  0.3153  2.7678  0.2666
 7842SOL    HW235163   4.426   4.319   4.755 -0.9450 -0.1018 -0.9355
 7843SOL     OW35164   2.390   0.891   9.600 -0.0447 -0.5164  0.8139
 7843SOL    HW135165   2.348   0.957   9.656  1.4319  0.9453  0.2144
 7843SOL    HW235166   2.456   0.848   9.654  1.1471 -0.1351 -0.3343
 7844SOL     OW35167   0.055   4.321   8.200 -0.3528 -0.4133  0.0476
 7844SOL    HW135168   4.728   4.251   8.211 -0.0084 -0.7988 -0.3927
 7844SOL    HW235169   0.094   4.292   8.118  0.5455  1.5941 -0.2331
 7845SOL     OW35170   3.335   0.920   2.693  0.2305  0.0503 -0.8928
 7845SOL    HW135171   3.430   0.918   2.677  0.5035 -0.7042  0.7369
 7845SOL    HW235172   3.334   0.851   2.760  2.1275  0.4517 -0.4311
 7846SOL     OW35173   3.228   3.344   3.752  0.4634 -0.3911  0.1042
 7846SOL    HW135174   3.236   3.339   3.657 -4.1217 -0.7622 -0.2572
 7846SOL    HW235175   3.231   3.252   3.778 -0.9542 -0.4086  0.1602
 7847SOL     OW35176   4.106   2.423   7.291  0.2031 -0.7192  0.5980
 7847SOL    HW135177   4.026   2.470   7.314  0.1657  0.4879 -2.0827
 7847SOL    HW235178   4.164   2.498   7.285 -0.4473 -0.4434 -2.3191
 7848SOL     OW35179   2.869   0.929   8.415 -0.0069  0.2335 -0.0339
 7848SOL    HW135180   2.956   0.967   8.410 -1.2415  2.9074 -1.0371
 7848SOL    HW235181   2.887   0.841   8.381  1.4119  0.4390  0.2119
 7849SOL     OW35182   0.829   2.731   9.007 -0.4414 -0.6887 -0.0724
 7849SOL    HW135183   0.862   2.669   9.071  1.6961 -1.9571 -2.3895
 7849SOL    HW235184   0.845   2.818   9.044  1.2929 -1.1909  0.3495
 7850SOL     OW35185   3.899   3.565   4.222  0.3301 -0.0506  0.6183
 7850SOL    HW135186   3.938   3.606   4.145 -1.2718 -1.1180 -0.7612
 7850SOL    HW235187   3.871   3.490   4.169  1.1920 -0.7832  1.2056
 7851SOL     OW35188   3.739   4.114   5.341  0.3676 -0.0764  0.0269
 7851SOL    HW135189   3.815   4.083   5.390 -2.7510 -0.8602  4.3682
 7851SOL    HW235190   3.790   4.170   5.283 -0.3167  0.2412 -0.2689
 7852SOL     OW35191   3.692   1.395  12.624 -0.3544  0.1159 -0.1019
 7852SOL    HW135192   3.708   1.345  12.544 -1.1547 -0.1325 -0.1042
 7852SOL    HW235193   3.628   1.340  12.668  1.2506 -0.6504  1.2521
 7853SOL     OW35194   0.325   4.671  15.056 -0.7290 -0.3470  0.6574
 7853SOL    HW135195   0.307   4.605  15.123  3.1469 -0.2267  1.8183
 7853SOL    HW235196   0.273   4.634  14.985 -0.8242  0.1416  0.4704
 7854SOL     OW35197   4.668   1.328   7.398  0.1341 -0.1742  0.4705
 7854SOL    HW135198   4.675   1.348   7.491 -1.8646  0.4014  0.5049
 7854SOL    HW235199   0.017   1.288   7.390  0.9329  1.8360 -0.8957
 7855SOL     OW35200   3.612   0.155   8.745  0.0946  0.4677 -0.0896
 7855SOL    HW135201   3.523   0.167   8.776  0.5301 -1.1448  1.8327
 7855SOL    HW235202   3.640   0.105   8.822  0.2842 -1.8823 -1.6812
 7856SOL     OW35203   2.568   0.444   6.595  0.4288 -0.3920  0.2641
 7856SOL    HW135204   2.611   0.361   6.571  0.9982  0.4753 -1.7257
 7856SOL    HW235205   2.550   0.438   6.689 -1.2007  2.6723  0.1625
 7857SOL     OW35206   3.730   3.071   2.171  0.2396  0.2951  0.3680
 7857SOL    HW135207   3.695   3.123   2.098  1.9382  1.3200  0.2882
 7857SOL    HW235208   3.747   3.146   2.228  0.1659  0.3595  0.3046
 7858SOL     OW35209   4.372   2.698   6.746 -0.9921 -0.0169 -0.4330
 7858SOL    HW135210   4.442   2.727   6.804 -1.6302 -0.5039  0.5720
 7858SOL    HW235211   4.350   2.610   6.776  1.3533  0.1273  1.6843
 7859SOL     OW35212   2.497   0.336   8.032  0.1127  0.5739 -0.1582
 7859SOL    HW135213   2.537   0.417   8.001  4.0321 -0.0716  3.2047
 7859SOL    HW235214   2.408   0.357   8.058 -0.8243  0.3651 -3.2193
 7860SOL     OW35215   3.083   2.172  12.252  0.1953 -0.0702  0.1337
 7860SOL    HW135216   3.074   2.237  12.322 -0.5004 -1.7830  1.6061
 7860SOL    HW235217   3.161   2.131  12.290  1.4954 -0.7699 -3.2913
 7861SOL     OW35218   2.831   4.446   6.521 -0.8399 -0.1137  0.6067
 7861SOL    HW135219   2.762   4.413   6.463  0.4096 -0.4129 -0.7058
 7861SOL    HW235220   2.800   4.535   6.539 -1.4706  0.4866 -3.4045
 7862SOL     OW35221   1.925   0.983   6.822  0.2173 -0.1984 -0.1582
 7862SOL    HW135222   1.952   0.891   6.819  2.3426  0.3715  1.3954
 7862SOL    HW235223   1.844   0.977   6.773  0.4772 -0.9821 -0.4884
 7863SOL     OW35224   3.564   0.276   7.904 -0.9829  0.0272 -0.1717
 7863SOL    HW135225   3.571   0.353   7.961  0.3784 -0.2194 -0.0027
 7863SOL    HW235226   3.626   0.301   7.836  2.5452 -0.9722  2.6707
 7864SOL     OW35227   1.861   4.105   5.363 -0.3567 -0.5710  0.3394
 7864SOL    HW135228   1.916   4.176   5.330  0.2825  0.0282  2.7544
 7864SOL    HW235229   1.858   4.056   5.281  1.7257 -0.0357 -0.0586
 7865SOL     OW35230   0.602   1.982   1.927 -0.1467  0.7390 -0.2855
 7865SOL    HW135231   0.681   2.009   1.880  0.8278  0.8824  1.4146
 7865SOL    HW235232   0.553   2.063   1.918 -1.1960  0.0827 -0.4836
 7866SOL     OW35233   2.822   4.684   6.210  0.0415 -0.2840 -0.0028
 7866SOL    HW135234   2.864   4.605   6.244  0.7349 -0.3459 -1.0116
 7866SOL    HW235235   2.755   4.651   6.149 -1.9278 -1.0688  2.5890
 7867SOL     OW35236   1.295   3.101  14.660 -0.4201  0.6101  0.4067
 7867SOL    HW135237   1.311   3.070  14.571 -1.6513  0.8979  0.0838
 7867SOL    HW235238   1.374   3.069  14.704  0.2602  1.2540 -0.3525
 7868SOL     OW35239   0.020   3.247   8.668  0.0201 -0.1977 -0.3776
 7868SOL    HW135240   0.022   3.186   8.742  3.2442 -0.1468 -0.4538
 7868SOL    HW235241   4.670   3.239   8.629  0.6856 -1.3278 -1.6397
 7869SOL     OW35242   4.337   4.542   9.876 -0.2205 -0.0765  0.0810
 7869SOL    HW135243   4.355   4.534   9.783 -2.4591  0.0111 -0.3646
 7869SOL    HW235244   4.273   4.473   9.891 -0.3465  0.6200  2.7590
 7870SOL     OW35245   3.459   2.934   3.423  0.0098 -0.4178 -0.4024
 7870SOL    HW135246   3.380   2.974   3.389 -0.2880 -1.7610 -1.3092
 7870SOL    HW235247   3.489   3.014   3.466 -0.4124 -0.6670  0.3634
 7871SOL     OW35248   0.941   3.640   5.064  0.4974  0.7263 -0.0600
 7871SOL    HW135249   0.924   3.734   5.074 -0.3553  0.6839 -1.0633
 7871SOL    HW235250   0.992   3.639   4.983 -1.9451 -0.3179 -1.5773
 7872SOL     OW35251   3.671   2.311   6.482 -0.0560 -0.4363 -0.2571
 7872SOL    HW135252   3.585   2.276   6.458  0.1971 -2.1035  1.2276
 7872SOL    HW235253   3.646   2.371   6.552 -0.3476 -1.5051  0.5432
 7873SOL     OW35254   0.912   1.994   8.458  0.2400  0.0858 -0.0006
 7873SOL    HW135255   0.850   2.066   8.467 -1.3941 -1.0052 -2.7066
 7873SOL    HW235256   0.852   1.920   8.448 -1.2330  1.2494  0.2348
 7874SOL     OW35257   4.158   0.742  17.170 -0.2482  0.1302  0.1113
 7874SOL    HW135258   4.248   0.764  17.148  0.2220 -2.4416 -0.5423
 7874SOL    HW235259   4.116   0.767  17.088 -2.5072  0.2368  1.2876
 7875SOL     OW35260   2.654   1.999   3.149 -0.2556  0.3795 -0.3883
 7875SOL    HW135261   2.747   1.988   3.131 -0.3557 -0.0345 -0.6653
 7875SOL    HW235262   2.626   2.052   3.075  0.5485 -0.7603 -1.4966
 7876SOL     OW35263   1.371   2.087   7.079 -0.1250  0.5357 -0.1254
 7876SOL    HW135264   1.390   2.068   7.171  0.2522 -1.4366 -0.6002
 7876SOL    HW235265   1.391   2.007   7.031  0.4773  0.1943  0.6917
 7877SOL     OW35266   3.697   1.255   8.961  0.2890 -0.2065  0.2438
 7877SOL    HW135267   3.735   1.343   8.966  0.4580 -0.1532 -2.1130
 7877SOL    HW235268   3.774   1.202   8.980  1.2627  1.1099 -0.0271
 7878SOL     OW35269   2.068   4.571   5.936 -0.1090 -0.3056 -0.1743
 7878SOL    HW135270   2.049   4.509   6.007  3.5920 -0.0307  1.0380
 7878SOL    HW235271   1.977   4.569   5.905 -0.6454 -0.5891  1.3712
 7879SOL     OW35272   3.750   4.042   7.153  0.2058 -0.3915 -1.2261
 7879SOL    HW135273   3.679   4.020   7.214  1.9800 -2.4238  0.1353
 7879SOL    HW235274   3.815   3.982   7.191 -0.4019 -0.4932 -0.3524
 7880SOL     OW35275   0.847   2.258   3.947 -0.2320 -0.2103  0.1452
 7880SOL    HW135276   0.896   2.176   3.957 -0.4021 -0.5273 -1.6339
 7880SOL    HW235277   0.774   2.254   4.009 -0.0325 -1.0845  0.3224
 7881SOL     OW35278   3.776   4.471   1.934  0.2257 -0.0924  0.6388
 7881SOL    HW135279   3.843   4.488   2.001  1.3571  1.0083 -0.7492
 7881SOL    HW235280   3.788   4.547   1.877 -3.2422 -0.6962 -0.8679
 7882SOL     OW35281   3.505   3.643  17.314 -0.1674 -0.3557  0.1221
 7882SOL    HW135282   3.592   3.649  17.273 -0.1063  0.7897  0.4168
 7882SOL    HW235283   3.475   3.732  17.299  0.6595  0.2430  1.9792
 7883SOL     OW35284   4.651   2.706   4.719 -0.0004  0.0477  0.2172
 7883SOL    HW135285   4.619   2.708   4.809  2.9387 -1.1911  1.3064
 7883SOL    HW235286   4.666   2.613   4.703  0.0302  0.2238 -0.7864
 7884SOL     OW35287   3.490   2.214   2.707  0.1664 -0.0671  0.2788
 7884SOL    HW135288   3.574   2.174   2.728  0.4833  0.3105 -0.2719
 7884SOL    HW235289   3.496   2.219   2.612  0.2153 -0.0837  0.2815
 7885SOL     OW35290   3.501   3.709  13.491 -0.2764  0.1720  0.5001
 7885SOL    HW135291   3.407   3.698  13.505 -0.4876  1.7823  0.3073
 7885SOL    HW235292   3.542   3.650  13.554 -1.4870 -0.0927  1.0391
 7886SOL     OW35293   3.315   4.247  15.276  0.4487 -0.1730  1.4740
 7886SOL    HW135294   3.242   4.192  15.304  1.3055 -1.7004  0.6436
 7886SOL    HW235295   3.280   4.255  15.187  0.2424  0.6145  1.6175
 7887SOL     OW35296   3.841   1.099   5.047  0.1686 -0.5077 -0.7023
 7887SOL    HW135297   3.786   1.176   5.065 -0.4466 -0.8698 -1.0433
 7887SOL    HW235298   3.863   1.105   4.954 -0.5182 -0.4697 -0.8639
 7888SOL     OW35299   0.464   2.336  17.552 -0.3573 -0.4090 -0.0807
 7888SOL    HW135300   0.403   2.390  17.502  0.6293  0.7184 -0.0664
 7888SOL    HW235301   0.403   2.307  17.621  1.7884 -2.8949  0.7928
 7889SOL     OW35302   2.867   2.042   8.025  0.5447 -0.3156  0.2350
 7889SOL    HW135303   2.895   2.130   8.049 -0.9680  0.1532  0.2943
 7889SOL    HW235304   2.795   2.067   7.966 -1.2742 -1.2473  2.0678
 7890SOL     OW35305   3.242   0.305   6.085  0.6195 -0.1798 -0.0373
 7890SOL    HW135306   3.240   0.324   6.179  0.8171 -0.7019  0.0705
 7890SOL    HW235307   3.212   0.388   6.047 -0.5296 -1.6025 -2.2255
 7891SOL     OW35308   4.488   3.397   3.608  0.3838 -0.4340  0.0688
 7891SOL    HW135309   4.485   3.485   3.569 -0.1572 -0.9069 -0.9466
 7891SOL    HW235310   4.550   3.420   3.678  0.8609  0.3896 -0.6248
 7892SOL     OW35311   0.466   2.155  11.263  0.4238  0.3595  0.0871
 7892SOL    HW135312   0.479   2.069  11.303  0.0353 -1.2620 -3.2483
 7892SOL    HW235313   0.492   2.137  11.173  0.9640 -0.7549  0.4670
 7893SOL     OW35314   2.198   3.596   3.853 -0.1583  0.4349  0.2201
 7893SOL    HW135315   2.119   3.566   3.898  0.8586 -1.3774  0.8041
 7893SOL    HW235316   2.259   3.605   3.925  1.7387 -4.9896 -0.7279
 7894SOL     OW35317   3.241   3.978  11.905  0.0882  0.0384 -0.1225
 7894SOL    HW135318   3.261   3.915  11.836  0.1652 -0.0430 -0.0266
 7894SOL    HW235319   3.201   3.913  11.963  1.1317 -1.7503 -1.3924
 7895SOL     OW35320   3.069   0.692   4.239  0.0698  0.2549 -0.2396
 7895SOL    HW135321   3.130   0.686   4.165 -1.7381 -1.0780 -1.6248
 7895SOL    HW235322   3.037   0.782   4.231  0.7649  0.6022  0.7865
 7896SOL     OW35323   0.512   1.580   6.172  0.1177  0.4920  0.1724
 7896SOL    HW135324   0.483   1.623   6.253 -1.0131 -0.5798  0.3461
 7896SOL    HW235325   0.464   1.499   6.193  2.0361 -0.2035  1.9122
 7897SOL     OW35326   0.856   3.270  15.993 -0.3732  0.2295  0.0243
 7897SOL    HW135327   0.776   3.282  16.044 -0.1300 -1.7446  0.8826
 7897SOL    HW235328   0.819   3.262  15.905  0.3485  0.3084 -0.2905
 7898SOL     OW35329   1.283   4.212   8.115 -0.0290 -0.2330 -0.1779
 7898SOL    HW135330   1.294   4.142   8.051  1.4972 -0.4887  0.3558
 7898SOL    HW235331   1.308   4.285   8.059  0.2735 -0.2921 -0.1258
 7899SOL     OW35332   4.579   4.115   1.921  0.6859  0.0136 -0.2013
 7899SOL    HW135333   4.672   4.110   1.897  0.8802 -0.4057  0.6278
 7899SOL    HW235334   4.559   4.032   1.964  2.8582  0.1655  1.0935
 7900SOL     OW35335   2.736   3.964  14.293 -0.2876  0.7296  0.3431
 7900SOL    HW135336   2.682   4.019  14.235  0.1956  0.3078 -0.4988
 7900SOL    HW235337   2.711   4.010  14.374  1.6541 -0.6400  1.7178
 7901SOL     OW35338   1.847   4.372   9.420  0.2257  0.4220  0.0920
 7901SOL    HW135339   1.845   4.468   9.422 -1.7916  0.3754 -0.2482
 7901SOL    HW235340   1.932   4.342   9.388 -0.2585  0.1443 -0.9087
 7902SOL     OW35341   1.687   4.610  16.284 -0.2254 -0.1911  0.3077
 7902SOL    HW135342   1.636   4.560  16.221  1.1472  1.7866 -2.3391
 7902SOL    HW235343   1.619   4.628  16.349 -2.0007 -0.1040 -1.5917
 7903SOL     OW35344   3.396   3.003  16.774 -0.0346  0.4256  0.1175
 7903SOL    HW135345   3.311   3.038  16.746 -0.7673  0.3771  2.3074
 7903SOL    HW235346   3.437   2.984  16.690  1.4002  0.0850  0.8908
 7904SOL     OW35347   4.643   3.681   6.736 -0.5011 -0.0180 -0.3138
 7904SOL    HW135348   4.551   3.701   6.718 -0.6936  0.4467  1.2012
 7904SOL    HW235349   4.639   3.589   6.761  1.2788 -0.2326 -0.7853
 7905SOL     OW35350   1.557   1.611   2.165 -0.0611 -0.3874 -0.2505
 7905SOL    HW135351   1.550   1.520   2.193  1.5055 -0.0932  1.0512
 7905SOL    HW235352   1.584   1.600   2.074  0.5334  0.7819 -0.2158
 7906SOL     OW35353   0.494   4.288   4.027  0.3025  0.3356 -0.4999
 7906SOL    HW135354   0.560   4.321   3.966 -1.2530 -2.1687 -3.5253
 7906SOL    HW235355   0.463   4.369   4.067  0.3067  1.3944 -2.6657
 7907SOL     OW35356   3.098   4.045   5.438 -0.4070 -0.7080 -0.5207
 7907SOL    HW135357   3.049   4.088   5.508  0.0062 -1.0031 -0.0595
 7907SOL    HW235358   3.160   3.988   5.484  1.1155 -0.5650 -2.3838
 7908SOL     OW35359   1.956   3.032   4.746  0.0536 -0.4564  0.0906
 7908SOL    HW135360   1.966   2.940   4.772 -0.0084 -0.3616  0.4449
 7908SOL    HW235361   1.864   3.053   4.761  0.3504  1.0230 -0.1509
 7909SOL     OW35362   2.079   2.581   7.859  0.0586  0.3855 -0.4615
 7909SOL    HW135363   2.044   2.619   7.939  1.3675 -1.2342  0.8603
 7909SOL    HW235364   2.093   2.661   7.808  1.5038  0.7738  0.5476
 7910SOL     OW35365   4.513   3.627   5.283  0.2827 -0.4408  0.3688
 7910SOL    HW135366   4.547   3.538   5.292  1.9592  0.2655  1.0230
 7910SOL    HW235367   4.550   3.662   5.202 -1.0701 -0.5585 -0.2878
 7911SOL     OW35368   2.116   1.783   9.087  0.0511 -0.3642  0.1427
 7911SOL    HW135369   2.120   1.787   9.182  1.8247 -0.1783  0.0669
 7911SOL    HW235370   2.028   1.798   9.052  0.6144  0.2336 -1.0210
 7912SOL     OW35371   3.957   3.585  15.491 -0.7524  0.4051  0.0401
 7912SOL    HW135372   3.946   3.520  15.421 -0.3647 -1.5050  1.7586
 7912SOL    HW235373   3.872   3.592  15.534 -0.8632 -3.0029  0.4171
 7913SOL     OW35374   0.368   2.829   5.816 -0.5924  0.2163 -0.0970
 7913SOL    HW135375   0.298   2.850   5.754 -0.3074  0.8193 -0.2081
 7913SOL    HW235376   0.308   2.817   5.890 -0.4022 -0.6460 -0.0746
 7914SOL     OW35377   1.267   0.616  13.720 -0.4028 -0.2675 -0.0342
 7914SOL    HW135378   1.224   0.640  13.639  1.3018  0.0839 -0.8485
 7914SOL    HW235379   1.204   0.643  13.787  0.4318 -0.0957  0.6897
 7915SOL     OW35380   0.743   4.107   2.694 -0.2560  0.2062  0.7493
 7915SOL    HW135381   0.654   4.141   2.698 -0.0352  0.9461 -0.7620
 7915SOL    HW235382   0.724   4.030   2.639 -0.6494  1.0843 -0.3401
 7916SOL     OW35383   1.300   2.434   6.034 -0.1557  0.1727  0.1717
 7916SOL    HW135384   1.381   2.384   6.040 -0.3270  0.0135  1.1556
 7916SOL    HW235385   1.331   2.521   6.006 -2.3192  1.5032  1.8535
 7917SOL     OW35386   0.922   0.473   4.861 -0.2002  0.0047  0.1769
 7917SOL    HW135387   0.835   0.437   4.878  0.0166 -1.2512 -1.3879
 7917SOL    HW235388   0.980   0.405   4.894  1.8269  1.5350 -0.2338
 7918SOL     OW35389   1.749   4.433   9.138  0.3147  0.4814 -0.6895
 7918SOL    HW135390   1.679   4.373   9.166 -0.9388  2.5452  0.6039
 7918SOL    HW235391   1.832   4.400   9.171  0.9731  2.0858 -0.7823
 7919SOL     OW35392   3.276   1.996   5.433  0.3948  0.5846 -0.2137
 7919SOL    HW135393   3.220   2.039   5.368 -0.4926  2.3381  1.7039
 7919SOL    HW235394   3.339   2.067   5.442 -0.0420  0.8974  0.3563
 7920SOL     OW35395   4.551   1.019   4.670 -0.0506  0.1499 -0.5606
 7920SOL    HW135396   4.508   0.984   4.748 -0.2035 -0.5676 -0.9696
 7920SOL    HW235397   4.481   1.045   4.609 -0.0392  0.7320 -0.3254
 7921SOL     OW35398   1.821   0.997   3.950 -0.0534 -0.0768 -0.4739
 7921SOL    HW135399   1.750   1.042   3.904  1.8314  2.3383 -0.9813
 7921SOL    HW235400   1.765   0.959   4.017  0.7348 -2.0781 -0.9506
 7922SOL     OW35401   3.912   0.706   6.751  0.6577  0.9304  0.3604
 7922SOL    HW135402   3.842   0.770   6.735 -0.8802 -0.3981  1.7949
 7922SOL    HW235403   3.968   0.715   6.674  1.7064  0.8844  1.1288
 7923SOL     OW35404   2.293   0.949   9.852  0.2548 -0.0132 -0.5413
 7923SOL    HW135405   2.368   1.002   9.879  1.2133 -0.7803 -1.6977
 7923SOL    HW235406   2.221   1.012   9.859 -0.0542 -0.4257 -0.0219
 7924SOL     OW35407   2.962   4.690   1.328  0.0450  0.4952  0.0487
 7924SOL    HW135408   2.965   4.669   1.422 -0.0437  0.1555 -0.0240
 7924SOL    HW235409   2.867   4.704   1.322 -0.0068  0.6686  1.2473
 7925SOL     OW35410   4.562   0.305   7.187 -0.6868 -0.0649  0.6954
 7925SOL    HW135411   4.529   0.295   7.276 -1.6043 -2.4639  0.0866
 7925SOL    HW235412   4.612   0.224   7.177 -1.1024 -0.5288  2.3584
 7926SOL     OW35413   4.574   1.147   5.703 -0.2779  0.1611  0.1451
 7926SOL    HW135414   4.490   1.188   5.723 -1.1248 -1.3709 -0.2307
 7926SOL    HW235415   4.603   1.118   5.790 -1.3562 -1.7946 -0.1273
 7927SOL     OW35416   2.544   3.016   9.327  0.2966 -0.0358 -0.2844
 7927SOL    HW135417   2.490   3.073   9.382 -1.3090 -0.4647 -1.4314
 7927SOL    HW235418   2.504   3.025   9.241  0.0730 -0.9335 -0.2749
 7928SOL     OW35419   0.392   3.032   6.021 -0.0668  0.1228 -0.1950
 7928SOL    HW135420   0.380   3.004   5.930  0.2966 -1.4873  0.2582
 7928SOL    HW235421   0.357   3.119   6.002 -1.1666  0.1071  1.7857
 7929SOL     OW35422   2.911   0.150  11.953  0.3776 -0.3349 -0.1910
 7929SOL    HW135423   2.969   0.086  11.993  2.0655  0.6009 -1.1381
 7929SOL    HW235424   2.892   0.199  12.032 -0.7056 -2.0922  0.6488
 7930SOL     OW35425   4.547   3.194   5.146 -0.2398  0.1889 -0.3965
 7930SOL    HW135426   4.471   3.251   5.161 -1.7618 -1.6550 -1.2073
 7930SOL    HW235427   4.592   3.225   5.067  0.7514 -1.0441 -0.3107
 7931SOL     OW35428   1.532   2.678   4.261  0.3383 -0.0957 -0.5871
 7931SOL    HW135429   1.582   2.756   4.234 -0.7835  0.5499 -0.8126
 7931SOL    HW235430   1.453   2.725   4.287 -0.5046 -1.8288 -0.0994
 7932SOL     OW35431   4.437   4.001  10.129 -0.4366  0.0053 -0.3979
 7932SOL    HW135432   4.438   3.944  10.052 -0.0259 -0.8436  0.2303
 7932SOL    HW235433   4.480   3.946  10.194  0.6030  2.1028  0.6794
 7933SOL     OW35434   3.643   0.406  12.716  0.4023  0.4701  0.9747
 7933SOL    HW135435   3.718   0.403  12.656 -1.7931 -0.6178 -1.6996
 7933SOL    HW235436   3.669   0.342  12.782 -0.8370 -1.0299 -0.0058
 7934SOL     OW35437   0.459   2.101   2.267  0.3793  0.3006 -0.1476
 7934SOL    HW135438   0.456   2.014   2.229 -2.8969 -0.4069  1.7398
 7934SOL    HW235439   0.553   2.119   2.264  0.4039  0.5196  1.5994
 7935SOL     OW35440   3.849   2.608   6.566  0.6013  0.0553  0.5196
 7935SOL    HW135441   3.796   2.605   6.646  0.8056 -1.1971  0.5979
 7935SOL    HW235442   3.890   2.695   6.567 -0.2020  0.4197  2.5277
 7936SOL     OW35443   2.345   0.348   1.105  0.5454 -0.5153 -0.5696
 7936SOL    HW135444   2.256   0.314   1.103 -0.5762  2.2164  2.0729
 7936SOL    HW235445   2.343   0.437   1.141 -0.7581 -0.7851  0.0439
 7937SOL     OW35446   2.872   0.190   6.294  0.1871  0.7864 -0.7803
 7937SOL    HW135447   2.838   0.108   6.258  1.1946  1.2790 -2.8153
 7937SOL    HW235448   2.914   0.234   6.220  1.6466 -1.9663 -1.5878
 7938SOL     OW35449   3.023   3.618   7.517 -0.3432 -0.2260 -0.2582
 7938SOL    HW135450   2.938   3.586   7.547 -0.0307 -1.0469 -0.2701
 7938SOL    HW235451   3.008   3.711   7.535 -0.1820 -0.5571  1.6048
 7939SOL     OW35452   0.750   3.475   1.469 -0.0688 -0.4786 -0.6010
 7939SOL    HW135453   0.776   3.525   1.392 -2.1276  1.0523 -0.3178
 7939SOL    HW235454   0.828   3.482   1.523 -0.6617 -0.1903  0.2154
 7940SOL     OW35455   2.600   3.939   5.383 -0.5489  0.1927  0.4221
 7940SOL    HW135456   2.544   3.955   5.307  0.3497 -1.5495 -0.6202
 7940SOL    HW235457   2.687   3.959   5.347 -1.0893  0.6461 -0.6263
 7941SOL     OW35458   4.472   3.577   9.215  0.2576  0.0299  0.1107
 7941SOL    HW135459   4.412   3.559   9.143  0.0763  0.3116  0.1918
 7941SOL    HW235460   4.541   3.603   9.154 -0.0955  1.8309  0.5028
 7942SOL     OW35461   0.420   4.033   9.929 -1.0223 -0.5641 -0.1968
 7942SOL    HW135462   0.434   4.023   9.835 -0.5945  0.0005 -0.1916
 7942SOL    HW235463   0.335   3.993   9.946 -1.3230  0.3523  0.4178
 7943SOL     OW35464   2.979   2.111  16.106  0.0568  0.2678  0.0602
 7943SOL    HW135465   2.901   2.058  16.120 -1.6265  2.2532 -1.6899
 7943SOL    HW235466   3.049   2.046  16.101 -2.3040 -2.4479  2.4173
 7944SOL     OW35467   0.984   4.284   5.178 -0.1167  0.7190 -0.1956
 7944SOL    HW135468   0.916   4.275   5.244  1.1184 -0.0458  0.9633
 7944SOL    HW235469   0.938   4.320   5.102  0.8478 -0.7605 -1.4805
 7945SOL     OW35470   0.110   0.509   2.295 -0.1897 -0.6151  0.5593
 7945SOL    HW135471   0.186   0.473   2.340  0.0553 -0.1230  0.5346
 7945SOL    HW235472   0.150   0.501   2.208 -1.8286  0.7608 -0.3133
 7946SOL     OW35473   4.655   1.370   3.189 -0.4140 -0.2562  0.2211
 7946SOL    HW135474   4.599   1.366   3.112 -0.1023  1.3375 -0.0898
 7946SOL    HW235475   4.585   1.374   3.255  0.1035  0.8653  0.7151
 7947SOL     OW35476   1.361   4.285   2.735 -0.3391  0.5810  0.2594
 7947SOL    HW135477   1.396   4.331   2.810 -0.6113 -0.1367  0.8328
 7947SOL    HW235478   1.389   4.196   2.755 -0.6572  0.5527  0.5893
 7948SOL     OW35479   1.509   3.055   3.248 -0.3352 -0.0055  0.0454
 7948SOL    HW135480   1.474   3.093   3.167  0.8142  0.7970 -0.0861
 7948SOL    HW235481   1.559   2.976   3.230  0.7787  0.8583 -0.6521
 7949SOL     OW35482   0.609   2.742   3.572 -0.4443 -0.1931 -0.3302
 7949SOL    HW135483   0.518   2.763   3.554  0.0601  1.4973 -0.8532
 7949SOL    HW235484   0.653   2.806   3.516  0.3744 -0.5910 -0.1524
 7950SOL     OW35485   4.337   0.890   2.649  0.3243 -0.6719 -0.7270
 7950SOL    HW135486   4.255   0.935   2.669 -1.6553 -4.1275 -1.0520
 7950SOL    HW235487   4.361   0.846   2.730  0.3165 -1.1837 -1.0006
 7951SOL     OW35488   3.403   3.814   5.345 -0.0038 -0.2506  0.2204
 7951SOL    HW135489   3.492   3.809   5.311 -0.9474 -1.9472 -1.9534
 7951SOL    HW235490   3.381   3.890   5.290  0.8791 -1.1305 -1.3313
 7952SOL     OW35491   0.238   0.149  14.196  0.0910  0.7292 -0.3606
 7952SOL    HW135492   0.209   0.240  14.204 -1.8081  0.0370  0.5924
 7952SOL    HW235493   0.245   0.140  14.101  3.0496  0.8239 -0.1445
 7953SOL     OW35494   1.462   0.837   0.066  0.6226 -0.1230  0.2474
 7953SOL    HW135495   1.419   0.766   0.114 -3.1409  2.4442  0.7048
 7953SOL    HW235496   1.505   0.789  17.743  1.3740  0.9923 -0.0466
 7954SOL     OW35497   2.097   3.767   5.534  0.1582  0.2834 -0.0614
 7954SOL    HW135498   2.163   3.835   5.548  1.5022 -1.1058  0.3707
 7954SOL    HW235499   2.126   3.728   5.451 -1.4761  0.9625 -0.9476
 7955SOL     OW35500   1.036   0.362  12.967 -0.1577  0.0927  0.2205
 7955SOL    HW135501   1.021   0.310  13.047 -1.0673  3.1823  2.0567
 7955SOL    HW235502   1.008   0.299  12.901 -0.7228  1.5904 -0.9634
 7956SOL     OW35503   0.649   0.559   8.792 -0.1829 -0.0153 -0.0401
 7956SOL    HW135504   0.602   0.560   8.709  0.7586  0.8414 -0.5547
 7956SOL    HW235505   0.614   0.477   8.828  0.1206 -0.2567 -0.3030
 7957SOL     OW35506   2.487   1.964   6.792  0.2653 -0.1253 -0.1823
 7957SOL    HW135507   2.484   2.026   6.866  2.0536 -0.2283 -0.0161
 7957SOL    HW235508   2.434   1.896   6.833  0.6986 -1.4724 -1.9233
 7958SOL     OW35509   0.442   4.351  14.720 -0.0166  0.4732 -0.5075
 7958SOL    HW135510   0.417   4.442  14.736  1.8898  0.8627  0.1541
 7958SOL    HW235511   0.525   4.365  14.675 -0.0350 -2.2536 -1.3726
 7959SOL     OW35512   0.017   2.395   2.052  0.1493  0.6035  0.0762
 7959SOL    HW135513   0.002   2.442   1.970 -1.8448  1.7614  1.1135
 7959SOL    HW235514   0.095   2.439   2.084 -0.0290  2.1109 -1.5778
 7960SOL     OW35515   0.399   0.851  16.696  0.0596  0.7304  0.3938
 7960SOL    HW135516   0.461   0.849  16.623  1.0385  0.4700  1.2386
 7960SOL    HW235517   0.317   0.871  16.652  0.5650  2.1771  0.1065
 7961SOL     OW35518   0.836   2.284   5.734 -0.2732  0.5740 -0.3595
 7961SOL    HW135519   0.884   2.362   5.763 -2.3057  1.1572  1.4082
 7961SOL    HW235520   0.780   2.261   5.808 -1.0499  0.1803 -1.0711
 7962SOL     OW35521   2.636   1.746   7.609  0.3255 -0.0987 -0.0317
 7962SOL    HW135522   2.617   1.822   7.663 -2.0146 -0.2107 -0.6890
 7962SOL    HW235523   2.609   1.677   7.670  2.1428  0.1838  1.0762
 7963SOL     OW35524   4.058   0.634   5.649 -0.0143 -0.5833 -0.5982
 7963SOL    HW135525   4.033   0.574   5.579  0.1519  0.4908 -1.5936
 7963SOL    HW235526   3.974   0.661   5.686  0.5845 -0.7095  0.8517
 7964SOL     OW35527   4.594   4.618   6.034 -0.2631  0.3085  0.2781
 7964SOL    HW135528   4.636   4.561   6.099  1.5354  2.7999  1.2837
 7964SOL    HW235529   4.504   4.584   6.037 -0.1559  0.0391  0.3771
 7965SOL     OW35530   4.713   4.200  12.355 -0.2931  0.0978  0.4330
 7965SOL    HW135531   0.041   4.170  12.291  0.8419 -0.1447  1.7137
 7965SOL    HW235532   4.727   4.150  12.435  1.2651 -1.0815 -0.5854
 7966SOL     OW35533   2.822   2.090  12.670 -0.5191  0.0564  0.1571
 7966SOL    HW135534   2.825   1.999  12.642 -0.9208 -0.0430  0.4418
 7966SOL    HW235535   2.915   2.111  12.667 -0.7534  0.9803 -0.7149
 7967SOL     OW35536   1.372   2.486   3.829  0.1063  0.3266  0.1325
 7967SOL    HW135537   1.322   2.423   3.776  1.9715 -1.7405  0.8539
 7967SOL    HW235538   1.387   2.560   3.771  1.9605  0.2371  0.5141
 7968SOL     OW35539   3.474   3.273   0.787 -0.3235 -0.5071  0.0653
 7968SOL    HW135540   3.388   3.269   0.829 -1.0732 -0.9953 -1.5040
 7968SOL    HW235541   3.455   3.217   0.712 -0.5903  0.4842 -0.6101
 7969SOL     OW35542   2.882   3.668  10.842  0.5020  0.4818  0.3531
 7969SOL    HW135543   2.905   3.693  10.753 -2.0390  0.7554 -0.2387
 7969SOL    HW235544   2.896   3.573  10.843 -2.3966  0.0337 -1.4490
 7970SOL     OW35545   3.109   2.233   2.637  0.7299  0.7703 -0.0173
 7970SOL    HW135546   3.055   2.168   2.682 -0.4679  0.2200 -2.2443
 7970SOL    HW235547   3.173   2.256   2.705  1.2316 -0.1045 -0.1916
 7971SOL     OW35548   3.015   4.063   5.774  0.2894  0.1185 -0.1082
 7971SOL    HW135549   3.090   4.111   5.809 -1.1266  2.0308  0.3167
 7971SOL    HW235550   3.066   3.989   5.741 -0.4969 -0.8931  0.9744
 7972SOL     OW35551   4.111   1.985   5.566  0.1331  0.7893 -0.2059
 7972SOL    HW135552   4.031   1.933   5.579  0.2535  0.7279  0.2689
 7972SOL    HW235553   4.096   2.053   5.632  0.2716  0.8043 -0.1910
 7973SOL     OW35554   2.577   3.409   0.552 -0.0125 -0.0374  0.0270
 7973SOL    HW135555   2.666   3.441   0.571 -0.4094 -0.0009  1.8257
 7973SOL    HW235556   2.606   3.327   0.513  3.1179 -0.4827  3.1869
 7974SOL     OW35557   0.264   0.086   9.133  0.1497 -0.1674 -0.0397
 7974SOL    HW135558   0.199   0.094   9.203 -0.4770 -1.7648 -0.4237
 7974SOL    HW235559   0.349   0.111   9.170  0.0147 -1.3896  1.0971
 7975SOL     OW35560   2.660   3.695  17.454  0.1894  0.1290  0.5248
 7975SOL    HW135561   2.662   3.749  17.533  2.0262  2.0926 -0.8503
 7975SOL    HW235562   2.583   3.644  17.479 -0.5633  0.2599 -1.5061
 7976SOL     OW35563   0.350   3.294   2.981 -0.2889  0.1247 -0.3823
 7976SOL    HW135564   0.276   3.260   3.032  2.7479 -2.1928  2.4237
 7976SOL    HW235565   0.405   3.350   3.036 -2.4151  1.9534 -0.1285
 7977SOL     OW35566   1.441   4.297   7.063 -0.0650 -0.2757  0.4163
 7977SOL    HW135567   1.414   4.297   7.155  0.9403 -0.9375  0.7107
 7977SOL    HW235568   1.530   4.264   7.065  0.3830  0.7314 -2.3718
 7978SOL     OW35569   0.040   2.125  15.667  0.0737 -0.1959  0.1101
 7978SOL    HW135570   0.098   2.118  15.743  0.9196  2.6166 -0.2706
 7978SOL    HW235571   4.722   2.199  15.695 -0.2177 -0.4397  0.1759
 7979SOL     OW35572   2.942   3.091   0.494 -0.0055  0.0938  0.1801
 7979SOL    HW135573   3.035   3.102   0.517  0.1095 -3.0746  1.1305
 7979SOL    HW235574   2.954   3.101   0.399  0.4026  0.2119  0.2446
 7980SOL     OW35575   3.737   4.376   7.117  0.5060 -0.1190  0.1318
 7980SOL    HW135576   3.752   4.283   7.136 -0.5255 -0.0401  1.3484
 7980SOL    HW235577   3.671   4.397   7.183 -0.8586 -0.9412 -0.9715
 7981SOL     OW35578   2.433   0.072   0.482 -0.0462  0.4697 -0.0876
 7981SOL    HW135579   2.398   0.108   0.563 -0.3924 -0.1572  0.0423
 7981SOL    HW235580   2.460   0.153   0.438 -2.4607  1.2435 -0.1022
 7982SOL     OW35581   3.553   0.388  17.378  0.0127  0.2959 -0.1817
 7982SOL    HW135582   3.519   0.442  17.307  2.2315  1.4553 -0.3300
 7982SOL    HW235583   3.585   0.454  17.439 -0.7230 -1.4311  2.0823
 7983SOL     OW35584   3.470   4.099   5.232  0.1330  0.5947 -0.4801
 7983SOL    HW135585   3.558   4.126   5.259 -0.2952  0.3075  1.1943
 7983SOL    HW235586   3.420   4.167   5.276  2.3080  1.5770  0.4707
 7984SOL     OW35587   4.132   2.633   8.435  0.6560  0.2547  0.0949
 7984SOL    HW135588   4.133   2.583   8.353 -2.2431  2.5683 -1.3797
 7984SOL    HW235589   4.219   2.671   8.428 -0.7022  4.0103  3.5704
 7985SOL     OW35590   3.583   1.587   9.008  0.3328  0.4163  0.3989
 7985SOL    HW135591   3.540   1.521   9.061 -0.4311  1.7585  1.4474
 7985SOL    HW235592   3.584   1.546   8.921 -1.9097  0.1801  0.4788
 7986SOL     OW35593   4.058   1.370   4.275  0.4778 -0.1614  0.5329
 7986SOL    HW135594   4.113   1.391   4.350  0.8703 -0.0770  0.2190
 7986SOL    HW235595   4.129   1.373   4.211 -0.6481  1.8238 -0.6336
 7987SOL     OW35596   2.296   3.854   6.350  0.1894  0.1074  0.5944
 7987SOL    HW135597   2.213   3.841   6.305 -0.2291  3.3686  0.4295
 7987SOL    HW235598   2.273   3.889   6.436 -0.1746 -0.4351  0.7162
 7988SOL     OW35599   4.682   3.963  11.889  0.0034 -0.1952 -0.0765
 7988SOL    HW135600   4.683   3.878  11.934  2.1162  0.6213  1.3769
 7988SOL    HW235601   4.607   3.951  11.831  2.0527 -0.0442 -2.7499
 7989SOL     OW35602   1.394   1.755   6.010 -0.8342  0.7273  0.2721
 7989SOL    HW135603   1.443   1.681   6.042 -2.9665 -0.1372  1.5369
 7989SOL    HW235604   1.419   1.760   5.917  0.8918  0.5963  0.7388
 7990SOL     OW35605   3.332   4.482   1.654  0.2598 -0.3152 -0.5035
 7990SOL    HW135606   3.312   4.389   1.646  0.3944 -0.4111  0.2283
 7990SOL    HW235607   3.342   4.498   1.748  3.6304  0.4760 -0.9781
 7991SOL     OW35608   4.594   3.333   8.924 -0.2171 -0.3480 -0.5325
 7991SOL    HW135609   4.607   3.405   8.861 -0.6014  1.3868  1.3655
 7991SOL    HW235610   4.629   3.362   9.008  0.5826 -0.6462 -0.7638
 7992SOL     OW35611   0.867   2.818  10.293  0.5883  0.1022  0.0278
 7992SOL    HW135612   0.834   2.773  10.216 -0.3349  1.3531 -0.3122
 7992SOL    HW235613   0.956   2.844  10.267  1.8197 -1.9054  2.2282
 7993SOL     OW35614   0.005   0.717   4.593  0.0188  0.0635  0.5189
 7993SOL    HW135615   0.084   0.668   4.613  0.2950  0.2863 -0.0277
 7993SOL    HW235616   4.718   0.745   4.681 -1.3568 -1.0019  0.4764
 7994SOL     OW35617   0.565   0.939   5.802 -0.1397 -0.2140  0.2181
 7994SOL    HW135618   0.496   0.904   5.858  0.0786 -1.6701 -0.4485
 7994SOL    HW235619   0.533   1.028   5.783 -3.0259 -0.6476  3.0052
 7995SOL     OW35620   3.690   1.910   3.339  0.1512  0.9476  0.9127
 7995SOL    HW135621   3.707   1.947   3.426 -2.2223  1.2229  1.2457
 7995SOL    HW235622   3.596   1.895   3.344 -0.5717  4.4229 -2.8252
 7996SOL     OW35623   3.650   3.003   6.975  0.3597 -0.2002  0.3675
 7996SOL    HW135624   3.734   3.021   6.933  0.2118  0.0430  0.1799
 7996SOL    HW235625   3.678   3.011   7.067  0.7060  2.7340 -0.0051
 7997SOL     OW35626   0.901   0.530   3.256  0.3368  0.0005 -0.0627
 7997SOL    HW135627   0.844   0.534   3.333 -2.1184 -1.0653 -1.8481
 7997SOL    HW235628   0.989   0.525   3.293 -0.4913  1.4349  2.1231
 7998SOL     OW35629   0.334   1.163  16.289  0.2217  0.2123  0.4231
 7998SOL    HW135630   0.286   1.241  16.319 -1.9211 -0.2585 -1.7938
 7998SOL    HW235631   0.421   1.168  16.329 -0.2592 -1.4691  1.7015
 7999SOL     OW35632   3.887   2.834   7.407 -0.0999  0.1037  0.4752
 7999SOL    HW135633   3.955   2.885   7.362 -1.3005  1.8259  0.5821
 7999SOL    HW235634   3.849   2.904   7.460 -0.7342  1.0303 -1.2001
 8000SOL     OW35635   0.983   2.621   7.167 -0.3583  0.3193 -0.1379
 8000SOL    HW135636   0.984   2.526   7.176 -1.2815  0.3008 -0.2937
 8000SOL    HW235637   1.051   2.638   7.102  0.6376 -0.7008  0.6380
 8001SOL     OW35638   4.369   1.748  14.647 -0.4272  0.1526  0.2254
 8001SOL    HW135639   4.446   1.786  14.688 -1.7388  1.5364  1.3935
 8001SOL    HW235640   4.360   1.813  14.577  0.2675  0.7546  0.6963
 8002SOL     OW35641   0.496   2.223  15.592  0.0440  0.3752 -0.2517
 8002SOL    HW135642   0.445   2.146  15.565 -0.9536  0.9259  0.0412
 8002SOL    HW235643   0.586   2.194  15.607 -1.2225 -3.2010  0.3633
 8003SOL     OW35644   0.480   3.469  14.945  0.3133  0.2645 -0.4635
 8003SOL    HW135645   0.435   3.397  14.902 -0.3025 -0.4211  1.3313
 8003SOL    HW235646   0.537   3.498  14.874 -0.5882  1.2457 -0.7803
 8004SOL     OW35647   2.567   2.517   7.737 -0.1774 -0.2904  0.2215
 8004SOL    HW135648   2.588   2.490   7.648  1.5720 -1.2166  0.9101
 8004SOL    HW235649   2.642   2.475   7.780  0.7588  1.1449  0.0166
 8005SOL     OW35650   0.413   2.196   4.940  0.2575 -0.0487  0.3975
 8005SOL    HW135651   0.363   2.235   4.867 -1.2181 -2.2500  0.2099
 8005SOL    HW235652   0.392   2.244   5.020  0.4365  0.4599  0.1406
 8006SOL     OW35653   1.068   1.377  10.730  0.5426 -0.8306 -0.2762
 8006SOL    HW135654   1.081   1.438  10.802  0.7196 -0.0355 -0.9731
 8006SOL    HW235655   1.080   1.293  10.774  1.7225  0.4430  1.8256
 8007SOL     OW35656   2.249   3.612   4.443 -0.4133 -0.0763  0.0748
 8007SOL    HW135657   2.337   3.633   4.412 -0.9547  1.4672 -0.4002
 8007SOL    HW235658   2.192   3.658   4.382 -1.5863 -1.8902 -0.1856
 8008SOL     OW35659   0.175   2.850   6.962  0.1507 -0.0860  0.0494
 8008SOL    HW135660   0.192   2.898   7.042  1.1348 -1.1481  0.4760
 8008SOL    HW235661   0.231   2.773   6.966  0.8700  0.4055 -0.5866
 8009SOL     OW35662   0.252   2.697  17.722  0.1336 -0.1706  0.2230
 8009SOL    HW135663   0.230   2.662  17.636 -1.3302  3.3273 -0.8511
 8009SOL    HW235664   0.331   2.750  17.714 -0.9189  1.3989  0.0223
 8010SOL     OW35665   2.310   2.064   7.661  0.5095 -0.3405  0.1248
 8010SOL    HW135666   2.324   2.139   7.719 -0.5242  1.0125 -1.3609
 8010SOL    HW235667   2.365   1.997   7.701 -0.4198  0.3839  2.6268
 8011SOL     OW35668   2.525   4.093   6.370  1.3045 -0.0272  0.4310
 8011SOL    HW135669   2.518   4.027   6.438  3.2921  0.2861  0.9191
 8011SOL    HW235670   2.491   4.055   6.289  1.5488 -0.0460  0.3394
 8012SOL     OW35671   0.912   2.854   6.402  1.0069 -0.5451 -0.1992
 8012SOL    HW135672   0.924   2.871   6.496  1.1301  1.4487 -0.5783
 8012SOL    HW235673   0.822   2.885   6.390  1.2464  1.0030  1.9757
 8013SOL     OW35674   4.438   0.711  17.172  0.5194 -0.2758  0.5630
 8013SOL    HW135675   4.524   0.740  17.203 -0.6745  0.7113  2.9720
 8013SOL    HW235676   4.465   0.665  17.093  0.4615  0.3501  0.1746
 8014SOL     OW35677   1.679   0.701   6.567 -0.5806 -0.0243 -0.4272
 8014SOL    HW135678   1.773   0.682   6.570 -0.7869 -0.5069  3.1368
 8014SOL    HW235679   1.635   0.635   6.622  1.7669 -0.8193  0.4914
 8015SOL     OW35680   0.078   1.580  11.157  0.4084 -0.3022 -0.4444
 8015SOL    HW135681   0.008   1.579  11.091 -0.0494 -1.0399  0.0528
 8015SOL    HW235682   0.037   1.564  11.241  3.0086 -0.9844  0.6957
 8016SOL     OW35683   2.353   2.252  14.064  0.2789  0.5099  0.5717
 8016SOL    HW135684   2.365   2.198  14.143  1.2168  0.1302  0.1644
 8016SOL    HW235685   2.361   2.335  14.111 -0.5277  0.0434  1.5476
 8017SOL     OW35686   3.738   2.192   4.516 -0.0025 -0.1855 -0.2317
 8017SOL    HW135687   3.711   2.100   4.521  2.1480 -0.9307 -2.4397
 8017SOL    HW235688   3.688   2.217   4.439  0.9757  0.3392 -0.6993
 8018SOL     OW35689   2.385   4.474   6.305  0.0030  0.1441  0.1263
 8018SOL    HW135690   2.386   4.499   6.213 -0.8361 -1.5040 -0.3426
 8018SOL    HW235691   2.406   4.559   6.343  1.4429 -0.0982 -0.1080
 8019SOL     OW35692   0.283   2.265   7.042  0.7884  0.1104 -0.1424
 8019SOL    HW135693   0.239   2.222   6.969 -2.0250  0.8981  1.1038
 8019SOL    HW235694   0.210   2.254   7.102 -0.4489 -1.6121 -1.9623
 8020SOL     OW35695   0.399   3.743  11.009  0.1065 -1.0477 -0.4749
 8020SOL    HW135696   0.399   3.831  10.971  0.8851  0.2616  2.5860
 8020SOL    HW235697   0.414   3.689  10.931  0.0593  0.1435 -1.3120
 8021SOL     OW35698   3.570   0.997  14.179 -0.0032 -0.1229 -0.3404
 8021SOL    HW135699   3.561   1.001  14.084  0.0186 -1.9749 -0.4203
 8021SOL    HW235700   3.495   1.052  14.201  1.2998  1.0730  1.1479
 8022SOL     OW35701   1.300   3.886   4.900 -0.3318  0.4209 -0.0859
 8022SOL    HW135702   1.386   3.844   4.903 -0.8256 -0.6105 -0.3403
 8022SOL    HW235703   1.242   3.814   4.875  1.0653 -1.1349  1.1679
 8023SOL     OW35704   1.295   0.329   7.250 -0.0652  0.4156  0.6886
 8023SOL    HW135705   1.386   0.302   7.236 -0.7273 -0.6301 -1.4757
 8023SOL    HW235706   1.293   0.408   7.196 -0.5665  1.1602  1.7931
 8024SOL     OW35707   2.432   2.375   7.122 -0.1362 -0.5270  0.5707
 8024SOL    HW135708   2.421   2.305   7.058  0.1251  1.1557 -1.2783
 8024SOL    HW235709   2.442   2.325   7.203 -0.2340 -2.1402 -0.4121
 8025SOL     OW35710   1.576   4.461   8.642  0.2758  0.1862 -0.2092
 8025SOL    HW135711   1.647   4.460   8.707  0.0559  1.6829  0.0508
 8025SOL    HW235712   1.558   4.555   8.630  1.5917  0.5237  0.4988
 8026SOL     OW35713   4.382   3.543  15.173  0.1072  0.0155  0.2837
 8026SOL    HW135714   4.436   3.527  15.095  0.2334  1.9350 -0.0140
 8026SOL    HW235715   4.375   3.637  15.161 -2.2848  0.0324  1.7941
 8027SOL     OW35716   4.221   3.340   2.830 -0.0433  0.1218 -0.4507
 8027SOL    HW135717   4.135   3.373   2.804 -0.1202  1.8349  1.9965
 8027SOL    HW235718   4.250   3.323   2.740 -1.2054 -3.0079 -0.2636
 8028SOL     OW35719   1.403   3.141  14.996  0.1417 -1.1927  0.2463
 8028SOL    HW135720   1.440   3.083  15.062 -0.0657 -0.8564  0.6591
 8028SOL    HW235721   1.416   3.085  14.919  1.7645  1.9668 -1.8129
 8029SOL     OW35722   2.235   3.432  15.507 -0.2321  0.5884  0.2929
 8029SOL    HW135723   2.305   3.462  15.448 -1.2929  1.1405 -0.6764
 8029SOL    HW235724   2.171   3.503  15.497  0.0292  0.5773 -1.5308
 8030SOL     OW35725   1.305   1.632  16.734  0.5401 -0.7347  0.2878
 8030SOL    HW135726   1.311   1.727  16.722 -0.5197 -0.7074 -0.0279
 8030SOL    HW235727   1.358   1.592  16.666 -0.3243 -0.6410 -0.4420
 8031SOL     OW35728   1.575   1.819  16.088 -0.7110  0.1293 -1.1661
 8031SOL    HW135729   1.546   1.906  16.062  1.2090  1.6302  1.7662
 8031SOL    HW235730   1.599   1.818  16.181 -1.9909  2.5942 -0.8110
 8032SOL     OW35731   1.871   1.251   8.596  0.1948 -0.1729  0.4170
 8032SOL    HW135732   1.876   1.155   8.595 -3.0362 -0.3721  2.8480
 8032SOL    HW235733   1.784   1.267   8.631 -0.1681  0.0991 -0.6275
 8033SOL     OW35734   0.780   1.813   6.755 -0.1462 -0.1961 -0.1658
 8033SOL    HW135735   0.741   1.838   6.671 -0.5917  0.5152  0.2414
 8033SOL    HW235736   0.769   1.719   6.761  0.9812 -0.4052 -1.4719
 8034SOL     OW35737   1.175   3.946   7.774 -0.4539  0.2502 -0.4072
 8034SOL    HW135738   1.152   3.979   7.687 -2.9165 -1.9938 -0.6358
 8034SOL    HW235739   1.097   3.971   7.824 -1.8616  0.8362 -2.8731
 8035SOL     OW35740   2.753   4.339   3.561 -0.4629  0.3412  0.5922
 8035SOL    HW135741   2.803   4.379   3.631 -2.2021  1.3159  1.2881
 8035SOL    HW235742   2.797   4.374   3.483 -0.0082  1.3631  1.3274
 8036SOL     OW35743   2.875   2.233   8.692 -0.4492 -0.2356 -0.1186
 8036SOL    HW135744   2.902   2.142   8.697 -0.8280 -0.2970  0.7375
 8036SOL    HW235745   2.935   2.271   8.756  0.3056 -0.2236 -0.8355
 8037SOL     OW35746   4.315   1.323  11.535  0.6378 -0.1187 -0.5313
 8037SOL    HW135747   4.362   1.392  11.582 -0.1883  1.4836 -2.0556
 8037SOL    HW235748   4.235   1.373  11.515  0.6849 -0.0744 -0.6097
 8038SOL     OW35749   0.299   3.401   4.920 -0.8141  0.3900 -0.0419
 8038SOL    HW135750   0.222   3.440   4.879 -0.9837 -0.2242 -0.3034
 8038SOL    HW235751   0.251   3.345   4.980 -3.6782  1.7139 -1.1290
 8039SOL     OW35752   0.274   0.463   2.062  0.1052  0.7710 -0.0660
 8039SOL    HW135753   0.319   0.547   2.063 -1.1222  1.4114  1.2412
 8039SOL    HW235754   0.344   0.399   2.075  0.2657  0.7784 -0.9173
 8040SOL     OW35755   3.973   0.037   5.893 -0.0481  0.0327 -0.2196
 8040SOL    HW135756   3.972   4.691   5.845 -1.3086  0.4629 -0.9277
 8040SOL    HW235757   3.893   0.024   5.943  0.1849 -1.1842 -0.1442
 8041SOL     OW35758   1.521   0.232  15.742 -0.4626 -0.0638 -0.9161
 8041SOL    HW135759   1.501   0.289  15.667  1.1583  1.8834  0.1296
 8041SOL    HW235760   1.609   0.202  15.720  0.4347  0.3809  2.0189
 8042SOL     OW35761   2.049   1.873  15.453  1.1190  0.0662 -0.4509
 8042SOL    HW135762   2.094   1.951  15.420  0.4469 -0.3249 -2.2883
 8042SOL    HW235763   1.975   1.912  15.500  1.3830  0.1779 -0.1272
 8043SOL     OW35764   2.858   3.920  14.038  0.1049 -0.3250  0.4131
 8043SOL    HW135765   2.816   3.941  14.122  1.2766 -1.3732  1.2666
 8043SOL    HW235766   2.860   4.001  13.988  0.7034 -0.6257 -0.0515
 8044SOL     OW35767   1.667   1.316   2.301  0.2555  0.8344  0.5321
 8044SOL    HW135768   1.576   1.288   2.316 -0.5965  3.6028  0.5800
 8044SOL    HW235769   1.700   1.229   2.283  0.1695  0.9195 -0.0438
 8045SOL     OW35770   3.088   1.974   2.448  0.1713 -0.3782  0.0479
 8045SOL    HW135771   3.105   1.981   2.354  2.4097  0.0935  0.4899
 8045SOL    HW235772   3.093   2.063   2.484 -1.7096 -0.7077  1.1334
 8046SOL     OW35773   2.315   3.975   5.553  0.1459  0.4933  0.0266
 8046SOL    HW135774   2.344   4.050   5.604 -0.9183  1.2486 -0.4835
 8046SOL    HW235775   2.360   3.898   5.588 -0.0134  0.1611 -0.4832
 8047SOL     OW35776   4.403   3.441  13.827  0.1271  0.4099  0.2873
 8047SOL    HW135777   4.440   3.460  13.913 -0.0937  2.5839 -0.0943
 8047SOL    HW235778   4.373   3.351  13.840  1.3937 -0.0133  0.3377
 8048SOL     OW35779   2.287   0.917  16.699  0.3219 -0.3231  0.2863
 8048SOL    HW135780   2.213   0.923  16.637  0.7471  1.6373 -0.0375
 8048SOL    HW235781   2.339   0.996  16.681 -2.3578  1.5081  0.4452
 8049SOL     OW35782   2.447   0.139  12.699 -0.2514 -0.1705 -0.5054
 8049SOL    HW135783   2.374   0.201  12.687 -1.1279 -0.6377  2.3674
 8049SOL    HW235784   2.472   0.158  12.789 -1.2072 -0.0906 -0.2521
 8050SOL     OW35785   4.621   2.848   1.077 -0.7309  0.3560 -0.2474
 8050SOL    HW135786   4.640   2.926   1.130  1.6483  1.5987 -2.9070
 8050SOL    HW235787   4.571   2.880   1.002  0.5850  0.6163 -1.0145
 8051SOL     OW35788   3.569   2.102   6.186  0.4421 -0.0514 -0.1884
 8051SOL    HW135789   3.549   2.167   6.254  0.5920  0.5650 -0.7385
 8051SOL    HW235790   3.665   2.099   6.184  0.3682 -1.0947 -1.7271
 8052SOL     OW35791   4.086   3.026   1.950  0.3302 -0.3230  0.2489
 8052SOL    HW135792   4.100   2.948   2.005  0.0846 -0.0221  0.7349
 8052SOL    HW235793   4.171   3.029   1.906  0.3136  1.6425  0.3458
 8053SOL     OW35794   0.341   4.544   2.139  0.7778  0.0574  0.1545
 8053SOL    HW135795   0.433   4.526   2.157  0.5215 -0.6080  0.7775
 8053SOL    HW235796   0.315   4.530   2.230  3.9854  2.7122  1.4595
 8054SOL     OW35797   3.284   0.628   6.792 -0.3054  0.0311 -0.0225
 8054SOL    HW135798   3.243   0.544   6.771  2.7304 -0.9034 -2.0745
 8054SOL    HW235799   3.301   0.606   6.884  0.2248 -0.7193 -0.3032
 8055SOL     OW35800   0.593   2.334   4.363  0.3363 -0.3334 -0.9407
 8055SOL    HW135801   0.636   2.272   4.304 -0.5255  0.9717 -2.9549
 8055SOL    HW235802   0.649   2.412   4.364  1.9835 -1.5294  0.6733
 8056SOL     OW35803   1.578   3.403   8.276 -0.4486 -0.4540  0.3551
 8056SOL    HW135804   1.518   3.331   8.259  1.2575 -1.7079 -0.3777
 8056SOL    HW235805   1.576   3.429   8.368 -0.4368  1.1942 -0.1105
 8057SOL     OW35806   4.099   0.271   4.836  0.5822  0.3368  0.3638
 8057SOL    HW135807   4.033   0.231   4.779  0.6644  1.2562 -0.3828
 8057SOL    HW235808   4.137   0.188   4.865  1.8151  0.7953  0.0853
 8058SOL     OW35809   1.611   0.992   9.822  0.0521 -0.2549  1.1600
 8058SOL    HW135810   1.592   1.054   9.751 -2.1496  0.5312  2.4392
 8058SOL    HW235811   1.543   0.924   9.823  0.6361 -0.8245  1.6922
 8059SOL     OW35812   4.661   4.131  15.761 -0.2914  0.2559 -0.1689
 8059SOL    HW135813   4.596   4.172  15.704 -0.2628 -0.4427 -0.7064
 8059SOL    HW235814   4.610   4.069  15.813 -0.8937  0.7473 -0.1756
 8060SOL     OW35815   4.116   4.252   9.920  0.3173 -0.3728  0.5350
 8060SOL    HW135816   4.061   4.174   9.932 -1.2974  1.0966  2.7060
 8060SOL    HW235817   4.111   4.290  10.007 -0.6381  0.6464  0.0305
 8061SOL     OW35818   4.622   0.214   5.473 -0.2949 -0.3998 -0.3573
 8061SOL    HW135819   4.621   0.297   5.426 -1.7022  0.2925  0.8940
 8061SOL    HW235820   4.634   0.243   5.563 -0.4623 -1.8893  0.1535
 8062SOL     OW35821   3.200   3.376  15.818  0.2245  0.3609  0.2472
 8062SOL    HW135822   3.204   3.448  15.880 -0.4290  1.7028 -1.2833
 8062SOL    HW235823   3.150   3.428  15.755 -1.6649 -2.5335 -0.6328
 8063SOL     OW35824   3.231   0.653   9.509  0.0658  0.0042 -0.2099
 8063SOL    HW135825   3.140   0.654   9.537  0.3857 -0.3044  0.8628
 8063SOL    HW235826   3.280   0.623   9.586  0.5356 -0.4708 -0.6997
 8064SOL     OW35827   4.515   3.024   1.308 -0.0450  0.4737 -0.1078
 8064SOL    HW135828   4.580   3.054   1.372 -0.3813 -1.9090  1.3632
 8064SOL    HW235829   4.490   2.937   1.340  1.6417  0.9742  2.6428
 8065SOL     OW35830   2.903   2.490  16.237 -0.3392 -0.1100 -0.4954
 8065SOL    HW135831   2.827   2.434  16.222 -1.3138  0.5243  2.0693
 8065SOL    HW235832   2.975   2.439  16.201 -0.8125 -1.2880  0.2321
 8066SOL     OW35833   2.328   1.970   1.243  0.1474  0.3472 -0.6123
 8066SOL    HW135834   2.288   2.028   1.178 -3.2078 -1.1630  0.1190
 8066SOL    HW235835   2.421   1.981   1.224  0.4834 -0.0522  0.8284
 8067SOL     OW35836   0.515   2.856  12.083 -0.3313  0.7505 -0.6605
 8067SOL    HW135837   0.429   2.888  12.054 -1.8907 -2.0480  0.8783
 8067SOL    HW235838   0.487   2.770  12.115  1.5944  0.6165  0.5939
 8068SOL     OW35839   3.717   2.077   7.057  0.1594 -0.0517 -0.0883
 8068SOL    HW135840   3.752   2.075   6.968  0.3299  0.3657 -0.0298
 8068SOL    HW235841   3.684   1.988   7.064  0.5609 -0.2802 -1.2055
 8069SOL     OW35842   0.526   0.013   4.156  0.2730 -0.0518  0.3767
 8069SOL    HW135843   0.493   0.060   4.232  1.0519 -0.4306  0.9582
 8069SOL    HW235844   0.519   0.079   4.088 -1.8974 -1.8069 -1.1170
 8070SOL     OW35845   0.596   3.467  11.304 -0.0668 -0.5320  0.3014
 8070SOL    HW135846   0.613   3.426  11.389 -0.1960  1.1914  1.1445
 8070SOL    HW235847   0.524   3.413  11.270  0.6368 -0.6733 -0.9602
 8071SOL     OW35848   2.001   0.783   9.594 -0.4939  0.1246 -0.2601
 8071SOL    HW135849   1.976   0.769   9.503  0.5506 -2.9153 -0.0621
 8071SOL    HW235850   2.020   0.877   9.591  1.1545 -0.1716  0.9763
 8072SOL     OW35851   4.600   2.172  11.982  0.3682  0.6047  0.2543
 8072SOL    HW135852   4.650   2.244  12.020  1.4132  0.2569 -0.4409
 8072SOL    HW235853   4.617   2.094  12.034 -0.7533 -0.0059 -0.3055
 8073SOL     OW35854   4.354   4.186   6.977  0.1920  0.4450 -0.0973
 8073SOL    HW135855   4.375   4.187   7.071 -0.8947  0.0007  0.1468
 8073SOL    HW235856   4.270   4.229   6.962  0.4267  1.0907  0.4218
 8074SOL     OW35857   3.356   0.660   5.569 -0.5643  0.5306 -0.2249
 8074SOL    HW135858   3.438   0.665   5.618 -1.4804 -1.7856  1.5773
 8074SOL    HW235859   3.347   0.568   5.543 -0.6978  0.6549 -0.6173
 8075SOL     OW35860   2.964   1.329   2.393  0.2271 -0.4426  0.1633
 8075SOL    HW135861   3.033   1.377   2.438 -0.1357 -1.6589  2.0201
 8075SOL    HW235862   2.943   1.260   2.456 -0.0839 -0.4145  0.0921
 8076SOL     OW35863   3.129   0.124   5.922 -0.3451 -0.1411 -0.3823
 8076SOL    HW135864   3.160   0.172   5.999  1.1435  0.1429 -1.1516
 8076SOL    HW235865   3.160   0.184   5.854 -0.3244 -0.3428 -0.5492
 8077SOL     OW35866   2.428   2.101   5.239  0.2579 -0.7224  0.3737
 8077SOL    HW135867   2.354   2.160   5.223  0.4282 -0.9528 -1.2646
 8077SOL    HW235868   2.380   2.021   5.261 -0.3957 -1.1050 -2.4412
 8078SOL     OW35869   4.370   0.205   6.146  0.0774 -0.4832  0.4777
 8078SOL    HW135870   4.369   0.172   6.057  0.3317  1.5013 -0.2536
 8078SOL    HW235871   4.417   0.287   6.128  1.1755 -1.6611 -1.9886
 8079SOL     OW35872   3.154   3.177   8.901 -0.2380  0.4996  0.4115
 8079SOL    HW135873   3.074   3.168   8.952  0.2066  1.6349  1.3039
 8079SOL    HW235874   3.197   3.257   8.932 -2.3516  1.8759 -0.2379
 8080SOL     OW35875   4.265   2.081   6.417  0.1636 -0.6856  0.4413
 8080SOL    HW135876   4.256   2.153   6.355 -0.1265 -0.3194  0.9058
 8080SOL    HW235877   4.177   2.045   6.418 -1.7673  4.0164  0.0269
 8081SOL     OW35878   3.152   2.773   8.470 -0.4498 -0.1442  0.0911
 8081SOL    HW135879   3.171   2.716   8.544 -2.4346 -1.9461 -0.7957
 8081SOL    HW235880   3.213   2.846   8.484  0.6481 -0.6165 -2.1204
 8082SOL     OW35881   3.749   2.671  15.743  0.1930 -0.2360 -0.0731
 8082SOL    HW135882   3.785   2.650  15.829 -0.1998 -2.0834 -0.3765
 8082SOL    HW235883   3.659   2.701  15.757  0.4329  1.2051 -1.5718
 8083SOL     OW35884   4.358   1.166  11.110  0.3592 -0.1201  0.5037
 8083SOL    HW135885   4.399   1.191  11.027 -0.7254  0.9110  0.2770
 8083SOL    HW235886   4.272   1.172  11.068  0.7980 -0.9216 -0.5225
 8084SOL     OW35887   1.915   3.515   3.470 -0.1186  0.5406  0.1332
 8084SOL    HW135888   1.938   3.608   3.478  1.3183  0.2585 -0.7445
 8084SOL    HW235889   1.938   3.497   3.379  0.2306 -0.8811  0.5015
 8085SOL     OW35890   0.750   3.513  11.619 -0.0272  0.0034  0.0801
 8085SOL    HW135891   0.707   3.428  11.607 -0.8677  0.4433 -0.0647
 8085SOL    HW235892   0.671   3.565  11.633  0.9146  1.0832  1.2463
 8086SOL     OW35893   2.897   0.506   5.685 -0.3323  0.2582  0.0486
 8086SOL    HW135894   2.953   0.429   5.673 -1.9078 -0.7763 -0.6172
 8086SOL    HW235895   2.902   0.544   5.597 -2.8502  2.0985  0.6989
 8087SOL     OW35896   3.827   0.146   7.593 -0.3979  0.4237  0.7339
 8087SOL    HW135897   3.757   0.088   7.623 -0.1696 -1.5868 -2.5683
 8087SOL    HW235898   3.787   0.233   7.597 -1.5431  0.0870 -3.0175
 8088SOL     OW35899   2.654   4.483   5.261  0.2443 -0.1122  0.0081
 8088SOL    HW135900   2.740   4.456   5.293 -0.1198 -0.0232  1.0721
 8088SOL    HW235901   2.619   4.536   5.333 -0.4250  0.4336 -0.7160
 8089SOL     OW35902   0.426   0.470  15.978  0.1437 -0.4166  0.5372
 8089SOL    HW135903   0.333   0.471  15.957  0.1449 -0.0344  0.5382
 8089SOL    HW235904   0.445   0.560  15.949  1.4879 -0.7607  0.3355
 8090SOL     OW35905   0.808   3.253   4.600  0.2581 -0.1406  0.5458
 8090SOL    HW135906   0.762   3.337   4.596  2.2811  0.8383 -2.3028
 8090SOL    HW235907   0.895   3.286   4.622 -0.1036  1.2781 -0.1690
 8091SOL     OW35908   4.103   2.011  10.413  0.3938 -0.0794 -0.0243
 8091SOL    HW135909   4.195   2.016  10.439  0.9280  0.3086 -1.9959
 8091SOL    HW235910   4.066   1.931  10.449  0.5152 -1.5353 -3.1323
 8092SOL     OW35911   0.534   2.568   3.804 -0.4315  0.0378  0.7692
 8092SOL    HW135912   0.570   2.515   3.733  1.8879  1.2423  1.0642
 8092SOL    HW235913   0.514   2.652   3.763  0.2690 -1.4982 -2.7220
 8093SOL     OW35914   1.475   2.994   4.599  0.0403  0.1238  0.2436
 8093SOL    HW135915   1.451   2.951   4.681 -0.1038  0.7140  0.5108
 8093SOL    HW235916   1.472   2.921   4.537 -1.9112 -0.0997  0.5980
 8094SOL     OW35917   2.927   2.088  15.605  0.1539 -0.6594  0.5708
 8094SOL    HW135918   3.018   2.067  15.582 -0.0121 -0.1014 -0.5772
 8094SOL    HW235919   2.942   2.141  15.683  0.5199 -0.3226  0.2714
 8095SOL     OW35920   2.636   0.839   7.961 -0.6325 -0.6888 -0.0056
 8095SOL    HW135921   2.615   0.797   8.044  0.9563  0.1983  0.8593
 8095SOL    HW235922   2.683   0.913   8.001  0.3323 -0.1759 -2.0834
 8096SOL     OW35923   2.666   0.558   5.474  0.1082 -0.2054 -0.2786
 8096SOL    HW135924   2.626   0.526   5.555 -1.3621  1.9964 -0.1157
 8096SOL    HW235925   2.591   0.612   5.449 -0.0042  0.0327  0.5757
 8097SOL     OW35926   0.424   1.612   5.907 -0.3981 -0.1933  0.1872
 8097SOL    HW135927   0.466   1.584   5.989  1.6013 -0.8429 -1.0583
 8097SOL    HW235928   0.400   1.703   5.924 -2.0357 -0.4082 -1.0686
 8098SOL     OW35929   4.357   0.242  16.587 -0.7412 -0.3751 -0.6273
 8098SOL    HW135930   4.349   0.239  16.491 -3.0808  1.2349 -0.4848
 8098SOL    HW235931   4.439   0.292  16.588  0.1561 -1.9970  5.0006
 8099SOL     OW35932   4.535   3.685  14.677  0.3395 -0.1427  0.4704
 8099SOL    HW135933   4.551   3.664  14.585  1.2896 -0.6818  0.7618
 8099SOL    HW235934   4.620   3.704  14.716  0.2014 -1.9477  1.6681
 8100SOL     OW35935   2.825   1.737   9.029 -0.3618  0.4835  0.2963
 8100SOL    HW135936   2.756   1.768   9.088  0.4555 -0.2631  1.6579
 8100SOL    HW235937   2.885   1.693   9.089 -1.0235 -0.7073  0.0892
 8101SOL     OW35938   2.936   2.640   7.619 -0.7263  0.2517  0.0944
 8101SOL    HW135939   2.964   2.700   7.550  0.2187  1.3741  1.4282
 8101SOL    HW235940   2.921   2.565   7.562  2.1096 -0.5594  0.4015
 8102SOL     OW35941   1.266   2.553   4.318 -0.1781 -0.1752  0.1728
 8102SOL    HW135942   1.293   2.574   4.228 -0.7346 -1.3422 -0.2786
 8102SOL    HW235943   1.280   2.459   4.306 -1.5372 -0.2630 -0.8304
 8103SOL     OW35944   2.540   4.026   3.215 -0.4126 -0.0432 -0.3359
 8103SOL    HW135945   2.460   4.003   3.167  1.0246 -0.8492 -2.3329
 8103SOL    HW235946   2.516   4.110   3.255  0.3097  0.3266 -0.6792
 8104SOL     OW35947   3.764   2.966  16.332  0.0565  0.2983 -0.2506
 8104SOL    HW135948   3.725   3.047  16.366 -2.7026 -1.1435  0.0527
 8104SOL    HW235949   3.681   2.927  16.304  1.0324 -0.9184 -1.4321
 8105SOL     OW35950   4.363   2.264   7.439  0.0930  0.0487 -0.0418
 8105SOL    HW135951   4.312   2.249   7.519 -0.5388  0.3039 -0.3999
 8105SOL    HW235952   4.304   2.322   7.392 -0.2176  0.3884  0.7672
 8106SOL     OW35953   3.658   1.155   3.393 -0.7701 -0.3420  0.4071
 8106SOL    HW135954   3.740   1.115   3.421 -1.7056 -1.6103  1.2973
 8106SOL    HW235955   3.611   1.185   3.471  1.7260 -0.0853  1.8096
 8107SOL     OW35956   1.420   4.548  11.710  0.0855  0.2145  0.0935
 8107SOL    HW135957   1.404   4.642  11.725  1.3291  0.4684 -0.1680
 8107SOL    HW235958   1.393   4.539  11.619  1.1698  1.2358 -0.3318
 8108SOL     OW35959   3.240   1.491   7.405  0.2925  0.6409  0.3900
 8108SOL    HW135960   3.290   1.467   7.327  0.2648  1.5710  0.0851
 8108SOL    HW235961   3.182   1.556   7.364  0.1996  0.4911  0.2820
 8109SOL     OW35962   1.948   2.874  12.079  0.0205  0.3901 -0.3409
 8109SOL    HW135963   2.006   2.805  12.111  1.2754  1.9287  0.6688
 8109SOL    HW235964   1.868   2.823  12.063 -0.9675  1.8500 -0.0581
 8110SOL     OW35965   2.313   1.159  16.056  0.2534  0.1399 -0.4085
 8110SOL    HW135966   2.221   1.137  16.067  0.1087  0.9963  0.1435
 8110SOL    HW235967   2.322   1.217  16.132 -0.6002 -0.9710  0.5308
 8111SOL     OW35968   0.058   2.290   8.303  0.1143 -0.1967  0.5164
 8111SOL    HW135969   0.035   2.256   8.389  2.7532 -0.1471  1.2131
 8111SOL    HW235970   0.068   2.208   8.255  0.8504 -0.2332  0.7367
 8112SOL     OW35971   0.380   1.462   7.738 -0.1577  0.1163 -0.1160
 8112SOL    HW135972   0.426   1.542   7.763 -0.1087  0.1042 -0.1669
 8112SOL    HW235973   0.327   1.455   7.817 -1.9908 -1.7200 -1.5113
 8113SOL     OW35974   2.140   1.315   3.284 -0.7651 -0.1875 -0.5266
 8113SOL    HW135975   2.106   1.364   3.359 -2.1454 -1.4062 -0.3598
 8113SOL    HW235976   2.132   1.225   3.315 -0.4061 -0.8935 -2.4399
 8114SOL     OW35977   1.830   0.903   5.782 -0.2897 -0.2260 -0.0630
 8114SOL    HW135978   1.762   0.917   5.716 -2.2455 -1.4526  1.7093
 8114SOL    HW235979   1.781   0.846   5.840  1.0800  1.6300  2.9098
 8115SOL     OW35980   0.786   2.061  16.580 -0.4446  0.3285 -0.4499
 8115SOL    HW135981   0.813   2.103  16.498  1.9369 -1.9820 -0.8468
 8115SOL    HW235982   0.691   2.068  16.580 -0.5622 -1.3205  0.6501
 8116SOL     OW35983   2.235   2.514   1.697  0.0326  0.5339 -0.1658
 8116SOL    HW135984   2.145   2.495   1.671  0.7989  0.0789 -2.5275
 8116SOL    HW235985   2.243   2.451   1.768 -0.4059  1.3813  0.6226
 8117SOL     OW35986   0.306   1.887   5.298  0.5017  0.0156 -0.7809
 8117SOL    HW135987   0.349   1.970   5.277 -0.5152  1.1306  1.5537
 8117SOL    HW235988   0.379   1.825   5.295  0.9566  0.4299  1.8310
 8118SOL     OW35989   0.654   3.416   8.860  0.6440 -0.4850 -0.4361
 8118SOL    HW135990   0.586   3.354   8.833 -0.0909  1.3967 -2.9526
 8118SOL    HW235991   0.642   3.414   8.955  0.1494 -0.8233 -0.5043
 8119SOL     OW35992   4.698   3.547   6.074 -0.1955  0.7586  0.1495
 8119SOL    HW135993   0.046   3.507   6.092 -0.4557 -0.5153 -1.4165
 8119SOL    HW235994   4.701   3.556   5.979  1.8341  0.5163  0.1908
 8120SOL     OW35995   0.959   0.182   3.727  0.0277  0.1253  0.0935
 8120SOL    HW135996   0.888   0.243   3.705 -0.0772 -0.4755 -1.2137
 8120SOL    HW235997   1.013   0.243   3.776  0.6271 -0.2574 -0.0930
 8121SOL     OW35998   0.171   4.280   4.141 -0.5414  0.0475  0.1451
 8121SOL    HW135999   0.132   4.332   4.212 -1.9534  2.5371 -2.4544
 8121SOL    HW236000   0.229   4.343   4.097  0.6283 -2.0152 -1.2668
 8122SOL     OW36001   4.338   3.748  10.444  0.0936 -0.1535  0.1234
 8122SOL    HW136002   4.295   3.804  10.508  2.9009 -0.3937  2.2054
 8122SOL    HW236003   4.263   3.690  10.438 -0.0039  0.3065 -3.1169
 8123SOL     OW36004   2.522   0.599   6.374  0.2376  0.1685 -0.2743
 8123SOL    HW136005   2.442   0.627   6.419 -1.4992 -0.4165 -2.9597
 8123SOL    HW236006   2.562   0.545   6.442 -0.9490 -0.3744  0.0038
 8124SOL     OW36007   0.316   2.560   7.043 -0.9500 -0.2910  0.4260
 8124SOL    HW136008   0.288   2.475   7.077  0.2722 -1.6614 -2.0093
 8124SOL    HW236009   0.338   2.590   7.131  0.3595 -0.3938  0.1386
 8125SOL     OW36010   1.356   2.135   5.893 -0.0845  0.4738  0.8052
 8125SOL    HW136011   1.408   2.194   5.948  1.5206 -1.7367  1.6238
 8125SOL    HW236012   1.312   2.195   5.833 -0.2141 -0.2307  0.1942
 8126SOL     OW36013   3.214   2.498   1.374 -0.3619 -0.1067  0.4183
 8126SOL    HW136014   3.284   2.558   1.399 -0.1874  0.9457 -2.6272
 8126SOL    HW236015   3.223   2.425   1.435 -2.1933 -1.8844 -1.4193
 8127SOL     OW36016   1.250   3.689   8.946  0.3086 -0.0885  0.6539
 8127SOL    HW136017   1.259   3.678   8.852 -2.8313 -0.7697  0.4425
 8127SOL    HW236018   1.275   3.781   8.959  1.2725 -0.2481 -0.0850
 8128SOL     OW36019   3.909   1.226   7.801 -0.2536  0.0447 -0.5583
 8128SOL    HW136020   3.902   1.260   7.891 -0.0713 -0.9936 -0.1485
 8128SOL    HW236021   3.892   1.133   7.816  1.0860 -0.8190 -4.5734
 8129SOL     OW36022   1.898   3.259   8.537  0.4713 -0.3125 -0.5492
 8129SOL    HW136023   1.918   3.328   8.473  4.1687 -0.9095 -0.0543
 8129SOL    HW236024   1.949   3.283   8.615  1.2972 -1.9181 -0.5880
 8130SOL     OW36025   1.549   0.275  12.022 -0.4700  0.0283  0.3323
 8130SOL    HW136026   1.645   0.278  12.013 -0.5843 -0.1215 -1.0549
 8130SOL    HW236027   1.529   0.333  11.948  0.8719  0.8857  0.6362
 8131SOL     OW36028   0.468   1.440   8.152 -0.3344 -0.6282  0.1213
 8131SOL    HW136029   0.376   1.418   8.133 -0.9994  0.1986  2.3511
 8131SOL    HW236030   0.468   1.519   8.098 -2.6647  0.3211  1.4871
 8132SOL     OW36031   2.362   4.218   9.769  0.4753 -0.3864 -0.5450
 8132SOL    HW136032   2.410   4.270   9.833  0.8095 -3.6630  1.8533
 8132SOL    HW236033   2.386   4.127   9.786 -1.4309 -0.3503  2.2203
 8133SOL     OW36034   0.556   2.238   7.716  0.0775 -0.2302 -0.4671
 8133SOL    HW136035   0.567   2.330   7.743  1.9991 -0.6813  0.3100
 8133SOL    HW236036   0.591   2.252   7.628  1.0269  5.4773  0.7776
 8134SOL     OW36037   3.845   2.493   3.608 -0.5092  0.2189  0.1374
 8134SOL    HW136038   3.778   2.484   3.540  2.3987 -0.1656 -2.6887
 8134SOL    HW236039   3.900   2.564   3.573 -1.6150  0.2497 -1.5690
 8135SOL     OW36040   4.052   4.330   6.486  0.1206 -0.0846 -0.2304
 8135SOL    HW136041   4.055   4.342   6.581 -0.5499  0.1063 -0.2352
 8135SOL    HW236042   3.958   4.331   6.469  0.2524 -0.5721 -0.9510
 8136SOL     OW36043   3.233   4.376  15.036 -0.3711  0.5162  0.0066
 8136SOL    HW136044   3.322   4.381  15.002  1.1509  0.1325  3.8585
 8136SOL    HW236045   3.179   4.434  14.984  1.1324 -1.1625 -3.4147
 8137SOL     OW36046   3.994   1.174   8.857 -0.6313  0.1504 -0.9502
 8137SOL    HW136047   4.050   1.251   8.851  0.1279 -0.1204  2.6462
 8137SOL    HW236048   4.004   1.155   8.951  2.2588  0.8963 -1.1261
 8138SOL     OW36049   4.699   0.010   4.227 -0.1400  0.0180  0.0739
 8138SOL    HW136050   4.722   4.657   4.246  1.3996 -0.0774 -2.1918
 8138SOL    HW236051   4.669   0.001   4.136  1.9821 -1.7775 -0.4428
 8139SOL     OW36052   0.580   3.783   6.261 -0.4713  0.2798  0.7552
 8139SOL    HW136053   0.535   3.856   6.218  1.3053  0.8934 -0.0412
 8139SOL    HW236054   0.521   3.716   6.225  0.1630  1.0428 -1.6807
 8140SOL     OW36055   2.357   4.712  10.347 -0.2946 -0.1007 -0.2052
 8140SOL    HW136056   2.393   4.697  10.435 -0.2801  2.1504  0.1804
 8140SOL    HW236057   2.361   0.069  10.329 -0.3633  0.2771  1.7334
 8141SOL     OW36058   1.654   3.723   6.340 -0.1360 -0.2283 -0.1188
 8141SOL    HW136059   1.700   3.783   6.281 -0.5134  1.5030  1.3471
 8141SOL    HW236060   1.608   3.787   6.393  4.1756  1.7191  1.3035
 8142SOL     OW36061   3.242   0.751  16.317 -0.6250  0.2640 -0.1637
 8142SOL    HW136062   3.207   0.666  16.290 -1.4960  0.6175 -0.1541
 8142SOL    HW236063   3.333   0.728  16.300 -0.2196  1.5134  0.3484
 8143SOL     OW36064   2.974   3.156   0.229  0.0882 -0.1674  0.2613
 8143SOL    HW136065   2.930   3.206   0.160  2.4746 -3.1165 -3.3656
 8143SOL    HW236066   3.064   3.156   0.197  0.4643  1.0077  1.2921
 8144SOL     OW36067   0.677   4.514  16.821 -0.4568  0.1893  0.2936
 8144SOL    HW136068   0.632   4.446  16.872 -1.2746 -0.6931 -1.6140
 8144SOL    HW236069   0.632   4.498  16.738  3.7219 -0.5219 -1.8298
 8145SOL     OW36070   3.279   4.114   3.283 -0.1227  0.3313  0.4445
 8145SOL    HW136071   3.239   4.200   3.294  0.1950  0.4269  0.8483
 8145SOL    HW236072   3.349   4.132   3.221  0.4663  0.2581  1.0875
 8146SOL     OW36073   0.570   3.321   2.396  0.4565  0.2683  0.3063
 8146SOL    HW136074   0.615   3.252   2.446  1.7476  0.9600  0.0809
 8146SOL    HW236075   0.601   3.399   2.441  0.2611  0.3024  0.3797
 8147SOL     OW36076   0.614   2.624  11.474  0.1218  0.1398 -0.0942
 8147SOL    HW136077   0.576   2.676  11.545 -1.3056 -0.5830 -0.3329
 8147SOL    HW236078   0.574   2.537  11.484 -3.2267  1.5009 -1.7838
 8148SOL     OW36079   0.507   0.494   3.293 -0.2130  0.0786 -0.2126
 8148SOL    HW136080   0.529   0.425   3.231 -1.1355  0.9432 -1.5022
 8148SOL    HW236081   0.436   0.456   3.344  0.1327  1.8807  1.6175
 8149SOL     OW36082   0.498   0.364   8.916 -0.0650  0.0634 -0.1797
 8149SOL    HW136083   0.416   0.394   8.877  0.1754  0.9312 -0.0025
 8149SOL    HW236084   0.472   0.272   8.927  0.0635 -0.0325 -0.7084
 8150SOL     OW36085   1.020   2.291   7.781 -0.0459 -0.3114  0.8651
 8150SOL    HW136086   0.963   2.283   7.857 -0.0706  0.1025  0.8916
 8150SOL    HW236087   1.036   2.201   7.752  1.2224  0.4726 -0.8961
 8151SOL     OW36088   4.173   1.721   3.291 -0.1440 -0.9329  0.4378
 8151SOL    HW136089   4.170   1.805   3.245  1.1254 -0.3925  1.3085
 8151SOL    HW236090   4.187   1.758   3.379  0.4724 -0.6188  0.2093
 8152SOL     OW36091   0.089   2.349   4.281 -0.5972  0.4295  0.1441
 8152SOL    HW136092   0.118   2.382   4.366 -1.1408  0.6489  0.2410
 8152SOL    HW236093   0.177   2.350   4.244 -0.2344 -0.3779  1.0131
 8153SOL     OW36094   0.930   4.282   6.142  0.0080  0.3254  0.1022
 8153SOL    HW136095   0.840   4.301   6.116 -1.1745 -3.3753  1.4070
 8153SOL    HW236096   0.899   4.205   6.189 -0.7396  0.8285  0.4295
 8154SOL     OW36097   4.129   0.803   2.344 -0.3439  0.0967 -0.4457
 8154SOL    HW136098   4.071   0.747   2.293  0.2980 -0.2614 -0.7857
 8154SOL    HW236099   4.103   0.787   2.434 -1.0766  1.0707 -0.4780
 8155SOL     OW36100   4.126   1.369   6.100  0.6819 -0.3533 -0.2269
 8155SOL    HW136101   4.038   1.405   6.111  1.9718  2.6865  0.2708
 8155SOL    HW236102   4.141   1.410   6.015 -0.0507  0.6815  0.1450
 8156SOL     OW36103   0.295   2.626   7.646 -0.4385 -0.4259  0.5298
 8156SOL    HW136104   0.205   2.612   7.616 -0.5197  0.2171  0.4787
 8156SOL    HW236105   0.307   2.718   7.624 -1.3638 -0.4097  0.0668
 8157SOL     OW36106   3.413   1.037  16.349 -0.3283  0.1741 -0.0986
 8157SOL    HW136107   3.503   1.007  16.364 -0.4918  0.4521  1.4737
 8157SOL    HW236108   3.361   0.958  16.361 -3.4699  2.1085 -0.9070
 8158SOL     OW36109   2.428   3.156   3.419  0.5777 -0.4834  0.8188
 8158SOL    HW136110   2.381   3.202   3.489 -0.7813 -1.1432  0.3448
 8158SOL    HW236111   2.365   3.084   3.408 -1.3494  1.6779 -2.3167
 8159SOL     OW36112   3.536   0.358  10.779  0.2878 -0.3409 -0.3602
 8159SOL    HW136113   3.620   0.351  10.824  0.2620  0.4964 -0.1892
 8159SOL    HW236114   3.550   0.277  10.729  1.0604  0.0382 -0.7679
 8160SOL     OW36115   3.253   0.042  16.720  0.5309 -0.4122  0.2585
 8160SOL    HW136116   3.221   0.074  16.636  2.5101  1.6125  0.2985
 8160SOL    HW236117   3.347   0.057  16.714  0.3114  0.5821 -0.7634
 8161SOL     OW36118   3.921   0.973   7.266  0.3417 -0.0405 -0.0723
 8161SOL    HW136119   3.916   1.004   7.176  0.6048 -0.6912 -0.3098
 8161SOL    HW236120   3.919   0.879   7.247  1.6428 -0.4331  1.7297
 8162SOL     OW36121   1.297   3.636   8.682 -0.3555  0.3836 -0.0341
 8162SOL    HW136122   1.322   3.548   8.653  4.2034  1.0964  1.6456
 8162SOL    HW236123   1.377   3.686   8.665 -0.7702  1.1345  0.2574
 8163SOL     OW36124   3.914   1.828  15.071 -0.5239  0.0366  0.4341
 8163SOL    HW136125   3.894   1.885  14.997  0.9458  0.7081  0.5465
 8163SOL    HW236126   3.962   1.756  15.029 -0.4028  1.0563 -1.1630
 8164SOL     OW36127   2.995   0.853  16.283  0.0729 -0.3288  0.1724
 8164SOL    HW136128   3.086   0.843  16.310 -0.0132 -1.6124 -0.0453
 8164SOL    HW236129   2.996   0.766  16.244 -1.2343 -0.2114 -0.1101
 8165SOL     OW36130   3.997   2.526  15.663  0.8079  0.1430 -0.0256
 8165SOL    HW136131   3.930   2.567  15.719  0.5834  1.6963 -1.4435
 8165SOL    HW236132   4.053   2.483  15.728  0.0367 -0.0945  0.4794
 8166SOL     OW36133   0.889   4.144   1.161  0.2285  0.5131  0.0403
 8166SOL    HW136134   0.887   4.125   1.255  1.7853 -0.1298 -0.0478
 8166SOL    HW236135   0.892   4.240   1.159  0.2011  0.5088 -0.2368
 8167SOL     OW36136   1.723   2.705   4.748  0.1931  0.1015 -1.1039
 8167SOL    HW136137   1.645   2.755   4.770  0.8294  0.1149  1.1763
 8167SOL    HW236138   1.703   2.682   4.657 -2.9426  2.7892 -1.0878
 8168SOL     OW36139   3.508   3.819   3.302  0.0572  0.3953  0.3339
 8168SOL    HW136140   3.463   3.820   3.218  1.0410 -0.6390 -0.1909
 8168SOL    HW236141   3.600   3.836   3.284  0.5425  0.6893  3.0931
 8169SOL     OW36142   1.227   0.306   2.657  0.0042 -0.3453  0.3009
 8169SOL    HW136143   1.253   0.215   2.673 -3.4342 -1.3515  0.1511
 8169SOL    HW236144   1.202   0.305   2.565  0.6223  2.1241  0.1013
 8170SOL     OW36145   3.582   0.385  16.863 -0.0861  0.4790 -0.0258
 8170SOL    HW136146   3.493   0.352  16.875 -0.4118  1.7948  1.1457
 8170SOL    HW236147   3.624   0.332  16.931  2.3348  0.5090 -1.5057
 8171SOL     OW36148   0.558   1.087   1.943  0.4988  0.0408 -0.3912
 8171SOL    HW136149   0.613   1.077   2.021 -0.1077 -2.7421 -0.3256
 8171SOL    HW236150   0.612   1.130   1.877  1.6509 -0.1502  0.4393
 8172SOL     OW36151   1.242   2.283   8.841  0.1217  0.5153 -0.2173
 8172SOL    HW136152   1.165   2.279   8.898  0.3198 -0.0958  0.0140
 8172SOL    HW236153   1.208   2.335   8.769 -1.0610  0.6443  0.4368
 8173SOL     OW36154   1.556   1.330   8.302 -0.2227  0.0085 -0.0368
 8173SOL    HW136155   1.495   1.369   8.240  0.3175  1.7288  0.5085
 8173SOL    HW236156   1.575   1.405   8.359  2.9908  0.7635 -2.1116
 8174SOL     OW36157   4.091   3.726   6.298  0.5050  0.3005  0.7885
 8174SOL    HW136158   4.156   3.745   6.231  0.2028  1.9037  0.9586
 8174SOL    HW236159   4.017   3.723   6.236  0.4939  2.3084  0.7018
 8175SOL     OW36160   1.571   2.030   5.317  0.0527  0.0024  0.1434
 8175SOL    HW136161   1.505   2.045   5.249  1.1794 -0.1594 -0.9914
 8175SOL    HW236162   1.637   2.094   5.291 -1.0228  1.1270  0.1562
 8176SOL     OW36163   3.311   0.998   3.964  0.3771 -0.4278  0.3042
 8176SOL    HW136164   3.400   1.031   3.951  0.3788 -0.5376  0.0331
 8176SOL    HW236165   3.264   1.018   3.884  1.9330 -1.4885 -0.8916
 8177SOL     OW36166   2.688   3.676   7.281 -0.9678  0.1078  0.2854
 8177SOL    HW136167   2.704   3.593   7.325 -1.9719 -0.5664 -0.6219
 8177SOL    HW236168   2.776   3.714   7.278 -1.9425  2.2624 -1.4635
 8178SOL     OW36169   0.472   1.925   3.315 -0.3866 -0.0021  0.1978
 8178SOL    HW136170   0.399   1.867   3.293  0.1581 -1.2179  1.5797
 8178SOL    HW236171   0.521   1.917   3.234  0.2428 -1.1725  0.7004
 8179SOL     OW36172   1.017   3.235   5.463 -0.2600  0.1844 -0.2818
 8179SOL    HW136173   1.073   3.212   5.538 -0.2279 -1.0777 -0.7066
 8179SOL    HW236174   1.070   3.289   5.405  2.3207 -1.9335  0.1037
 8180SOL     OW36175   3.285   3.205  10.884 -1.2137  0.0305  0.1297
 8180SOL    HW136176   3.366   3.246  10.914 -0.7713 -0.9006  0.1924
 8180SOL    HW236177   3.309   3.211  10.791  1.3605 -0.4728  0.7493
 8181SOL     OW36178   4.687   2.231  14.435 -0.0061  0.1880 -0.3264
 8181SOL    HW136179   4.679   2.154  14.378 -1.0991  0.7966 -0.9945
 8181SOL    HW236180   4.630   2.288  14.383  0.0877  1.3350  0.8320
 8182SOL     OW36181   2.417   0.845  15.450  0.2574  0.0903  0.4016
 8182SOL    HW136182   2.341   0.844  15.391  0.2304 -0.3064  0.4440
 8182SOL    HW236183   2.439   0.753  15.464  0.2024 -0.1768 -1.2523
 8183SOL     OW36184   4.501   3.329  13.258  0.2931 -0.4596  0.1419
 8183SOL    HW136185   4.436   3.391  13.290  0.1890  1.6099 -4.0667
 8183SOL    HW236186   4.535   3.305  13.344  4.0185 -1.1715 -1.5122
 8184SOL     OW36187   0.033   0.723  16.958 -0.4436 -0.6808 -0.0323
 8184SOL    HW136188   0.072   0.703  17.043  1.1571  0.2831 -0.5294
 8184SOL    HW236189   4.711   0.648  16.950 -1.0413 -0.1777 -0.2900
 8185SOL     OW36190   3.755   1.162   8.667  0.4077 -0.5266  0.2859
 8185SOL    HW136191   3.693   1.180   8.738  1.0627  0.1959  0.6672
 8185SOL    HW236192   3.835   1.141   8.715 -0.0618 -0.6907  1.0033
 8186SOL     OW36193   2.157   2.052   8.577 -0.5258  0.0933 -0.3864
 8186SOL    HW136194   2.128   2.113   8.645  1.0728  0.5498 -0.1211
 8186SOL    HW236195   2.099   1.977   8.589 -0.4927 -0.0844 -1.3186
 8187SOL     OW36196   4.527   3.494  14.963 -0.2120 -0.1866  0.9291
 8187SOL    HW136197   4.564   3.563  14.907  1.0512  0.0363  2.0321
 8187SOL    HW236198   4.465   3.466  14.896 -0.4537 -0.7602  1.3976
 8188SOL     OW36199   0.047   0.752   3.476  0.0937 -0.0459 -0.1033
 8188SOL    HW136200   0.084   0.727   3.391 -0.3504  0.2512 -0.3853
 8188SOL    HW236201   0.130   0.783   3.513 -0.6568 -0.6152  2.0265
 8189SOL     OW36202   1.266   0.218   9.173  0.1139  0.4356 -0.6721
 8189SOL    HW136203   1.331   0.209   9.104  1.9607  0.1281  1.0876
 8189SOL    HW236204   1.191   0.263   9.133 -0.6524 -0.5222 -0.3243
 8190SOL     OW36205   1.991   1.372   9.474 -0.1305  0.3675  0.0663
 8190SOL    HW136206   1.941   1.316   9.534  1.9458 -0.0126  1.4209
 8190SOL    HW236207   2.008   1.309   9.404 -0.5247 -0.4170  0.6746
 8191SOL     OW36208   2.003   3.082   1.580 -0.0777 -0.1860  0.2098
 8191SOL    HW136209   2.028   3.151   1.642  0.5512 -1.4367  1.3531
 8191SOL    HW236210   1.912   3.075   1.606 -0.5680  2.6037 -0.7607
 8192SOL     OW36211   0.977   2.039   2.936 -0.1853 -0.1828 -0.5598
 8192SOL    HW136212   0.916   2.014   3.006 -1.0594  1.2179 -0.8356
 8192SOL    HW236213   0.925   2.002   2.864 -0.0388 -0.2660 -0.6242
 8193SOL     OW36214   4.376   2.074   6.053 -0.1564  0.2013 -0.0539
 8193SOL    HW136215   4.324   2.134   6.106 -0.6512  1.7301 -2.2712
 8193SOL    HW236216   4.442   2.136   6.023  0.5940 -0.5936 -0.0675
 8194SOL     OW36217   3.320   0.770   4.099 -0.0916  0.2348  0.0267
 8194SOL    HW136218   3.305   0.855   4.057  1.4739  0.4766 -0.0418
 8194SOL    HW236219   3.348   0.723   4.021 -0.2770  0.6113 -0.2663
 8195SOL     OW36220   3.392   2.143   3.021 -0.4371 -0.5292  0.1906
 8195SOL    HW136221   3.365   2.056   2.990  0.9334 -1.0258  0.3449
 8195SOL    HW236222   3.485   2.120   3.033  0.1867  1.4743 -0.7338
 8196SOL     OW36223   4.068   0.638  13.932  0.0949  0.0730  0.0292
 8196SOL    HW136224   4.070   0.678  13.845  2.3366 -0.8362 -0.3299
 8196SOL    HW236225   3.980   0.600  13.922  0.1480  0.5334 -2.0224
 8197SOL     OW36226   2.948   3.118   1.534  0.3832  0.5087 -0.0339
 8197SOL    HW136227   2.916   3.028   1.544  2.5589 -0.1645  0.8365
 8197SOL    HW236228   3.033   3.093   1.498  0.7985 -0.7204  1.8050
 8198SOL     OW36229   1.263   0.825   7.182 -0.4693  0.7423  0.1593
 8198SOL    HW136230   1.259   0.898   7.120  0.1144  1.0849  0.5253
 8198SOL    HW236231   1.348   0.790   7.155  0.1446  2.2132  0.1719
 8199SOL     OW36232   2.422   2.900   4.225 -0.1819 -0.0054 -0.5744
 8199SOL    HW136233   2.330   2.920   4.240 -0.0936 -0.7725  1.0052
 8199SOL    HW236234   2.437   2.815   4.265 -1.3151  0.3405  0.5820
 8200SOL     OW36235   1.584   0.751   7.160 -0.1357 -0.1667 -0.8210
 8200SOL    HW136236   1.680   0.748   7.170 -0.4006 -1.5478  1.2941
 8200SOL    HW236237   1.569   0.657   7.156  0.9473 -0.2817 -2.2555
 8201SOL     OW36238   0.250   0.069   3.884 -0.1272  0.4465 -0.4843
 8201SOL    HW136239   0.343   0.046   3.885  0.0643  1.2308  0.9381
 8201SOL    HW236240   0.222   0.047   3.973  1.1862  1.3702  0.1755
 8202SOL     OW36241   1.797   4.075  16.538  0.2239 -0.8424  0.0557
 8202SOL    HW136242   1.751   4.026  16.471  0.4971 -1.2344  0.1564
 8202SOL    HW236243   1.831   4.146  16.483  1.8767 -1.7697 -0.1157
 8203SOL     OW36244   2.096   1.866  10.656 -0.2443 -0.3174  0.1725
 8203SOL    HW136245   2.172   1.835  10.704  0.4438 -1.3919 -1.6358
 8203SOL    HW236246   2.039   1.791  10.674 -0.3345  0.0306  1.3679
 8204SOL     OW36247   1.845   1.685   4.453  0.0900 -0.3416 -0.2106
 8204SOL    HW136248   1.918   1.738   4.421 -0.0643 -0.2646 -0.4292
 8204SOL    HW236249   1.876   1.664   4.542 -0.8354 -0.5123  0.0673
 8205SOL     OW36250   4.571   2.545   3.188  0.1760 -0.0380  0.5210
 8205SOL    HW136251   4.541   2.625   3.145 -0.3368  0.2467  1.4152
 8205SOL    HW236252   4.656   2.581   3.215  0.7195  0.7804 -2.2537
 8206SOL     OW36253   4.484   0.357   8.390  0.4328  0.1189 -0.0701
 8206SOL    HW136254   4.540   0.430   8.416  1.3981 -1.2359  1.6783
 8206SOL    HW236255   4.423   0.352   8.464 -0.5133 -0.7839 -0.9057
 8207SOL     OW36256   0.653   1.594   5.036  0.4630  0.0132 -0.7492
 8207SOL    HW136257   0.602   1.622   4.961 -1.8504 -0.8181  0.5028
 8207SOL    HW236258   0.621   1.503   5.040  2.8986 -0.8356 -0.6751
 8208SOL     OW36259   2.637   2.824   8.896 -0.0793 -0.4101  0.0214
 8208SOL    HW136260   2.685   2.835   8.978 -0.5674  1.9112  0.0094
 8208SOL    HW236261   2.635   2.729   8.882  4.6796 -0.5029  0.0734
 8209SOL     OW36262   0.844   1.292   7.972 -0.2905 -0.0222  0.3709
 8209SOL    HW136263   0.931   1.313   7.938 -0.7231  2.5241  0.8068
 8209SOL    HW236264   0.785   1.277   7.899 -1.9318 -3.0917  2.3337
 8210SOL     OW36265   3.762   4.735   2.731  0.1283  0.0789 -0.5828
 8210SOL    HW136266   3.775   0.006   2.826 -2.0385  0.0819 -0.2891
 8210SOL    HW236267   3.847   0.018   2.693  0.7423 -0.4628  0.4920
 8211SOL     OW36268   3.995   2.434   2.721 -0.5142 -0.4055 -0.2614
 8211SOL    HW136269   3.984   2.494   2.795  1.4153 -1.6349  1.0334
 8211SOL    HW236270   3.910   2.447   2.678  0.3951 -0.7359 -2.1362
 8212SOL     OW36271   4.543   1.268   8.474  0.1086  0.1252  0.6012
 8212SOL    HW136272   4.590   1.277   8.391 -0.1559 -1.8537  0.2595
 8212SOL    HW236273   4.453   1.282   8.444  0.2769 -1.5170 -0.6385
 8213SOL     OW36274   2.926   3.866  11.256 -0.3331 -0.3525 -1.0564
 8213SOL    HW136275   2.949   3.955  11.283 -0.5995 -0.1564 -1.4907
 8213SOL    HW236276   2.966   3.809  11.322  2.1012  0.3828 -1.8855
 8214SOL     OW36277   0.972   0.504   9.755  0.1606  0.4963  0.0373
 8214SOL    HW136278   0.889   0.547   9.733 -1.0204 -1.7258  0.1203
 8214SOL    HW236279   0.940   0.455   9.831  0.2750  1.3937  0.6558
 8215SOL     OW36280   1.305   0.303   4.674  0.2751 -0.0761 -0.3079
 8215SOL    HW136281   1.235   0.264   4.621  1.3734 -0.3428 -1.5546
 8215SOL    HW236282   1.262   0.373   4.722  0.2001 -0.4791  0.2186
 8216SOL     OW36283   3.269   0.527   7.285  0.5086 -0.0480 -0.2683
 8216SOL    HW136284   3.311   0.508   7.369  0.2741 -0.2524 -0.1935
 8216SOL    HW236285   3.280   0.439   7.250 -0.0866  0.0447 -0.6876
 8217SOL     OW36286   2.340   2.520   5.667  0.0188  0.8459 -0.1582
 8217SOL    HW136287   2.403   2.565   5.612 -0.9057  2.6793  0.2887
 8217SOL    HW236288   2.287   2.591   5.703 -1.1681  0.5404 -1.2814
 8218SOL     OW36289   0.805   3.498   2.999  0.5622  0.5810  0.0587
 8218SOL    HW136290   0.893   3.536   2.995  2.3638 -3.7526 -2.1840
 8218SOL    HW236291   0.810   3.451   2.915 -1.7079 -1.2709  0.9944
 8219SOL     OW36292   1.969   4.354  17.506  0.0237  0.4077 -0.5080
 8219SOL    HW136293   2.064   4.341  17.509  0.1716  1.6099  0.1338
 8219SOL    HW236294   1.937   4.303  17.581  1.8204 -1.6797 -1.1628
 8220SOL     OW36295   1.665   1.951   2.961  0.6270 -0.0141 -0.1320
 8220SOL    HW136296   1.598   1.885   2.945 -0.4021  1.1978 -0.8529
 8220SOL    HW236297   1.606   2.025   2.976 -0.8440 -0.5613 -3.1034
 8221SOL     OW36298   1.923   3.711   2.030  0.5650  0.0084 -0.1546
 8221SOL    HW136299   1.941   3.622   2.061 -1.2696 -1.1782 -2.5012
 8221SOL    HW236300   1.935   3.767   2.106  1.0608 -1.3088  0.7427
 8222SOL     OW36301   2.307   1.230   2.782 -0.9320  0.7613  0.3257
 8222SOL    HW136302   2.245   1.197   2.717 -0.7147  1.3693 -0.1824
 8222SOL    HW236303   2.318   1.148   2.831  2.1266  2.1496  1.8947
 8223SOL     OW36304   1.365   2.412   7.822  0.3815  0.1822 -0.1264
 8223SOL    HW136305   1.289   2.439   7.770  0.9722  1.1959 -0.4594
 8223SOL    HW236306   1.436   2.433   7.761 -2.0967  1.2368 -2.6900
 8224SOL     OW36307   4.108   3.078   1.446  0.7718 -0.8010 -0.3783
 8224SOL    HW136308   4.040   3.131   1.405  0.8616  0.9170  1.6395
 8224SOL    HW236309   4.168   3.058   1.374  0.5902  0.5431 -0.8948
 8225SOL     OW36310   0.948   4.412  13.660 -0.8194 -0.0515 -0.0034
 8225SOL    HW136311   0.956   4.342  13.595 -1.1858 -0.6469  0.5948
 8225SOL    HW236312   1.040   4.417  13.686 -0.9531 -1.2420  0.7195
 8226SOL     OW36313   0.550   1.286   5.006  0.6379 -0.5157  0.5150
 8226SOL    HW136314   0.486   1.297   4.935  0.3470  2.2677  1.2004
 8226SOL    HW236315   0.618   1.233   4.965 -0.0099 -1.5692  0.8025
 8227SOL     OW36316   3.827   1.337   7.049  0.2602 -0.1044 -0.5539
 8227SOL    HW136317   3.762   1.377   6.990  1.2100 -0.0443 -1.5635
 8227SOL    HW236318   3.878   1.415   7.071 -0.1705  0.6199 -2.0784
 8228SOL     OW36319   0.368   2.135  12.874  0.4276  0.5097  0.7615
 8228SOL    HW136320   0.431   2.073  12.836 -0.8262  0.0171 -0.5162
 8228SOL    HW236321   0.413   2.217  12.858  0.8569 -0.0061 -0.6447
 8229SOL     OW36322   3.613   4.187   3.892  0.4610  0.8998  0.0203
 8229SOL    HW136323   3.693   4.207   3.844  1.2162  0.2522  0.9932
 8229SOL    HW236324   3.640   4.199   3.983  1.1400 -1.7577  0.1797
 8230SOL     OW36325   2.717   4.284   2.149  0.4077 -0.4394  0.1464
 8230SOL    HW136326   2.700   4.365   2.198 -1.6829 -0.1681 -1.0123
 8230SOL    HW236327   2.812   4.283   2.146  0.3730  0.1398 -1.1776
 8231SOL     OW36328   3.144   2.149  11.982 -0.5436  0.9354 -0.3899
 8231SOL    HW136329   3.085   2.079  11.952 -1.2495  1.7009 -0.8000
 8231SOL    HW236330   3.107   2.174  12.066  0.1434 -2.4217  0.9153
 8232SOL     OW36331   1.995   4.367   0.754  0.8598 -0.2408  0.4831
 8232SOL    HW136332   2.003   4.364   0.659  0.3047  1.7772  0.3566
 8232SOL    HW236333   1.935   4.442   0.760  1.8851  0.6365 -0.2843
 8233SOL     OW36334   0.252   0.886   9.604 -0.4014 -0.5375  0.1174
 8233SOL    HW136335   0.295   0.949   9.663  0.5352 -1.0883  0.0270
 8233SOL    HW236336   0.229   0.946   9.532  0.0576  0.9248  1.1833
 8234SOL     OW36337   1.498   0.344  10.453  0.3231  0.2282  0.1049
 8234SOL    HW136338   1.433   0.323  10.521 -1.5140  3.5195 -0.6458
 8234SOL    HW236339   1.576   0.355  10.508  0.5159  0.8520 -0.3062
 8235SOL     OW36340   2.256   0.055   8.343  0.6535  0.4332 -0.3878
 8235SOL    HW136341   2.198   0.129   8.361  0.1356 -0.2384  0.6708
 8235SOL    HW236342   2.283   0.064   8.251  1.6282 -0.9168 -0.2306
 8236SOL     OW36343   4.227   0.531   6.431 -0.2050 -0.7716 -0.0520
 8236SOL    HW136344   4.251   0.439   6.435  1.8479 -0.1331  2.6999
 8236SOL    HW236345   4.233   0.552   6.338 -1.5101 -1.5760 -0.3032
 8237SOL     OW36346   1.783   2.183  11.763  0.1970 -0.9324  0.0685
 8237SOL    HW136347   1.848   2.160  11.829  1.3473  1.0981 -0.3830
 8237SOL    HW236348   1.783   2.278  11.764  0.7274 -0.9324 -0.2251
 8238SOL     OW36349   0.781   4.243   7.529 -0.4882  0.3141  0.3247
 8238SOL    HW136350   0.755   4.219   7.617  1.1763  0.3596  0.8213
 8238SOL    HW236351   0.812   4.334   7.527  1.0519 -0.1877  1.3993
 8239SOL     OW36352   0.875   4.729   6.636  0.1140  0.0265 -0.5046
 8239SOL    HW136353   0.962   0.031   6.632 -0.1222  0.6036 -0.0392
 8239SOL    HW236354   0.876   4.695   6.726 -0.5619  1.1952 -0.0589
 8240SOL     OW36355   0.102   1.562   8.251 -0.6189 -0.2237 -0.6592
 8240SOL    HW136356   0.010   1.536   8.257  0.0250 -1.8777  2.0031
 8240SOL    HW236357   0.101   1.653   8.280  1.1577 -0.1223 -0.8977
 8241SOL     OW36358   3.543   0.289   6.866  0.4229  0.2644 -0.4206
 8241SOL    HW136359   3.535   0.196   6.887  1.1872  1.1458  3.8958
 8241SOL    HW236360   3.626   0.287   6.820 -0.8278 -0.7721 -2.6167
 8242SOL     OW36361   3.446   4.659  11.420  0.1922 -0.0655 -0.3902
 8242SOL    HW136362   3.396   4.673  11.500  0.9080 -1.9577  0.3963
 8242SOL    HW236363   3.367   4.627  11.377  0.5328  1.3593 -2.0815
 8243SOL     OW36364   2.753   2.245   2.589 -0.2857 -0.8978  0.3583
 8243SOL    HW136365   2.732   2.156   2.560 -0.2605 -1.0949  0.9544
 8243SOL    HW236366   2.827   2.272   2.535 -1.6126  0.4084 -0.8039
 8244SOL     OW36367   3.371   2.589   2.244  0.2964 -0.3107  0.6847
 8244SOL    HW136368   3.461   2.613   2.266  0.0633  1.8140 -0.7136
 8244SOL    HW236369   3.408   2.560   2.160 -0.0149 -0.0093  0.4412
 8245SOL     OW36370   4.466   2.440   9.676 -0.5472 -0.0041 -0.2990
 8245SOL    HW136371   4.385   2.389   9.675 -0.2235 -0.5296  1.0109
 8245SOL    HW236372   4.534   2.383   9.640  1.2900  1.1344  1.3831
 8246SOL     OW36373   1.000   2.067   5.606  0.4954 -0.8387 -0.1018
 8246SOL    HW136374   0.946   2.051   5.529 -0.7400  0.7366  0.3991
 8246SOL    HW236375   0.956   2.149   5.631  0.4375 -0.3394 -1.8320
 8247SOL     OW36376   4.079   2.345  11.840 -0.1806 -0.3532 -0.3118
 8247SOL    HW136377   4.058   2.436  11.861  0.7273 -0.4146  0.8472
 8247SOL    HW236378   4.021   2.293  11.897  0.0678 -0.4928 -0.1867
 8248SOL     OW36379   3.831   4.515   5.302 -0.5576 -0.2469  0.1202
 8248SOL    HW136380   3.853   4.424   5.283  1.3582  0.3677 -0.6462
 8248SOL    HW236381   3.921   4.541   5.325  0.0294 -0.1390 -2.2992
 8249SOL     OW36382   2.970   2.611   5.459 -0.4275 -0.1631  0.1525
 8249SOL    HW136383   3.028   2.598   5.384 -0.5383  1.3140 -0.2015
 8249SOL    HW236384   2.938   2.699   5.438  1.6145  0.5791  0.1971
 8250SOL     OW36385   0.213   2.456   5.374 -0.0733 -0.1430 -0.7882
 8250SOL    HW136386   0.173   2.472   5.460  1.0368  1.5132 -0.5933
 8250SOL    HW236387   0.295   2.503   5.378 -0.4535  0.5660 -1.5309
 8251SOL     OW36388   4.079   1.018   1.963 -0.1378  0.1723  0.0406
 8251SOL    HW136389   4.110   1.044   2.050  0.1880  0.2383 -0.0947
 8251SOL    HW236390   4.123   1.084   1.908  1.0584 -1.0413 -0.4496
 8252SOL     OW36391   2.857   4.558   8.131  0.2763  0.5125  0.3561
 8252SOL    HW136392   2.777   4.525   8.091  0.2139 -0.2847  1.1280
 8252SOL    HW236393   2.859   4.495   8.203 -0.4469 -1.0018 -0.9628
 8253SOL     OW36394   1.785   4.287   8.467 -0.1525  0.0265  0.4430
 8253SOL    HW136395   1.780   4.307   8.373 -2.1652 -0.3386  0.4798
 8253SOL    HW236396   1.717   4.348   8.494  0.1766 -0.2913  1.9659
 8254SOL     OW36397   0.874   2.649  14.106 -0.5520  0.1218 -0.2103
 8254SOL    HW136398   0.967   2.638  14.087 -0.1120  0.9394  1.5321
 8254SOL    HW236399   0.869   2.597  14.186 -1.3968 -1.1441 -1.0659
 8255SOL     OW36400   1.395   2.134   0.878  0.0110  0.1255  0.2250
 8255SOL    HW136401   1.358   2.060   0.926  1.5341 -1.3585 -0.8911
 8255SOL    HW236402   1.319   2.190   0.894  0.8924  1.3751  0.0616
 8256SOL     OW36403   4.429   0.124   3.245 -0.0540 -0.0039  0.1790
 8256SOL    HW136404   4.355   0.185   3.252 -1.0085 -1.3466  1.6325
 8256SOL    HW236405   4.497   0.173   3.293 -0.8011 -0.2908  1.5257
 8257SOL     OW36406   4.604   0.259   3.831 -0.0664 -0.4058  0.0449
 8257SOL    HW136407   4.678   0.308   3.797 -1.7385  3.6347  2.1969
 8257SOL    HW236408   4.531   0.288   3.777  0.9019 -1.2212 -1.6889
 8258SOL     OW36409   3.121   0.855  12.103 -0.4770  0.5232  0.2156
 8258SOL    HW136410   3.066   0.777  12.092  1.1694 -0.6222 -0.0552
 8258SOL    HW236411   3.070   0.896  12.172 -1.1359  1.3803 -0.7952
 8259SOL     OW36412   1.119   1.712   6.772  0.1184 -0.3870 -0.1303
 8259SOL    HW136413   1.149   1.737   6.684 -1.0792  1.9431  0.0984
 8259SOL    HW236414   1.132   1.618   6.780  0.3300 -0.4532 -1.2967
 8260SOL     OW36415   1.643   4.129  15.839 -0.5957 -0.3033 -0.0144
 8260SOL    HW136416   1.623   4.078  15.918  1.7086 -0.6643  0.3297
 8260SOL    HW236417   1.595   4.081  15.771 -1.7727  2.4538 -1.0983
 8261SOL     OW36418   1.338   1.789   1.916 -0.7975  0.6890  0.6407
 8261SOL    HW136419   1.379   1.852   1.976 -0.9649 -0.5157  2.0104
 8261SOL    HW236420   1.395   1.798   1.840  0.8767 -1.0037  1.6972
 8262SOL     OW36421   1.636   3.898  10.712  0.2609 -0.1300 -0.0303
 8262SOL    HW136422   1.661   3.813  10.678  0.4740 -0.0515 -0.0694
 8262SOL    HW236423   1.721   3.933  10.739 -0.0600  0.1600  0.6001
 8263SOL     OW36424   0.596   2.465   3.539 -0.5701  0.1540  0.0909
 8263SOL    HW136425   0.643   2.436   3.461  0.1107  1.1091  0.1494
 8263SOL    HW236426   0.619   2.558   3.541  0.0553 -0.0327  1.8719
 8264SOL     OW36427   0.919   2.669  15.343 -0.3734 -0.2020  0.1809
 8264SOL    HW136428   0.897   2.672  15.250  0.0263  0.9970  0.1261
 8264SOL    HW236429   0.884   2.752  15.376 -1.1084 -1.2589  2.0935
 8265SOL     OW36430   1.033   3.024  12.782 -0.2395  0.3246  1.1292
 8265SOL    HW136431   0.940   3.012  12.760  0.2882  0.8220 -1.4299
 8265SOL    HW236432   1.064   3.055  12.697 -2.3521 -0.7940 -0.0484
 8266SOL     OW36433   0.672   2.385   4.849 -0.0808  0.8331 -0.7974
 8266SOL    HW136434   0.743   2.382   4.785  0.1852 -0.5313 -0.4437
 8266SOL    HW236435   0.618   2.311   4.820  0.4877  0.0759  0.0694
 8267SOL     OW36436   3.501   0.535   4.352 -0.3080 -0.2979 -0.0688
 8267SOL    HW136437   3.526   0.534   4.445  1.1844  0.9095 -0.4652
 8267SOL    HW236438   3.437   0.603   4.332  0.6720 -0.6113 -4.2976
 8268SOL     OW36439   4.688   3.535   2.885 -0.3303 -0.1630 -0.2634
 8268SOL    HW136440   4.713   3.486   2.964 -2.0677  0.0630  0.4172
 8268SOL    HW236441   4.643   3.611   2.921 -0.2574 -0.3129  0.1432
 8269SOL     OW36442   3.073   0.236  14.082  0.3272  0.4576 -0.1825
 8269SOL    HW136443   3.006   0.274  14.138  1.4312  0.4950  1.1161
 8269SOL    HW236444   3.071   0.142  14.099  0.6779  1.0894  3.3465
 8270SOL     OW36445   3.615   0.967   2.044  0.5301 -0.7927 -0.6664
 8270SOL    HW136446   3.691   0.980   1.987  1.2408 -3.1770 -0.2412
 8270SOL    HW236447   3.551   0.931   1.983  0.8506 -0.2538 -1.3212
 8271SOL     OW36448   3.475   3.909   7.773  0.1477  0.0987 -0.1393
 8271SOL    HW136449   3.472   3.822   7.813 -1.7244  0.2936  0.1455
 8271SOL    HW236450   3.566   3.913   7.743  0.2230  1.1948  0.2329
 8272SOL     OW36451   3.321   0.402  12.711 -0.1318 -0.0263 -0.1179
 8272SOL    HW136452   3.251   0.442  12.660  0.0763 -0.2027 -0.5389
 8272SOL    HW236453   3.313   0.455  12.790 -1.1311 -2.0832  1.1669
 8273SOL     OW36454   4.463   3.812  12.792  0.0190 -0.4313 -0.0072
 8273SOL    HW136455   4.379   3.828  12.749  0.1061 -3.8596 -1.4110
 8273SOL    HW236456   4.441   3.811  12.885  0.2455  1.5214  0.0746
 8274SOL     OW36457   0.207   1.064   9.383  0.1438 -0.0317 -0.3458
 8274SOL    HW136458   0.294   1.037   9.355  1.7962  1.8038  3.0922
 8274SOL    HW236459   0.175   1.119   9.311 -1.2897 -1.7669 -1.0497
 8275SOL     OW36460   0.043   3.593   2.501  0.8355 -0.0744 -0.1415
 8275SOL    HW136461   0.046   3.688   2.491  0.1134 -0.1775 -1.4006
 8275SOL    HW236462   0.131   3.578   2.534  0.3904 -0.3400  0.9622
 8276SOL     OW36463   2.138   1.206   8.713  0.0738 -0.3259 -0.0605
 8276SOL    HW136464   2.050   1.227   8.682  0.4832 -1.4005 -1.9846
 8276SOL    HW236465   2.156   1.276   8.775  0.3594 -0.0031 -0.5120
 8277SOL     OW36466   1.892   3.480   4.275 -0.0901 -0.5360  0.5531
 8277SOL    HW136467   1.835   3.537   4.326 -0.3707 -0.0764 -0.2707
 8277SOL    HW236468   1.924   3.434   4.353  1.8754  0.9474  0.6107
 8278SOL     OW36469   2.026   0.979   7.759  0.1122 -0.5809 -0.2721
 8278SOL    HW136470   1.948   0.929   7.783  0.1008  0.6373  2.2901
 8278SOL    HW236471   2.083   0.911   7.723  0.3444 -0.2464 -0.5423
 8279SOL     OW36472   0.605   4.538   2.192  0.3272 -0.6448 -0.3749
 8279SOL    HW136473   0.650   4.604   2.245 -2.2152 -0.5549  1.6909
 8279SOL    HW236474   0.627   4.452   2.228  0.5305 -0.3377  0.2486
 8280SOL     OW36475   2.188   0.414   2.421 -0.4137 -0.4238 -0.2860
 8280SOL    HW136476   2.210   0.507   2.413  1.4363 -0.7583  0.8129
 8280SOL    HW236477   2.201   0.375   2.335  1.2311  1.0346 -0.7033
 8281SOL     OW36478   0.166   0.938   5.646 -1.0387  0.3380  0.2716
 8281SOL    HW136479   0.167   1.013   5.706  1.3571  1.0342 -0.6444
 8281SOL    HW236480   0.243   0.947   5.590  0.2198 -1.2372  1.7752
 8282SOL     OW36481   0.163   0.142  13.909  0.1203 -0.3102 -0.0774
 8282SOL    HW136482   0.184   0.090  13.832  2.0092  0.0882  0.1678
 8282SOL    HW236483   0.077   0.103  13.928 -0.2779  0.5189 -0.1737
 8283SOL     OW36484   0.074   2.583   6.841  0.4385 -0.0859  0.4215
 8283SOL    HW136485   0.153   2.549   6.883 -0.4202 -2.3662  0.2093
 8283SOL    HW236486   0.014   2.598   6.914  0.5464 -0.1207  0.5199
 8284SOL     OW36487   2.922   0.588   3.622  0.3603 -0.2078  0.4422
 8284SOL    HW136488   2.860   0.532   3.575  2.1213 -1.3530 -0.5140
 8284SOL    HW236489   2.920   0.553   3.711 -2.9646  0.5784  0.6623
 8285SOL     OW36490   0.663   0.858   7.362  0.2912  0.3576  0.0070
 8285SOL    HW136491   0.616   0.940   7.349 -0.7741 -0.2424  0.1437
 8285SOL    HW236492   0.750   0.885   7.391  0.1087  0.9909 -0.0265
 8286SOL     OW36493   2.716   1.195   7.512  0.2808 -0.0048  0.4576
 8286SOL    HW136494   2.801   1.240   7.515  0.8163 -1.0587  1.2515
 8286SOL    HW236495   2.703   1.189   7.418  2.2417 -0.4194  0.2076
 8287SOL     OW36496   0.640   2.361   8.627  0.1404 -0.4102 -0.2662
 8287SOL    HW136497   0.697   2.430   8.660  0.1428 -0.8418  0.6129
 8287SOL    HW236498   0.653   2.298   8.698 -1.1187  0.2140  0.5282
 8288SOL     OW36499   0.611   1.878   9.390  1.0005  0.3869 -0.1646
 8288SOL    HW136500   0.580   1.802   9.440  1.8214 -0.3077 -0.6980
 8288SOL    HW236501   0.636   1.829   9.312 -0.2771 -3.3708  1.7896
 8289SOL     OW36502   4.151   3.181   4.677 -0.0711 -0.2503  0.6477
 8289SOL    HW136503   4.244   3.161   4.666 -0.6450 -1.4790 -2.0562
 8289SOL    HW236504   4.133   3.131   4.756 -2.0305 -0.4700  0.0676
 8290SOL     OW36505   4.237   0.448   9.524  0.2700  0.1483 -0.1331
 8290SOL    HW136506   4.146   0.419   9.531 -0.2795  1.5206 -1.7573
 8290SOL    HW236507   4.250   0.500   9.604  0.9814 -1.0429  0.5343
 8291SOL     OW36508   1.417   4.172   4.363 -0.0702  0.0606 -0.8429
 8291SOL    HW136509   1.494   4.209   4.407 -1.3740  2.7194 -0.8170
 8291SOL    HW236510   1.352   4.232   4.399 -0.7871 -0.4745 -1.2691
 8292SOL     OW36511   0.281   3.413   9.015  0.2446 -0.4141 -0.5694
 8292SOL    HW136512   0.245   3.434   8.928 -2.3423 -0.3606  0.5144
 8292SOL    HW236513   0.263   3.320   9.018 -2.0415  0.0686  0.2957
 8293SOL     OW36514   4.127   3.183   8.037  0.1547 -0.0032  0.3668
 8293SOL    HW136515   4.081   3.227   7.965  0.1128 -1.5330 -0.5440
 8293SOL    HW236516   4.072   3.111   8.067 -1.2963  0.6533 -0.6958
 8294SOL     OW36517   2.552   0.266  10.624 -0.1664 -0.4214 -0.1949
 8294SOL    HW136518   2.493   0.277  10.699 -1.6002  0.1158 -1.3862
 8294SOL    HW236519   2.635   0.245  10.666  1.0483  3.9904 -0.3886
 8295SOL     OW36520   0.629   3.957   5.988 -0.1178 -0.5401 -0.1256
 8295SOL    HW136521   0.541   3.958   5.950 -0.1718  0.7693  0.0201
 8295SOL    HW236522   0.673   3.884   5.945  2.4831  2.5301 -2.6185
 8296SOL     OW36523   1.603   3.249   1.406  0.2964  0.1096  0.0913
 8296SOL    HW136524   1.687   3.295   1.404  0.0559  0.5400 -0.1435
 8296SOL    HW236525   1.589   3.245   1.500  0.5274 -0.6871  0.0932
 8297SOL     OW36526   2.821   4.718   4.398 -0.3967  0.5125  0.2936
 8297SOL    HW136527   2.857   4.652   4.339 -1.3811 -0.9311  1.3162
 8297SOL    HW236528   2.818   0.060   4.344  1.2456  1.1667  1.1605
 8298SOL     OW36529   0.405   3.567   5.491 -0.3080  0.4500 -0.1153
 8298SOL    HW136530   0.378   3.618   5.414  0.2264 -0.8037 -1.1293
 8298SOL    HW236531   0.416   3.483   5.448 -3.4220 -0.2985  0.5984
 8299SOL     OW36532   3.532   1.994   1.930 -0.4521 -0.2426 -0.7132
 8299SOL    HW136533   3.601   1.934   1.900 -1.3286 -1.7297  0.2814
 8299SOL    HW236534   3.475   1.927   1.966 -1.1377  0.2799 -0.8344
 8300SOL     OW36535   4.481   0.224   0.583 -0.6010  1.0940 -0.1932
 8300SOL    HW136536   4.403   0.176   0.555 -0.3829  1.6738 -1.8397
 8300SOL    HW236537   4.436   0.302   0.617 -1.6767  1.0709 -1.5594
 8301SOL     OW36538   3.066   0.320   2.462 -0.0727  0.8591 -0.3312
 8301SOL    HW136539   3.061   0.225   2.462  3.1047  0.6736  1.4613
 8301SOL    HW236540   3.157   0.338   2.489  0.1900  0.0076 -0.6534
 8302SOL     OW36541   2.657   1.185   7.252  0.4151 -0.4772  0.4496
 8302SOL    HW136542   2.625   1.109   7.204  0.5007 -0.8726  1.0136
 8302SOL    HW236543   2.622   1.258   7.201  0.3058 -0.1479  0.9923
 8303SOL     OW36544   2.462   4.487   1.187 -0.5161 -0.5030 -1.2275
 8303SOL    HW136545   2.424   4.540   1.117 -1.9001 -1.9310 -1.5764
 8303SOL    HW236546   2.496   4.406   1.149  2.0408 -0.1574  0.2968
 8304SOL     OW36547   4.725   1.730   2.028  0.2046 -0.1703 -1.1102
 8304SOL    HW136548   4.692   1.646   2.060  2.3201  0.0623  1.6956
 8304SOL    HW236549   4.638   1.770   2.024 -0.9481 -2.4830  0.9834
 8305SOL     OW36550   0.333   1.037   3.691  0.2088  0.7512  0.5555
 8305SOL    HW136551   0.374   1.095   3.755 -0.6086  0.0690  1.6967
 8305SOL    HW236552   0.401   1.014   3.628  0.0350  1.2486  0.1788
 8306SOL     OW36553   0.685   3.503   4.579 -0.0486 -0.0946 -0.0478
 8306SOL    HW136554   0.657   3.518   4.670  1.9653 -0.7946  0.6784
 8306SOL    HW236555   0.609   3.469   4.531 -0.6841 -1.0956  1.6624
 8307SOL     OW36556   0.168   3.746   3.319  0.2678  0.0722 -0.1612
 8307SOL    HW136557   0.222   3.804   3.372 -2.1293  1.3497  0.8992
 8307SOL    HW236558   0.089   3.794   3.291 -0.8065 -1.1825  0.7421
 8308SOL     OW36559   4.079   0.643   4.429  0.3739 -0.0164  0.2547
 8308SOL    HW136560   4.142   0.666   4.498  0.0726 -2.1006  1.2100
 8308SOL    HW236561   3.998   0.671   4.471 -1.1625 -1.0740 -2.0253
 8309SOL     OW36562   0.962   1.886   8.738  0.0344  0.0179 -0.7099
 8309SOL    HW136563   0.943   1.979   8.756  1.2838  0.2932 -0.7858
 8309SOL    HW236564   0.957   1.892   8.643 -1.5564  0.3105 -0.6126
 8310SOL     OW36565   1.338   4.042  11.827 -0.4164  0.1696 -0.8746
 8310SOL    HW136566   1.418   3.997  11.856  0.7204  1.6254 -1.7320
 8310SOL    HW236567   1.374   4.127  11.802 -2.0157  1.5009  1.3733
 8311SOL     OW36568   4.608   3.915   8.732  0.0671  0.9755  0.1396
 8311SOL    HW136569   4.545   3.928   8.662  0.8835 -1.1880 -0.9842
 8311SOL    HW236570   4.691   3.933   8.687 -2.0998  3.7455 -2.7093
 8312SOL     OW36571   3.768   0.164   1.984 -0.1895  0.3177 -0.0794
 8312SOL    HW136572   3.719   0.244   1.969 -0.0350  0.6716  1.3651
 8312SOL    HW236573   3.761   0.116   1.901 -1.6841  2.8673 -1.4179
 8313SOL     OW36574   3.345   3.605   9.704  0.9249  0.1875 -0.1097
 8313SOL    HW136575   3.291   3.656   9.765  1.0940  0.3782 -0.1203
 8313SOL    HW236576   3.285   3.530   9.697 -1.8850  2.5462 -1.4872
 8314SOL     OW36577   1.269   0.857   9.540  0.1427  0.9966 -0.3928
 8314SOL    HW136578   1.315   0.844   9.458  0.8393  0.8009  0.0330
 8314SOL    HW236579   1.253   0.952   9.540 -0.3647  0.9152 -0.2654
 8315SOL     OW36580   1.799   3.652  16.589  0.0058  0.1486  0.1074
 8315SOL    HW136581   1.716   3.626  16.627 -0.1440 -2.0271 -1.7252
 8315SOL    HW236582   1.767   3.689  16.506 -1.1286 -0.6330  0.1996
 8316SOL     OW36583   3.901   3.432  15.140 -0.4684  0.1194 -0.6257
 8316SOL    HW136584   3.863   3.405  15.224  1.2694 -0.3475  0.0140
 8316SOL    HW236585   3.990   3.402  15.154 -0.6077 -0.7975 -1.7030
 8317SOL     OW36586   2.820   4.322   6.107 -0.5041  0.8465 -0.1220
 8317SOL    HW136587   2.742   4.307   6.053 -0.1642 -1.1129 -0.0933
 8317SOL    HW236588   2.772   4.345   6.187 -0.7512  2.0695 -0.6301
 8318SOL     OW36589   3.972   2.342   3.804 -0.0617 -0.2544  0.0564
 8318SOL    HW136590   3.950   2.428   3.769 -0.3402  0.3971  1.8427
 8318SOL    HW236591   4.029   2.305   3.737 -1.5360  0.2944 -1.5262
 8319SOL     OW36592   2.164   2.848   7.702 -0.4495 -0.1371  0.4502
 8319SOL    HW136593   2.107   2.919   7.732 -0.7804  0.6722 -2.1544
 8319SOL    HW236594   2.249   2.888   7.716 -0.2031  0.1023 -1.7541
 8320SOL     OW36595   3.314   4.404   7.241  0.0736 -0.1971 -0.2179
 8320SOL    HW136596   3.230   4.369   7.211  1.1169 -0.6966 -2.5075
 8320SOL    HW236597   3.360   4.406   7.157  0.9002 -2.2864  0.1858
 8321SOL     OW36598   3.367   4.322   6.223 -0.3320 -0.0306  0.7975
 8321SOL    HW136599   3.444   4.286   6.267  2.4295  2.5645 -1.9605
 8321SOL    HW236600   3.306   4.252   6.247  1.1749 -1.4261  0.5948
 8322SOL     OW36601   2.448   1.588   0.963 -0.0099  0.0251  0.0216
 8322SOL    HW136602   2.386   1.623   0.899 -0.1042  0.7730  0.5322
 8322SOL    HW236603   2.509   1.560   0.895 -1.0618 -0.5744 -0.6886
 8323SOL     OW36604   3.385   3.424  16.931 -0.2652  0.2662  0.1864
 8323SOL    HW136605   3.414   3.334  16.947  2.4791  1.3380  1.2439
 8323SOL    HW236606   3.332   3.399  16.855  0.5627 -2.4350  0.4980
 8324SOL     OW36607   1.849   4.707   7.138  0.1862  0.0604  0.4037
 8324SOL    HW136608   1.784   4.641   7.159  0.3809 -0.1332  0.3941
 8324SOL    HW236609   1.893   4.678   7.058 -0.2887  1.3712 -0.3381
 8325SOL     OW36610   4.090   3.830   0.298 -0.0965  0.5302  0.2152
 8325SOL    HW136611   4.185   3.828   0.287 -0.2197 -1.5907 -0.3466
 8325SOL    HW236612   4.075   3.764   0.365  0.1066 -1.1392 -1.3869
 8326SOL     OW36613   0.788   0.617   7.715  0.0588  0.6036  0.2500
 8326SOL    HW136614   0.830   0.575   7.640 -2.3113 -0.4608 -0.4899
 8326SOL    HW236615   0.853   0.685   7.729  0.1999  1.0837 -2.7812
 8327SOL     OW36616   3.818   1.513   3.731  0.0805 -0.3211 -0.2480
 8327SOL    HW136617   3.729   1.538   3.706 -0.6473 -0.8108  1.8529
 8327SOL    HW236618   3.807   1.457   3.809 -2.2576  0.5015  0.0201
 8328SOL     OW36619   1.363   3.605  16.412 -0.6763  0.0208  0.5567
 8328SOL    HW136620   1.314   3.686  16.396  0.2021  0.2064 -1.2269
 8328SOL    HW236621   1.446   3.645  16.438 -0.5785 -0.0121  0.2977
 8329SOL     OW36622   2.564   3.381   1.214 -0.5054  0.2582 -0.1530
 8329SOL    HW136623   2.612   3.420   1.287  0.0469 -5.5815  2.5568
 8329SOL    HW236624   2.502   3.453   1.199  3.5796  3.9410  0.5648
 8330SOL     OW36625   0.800   1.423   5.268 -0.3001  0.0047 -0.3661
 8330SOL    HW136626   0.860   1.383   5.205 -0.8920 -0.7779 -0.4416
 8330SOL    HW236627   0.730   1.357   5.264 -0.6642  0.2833  1.3546
 8331SOL     OW36628   4.018   1.258  14.929 -0.8316 -0.0946  0.5601
 8331SOL    HW136629   4.014   1.312  14.850 -1.7570  0.8014  1.2048
 8331SOL    HW236630   4.062   1.311  14.996 -2.5666 -0.3717  1.9444
 8332SOL     OW36631   0.865   3.428   4.890 -0.2767  0.1678  0.1185
 8332SOL    HW136632   0.950   3.412   4.848 -1.1279  1.8691 -2.2376
 8332SOL    HW236633   0.832   3.339   4.877 -0.0416 -0.1462  1.6177
 8333SOL     OW36634   1.260   2.890  10.430 -0.4544 -0.1715 -0.4570
 8333SOL    HW136635   1.241   2.884  10.337 -2.8771 -1.0927  0.0917
 8333SOL    HW236636   1.218   2.974  10.451  1.4510  0.5324  0.4952
 8334SOL     OW36637   3.060   3.576   4.943  0.4330  0.1462  0.0466
 8334SOL    HW136638   3.030   3.582   4.852 -0.0129 -1.4914  0.0753
 8334SOL    HW236639   3.046   3.666   4.972  2.9311  0.3923  0.5235
 8335SOL     OW36640   2.298   1.885   3.569 -0.6039  0.2862 -0.5823
 8335SOL    HW136641   2.230   1.842   3.621  1.5892 -1.5793  0.7221
 8335SOL    HW236642   2.275   1.864   3.478 -1.0171 -0.0884 -0.3918
 8336SOL     OW36643   0.207   1.171   5.850  0.5253  0.6910  0.0832
 8336SOL    HW136644   0.124   1.195   5.891  0.0443 -1.1863  0.1903
 8336SOL    HW236645   0.257   1.175   5.931 -2.0171 -2.4616  1.7981
 8337SOL     OW36646   0.376   0.127   8.883  0.3526  0.4314 -0.1570
 8337SOL    HW136647   0.323   0.105   8.959 -0.5326  0.6189 -0.7193
 8337SOL    HW236648   0.449   0.068   8.902 -0.6294 -0.1291  1.8084
 8338SOL     OW36649   3.819   2.442   9.099 -0.2972  1.0618  0.1831
 8338SOL    HW136650   3.858   2.377   9.041 -1.7207  0.5601 -0.2203
 8338SOL    HW236651   3.825   2.529   9.060 -1.2271  0.8949 -0.3466
 8339SOL     OW36652   2.113   1.465   0.185 -0.4369  0.0673 -0.1201
 8339SOL    HW136653   2.033   1.517   0.193 -0.3826 -0.0619  1.2534
 8339SOL    HW236654   2.155   1.515   0.114  0.0914 -1.0694 -0.5967
 8340SOL     OW36655   3.403   0.316  14.230 -0.2917 -0.1898 -0.0269
 8340SOL    HW136656   3.462   0.337  14.158 -0.1349 -0.8557 -0.0894
 8340SOL    HW236657   3.425   0.224  14.248 -0.2437 -0.1251  0.2399
 8341SOL     OW36658   3.717   4.126  11.387  0.0062  0.0473 -0.0676
 8341SOL    HW136659   3.668   4.138  11.468 -0.7453  1.4324 -0.7239
 8341SOL    HW236660   3.675   4.194  11.335  0.9163  0.8188  0.1997
 8342SOL     OW36661   4.285   1.952   5.831 -0.0097  0.0798  0.1097
 8342SOL    HW136662   4.340   2.013   5.782  0.8956 -1.8115 -1.2074
 8342SOL    HW236663   4.295   1.989   5.919  2.7894  1.2988 -0.7024
 8343SOL     OW36664   2.240   2.230   4.920 -0.0205 -0.3246  0.2767
 8343SOL    HW136665   2.219   2.137   4.919  1.2427 -0.6096 -0.4227
 8343SOL    HW236666   2.322   2.234   4.869  0.0331 -0.1654  0.3749
 8344SOL     OW36667   4.122   0.407   3.847 -0.8957  0.8901  0.3689
 8344SOL    HW136668   4.168   0.343   3.791 -1.8896  0.6715 -0.1975
 8344SOL    HW236669   4.072   0.351   3.906  0.0523 -1.3705 -0.9408
 8345SOL     OW36670   0.422   3.819   2.914 -0.1565 -0.2326  0.0489
 8345SOL    HW136671   0.487   3.866   2.967  1.0899  0.8845 -2.5028
 8345SOL    HW236672   0.417   3.741   2.970 -0.0029 -0.0522  0.3157
 8346SOL     OW36673   1.538   4.680  11.055 -0.2312 -0.3339  0.1734
 8346SOL    HW136674   1.499   0.030  11.060  0.1562 -0.2342  1.4928
 8346SOL    HW236675   1.547   4.663  11.149  2.2238  1.2395  0.2256
 8347SOL     OW36676   2.956   3.011   4.430 -0.4805 -0.7907 -0.3994
 8347SOL    HW136677   3.038   2.989   4.475  0.0249 -0.8255 -1.3307
 8347SOL    HW236678   2.938   3.092   4.477  0.0464 -0.2872 -1.0466
 8348SOL     OW36679   4.671   3.627   7.089  0.4442  0.2185  0.0161
 8348SOL    HW136680   4.591   3.676   7.104 -0.5027 -1.0940 -0.6867
 8348SOL    HW236681   4.639   3.561   7.027 -0.8694 -0.2935  1.2297
 8349SOL     OW36682   4.656   1.710   2.623 -0.2754 -0.3939  0.2653
 8349SOL    HW136683   4.671   1.796   2.662 -0.2669 -0.3807  0.2335
 8349SOL    HW236684   4.582   1.681   2.676  0.5201 -0.4666  1.3225
 8350SOL     OW36685   3.242   1.502  12.140 -0.2993  0.3624 -0.0875
 8350SOL    HW136686   3.274   1.436  12.079  0.6381  1.3933 -0.7197
 8350SOL    HW236687   3.202   1.448  12.208  0.7377 -2.1615 -1.5234
 8351SOL     OW36688   0.435   4.030   6.227  0.5959  0.1616  0.4233
 8351SOL    HW136689   0.387   4.050   6.147  1.3886  0.1783 -0.0478
 8351SOL    HW236690   0.376   4.064   6.294 -2.0140  0.0402 -1.8153
 8352SOL     OW36691   2.829   2.568   2.277  0.0751 -0.1427  0.0479
 8352SOL    HW136692   2.747   2.548   2.322  0.1972 -1.6525 -0.4149
 8352SOL    HW236693   2.889   2.552   2.350  0.7719 -1.0386 -0.7353
 8353SOL     OW36694   2.618   2.427   8.599  0.1484 -0.9257  0.4385
 8353SOL    HW136695   2.601   2.455   8.509 -1.3572  0.3264  1.1327
 8353SOL    HW236696   2.530   2.437   8.635  0.0923 -0.7968  0.2667
 8354SOL     OW36697   0.245   4.428   8.748  0.4850  0.1154 -0.0241
 8354SOL    HW136698   0.317   4.478   8.785 -1.3538  4.3711 -2.1271
 8354SOL    HW236699   0.171   4.469   8.793 -0.7997 -1.9264 -0.2656
 8355SOL     OW36700   1.987   1.656   5.787  0.3076 -0.0316 -0.7143
 8355SOL    HW136701   1.902   1.645   5.830  0.3475  2.1929 -0.0698
 8355SOL    HW236702   2.016   1.566   5.775  1.5345 -0.2376  3.6046
 8356SOL     OW36703   0.195   1.612   2.853 -0.2299  0.4659 -0.2366
 8356SOL    HW136704   0.129   1.560   2.807  1.3422 -0.7888 -1.1064
 8356SOL    HW236705   0.272   1.557   2.837 -0.7114  0.0625 -1.2173
 8357SOL     OW36706   4.455   0.111   3.580  0.4844 -0.0556 -0.0913
 8357SOL    HW136707   4.549   0.122   3.568  0.5931 -1.0219 -0.1497
 8357SOL    HW236708   4.420   0.119   3.491  1.9737  1.1794 -0.5660
 8358SOL     OW36709   3.405   1.584   8.525 -0.1173  0.3200 -0.8633
 8358SOL    HW136710   3.375   1.674   8.531 -1.6824 -0.2205 -0.3231
 8358SOL    HW236711   3.323   1.537   8.542  0.8886 -0.9915  0.4406
 8359SOL     OW36712   1.659   4.715  14.209  0.3155  0.1432 -0.2426
 8359SOL    HW136713   1.604   4.677  14.140 -1.1575  1.5631  0.1478
 8359SOL    HW236714   1.731   0.014  14.156 -1.9250  0.6835 -2.9279
 8360SOL     OW36715   4.713   0.805  14.519  0.1732 -0.9287 -0.6012
 8360SOL    HW136716   4.642   0.851  14.475  0.4717  0.3628  0.2619
 8360SOL    HW236717   4.703   0.715  14.488 -0.9859 -1.2198  0.6332
 8361SOL     OW36718   4.422   2.730   2.229 -0.1738  0.6022  0.4335
 8361SOL    HW136719   4.330   2.714   2.211 -0.0249 -0.6283  0.7955
 8361SOL    HW236720   4.449   2.658   2.286  0.5935  0.0205 -0.6734
 8362SOL     OW36721   4.527   4.268   1.404  0.3040 -0.1542  0.0055
 8362SOL    HW136722   4.621   4.249   1.410  0.0500 -1.8392 -1.2291
 8362SOL    HW236723   4.497   4.241   1.491 -2.3606 -3.5333 -1.9649
 8363SOL     OW36724   2.272   4.199   4.836 -0.4051 -0.2885  0.1524
 8363SOL    HW136725   2.258   4.147   4.915 -0.6628  0.5061  0.6313
 8363SOL    HW236726   2.183   4.208   4.803 -1.4576 -0.5941  2.9842
 8364SOL     OW36727   2.451   4.654  16.459  0.6740  0.1951 -0.2033
 8364SOL    HW136728   2.471   4.582  16.399  0.5753 -1.3832  1.6626
 8364SOL    HW236729   2.441   4.726  16.397  1.2495  1.6178  1.3648
 8365SOL     OW36730   3.434   3.995   8.629 -0.0710 -0.4126  0.6273
 8365SOL    HW136731   3.343   4.002   8.601  0.8743  0.4699 -2.1491
 8365SOL    HW236732   3.486   3.969   8.553  1.1786 -1.8628  1.9382
 8366SOL     OW36733   0.407   0.996   7.332  0.0579 -0.7812  0.4746
 8366SOL    HW136734   0.394   1.012   7.239 -0.9971  0.4565  0.8348
 8366SOL    HW236735   0.319   0.980   7.365  0.5914 -0.0342  2.2735
 8367SOL     OW36736   1.323   3.349   8.701 -0.4529  0.6823 -0.0179
 8367SOL    HW136737   1.334   3.330   8.794 -1.7922  2.5723  0.5294
 8367SOL    HW236738   1.229   3.336   8.687 -0.6326  2.0991 -0.2139
 8368SOL     OW36739   0.277   2.374  16.669 -0.2495  0.2541  0.3971
 8368SOL    HW136740   0.229   2.291  16.676 -1.2488  0.7351 -0.6975
 8368SOL    HW236741   0.301   2.374  16.761 -1.6888  0.0856  0.7779
 8369SOL     OW36742   2.551   1.750   9.226 -0.4067 -0.5808  0.6110
 8369SOL    HW136743   2.636   1.716   9.255 -0.3428  1.1347  2.4840
 8369SOL    HW236744   2.497   1.672   9.239 -1.6547 -0.1154 -1.8298
 8370SOL     OW36745   2.324   1.538   7.850 -0.1495  0.0981 -0.1136
 8370SOL    HW136746   2.331   1.538   7.945 -1.2257  3.1897 -0.0278
 8370SOL    HW236747   2.415   1.526   7.825  0.1914  0.6788  0.8607
 8371SOL     OW36748   1.735   1.558   8.801 -0.0987 -0.1964  0.0843
 8371SOL    HW136749   1.718   1.652   8.795 -2.0432 -0.5528  0.0583
 8371SOL    HW236750   1.766   1.536   8.713 -1.3439 -0.8020 -0.2009
 8372SOL     OW36751   4.658   0.044  11.702  0.3305  0.2919 -0.1732
 8372SOL    HW136752   4.709   0.009  11.775  1.4569 -0.7551 -1.4553
 8372SOL    HW236753   4.603   4.708  11.676  0.2980  0.0836  0.4725
 8373SOL     OW36754   3.695   2.229   4.055  0.2586 -0.1079  0.6939
 8373SOL    HW136755   3.789   2.247   4.060  0.8967 -2.5974 -2.1851
 8373SOL    HW236756   3.672   2.284   3.980 -3.8715 -0.1982  1.9065
 8374SOL     OW36757   2.091   1.620   4.235  0.6033 -0.5670 -0.7630
 8374SOL    HW136758   2.098   1.577   4.320  1.3151 -0.0947 -0.5813
 8374SOL    HW236759   2.125   1.708   4.254  0.5092 -0.3500 -1.6339
 8375SOL     OW36760   3.903   1.977   5.897  0.4772 -0.1168  0.3459
 8375SOL    HW136761   3.814   1.996   5.867  0.9544  2.9535  0.8680
 8375SOL    HW236762   3.954   2.047   5.857 -0.5866  0.0255 -0.7616
 8376SOL     OW36763   3.658   3.096   7.252 -0.0035 -0.0174 -0.1716
 8376SOL    HW136764   3.588   3.160   7.240  1.6643  1.9546  0.7070
 8376SOL    HW236765   3.733   3.153   7.242 -0.0192  0.0307 -0.0111
 8377SOL     OW36766   4.076   3.146   9.016 -0.0717  0.5779 -0.2232
 8377SOL    HW136767   4.128   3.102   9.083  1.1192 -0.1705 -1.6228
 8377SOL    HW236768   4.148   3.184   8.966 -1.0433  1.9348 -0.5874
 8378SOL     OW36769   0.075   3.598   4.864  0.7331 -0.1696 -0.1447
 8378SOL    HW136770   4.724   3.618   4.896  0.2720  1.1575 -2.2741
 8378SOL    HW236771   0.055   3.524   4.805 -0.8224  0.0739  0.0787
 8379SOL     OW36772   3.044   2.238   8.922  0.2835 -0.3597  0.0982
 8379SOL    HW136773   3.000   2.233   9.007 -0.1389 -1.0617 -0.1566
 8379SOL    HW236774   3.071   2.147   8.909 -0.9135 -0.3999 -2.2055
 8380SOL     OW36775   2.697   2.560   8.824  0.3917 -0.0926 -0.1680
 8380SOL    HW136776   2.785   2.543   8.856 -1.1273 -1.5776  3.2250
 8380SOL    HW236777   2.699   2.493   8.756  1.1850  0.5789 -0.8064
 8381SOL     OW36778   2.950   2.708  15.800 -0.0844 -0.6080  0.0599
 8381SOL    HW136779   2.898   2.720  15.880 -0.1382 -0.0089 -0.0669
 8381SOL    HW236780   2.894   2.722  15.724  1.6415 -0.4401 -1.1689
 8382SOL     OW36781   1.211   0.797   9.785  0.1641  0.1405  0.0345
 8382SOL    HW136782   1.295   0.761   9.814  0.5030  0.5233 -0.4724
 8382SOL    HW236783   1.236   0.824   9.697 -0.4484 -0.3921 -0.3036
 8383SOL     OW36784   1.876   3.560  15.322  0.1917  0.2705  0.3389
 8383SOL    HW136785   1.933   3.613  15.268 -1.3796  0.8928 -0.6983
 8383SOL    HW236786   1.811   3.556  15.252  0.3391 -0.6837  0.2456
 8384SOL     OW36787   3.428   4.611  12.475  0.3539  0.2339 -0.0999
 8384SOL    HW136788   3.438   4.518  12.498  1.2007  0.9470  2.4150
 8384SOL    HW236789   3.460   4.603  12.385 -0.3420  0.3076 -0.3539
 8385SOL     OW36790   1.269   2.689   4.085  0.1932  0.1538 -0.3513
 8385SOL    HW136791   1.239   2.770   4.046 -1.5735 -0.6095 -0.5880
 8385SOL    HW236792   1.360   2.684   4.056  0.6228 -0.4579  1.0473
 8386SOL     OW36793   2.957   2.679   7.343  0.0172 -0.3435 -0.2185
 8386SOL    HW136794   2.866   2.677   7.315 -0.6728 -1.6663  2.0940
 8386SOL    HW236795   2.989   2.594   7.314  0.3958  0.2805 -1.6318
 8387SOL     OW36796   2.338   0.388  13.754  0.9216 -0.3768  0.1502
 8387SOL    HW136797   2.420   0.340  13.767  0.4459 -1.5711 -1.2346
 8387SOL    HW236798   2.318   0.410  13.844  0.1256 -3.0520  0.6422
 8388SOL     OW36799   2.945   2.717   4.977  0.7304 -0.3073 -0.0851
 8388SOL    HW136800   2.954   2.656   5.051  0.2236  0.1234  0.3358
 8388SOL    HW236801   2.857   2.752   4.993 -0.2250 -2.1929 -1.1447
 8389SOL     OW36802   3.318   0.147   9.797  0.4041  0.1207 -0.1897
 8389SOL    HW136803   3.270   0.221   9.760 -0.4756 -1.7138 -2.7122
 8389SOL    HW236804   3.329   0.173   9.889  2.3680  0.5591 -0.5330
 8390SOL     OW36805   1.876   4.538  11.932 -0.2390 -0.2466 -0.5593
 8390SOL    HW136806   1.812   4.605  11.955 -0.1906 -0.7884  1.1092
 8390SOL    HW236807   1.823   4.480  11.877 -1.5124 -0.5189  0.9747
 8391SOL     OW36808   3.520   0.011   5.843  0.0389 -0.3698 -0.4719
 8391SOL    HW136809   3.480   4.718   5.925 -1.1395 -0.4239 -1.0656
 8391SOL    HW236810   3.569   0.089   5.869 -0.5863 -0.8743  2.2412
 8392SOL     OW36811   0.734   3.373   0.111 -0.7153 -0.0434 -0.3028
 8392SOL    HW136812   0.745   3.395   0.204  1.0042  2.1719 -1.0212
 8392SOL    HW236813   0.694   3.455   0.082  1.8894  0.5509 -2.1551
 8393SOL     OW36814   1.217   1.338   0.147  0.2377 -0.4719  0.3628
 8393SOL    HW136815   1.274   1.287   0.205  0.2277 -0.5999  0.2600
 8393SOL    HW236816   1.246   1.424   0.179  1.0733 -0.9510  0.8788
 8394SOL     OW36817   0.450   3.971   5.779  0.8060 -0.5303  0.3918
 8394SOL    HW136818   0.490   3.963   5.692 -1.4021  2.3351 -0.8850
 8394SOL    HW236819   0.435   4.066   5.783  1.0368 -0.5488  1.6677
 8395SOL     OW36820   1.069   4.492  12.452 -0.1089 -0.5711  0.5540
 8395SOL    HW136821   1.097   4.476  12.362  0.2710  1.7815  0.2425
 8395SOL    HW236822   1.101   4.409  12.488  0.7991 -1.6179 -2.7290
 8396SOL     OW36823   2.757   1.544  13.223  0.3212 -0.8874  0.4462
 8396SOL    HW136824   2.701   1.482  13.270 -0.1547 -1.2070 -0.5542
 8396SOL    HW236825   2.706   1.624  13.235 -0.5668 -1.1485 -1.6724
 8397SOL     OW36826   1.236   3.066   8.540 -0.1680  0.0545  0.2490
 8397SOL    HW136827   1.261   3.157   8.554 -2.8268  0.6778  0.9360
 8397SOL    HW236828   1.248   3.062   8.445 -1.0697  2.8681  0.0076
 8398SOL     OW36829   1.843   0.333   1.969  0.5707 -0.5432 -0.5499
 8398SOL    HW136830   1.867   0.405   1.910 -2.6820  1.1199  0.1716
 8398SOL    HW236831   1.752   0.321   1.943 -0.0893 -0.9482  2.0184
 8399SOL     OW36832   1.963   1.478   3.878 -0.9316  0.0521  0.3592
 8399SOL    HW136833   1.982   1.412   3.945 -1.5887 -0.0282  0.4675
 8399SOL    HW236834   1.976   1.562   3.923  0.5728  0.3838 -0.7061
 8400SOL     OW36835   1.200   3.783  11.733  0.1334 -0.3162  0.0124
 8400SOL    HW136836   1.259   3.728  11.682  0.9336 -0.2632  0.8774
 8400SOL    HW236837   1.252   3.860  11.756 -0.8392  0.4497 -0.3289
 8401SOL     OW36838   4.169   1.215  10.743  0.1020  0.0632 -0.5494
 8401SOL    HW136839   4.136   1.206  10.832  2.1293 -0.6095  0.1465
 8401SOL    HW236840   4.237   1.148  10.745  0.6684  0.6219 -0.8841
 8402SOL     OW36841   3.442   3.532   4.950 -0.8462 -0.4574  0.0671
 8402SOL    HW136842   3.471   3.623   4.942 -1.7406 -0.0957  0.9015
 8402SOL    HW236843   3.476   3.506   4.865  0.6704  1.8126 -0.0189
 8403SOL     OW36844   1.954   0.563   6.566 -0.3162 -0.4382  0.1465
 8403SOL    HW136845   2.001   0.578   6.485 -0.2349 -0.6508  0.1549
 8403SOL    HW236846   1.936   0.469   6.562 -1.2826 -0.2642  0.2531
 8404SOL     OW36847   3.727   0.984   9.146 -0.0031  0.0545 -0.1647
 8404SOL    HW136848   3.679   0.912   9.105  2.0693 -0.4850 -1.6385
 8404SOL    HW236849   3.658   1.049   9.162 -0.5564 -0.8612  1.1330
 8405SOL     OW36850   3.362   4.569   0.226 -0.4155 -0.3961 -0.6179
 8405SOL    HW136851   3.299   4.626   0.271 -0.2220  0.6119 -1.6192
 8405SOL    HW236852   3.303   4.509   0.181 -1.8925  0.6628 -0.1091
 8406SOL     OW36853   3.028   4.248   1.350 -0.2930  0.1238  0.0094
 8406SOL    HW136854   2.952   4.288   1.391  1.0010  1.4059  1.1486
 8406SOL    HW236855   3.047   4.180   1.414  0.8502  0.7342  0.3143
 8407SOL     OW36856   0.284   2.923  16.664  0.5040  0.3925  0.0202
 8407SOL    HW136857   0.260   2.947  16.753 -4.3834 -2.3584 -0.5779
 8407SOL    HW236858   0.273   2.829  16.676 -0.6064  0.2573 -1.9613
 8408SOL     OW36859   2.414   3.275   7.201 -0.1224  0.4518  0.3530
 8408SOL    HW136860   2.374   3.289   7.287  0.7786  1.0407  0.6757
 8408SOL    HW236861   2.350   3.206   7.182  0.8984 -0.3380 -0.1991
 8409SOL     OW36862   4.524   2.473  12.213 -0.1674  0.4066 -0.3911
 8409SOL    HW136863   4.579   2.433  12.146 -2.2157 -0.2401 -1.6735
 8409SOL    HW236864   4.560   2.432  12.292 -0.2607  0.8313 -0.1224
 8410SOL     OW36865   2.929   4.103  11.417 -0.2918 -0.0011  0.5252
 8410SOL    HW136866   2.988   4.172  11.448  0.3915  1.5157 -4.2372
 8410SOL    HW236867   2.855   4.111  11.478  1.0671 -0.5675  2.2678
 8411SOL     OW36868   0.695   3.387   6.220 -0.0324  0.6994  0.3055
 8411SOL    HW136869   0.630   3.316   6.223  0.7680 -0.1127 -1.5701
 8411SOL    HW236870   0.651   3.453   6.166 -0.5349  1.2016  1.3256
 8412SOL     OW36871   0.442   3.530   1.621 -0.2908  0.1902  0.3840
 8412SOL    HW136872   0.509   3.482   1.670 -1.7591 -1.0187  1.2131
 8412SOL    HW236873   0.380   3.457   1.629 -1.5129  1.1423 -0.3653
 8413SOL     OW36874   4.055   2.744   2.569  0.2232 -0.5881  0.1873
 8413SOL    HW136875   4.065   2.804   2.642  2.3625  0.7200 -1.1924
 8413SOL    HW236876   4.116   2.676   2.597  0.3022 -0.9832 -0.9333
 8414SOL     OW36877   4.583   1.068   3.029 -0.4358 -0.4849 -0.0108
 8414SOL    HW136878   4.661   1.018   3.008 -0.2501  0.8031 -2.3456
 8414SOL    HW236879   4.573   1.050   3.123  1.3538  0.0038  0.2660
 8415SOL     OW36880   1.614   2.347   2.460  0.5817 -0.3230  0.8842
 8415SOL    HW136881   1.530   2.348   2.505 -1.8171 -0.0888 -3.6361
 8415SOL    HW236882   1.642   2.439   2.458  0.9421 -0.3893  2.3499
 8416SOL     OW36883   4.030   4.075  11.943 -0.6010  0.0388 -0.2786
 8416SOL    HW136884   4.067   4.137  12.005  2.2014 -1.7038 -0.2135
 8416SOL    HW236885   3.982   4.133  11.884 -3.5490 -2.4686 -0.3774
 8417SOL     OW36886   0.088   4.443   5.440 -0.0716  0.2157 -0.3898
 8417SOL    HW136887   0.146   4.424   5.514 -0.4255  0.0030 -0.1658
 8417SOL    HW236888   0.126   4.529   5.421 -0.9501  0.8732  0.7610
 8418SOL     OW36889   0.772   4.084   9.220  0.3907  0.3670  0.6092
 8418SOL    HW136890   0.714   4.084   9.143  3.1545  1.8247 -1.4893
 8418SOL    HW236891   0.785   3.990   9.225  0.7852  0.3600 -0.5082
 8419SOL     OW36892   3.977   2.191   7.539  0.4538  0.0862 -0.1716
 8419SOL    HW136893   4.057   2.168   7.585  0.7423  1.5576  0.0745
 8419SOL    HW236894   3.972   2.286   7.554 -2.8928 -0.4520  1.9664
 8420SOL     OW36895   4.703   3.573   8.521  0.2075  0.6766 -0.1953
 8420SOL    HW136896   4.624   3.550   8.571  1.0581 -1.1057  0.3120
 8420SOL    HW236897   0.020   3.496   8.533  3.2614  3.0531  1.2826
 8421SOL     OW36898   2.176   1.437   7.035  0.0921  0.1265  0.2755
 8421SOL    HW136899   2.134   1.483   7.108 -1.7817 -0.0004 -0.7220
 8421SOL    HW236900   2.108   1.446   6.969 -1.5960 -0.2300  1.9739
 8422SOL     OW36901   3.078   4.387   5.571  0.0476  0.1938  0.6875
 8422SOL    HW136902   3.061   4.412   5.662  2.2395  2.7056  0.4143
 8422SOL    HW236903   3.167   4.419   5.562  0.0371  0.2288  0.7072
 8423SOL     OW36904   4.016   3.392   0.006  0.3436 -0.4783  0.1688
 8423SOL    HW136905   4.077   3.322   0.030  0.2154 -0.8000 -0.4552
 8423SOL    HW236906   3.998   3.362  17.665  0.3727 -2.3990  0.8238
 8424SOL     OW36907   3.884   3.567   0.776  0.0293  0.3245 -0.2386
 8424SOL    HW136908   3.877   3.632   0.706 -1.3269  0.4769  0.0329
 8424SOL    HW236909   3.906   3.492   0.721 -1.4462 -0.0296 -0.3458
 8425SOL     OW36910   0.689   2.137   4.694 -0.4709 -0.0081 -0.3968
 8425SOL    HW136911   0.762   2.075   4.687 -0.9370 -0.4771 -1.0556
 8425SOL    HW236912   0.739   2.211   4.658 -1.3128  1.2185  0.9802
 8426SOL     OW36913   3.149   0.553   8.187 -0.4936 -0.4746  0.4705
 8426SOL    HW136914   3.089   0.580   8.257 -1.4196 -0.2136 -0.4306
 8426SOL    HW236915   3.110   0.603   8.116  0.1462 -3.6993 -2.1570
 8427SOL     OW36916   0.759   2.719  11.261 -0.1887 -0.3142 -0.5354
 8427SOL    HW136917   0.693   2.789  11.265 -0.9805 -1.2764  3.3428
 8427SOL    HW236918   0.735   2.654  11.328 -1.9749  0.5830 -0.2861
 8428SOL     OW36919   4.271   4.712  12.107 -0.1202  0.6087  0.2727
 8428SOL    HW136920   4.286   4.676  12.194  0.7592 -1.0254 -0.5520
 8428SOL    HW236921   4.358   4.701  12.069 -0.8826 -0.9889 -0.9860
 8429SOL     OW36922   3.508   4.650   1.177  0.0045 -0.1581 -0.3183
 8429SOL    HW136923   3.481   4.712   1.244 -0.5101 -0.6266 -0.0942
 8429SOL    HW236924   3.425   4.607   1.155  0.5903 -1.6527  0.4953
 8430SOL     OW36925   4.077   0.966   6.542  0.6152  0.1937  0.5441
 8430SOL    HW136926   4.055   0.877   6.514 -1.1382  0.6060  0.5951
 8430SOL    HW236927   4.161   0.983   6.499  0.4114  1.5445  0.6612
 8431SOL     OW36928   2.988   1.656   3.560  0.3220  0.9741 -0.4356
 8431SOL    HW136929   2.894   1.656   3.541  0.1416 -3.2245  0.4064
 8431SOL    HW236930   3.024   1.698   3.482  2.4082  0.1349  0.0764
 8432SOL     OW36931   2.681   4.736   3.645 -0.1941  0.2049  0.5788
 8432SOL    HW136932   2.597   0.036   3.620  0.9270  2.9362  0.9174
 8432SOL    HW236933   2.664   4.642   3.644  0.8754  0.0121 -0.6409
 8433SOL     OW36934   0.219   4.483   5.080 -0.0948  0.3079 -0.0514
 8433SOL    HW136935   0.307   4.447   5.092 -0.4771 -0.7880 -0.5473
 8433SOL    HW236936   0.161   4.447   5.147  1.4792  0.2727  1.2905
 8434SOL     OW36937   3.979   0.322   2.088  0.3308  0.8068 -0.0155
 8434SOL    HW136938   3.941   0.376   2.157 -0.7408 -0.4296  0.3657
 8434SOL    HW236939   3.911   0.257   2.072 -0.2053  1.3960 -0.1629
 8435SOL     OW36940   3.284   2.099   9.089 -0.2528  0.1893  0.2850
 8435SOL    HW136941   3.304   2.190   9.109  1.3909 -0.4394  1.4892
 8435SOL    HW236942   3.370   2.067   9.063  0.1939  0.9750  0.7831
 8436SOL     OW36943   3.803   1.497   8.511 -0.0484  0.3182 -0.2228
 8436SOL    HW136944   3.785   1.590   8.498 -1.4678  0.1032  0.1385
 8436SOL    HW236945   3.772   1.479   8.600 -1.4223  0.3486 -0.6848
 8437SOL     OW36946   2.806   4.086   7.384  0.2408  0.2739  0.0363
 8437SOL    HW136947   2.738   4.065   7.449 -0.3128  0.0818 -0.6074
 8437SOL    HW236948   2.860   4.010   7.404 -1.6389 -1.8175 -2.7817
 8438SOL     OW36949   3.944   2.646  11.562 -0.0523 -0.2345  0.2862
 8438SOL    HW136950   4.013   2.599  11.515 -0.0930 -0.4410  0.4326
 8438SOL    HW236951   3.944   2.730  11.516 -0.4579  0.7786  2.1354
 8439SOL     OW36952   0.362   2.445  10.862  0.2387 -0.3920  0.1867
 8439SOL    HW136953   0.436   2.476  10.811 -0.2569  0.7742  0.1863
 8439SOL    HW236954   0.329   2.522  10.909  0.7194 -0.3291  0.4226
 8440SOL     OW36955   0.084   2.252   0.557  0.6127  0.2608 -0.1546
 8440SOL    HW136956   0.005   2.265   0.611 -1.1724  0.8306 -2.8850
 8440SOL    HW236957   0.111   2.166   0.587 -0.5745 -0.2016 -0.4022
 8441SOL     OW36958   4.539   3.674  16.893 -0.1509 -0.6446  0.9453
 8441SOL    HW136959   4.598   3.611  16.851  0.2492  0.9717 -0.8721
 8441SOL    HW236960   4.524   3.738  16.824  0.8302  1.7970  3.0238
 8442SOL     OW36961   2.124   2.725   3.902 -0.1045 -0.3517  0.0480
 8442SOL    HW136962   2.066   2.648   3.906  0.5389 -0.8401 -0.0427
 8442SOL    HW236963   2.187   2.698   3.969 -0.3622 -0.7837  0.1181
 8443SOL     OW36964   1.134   4.607   4.161  0.2407  0.2573  0.0758
 8443SOL    HW136965   1.098   4.520   4.141  1.1117 -0.0503 -0.1411
 8443SOL    HW236966   1.119   4.655   4.080 -0.7250 -0.3747 -0.1226
 8444SOL     OW36967   1.359   3.402   8.033 -0.2002  0.1592  0.5917
 8444SOL    HW136968   1.412   3.416   7.955  1.1038 -0.3297  1.4036
 8444SOL    HW236969   1.403   3.463   8.091 -1.2318  0.4033  1.1290
 8445SOL     OW36970   0.881   2.430   2.533  0.0240  0.1721  0.5359
 8445SOL    HW136971   0.812   2.496   2.544  1.7344  1.7258  2.0423
 8445SOL    HW236972   0.942   2.457   2.465 -1.0836 -0.3770 -0.6876
 8446SOL     OW36973   0.179   0.567   0.768  0.2459  0.2833 -0.1541
 8446SOL    HW136974   0.111   0.522   0.818  0.5840 -2.6410 -2.2773
 8446SOL    HW236975   0.164   0.656   0.798  0.7029 -0.0596  1.1117
 8447SOL     OW36976   2.532   3.385   7.664 -0.0036 -0.0211 -0.3381
 8447SOL    HW136977   2.462   3.346   7.612 -0.9353  0.9767  0.1850
 8447SOL    HW236978   2.576   3.305   7.692  2.4906  1.7030  0.6658
 8448SOL     OW36979   4.181   1.046   5.770  0.3647 -0.5458  0.0413
 8448SOL    HW136980   4.154   1.071   5.858 -0.9925 -1.0629 -0.2258
 8448SOL    HW236981   4.235   1.119   5.740 -0.0992  0.1246  0.8683
 8449SOL     OW36982   1.454   1.993   6.144  0.4347 -0.3971 -0.0823
 8449SOL    HW136983   1.443   1.965   6.053 -0.8784 -0.1175 -0.0111
 8449SOL    HW236984   1.360   1.996   6.162  0.1839 -0.2399 -1.3819
 8450SOL     OW36985   2.298   0.341   8.688 -0.1391  0.8859 -0.4648
 8450SOL    HW136986   2.275   0.368   8.776  2.3125  1.1689  0.0768
 8450SOL    HW236987   2.393   0.332   8.694 -0.3396 -2.0046 -1.7150
 8451SOL     OW36988   0.585   3.404   9.675 -0.3939 -0.5447 -0.1565
 8451SOL    HW136989   0.528   3.463   9.724 -1.3239 -1.9233  0.4076
 8451SOL    HW236990   0.575   3.434   9.585  0.7855 -2.0251 -0.7936
 8452SOL     OW36991   1.233   2.274   5.031  0.0456 -0.3054  0.2765
 8452SOL    HW136992   1.226   2.196   5.087 -0.0601 -0.7785 -0.3887
 8452SOL    HW236993   1.314   2.265   4.980  0.1799 -0.3897  0.5047
 8453SOL     OW36994   0.083   1.604   7.156 -0.1597  0.0868 -0.1724
 8453SOL    HW136995   0.143   1.669   7.119 -0.8951  0.1144 -1.3228
 8453SOL    HW236996   0.139   1.527   7.146  0.1388  0.0173  2.2203
 8454SOL     OW36997   0.387   3.688   8.049 -0.0528 -0.1734 -0.3678
 8454SOL    HW136998   0.429   3.759   8.098  1.1160 -0.6383 -0.6862
 8454SOL    HW236999   0.370   3.626   8.120  0.7690  0.2637  0.2039
 8455SOL     OW37000   3.387   3.364   6.215 -0.1940 -0.8774  0.5424
 8455SOL    HW137001   3.350   3.276   6.224  1.2269 -1.4205  0.9665
 8455SOL    HW237002   3.361   3.401   6.299 -3.5432  0.6763 -1.1458
 8456SOL     OW37003   1.772   4.418   3.546 -0.0673 -0.4762 -0.0640
 8456SOL    HW137004   1.720   4.340   3.565 -0.1449 -0.2176  0.7900
 8456SOL    HW237005   1.773   4.412   3.451  0.4395  2.0205 -0.2160
 8457SOL     OW37006   0.171   2.110   7.958 -0.4817  0.1429  0.4774
 8457SOL    HW137007   0.227   2.173   8.002 -1.1951  0.7142  0.5719
 8457SOL    HW237008   0.222   2.098   7.878  0.3107  1.4971  0.7817
 8458SOL     OW37009   1.323   0.430   5.470  0.1009  0.1767 -0.2238
 8458SOL    HW137010   1.269   0.368   5.519  0.1563 -0.6552 -1.2187
 8458SOL    HW237011   1.404   0.446   5.519 -0.9007 -0.0629  1.5408
 8459SOL     OW37012   1.363   4.180   5.844  0.4362  0.3614 -0.1216
 8459SOL    HW137013   1.290   4.226   5.887  0.0989  0.9633 -1.3402
 8459SOL    HW237014   1.438   4.226   5.882  0.9972  0.0466 -0.8425
 8460SOL     OW37015   1.185   4.325   7.589 -0.5919 -0.1691  0.1237
 8460SOL    HW137016   1.124   4.273   7.536 -0.6773  0.0198  0.0356
 8460SOL    HW237017   1.132   4.403   7.609 -0.2534  0.4227 -1.3244
 8461SOL     OW37018   0.593   0.815   3.868 -1.0200  0.1343 -0.9064
 8461SOL    HW137019   0.575   0.876   3.940 -1.0076 -0.8382 -0.0855
 8461SOL    HW237020   0.523   0.751   3.869 -1.8988  1.1327  0.8263
 8462SOL     OW37021   0.874   1.616   3.795  0.5099 -0.3546 -0.5108
 8462SOL    HW137022   0.861   1.640   3.887 -1.9328 -2.2983 -0.3579
 8462SOL    HW237023   0.893   1.706   3.766 -0.8171 -0.9011 -3.0712
 8463SOL     OW37024   2.592   1.732   1.177 -0.0666 -0.3640  0.0960
 8463SOL    HW137025   2.526   1.677   1.135 -0.3449 -0.0480  0.1205
 8463SOL    HW237026   2.607   1.783   1.098 -0.1798 -0.8247 -0.2237
 8464SOL     OW37027   3.524   1.693   5.594  0.3473  0.0807  1.1628
 8464SOL    HW137028   3.590   1.627   5.574  0.5425  0.8342 -0.6183
 8464SOL    HW237029   3.490   1.669   5.680 -0.6605  1.6920  1.2091
 8465SOL     OW37030   2.075   1.933   7.636 -0.0971  0.0675  0.3695
 8465SOL    HW137031   2.113   1.845   7.643  0.0151  0.2747  2.2355
 8465SOL    HW237032   2.148   1.989   7.662  1.7738 -2.4569  0.6167
 8466SOL     OW37033   3.335   1.387   8.026 -0.4713  0.7230  0.0647
 8466SOL    HW137034   3.324   1.306   8.076 -0.6090  0.4191 -0.4666
 8466SOL    HW237035   3.425   1.415   8.047  0.1609 -1.6285  0.4840
 8467SOL     OW37036   2.502   2.395   0.720 -0.4540  0.8495 -0.3578
 8467SOL    HW137037   2.430   2.352   0.674  0.7041 -2.0469  0.5536
 8467SOL    HW237038   2.479   2.486   0.739 -1.6355  0.5938 -0.5231
 8468SOL     OW37039   0.550   1.500   2.845 -0.0602 -0.2686 -0.1741
 8468SOL    HW137040   0.495   1.443   2.900 -1.4530  2.4499  1.2543
 8468SOL    HW237041   0.586   1.443   2.777  0.5947  0.1293 -0.1527
 8469SOL     OW37042   4.222   2.424   1.709 -0.0626 -0.4282  0.0345
 8469SOL    HW137043   4.211   2.514   1.680 -2.4519  0.1995  2.8099
 8469SOL    HW237044   4.287   2.388   1.649  2.2492  2.2654  0.9427
 8470SOL     OW37045   3.448   0.691   3.877  0.3358  0.0267  0.2367
 8470SOL    HW137046   3.467   0.606   3.839 -3.3073  0.1427 -1.8173
 8470SOL    HW237047   3.422   0.741   3.799 -1.7741 -2.2285 -0.4907
 8471SOL     OW37048   0.619   0.949  10.114  0.4138  0.0263  0.2588
 8471SOL    HW137049   0.629   0.854  10.106 -1.4867 -0.2413  1.0462
 8471SOL    HW237050   0.660   0.986  10.036  1.0951 -1.4998 -0.1076
 8472SOL     OW37051   2.209   2.467   1.200  0.3194  0.8443  0.0655
 8472SOL    HW137052   2.146   2.475   1.128  1.1955 -1.1810 -0.9299
 8472SOL    HW237053   2.192   2.539   1.261  2.0439  1.0053  0.3705
 8473SOL     OW37054   2.986   4.214   2.158 -0.1087 -0.0031  0.3646
 8473SOL    HW137055   2.976   4.190   2.250 -1.7427 -0.4316  0.0696
 8473SOL    HW237056   3.023   4.302   2.159 -0.1587  0.0213 -0.5817
 8474SOL     OW37057   0.745   1.550   6.763  0.5415  0.4550 -0.2063
 8474SOL    HW137058   0.704   1.551   6.850 -0.4137 -1.2292 -0.6300
 8474SOL    HW237059   0.725   1.464   6.727 -1.7112  0.6777  0.5012
 8475SOL     OW37060   3.262   0.580   0.698 -0.2982 -0.1594 -0.8034
 8475SOL    HW137061   3.218   0.658   0.664 -2.0202  0.8575  3.8027
 8475SOL    HW237062   3.356   0.599   0.686  0.0156 -2.2731 -1.7728
 8476SOL     OW37063   2.858   2.740   6.791  0.1732 -0.5184 -0.4347
 8476SOL    HW137064   2.879   2.830   6.767  2.3561 -1.5958 -2.4939
 8476SOL    HW237065   2.815   2.758   6.875 -1.0041  0.6039 -1.2760
 8477SOL     OW37066   2.720   4.065  14.555  0.0717 -0.5141  0.2033
 8477SOL    HW137067   2.648   4.120  14.585  0.8166  1.5189 -1.8183
 8477SOL    HW237068   2.793   4.111  14.597 -1.9576  0.0466  3.0664
 8478SOL     OW37069   2.136   2.221   1.383 -0.4026 -0.5157  0.8600
 8478SOL    HW137070   2.169   2.282   1.318  0.0505  0.8989  2.4169
 8478SOL    HW237071   2.054   2.262   1.411 -0.3365  0.1945  0.0080
 8479SOL     OW37072   0.634   3.604   4.017 -0.4870 -0.7373 -0.2964
 8479SOL    HW137073   0.721   3.638   3.994 -0.9553  0.7778  0.2227
 8479SOL    HW237074   0.637   3.512   3.990  1.1166  0.6512 -4.9315
 8480SOL     OW37075   4.550   1.912   3.489 -0.6284  0.2801  0.0902
 8480SOL    HW137076   4.543   1.949   3.401 -0.5161  2.7654  1.1346
 8480SOL    HW237077   4.596   1.830   3.471  0.9110  0.8146  1.5595
 8481SOL     OW37078   0.612   0.513   5.280 -0.1199 -0.4751 -0.1429
 8481SOL    HW137079   0.677   0.458   5.324 -1.5248 -0.2429  2.1987
 8481SOL    HW237080   0.672   0.546   5.212 -2.8482  3.0185 -0.8370
 8482SOL     OW37081   3.913   3.361   5.152  0.3031 -0.4871 -0.1673
 8482SOL    HW137082   3.894   3.336   5.062  2.9879 -2.3092 -0.2495
 8482SOL    HW237083   3.983   3.301   5.177  0.6989 -0.1089 -0.3708
 8483SOL     OW37084   3.270   0.281   8.212 -0.1075 -0.3813  0.4212
 8483SOL    HW137085   3.259   0.212   8.147 -1.2027 -1.3239  1.5918
 8483SOL    HW237086   3.222   0.360   8.186  0.1582 -1.0620 -2.1119
 8484SOL     OW37087   3.238   3.095   3.847  0.2357 -0.1165 -0.3123
 8484SOL    HW137088   3.312   3.088   3.906 -1.3772 -1.1868  1.5821
 8484SOL    HW237089   3.185   3.022   3.878  0.9306  0.3081  1.8172
 8485SOL     OW37090   4.207   2.156   4.450  0.0533 -0.0359 -0.4210
 8485SOL    HW137091   4.128   2.200   4.480 -0.1132 -0.7973  0.2456
 8485SOL    HW237092   4.170   2.076   4.413  0.7158 -1.2609  1.5722
 8486SOL     OW37093   0.550   3.527  10.705  0.2567  0.2087 -0.4695
 8486SOL    HW137094   0.541   3.622  10.702  1.7594  0.4157  1.7423
 8486SOL    HW237095   0.457   3.503  10.707  0.7733 -1.5916  1.6085
 8487SOL     OW37096   3.771   2.828   9.107  0.0673 -0.4119 -0.2097
 8487SOL    HW137097   3.813   2.893   9.050 -2.1398 -0.1340 -1.5528
 8487SOL    HW237098   3.748   2.887   9.180 -2.3616 -1.9502  0.2835
 8488SOL     OW37099   4.124   0.333   2.972 -0.7122  0.5155  0.1583
 8488SOL    HW137100   4.081   0.417   2.985 -0.5405  0.5425  0.5521
 8488SOL    HW237101   4.118   0.311   2.879  1.9862  0.5842 -0.0393
 8489SOL     OW37102   1.993   1.888   6.367 -0.2336  0.2341 -0.4038
 8489SOL    HW137103   1.910   1.852   6.338  0.3419 -0.2092 -1.4749
 8489SOL    HW237104   2.013   1.819   6.430  0.7568 -0.0035 -0.9846
 8490SOL     OW37105   1.210   1.046   8.417  1.0546  0.3994  0.0077
 8490SOL    HW137106   1.200   1.117   8.353 -2.5421  0.4418  0.6093
 8490SOL    HW237107   1.196   0.965   8.369  2.0031 -0.4682  1.2088
 8491SOL     OW37108   2.185   3.823   6.704 -0.0621 -0.2082  0.2878
 8491SOL    HW137109   2.126   3.899   6.701  1.6444  1.1302  0.2925
 8491SOL    HW237110   2.119   3.756   6.686  0.1679 -1.1201  2.9328
 8492SOL     OW37111   3.284   2.919  13.494 -0.0666  0.5715 -0.2417
 8492SOL    HW137112   3.333   2.848  13.536 -0.6300 -0.0780 -0.6881
 8492SOL    HW237113   3.211   2.921  13.556  0.4197  1.3842  0.3112
 8493SOL     OW37114   3.725   2.992   2.549  0.8610  0.2541  0.2776
 8493SOL    HW137115   3.732   2.899   2.568  1.1520 -0.2190 -2.2484
 8493SOL    HW237116   3.630   3.001   2.535  0.4945 -2.3280  1.1874
 8494SOL     OW37117   3.590   3.500   9.839  0.2291 -0.1803  0.0007
 8494SOL    HW137118   3.577   3.550   9.759  0.3961 -0.8736 -0.4603
 8494SOL    HW237119   3.581   3.563   9.910 -0.5961 -1.0942  0.7123
 8495SOL     OW37120   0.883   0.379   0.017 -0.4046 -0.7893  0.3700
 8495SOL    HW137121   0.832   0.460   0.016  3.0430  1.3802  1.0593
 8495SOL    HW237122   0.812   0.328  17.723 -0.5639 -1.4622  1.4885
 8496SOL     OW37123   1.252   2.099   5.538 -0.4629  0.1255  0.5144
 8496SOL    HW137124   1.164   2.094   5.577 -0.9847 -0.3356 -0.7087
 8496SOL    HW237125   1.238   2.112   5.444 -0.5965 -2.4366  0.1794
 8497SOL     OW37126   2.609   0.619   0.849 -0.5444  0.0341 -0.0505
 8497SOL    HW137127   2.652   0.654   0.772 -2.3559 -3.2964 -2.5759
 8497SOL    HW237128   2.627   0.525   0.843 -0.9755 -0.0539 -0.0077
 8498SOL     OW37129   2.369   2.057   5.652  0.0070 -0.5687  0.2037
 8498SOL    HW137130   2.454   2.077   5.612  0.5470  0.8008  2.0139
 8498SOL    HW237131   2.388   1.982   5.707  1.2657 -1.7974 -1.9346
 8499SOL     OW37132   0.398   4.492   4.439 -0.4636  0.3393  0.0871
 8499SOL    HW137133   0.413   4.409   4.484  0.8150  1.5576  1.8676
 8499SOL    HW237134   0.332   4.532   4.495 -2.1231 -0.2922 -1.3928
 8500SOL     OW37135   3.429   4.016   4.855 -0.6735  0.0330  0.0138
 8500SOL    HW137136   3.499   4.081   4.856 -1.9379  1.4071 -0.4519
 8500SOL    HW237137   3.361   4.058   4.804  1.0530  0.0176 -2.3121
 8501SOL     OW37138   1.637   1.308   7.427 -0.4197 -0.0768 -0.1539
 8501SOL    HW137139   1.711   1.257   7.460  1.1594  2.4653  0.2237
 8501SOL    HW237140   1.659   1.320   7.335 -0.9491 -0.2224 -0.2996
 8502SOL     OW37141   1.811   0.344   0.993  0.2409  0.1355 -0.2521
 8502SOL    HW137142   1.774   0.276   1.049 -1.7273 -1.2946 -3.2886
 8502SOL    HW237143   1.769   0.422   1.029  0.0456  0.4177 -1.1099
 8503SOL     OW37144   4.031   0.152   2.733 -0.2653  0.2371  0.3634
 8503SOL    HW137145   3.993   0.237   2.710 -1.1363 -0.5440 -1.0690
 8503SOL    HW237146   4.070   0.129   2.649 -1.1102  0.4459 -0.0838
 8504SOL     OW37147   1.905   2.685   3.611  0.3808  0.1252 -0.1106
 8504SOL    HW137148   1.837   2.750   3.626  2.0421  2.4061 -2.7238
 8504SOL    HW237149   1.852   2.614   3.649  0.1016  0.3104 -0.1582
 8505SOL     OW37150   3.449   3.688   3.849 -0.3150 -0.4547 -0.2561
 8505SOL    HW137151   3.354   3.685   3.842 -0.2658 -1.8856 -0.3778
 8505SOL    HW237152   3.457   3.780   3.874 -1.1992 -1.0642  2.3579
 8506SOL     OW37153   4.041   0.598   5.979  0.5010 -0.0042 -0.2610
 8506SOL    HW137154   3.977   0.635   5.918  0.4631 -0.2215 -0.3525
 8506SOL    HW237155   4.014   0.507   5.976 -1.8926  0.7422 -1.2558
 8507SOL     OW37156   3.525   1.085   3.638 -0.4198 -0.0194  0.6656
 8507SOL    HW137157   3.467   1.027   3.589 -1.7534  1.1491  0.8738
 8507SOL    HW237158   3.477   1.167   3.635 -0.2040  0.1025  0.5566
 8508SOL     OW37159   3.867   4.193  11.763 -0.0850 -0.8828 -0.3022
 8508SOL    HW137160   3.823   4.113  11.734  1.3913 -1.3727 -1.1758
 8508SOL    HW237161   3.865   4.260  11.694 -0.3501  0.8623  1.3848
 8509SOL     OW37162   2.912   2.353   2.899  0.9314  0.0251  0.4359
 8509SOL    HW137163   2.821   2.357   2.868  1.1306  1.3994  0.0593
 8509SOL    HW237164   2.960   2.403   2.834  0.8139 -0.6106 -0.1472
 8510SOL     OW37165   4.075   2.526  16.157  0.3029  0.3462  0.1754
 8510SOL    HW137166   4.023   2.588  16.208  1.6535  2.8837 -1.5324
 8510SOL    HW237167   4.068   2.442  16.201  3.2112 -0.7033 -1.3968
 8511SOL     OW37168   3.800   4.468   7.385  0.3848 -0.4780  0.5515
 8511SOL    HW137169   3.748   4.390   7.402 -1.2957  0.8710  1.6262
 8511SOL    HW237170   3.867   4.446   7.449  1.3824 -2.8557 -1.3148
 8512SOL     OW37171   3.517   1.444   8.767 -0.0590  0.4058 -0.1425
 8512SOL    HW137172   3.460   1.368   8.763 -1.5294  1.4459  0.8918
 8512SOL    HW237173   3.498   1.488   8.684  3.0588 -1.0215 -1.6050
 8513SOL     OW37174   3.417   4.602  16.460  0.3385 -0.3279 -0.1157
 8513SOL    HW137175   3.458   4.516  16.450 -1.0306 -0.7772 -1.9819
 8513SOL    HW237176   3.498   4.652  16.462 -0.6904  1.3538  0.4740
 8514SOL     OW37177   0.998   1.215   5.988 -0.2506  0.6937 -0.4866
 8514SOL    HW137178   0.986   1.210   5.893  2.2021  0.1875 -0.7866
 8514SOL    HW237179   1.046   1.135   6.007  0.0148  1.2169  0.9992
 8515SOL     OW37180   1.873   3.218   4.393  0.0139  0.0395 -0.5670
 8515SOL    HW137181   1.963   3.190   4.375  0.0055 -0.7555  0.6005
 8515SOL    HW237182   1.821   3.142   4.367  0.5303 -0.5920  0.2091
 8516SOL     OW37183   3.455   2.945   2.480  0.4095  0.1905  0.4891
 8516SOL    HW137184   3.399   2.939   2.557 -1.9577 -3.3633 -1.5228
 8516SOL    HW237185   3.416   3.016   2.429 -1.0082 -0.7917  0.2202
 8517SOL     OW37186   2.624   0.524  10.878 -0.0570 -0.0892 -0.5008
 8517SOL    HW137187   2.548   0.482  10.918  1.1231  0.2722  2.1526
 8517SOL    HW237188   2.687   0.500  10.946 -1.9154 -0.7454  0.9776
 8518SOL     OW37189   0.021   1.719   4.153  0.6635  0.3920  0.0088
 8518SOL    HW137190   0.036   1.627   4.129  0.8401  0.7080 -1.0799
 8518SOL    HW237191   0.107   1.757   4.137  0.4599  0.4779 -0.9095
 8519SOL     OW37192   3.311   4.336   5.029 -0.1236  0.3084 -0.2502
 8519SOL    HW137193   3.266   4.419   5.011 -1.3510 -0.2505  0.2457
 8519SOL    HW237194   3.240   4.279   4.998 -0.7254 -0.5708  2.7219
 8520SOL     OW37195   0.394   0.609   2.637  0.2554 -0.0579  0.0120
 8520SOL    HW137196   0.366   0.521   2.662 -0.6941  0.3797  0.5022
 8520SOL    HW237197   0.319   0.667   2.652  0.5604 -0.2290  2.1743
 8521SOL     OW37198   3.343   3.057   1.862 -0.1955 -0.0880 -0.5313
 8521SOL    HW137199   3.374   3.039   1.951  0.1054  0.1015 -0.5992
 8521SOL    HW237200   3.359   2.976   1.814 -0.4033 -1.2854  1.4151
 8522SOL     OW37201   4.667   3.744  16.475 -0.0568 -0.6855 -0.5098
 8522SOL    HW137202   0.007   3.756  16.531  0.8059 -1.0442 -1.6152
 8522SOL    HW237203   4.601   3.776  16.536  0.6623  2.7230 -1.5075
 8523SOL     OW37204   3.171   3.710   9.183  0.3165 -0.2116  0.6111
 8523SOL    HW137205   3.174   3.678   9.273  1.4373 -0.5672  0.4536
 8523SOL    HW237206   3.077   3.711   9.167  0.7537 -1.8053 -2.2433
 8524SOL     OW37207   3.546   4.672   1.910 -0.0626  0.3704 -0.5319
 8524SOL    HW137208   3.511   4.584   1.897 -0.4395  0.5921 -0.9981
 8524SOL    HW237209   3.631   4.660   1.868 -0.6603  3.3046 -2.5612
 8525SOL     OW37210   1.154   4.261  12.269 -0.2030 -0.4070 -0.3216
 8525SOL    HW137211   1.071   4.264  12.221 -1.1172  1.8655  1.3658
 8525SOL    HW237212   1.210   4.201  12.221  0.6371 -0.9669  1.3540
 8526SOL     OW37213   0.589   2.416   1.584 -0.0119  0.3227  0.0702
 8526SOL    HW137214   0.518   2.392   1.523 -0.0465  0.3593  0.0964
 8526SOL    HW237215   0.549   2.484   1.638  3.2363  2.3361 -0.1037
 8527SOL     OW37216   1.671   1.859   0.498 -0.2513  0.5129 -0.2881
 8527SOL    HW137217   1.650   1.856   0.591  0.9957  0.9126  0.0102
 8527SOL    HW237218   1.757   1.818   0.504  0.2505  1.4601 -0.9041
 8528SOL     OW37219   0.144   4.624   4.849  0.2507  0.1919  0.0416
 8528SOL    HW137220   0.184   4.564   4.911 -1.8272 -1.8099 -0.5614
 8528SOL    HW237221   0.056   4.595   4.870  0.3505  0.2301  0.5055
 8529SOL     OW37222   1.506   1.840   3.830 -0.4269 -0.1571 -0.2047
 8529SOL    HW137223   1.494   1.822   3.923  1.3379  1.3950  0.3107
 8529SOL    HW237224   1.573   1.775   3.811  0.4785 -0.0283  2.4872
 8530SOL     OW37225   3.923   0.734   7.571 -0.2196 -0.3227 -0.0339
 8530SOL    HW137226   3.843   0.769   7.610  1.1951  0.8068  1.8636
 8530SOL    HW237227   3.903   0.730   7.478  0.4820 -0.2871 -0.1935
 8531SOL     OW37228   1.015   2.514   2.308  0.1201 -0.1575  0.2104
 8531SOL    HW137229   0.953   2.527   2.235  0.5080  2.4811  0.3388
 8531SOL    HW237230   1.078   2.451   2.275  0.1565 -1.1982  2.2709
 8532SOL     OW37231   0.843   3.675   6.372  0.3209 -0.1121  0.5847
 8532SOL    HW137232   0.854   3.636   6.285  0.6132  0.9687  0.1353
 8532SOL    HW237233   0.766   3.726   6.347  1.0369 -0.3508 -2.1481
 8533SOL     OW37234   4.543   1.856   1.846 -0.0308  0.1614  0.0769
 8533SOL    HW137235   4.598   1.863   1.767 -0.4272  0.6397 -0.1601
 8533SOL    HW237236   4.565   1.933   1.899 -0.6777  0.4338 -0.0547
 8534SOL     OW37237   4.188   3.158  16.061  0.5566 -0.8899  0.1092
 8534SOL    HW137238   4.226   3.084  16.014 -0.1117 -2.3436  1.8692
 8534SOL    HW237239   4.095   3.137  16.068  0.3035 -0.3337 -1.5801
 8535SOL     OW37240   3.030   1.866   0.325  0.2327 -0.3453 -0.2558
 8535SOL    HW137241   2.995   1.951   0.298  1.3518  0.5131  0.9719
 8535SOL    HW237242   3.004   1.815   0.249  2.5415  0.0095 -1.2842
 8536SOL     OW37243   4.408   1.917   7.714 -0.2004  0.7175  0.3362
 8536SOL    HW137244   4.376   1.891   7.628 -3.0044  1.5942  1.0981
 8536SOL    HW237245   4.465   1.993   7.701  0.2615  0.3997  0.5014
 8537SOL     OW37246   2.518   3.577   7.847  0.5533 -0.0250 -0.6440
 8537SOL    HW137247   2.522   3.649   7.785 -0.9192  0.3795 -0.2630
 8537SOL    HW237248   2.519   3.504   7.785  2.7477 -0.9996  0.5263
 8538SOL     OW37249   2.513   1.140  16.304  0.2285  0.3132  0.0583
 8538SOL    HW137250   2.585   1.102  16.354 -0.4734  0.7141  1.3796
 8538SOL    HW237251   2.564   1.196  16.245  1.9320 -0.8422  0.4321
 8539SOL     OW37252   4.000   0.798   2.636  0.1078 -0.2269  0.0929
 8539SOL    HW137253   4.037   0.884   2.657  0.3460 -0.3661  0.2473
 8539SOL    HW237254   4.009   0.755   2.722  1.9843  0.9323  0.4817
 8540SOL     OW37255   0.347   2.090   7.757  0.1343 -0.0915 -0.5036
 8540SOL    HW137256   0.317   2.088   7.666 -0.6185  0.8196 -0.2724
 8540SOL    HW237257   0.427   2.141   7.745 -1.2694  2.5788  1.5486
 8541SOL     OW37258   0.243   1.124   5.396  0.0250  0.8086  0.1748
 8541SOL    HW137259   0.221   1.210   5.430 -2.7303 -0.4077  1.4657
 8541SOL    HW237260   0.156   1.085   5.387  0.2929 -0.0291  1.1595
 8542SOL     OW37261   3.963   3.733   8.375  0.0915  0.1448  0.9135
 8542SOL    HW137262   4.027   3.798   8.345  0.3109 -1.3151 -1.7506
 8542SOL    HW237263   3.993   3.716   8.465  1.0107 -0.1713  0.5460
 8543SOL     OW37264   2.546   0.739   3.451  0.0282  0.4075 -0.4309
 8543SOL    HW137265   2.474   0.681   3.424 -0.8053  1.7483 -1.0656
 8543SOL    HW237266   2.610   0.700   3.393  0.1954  0.9627 -0.6198
 8544SOL     OW37267   2.769   3.948  10.979 -0.0390 -0.2530  0.2469
 8544SOL    HW137268   2.730   3.987  10.901 -0.3451 -0.9204  0.0662
 8544SOL    HW237269   2.795   4.023  11.032 -1.6068 -0.6571  1.6102
 8545SOL     OW37270   2.069   2.308   9.715 -0.1297  0.3286 -0.1748
 8545SOL    HW137271   2.138   2.361   9.675  0.4939 -0.8550 -0.6642
 8545SOL    HW237272   2.001   2.354   9.666 -0.4964  0.8742  0.8353
 8546SOL     OW37273   2.536   0.579  14.603 -0.0331  1.3872  0.4216
 8546SOL    HW137274   2.587   0.500  14.624 -0.7175  1.0159  0.7025
 8546SOL    HW237275   2.568   0.627  14.527  1.7479  0.7820  0.7938
 8547SOL     OW37276   4.339   0.735  15.387 -0.2468 -0.0034  0.4417
 8547SOL    HW137277   4.423   0.777  15.405 -0.1357  0.5903 -1.4405
 8547SOL    HW237278   4.333   0.658  15.443 -1.3465 -1.1126 -1.1838
 8548SOL     OW37279   1.807   4.277   5.876 -0.0254 -0.5475 -0.0280
 8548SOL    HW137280   1.829   4.365   5.906 -0.8693 -0.4452  0.3151
 8548SOL    HW237281   1.774   4.241   5.959  1.6798 -1.3600  0.2991
 8549SOL     OW37282   2.321   2.862  14.832 -0.7802  0.5768  0.2173
 8549SOL    HW137283   2.360   2.879  14.918  0.9799  1.5582 -0.7575
 8549SOL    HW237284   2.341   2.768  14.826 -1.6032  0.4840 -1.0989
 8550SOL     OW37285   1.473   1.367  17.333 -0.6117 -0.2256  0.0164
 8550SOL    HW137286   1.561   1.344  17.363 -0.9468  0.1166  1.2861
 8550SOL    HW237287   1.430   1.326  17.408  1.6416 -1.0241  0.8725
 8551SOL     OW37288   0.465   2.046   3.560  0.6410 -0.0535 -0.0775
 8551SOL    HW137289   0.463   2.008   3.472 -1.9632  0.0291 -0.0563
 8551SOL    HW237290   0.557   2.072   3.565  0.3750  1.5863 -3.3965
 8552SOL     OW37291   3.267   0.487   4.726 -0.1658  0.2798 -0.5718
 8552SOL    HW137292   3.189   0.450   4.768  0.5548 -0.4666  0.1083
 8552SOL    HW237293   3.221   0.563   4.689 -1.0466  0.1227  0.1809
 8553SOL     OW37294   0.299   1.785   4.629 -0.3724  0.2921  0.4021
 8553SOL    HW137295   0.219   1.747   4.666 -0.9259 -0.2572 -1.3392
 8553SOL    HW237296   0.346   1.702   4.623 -1.6146 -0.4881  1.4507
 8554SOL     OW37297   3.046   1.192  14.415 -0.3467 -0.5780  0.7180
 8554SOL    HW137298   2.989   1.184  14.338 -1.0434  2.8208  0.8865
 8554SOL    HW237299   3.110   1.122  14.406 -0.8544 -0.9458 -0.0394
 8555SOL     OW37300   1.796   3.436  16.855 -0.2112 -0.4101 -0.3579
 8555SOL    HW137301   1.728   3.454  16.790 -0.9958 -1.1505  0.2481
 8555SOL    HW237302   1.832   3.371  16.796 -1.0336 -2.0816  0.9756
 8556SOL     OW37303   0.226   4.037   1.627  0.9323 -0.1644 -0.1386
 8556SOL    HW137304   0.255   3.949   1.600  0.8095 -0.0005 -0.8199
 8556SOL    HW237305   0.175   4.076   1.556  0.6175  1.4979  1.0057
 8557SOL     OW37306   3.609   3.782   5.004  0.4710  0.1039  0.5081
 8557SOL    HW137307   3.572   3.861   4.966  1.9853  0.3622 -0.4129
 8557SOL    HW237308   3.608   3.815   5.094 -1.3349 -0.0808  0.5606
 8558SOL     OW37309   3.029   4.636   3.847  0.0155 -0.7470  0.0869
 8558SOL    HW137310   3.097   4.635   3.780  0.3178 -1.0868  0.3995
 8558SOL    HW237311   2.974   4.711   3.823  0.4179 -0.3255  0.5029
 8559SOL     OW37312   4.088   4.665  16.575 -0.3705 -0.1613 -0.0791
 8559SOL    HW137313   4.139   4.661  16.494  0.1459  0.1572  0.2258
 8559SOL    HW237314   4.136   4.606  16.634  1.7386  1.8670  0.2327
 8560SOL     OW37315   0.455   0.913   6.238  0.5165 -0.0613  0.6952
 8560SOL    HW137316   0.539   0.924   6.283  0.5813 -1.8531  1.0208
 8560SOL    HW237317   0.399   0.929   6.314 -2.0582 -0.8049 -1.0691
 8561SOL     OW37318   3.068   4.531   6.292 -0.2150  0.3414  0.3269
 8561SOL    HW137319   3.092   4.624   6.288  2.0113 -0.2085  0.7291
 8561SOL    HW237320   3.103   4.502   6.376  1.2050 -0.2493 -0.4707
 8562SOL     OW37321   3.149   4.142   4.301  0.1491  0.0604 -0.0225
 8562SOL    HW137322   3.185   4.086   4.232  1.4176  1.8920 -0.8284
 8562SOL    HW237323   3.163   4.091   4.381  0.4415  2.0610  1.2048
 8563SOL     OW37324   0.539   2.899   2.540 -0.5994 -1.0461 -0.0711
 8563SOL    HW137325   0.539   2.986   2.580 -1.4138 -1.4555  0.8259
 8563SOL    HW237326   0.496   2.913   2.456 -0.0792 -3.8117 -0.8003
 8564SOL     OW37327   4.547   3.146   1.989  0.1174 -0.1527  0.2613
 8564SOL    HW137328   4.524   3.066   2.036 -0.7259 -0.9685 -1.5414
 8564SOL    HW237329   4.605   3.197   2.047 -0.1659 -0.9562  1.2552
 8565SOL     OW37330   3.095   0.585  15.051  0.2568  0.2252  0.0483
 8565SOL    HW137331   3.104   0.518  14.983  2.1353  0.8668 -0.3537
 8565SOL    HW237332   3.187   0.609  15.041  0.6296 -0.2379  2.3640
 8566SOL     OW37333   2.193   4.164   6.205  0.6175 -0.2786  0.4785
 8566SOL    HW137334   2.147   4.096   6.254 -1.7375  1.1870  0.3015
 8566SOL    HW237335   2.280   4.127   6.219  1.6100  1.7882 -0.0820
 8567SOL     OW37336   1.766   1.832   0.923 -0.3007  0.5085  0.9532
 8567SOL    HW137337   1.833   1.805   0.860 -0.1444 -1.9419  2.2072
 8567SOL    HW237338   1.755   1.753   0.975 -1.1389  0.5687  0.8794
 8568SOL     OW37339   0.003   3.168   5.998  0.3795  0.0968  0.1013
 8568SOL    HW137340   0.039   3.081   6.016  1.0615  0.3371 -0.1244
 8568SOL    HW237341   4.735   3.166   5.902  0.9812  1.6840  0.0371
 8569SOL     OW37342   1.405   2.900  17.274 -0.2469  0.0501  0.0537
 8569SOL    HW137343   1.314   2.893  17.304 -0.9909 -0.5913 -2.3943
 8569SOL    HW237344   1.425   2.977  17.327 -0.8113 -0.2682  0.7332
 8570SOL     OW37345   2.156   4.561   7.915  0.4605  0.0226 -0.0924
 8570SOL    HW137346   2.173   4.482   7.966 -1.5220  2.0862  3.7832
 8570SOL    HW237347   2.062   4.545   7.907  0.0815  2.0741  0.2392
 8571SOL     OW37348   1.258   1.487  13.827 -0.4466 -0.7840 -0.3009
 8571SOL    HW137349   1.312   1.562  13.803  0.5122 -1.0648  0.9736
 8571SOL    HW237350   1.210   1.453  13.751 -2.5885 -0.4162  0.8858
 8572SOL     OW37351   2.859   3.537   5.154 -0.2212 -0.2848  0.1566
 8572SOL    HW137352   2.896   3.587   5.226 -0.7135 -1.1844  1.0483
 8572SOL    HW237353   2.926   3.559   5.089 -1.0201  0.1661 -0.5219
 8573SOL     OW37354   3.000   0.945  15.252  0.0445 -0.1492 -0.1778
 8573SOL    HW137355   3.011   1.012  15.320  1.3778 -0.6837  0.1242
 8573SOL    HW237356   2.910   0.957  15.222 -0.3504  1.2070  1.5362
 8574SOL     OW37357   2.223   2.360   4.206 -0.4953  0.1187 -0.2445
 8574SOL    HW137358   2.214   2.415   4.284 -0.7798 -1.4213  0.8082
 8574SOL    HW237359   2.142   2.310   4.211 -1.3120  1.1931 -2.9706
 8575SOL     OW37360   1.446   3.636   3.866  0.6079 -0.0195  0.5359
 8575SOL    HW137361   1.522   3.601   3.911  0.7898  0.0159  0.2609
 8575SOL    HW237362   1.483   3.661   3.781 -1.3151  1.1565  0.0443
 8576SOL     OW37363   2.309   2.598   4.068 -0.2680  0.2446 -0.8965
 8576SOL    HW137364   2.277   2.507   4.075  0.6033  0.0918  1.1449
 8576SOL    HW237365   2.340   2.607   4.158  2.3179 -0.3233 -1.7206
 8577SOL     OW37366   4.687   0.160   3.463 -0.2278  0.0516  0.2498
 8577SOL    HW137367   0.030   0.146   3.413  0.5620  1.4783  1.1142
 8577SOL    HW237368   4.699   0.249   3.496  0.2267  0.7126 -1.6759
 8578SOL     OW37369   1.935   3.204   5.144  0.2670  0.0686 -0.6165
 8578SOL    HW137370   1.961   3.294   5.126  2.3909 -0.4942 -0.2974
 8578SOL    HW237371   1.845   3.215   5.177 -0.2299 -3.1370 -0.9046
 8579SOL     OW37372   3.414   1.896   4.463 -0.9599  0.4203 -0.3441
 8579SOL    HW137373   3.495   1.936   4.495 -2.3163  0.9677  2.3440
 8579SOL    HW237374   3.447   1.806   4.469  2.5511  1.5872 -1.8701
 8580SOL     OW37375   4.434   3.673   3.533  0.0012  0.2898  0.1392
 8580SOL    HW137376   4.376   3.683   3.609 -0.2162 -1.0173  0.1364
 8580SOL    HW237377   4.443   3.763   3.502  1.8214  1.0519  2.8975
 8581SOL     OW37378   4.022   1.514  16.914 -0.2104 -0.0401 -0.2193
 8581SOL    HW137379   4.070   1.499  16.833 -0.5675 -0.0470 -0.4265
 8581SOL    HW237380   4.022   1.424  16.948  0.4410  0.3548  0.8451
 8582SOL     OW37381   0.658   2.326  10.687 -0.0351 -0.9449  0.9810
 8582SOL    HW137382   0.627   2.415  10.672  0.9391 -0.7540  0.0924
 8582SOL    HW237383   0.734   2.353  10.737 -0.8777  2.0815  0.6285
 8583SOL     OW37384   0.424   3.283   5.413  0.7776 -0.8617 -0.1431
 8583SOL    HW137385   0.479   3.269   5.490  0.2295 -0.6597  0.2885
 8583SOL    HW237386   0.365   3.208   5.416 -0.3969  0.1356  2.1287
 8584SOL     OW37387   0.701   0.600   4.584 -0.1089 -0.0118 -0.9452
 8584SOL    HW137388   0.698   0.573   4.676  0.8011  3.1892  0.0055
 8584SOL    HW237389   0.795   0.594   4.563 -0.1983  2.9987 -2.1580
 8585SOL     OW37390   3.246   4.165  17.119  0.0126 -0.0138 -0.6930
 8585SOL    HW137391   3.241   4.071  17.135 -0.2194  0.1604  0.2435
 8585SOL    HW237392   3.191   4.165  17.041 -1.2010  3.3179  0.1704
 8586SOL     OW37393   1.134   3.010   6.934 -0.0779  0.4908  0.2832
 8586SOL    HW137394   1.182   3.093   6.942 -1.9300  1.7272 -1.6187
 8586SOL    HW237395   1.059   3.051   6.891 -0.3318  2.8242  2.9126
 8587SOL     OW37396   1.115   4.086   6.601  0.1701  0.5500  0.5905
 8587SOL    HW137397   1.158   4.111   6.519  0.3922 -0.8055  0.2879
 8587SOL    HW237398   1.167   4.007   6.618  0.4546  0.4912 -0.5653
 8588SOL     OW37399   2.765   3.205   2.273 -0.0992 -0.0194 -0.2145
 8588SOL    HW137400   2.770   3.297   2.297 -1.1774 -0.0046 -0.0764
 8588SOL    HW237401   2.722   3.211   2.188  0.6332  0.7167 -0.5275
 8589SOL     OW37402   1.759   0.147   1.170  0.7894 -0.3226  0.2787
 8589SOL    HW137403   1.804   0.182   1.247  1.1584  0.3457 -0.2396
 8589SOL    HW237404   1.688   0.097   1.210  1.3961 -1.2525  0.2167
 8590SOL     OW37405   4.136   3.277  13.784 -0.1484 -0.0013  0.5411
 8590SOL    HW137406   4.154   3.190  13.750 -0.5377 -1.4356  4.0573
 8590SOL    HW237407   4.094   3.259  13.868 -1.3739  1.7832  0.3210
 8591SOL     OW37408   1.118   3.794  12.630  0.2128 -0.3035 -1.3640
 8591SOL    HW137409   1.075   3.768  12.548 -2.0707  2.6669 -1.1110
 8591SOL    HW237410   1.043   3.847  12.657  0.7723  0.3907 -1.1928
 8592SOL     OW37411   4.300   2.337  12.777  0.1254 -0.5262 -0.2796
 8592SOL    HW137412   4.311   2.387  12.696  2.3874 -1.5377 -0.6047
 8592SOL    HW237413   4.260   2.406  12.830 -0.7479 -0.4701 -1.0202
 8593SOL     OW37414   0.226   4.116  14.943 -0.0682  0.1103  0.0327
 8593SOL    HW137415   0.172   4.076  14.875 -0.0284  0.7605 -0.3913
 8593SOL    HW237416   0.203   4.058  15.015  0.5337 -1.8858 -1.4021
 8594SOL     OW37417   3.711   0.761   3.537 -0.0223  0.3302 -0.3069
 8594SOL    HW137418   3.661   0.783   3.615  0.2667 -2.0490  0.5613
 8594SOL    HW237419   3.767   0.692   3.574 -1.1687 -0.2279  0.3812
 8595SOL     OW37420   2.775   0.639   6.255 -0.1694 -0.1734 -0.6302
 8595SOL    HW137421   2.800   0.726   6.223 -1.1657  0.1579 -0.5149
 8595SOL    HW237422   2.695   0.670   6.297  0.2142 -0.3266  0.2128
 8596SOL     OW37423   2.494   3.194   3.993 -0.0854 -0.3608  0.2939
 8596SOL    HW137424   2.524   3.209   3.904 -1.8543  1.1847 -0.0398
 8596SOL    HW237425   2.547   3.117   4.013 -0.3546 -0.0331  2.3066
 8597SOL     OW37426   3.619   1.535  13.019 -0.4142  0.2276 -0.4245
 8597SOL    HW137427   3.534   1.511  12.981 -0.8954  1.1380  0.1054
 8597SOL    HW237428   3.670   1.550  12.939  0.8584 -0.7787  0.1964
 8598SOL     OW37429   2.337   0.827  12.149 -0.4725 -0.3238 -0.5702
 8598SOL    HW137430   2.391   0.857  12.222 -2.1890  1.1327  0.0824
 8598SOL    HW237431   2.391   0.751  12.127 -1.3937 -1.2790  0.4657
 8599SOL     OW37432   3.365   1.644   9.367  0.0328  0.6783  0.2281
 8599SOL    HW137433   3.375   1.552   9.393 -2.4255  0.8864  1.8646
 8599SOL    HW237434   3.450   1.682   9.392  1.4649 -0.9869 -2.0701
 8600SOL     OW37435   0.454   0.187  11.502  0.2762  0.0805 -0.1814
 8600SOL    HW137436   0.464   0.144  11.417  0.1493 -2.8326  1.2842
 8600SOL    HW237437   0.390   0.127  11.540  0.4574  0.2978  0.4757
 8601SOL     OW37438   0.030   4.512  16.019 -0.0897 -0.0920  0.3470
 8601SOL    HW137439   0.031   4.517  15.924 -0.4220 -1.1326  0.2880
 8601SOL    HW237440   4.734   4.424  16.036 -1.2208  0.0333 -1.3025
 8602SOL     OW37441   1.565   3.852   7.949 -0.1904  0.4663  0.3850
 8602SOL    HW137442   1.637   3.789   7.947 -0.6957 -0.1172  0.1114
 8602SOL    HW237443   1.566   3.891   7.861 -2.8292  0.5033  0.3558
 8603SOL     OW37444   1.402   4.142   2.059 -0.1007  0.0742 -0.3094
 8603SOL    HW137445   1.409   4.149   1.964  0.6589  1.5533 -0.1522
 8603SOL    HW237446   1.464   4.070   2.070 -0.0309  0.4933  2.1520
 8604SOL     OW37447   0.351   2.534   7.980 -0.3860 -0.5557 -0.4156
 8604SOL    HW137448   0.350   2.534   7.884  0.3786  1.2433 -0.4098
 8604SOL    HW237449   0.382   2.623   7.995  1.8738 -1.7213  1.6842
 8605SOL     OW37450   0.529   3.173   7.279 -0.3803 -0.1990  0.8402
 8605SOL    HW137451   0.468   3.239   7.310  2.1257  1.9014  1.3082
 8605SOL    HW237452   0.557   3.131   7.361  1.0208  0.9510  0.9449
 8606SOL     OW37453   4.118   3.748   3.262  0.1655  0.2508  0.2922
 8606SOL    HW137454   4.189   3.800   3.224  0.3931 -0.2750  0.0024
 8606SOL    HW237455   4.044   3.774   3.206 -0.6736 -0.5333  1.0399
 8607SOL     OW37456   1.682   1.858   2.235  0.7071  0.2975  0.2572
 8607SOL    HW137457   1.764   1.825   2.273  1.4117  2.6742  0.8493
 8607SOL    HW237458   1.625   1.782   2.224  1.1161  0.1596 -0.8957
 8608SOL     OW37459   1.259   2.076   1.429 -0.3083 -0.5416  0.1109
 8608SOL    HW137460   1.317   2.137   1.474  1.0046  1.5874 -4.4961
 8608SOL    HW237461   1.322   2.037   1.367  1.6458  2.5223  0.1985
 8609SOL     OW37462   4.602   4.129   7.186 -0.7008  0.8659 -0.0084
 8609SOL    HW137463   4.685   4.145   7.230 -0.6078 -0.3402  0.2742
 8609SOL    HW237464   4.631   4.047   7.144 -2.0001  0.9373 -1.0468
 8610SOL     OW37465   2.863   0.917   6.273 -0.2890  0.0405  0.1605
 8610SOL    HW137466   2.814   0.894   6.352  1.6205  0.1154  1.3797
 8610SOL    HW237467   2.864   1.012   6.280 -0.9101  0.0232  0.4761
 8611SOL     OW37468   1.979   4.352   3.711  0.5168  0.1996  0.6048
 8611SOL    HW137469   2.042   4.322   3.647 -0.4365 -2.3764  0.8815
 8611SOL    HW237470   1.900   4.359   3.657  0.3402 -2.5978  0.5072
 8612SOL     OW37471   3.733   2.083  17.068 -0.2186  0.6971  0.1324
 8612SOL    HW137472   3.690   2.095  16.984 -0.4238 -1.7117 -0.1066
 8612SOL    HW237473   3.716   1.993  17.096  0.8316 -0.3273 -2.5102
 8613SOL     OW37474   2.082   1.482   8.037 -0.3129 -0.3225  0.0812
 8613SOL    HW137475   2.158   1.485   8.095 -1.6212  0.6450  1.7157
 8613SOL    HW237476   2.065   1.572   8.011  1.9387 -0.5678 -2.3433
 8614SOL     OW37477   3.149   2.268   9.366 -0.0997  0.3261 -0.3923
 8614SOL    HW137478   3.163   2.176   9.386  0.5412  0.8355  1.5443
 8614SOL    HW237479   3.203   2.291   9.291  0.3656  0.1271 -0.1218
 8615SOL     OW37480   0.283   4.114  12.970  0.1369  0.3821  0.1084
 8615SOL    HW137481   0.249   4.102  13.059  1.3971  1.6527  0.7488
 8615SOL    HW237482   0.374   4.141  12.982  0.2504 -0.3401  0.9372
 8616SOL     OW37483   4.638   0.091   6.314 -0.1408  0.2437 -0.2811
 8616SOL    HW137484   4.567   0.127   6.367  0.5293 -2.3888  2.3758
 8616SOL    HW237485   4.585   0.065   6.238 -1.0801 -1.7102  1.0342
 8617SOL     OW37486   2.864   4.462   9.553  0.1486 -0.2507 -0.4980
 8617SOL    HW137487   2.842   4.555   9.547  1.9593  0.3777  2.7991
 8617SOL    HW237488   2.956   4.461   9.578  0.2748 -0.7831 -0.9724
 8618SOL     OW37489   3.727   2.118   5.303 -0.2024  0.0569  0.2690
 8618SOL    HW137490   3.773   2.080   5.378 -1.6465 -0.6600  0.7747
 8618SOL    HW237491   3.794   2.182   5.277 -0.8718  1.5629  2.3209
 8619SOL     OW37492   1.510   1.305   8.641 -0.0676 -0.2337 -0.0972
 8619SOL    HW137493   1.425   1.315   8.683  0.0120 -0.9539  0.2364
 8619SOL    HW237494   1.495   1.379   8.583  0.9406 -0.7014 -0.9606
 8620SOL     OW37495   0.783   4.225   5.350 -0.4361  0.3296 -0.0930
 8620SOL    HW137496   0.735   4.297   5.392 -0.0552 -0.4034  1.5919
 8620SOL    HW237497   0.709   4.180   5.309  0.8935 -0.4722 -1.5765
 8621SOL     OW37498   1.762   2.935   4.449 -0.8748  0.1170  0.2290
 8621SOL    HW137499   1.702   2.945   4.375  0.5518 -0.3635 -0.9913
 8621SOL    HW237500   1.711   2.975   4.519 -0.4641 -0.3577  0.7993
 8622SOL     OW37501   2.831   0.405   0.926  0.0518  0.0589  0.0603
 8622SOL    HW137502   2.858   0.466   0.995  0.6651  1.4277 -1.3871
 8622SOL    HW237503   2.865   0.459   0.855  0.9771 -0.4521  0.1178
 8623SOL     OW37504   2.653   3.739   2.806  0.2005 -0.0914 -0.3123
 8623SOL    HW137505   2.704   3.703   2.879  1.3777  1.5304 -0.3179
 8623SOL    HW237506   2.607   3.663   2.772 -0.4529 -0.2664  0.9610
 8624SOL     OW37507   4.157   0.213   3.245 -0.0243  0.7236  0.1557
 8624SOL    HW137508   4.069   0.179   3.225  0.3004 -0.3861  0.6212
 8624SOL    HW237509   4.172   0.258   3.162  3.9512  1.5849  1.3821
 8625SOL     OW37510   2.448   2.560   2.701  0.7730 -0.5148  0.0127
 8625SOL    HW137511   2.377   2.556   2.764 -0.5977  2.0278 -1.3708
 8625SOL    HW237512   2.450   2.654   2.683 -2.0087 -0.5814 -0.6446
 8626SOL     OW37513   4.136   2.551   7.781  0.2669  0.0787  0.6322
 8626SOL    HW137514   4.148   2.646   7.778 -1.9348  0.3484  0.3983
 8626SOL    HW237515   4.049   2.542   7.741  0.2732  1.7233  0.2275
 8627SOL     OW37516   3.219   3.262   7.130  0.2477 -0.3238 -0.0699
 8627SOL    HW137517   3.149   3.206   7.163 -1.0123  0.6373 -1.0934
 8627SOL    HW237518   3.176   3.320   7.067 -0.7906 -2.5655 -1.4099
 8628SOL     OW37519   0.486   0.801   9.265  0.1120  0.9992  0.3379
 8628SOL    HW137520   0.576   0.833   9.273  0.3535  0.3844  0.1738
 8628SOL    HW237521   0.483   0.792   9.170 -0.9865 -0.1581  0.4776
 8629SOL     OW37522   2.466   0.301   1.483 -0.0968 -0.3987  0.2648
 8629SOL    HW137523   2.483   0.244   1.558 -0.7131 -0.7061  0.1731
 8629SOL    HW237524   2.399   0.243   1.445 -0.6555  0.1520  0.4146
 8630SOL     OW37525   2.361   0.772   7.155  0.0006  0.2174 -0.4118
 8630SOL    HW137526   2.364   0.676   7.163  0.3732  0.1830 -0.9275
 8630SOL    HW237527   2.302   0.773   7.079  0.4814 -2.0142 -0.8201
 8631SOL     OW37528   3.829   1.011  17.506 -0.2465  0.0791 -0.7320
 8631SOL    HW137529   3.800   0.962  17.582 -1.9139 -0.6777 -1.8612
 8631SOL    HW237530   3.846   1.093  17.552 -1.0648 -1.4059  2.1698
 8632SOL     OW37531   3.014   4.614   0.713 -0.1804 -0.5696  0.0811
 8632SOL    HW137532   2.982   4.689   0.663  0.1714  1.0269  2.2159
 8632SOL    HW237533   2.992   4.639   0.803  1.8954 -1.8867  0.9614
 8633SOL     OW37534   1.975   2.554   5.202 -0.2261 -0.3388  0.0422
 8633SOL    HW137535   1.891   2.570   5.159 -0.2351 -0.4017  0.0365
 8633SOL    HW237536   1.947   2.510   5.282 -2.3136 -0.9933 -1.0281
 8634SOL     OW37537   2.766   4.283   1.796 -0.1016  0.4754 -0.2424
 8634SOL    HW137538   2.853   4.305   1.829 -0.4956  0.6394  0.6878
 8634SOL    HW237539   2.800   4.207   1.749 -1.6976 -0.5787  0.3049
 8635SOL     OW37540   4.177   4.191   7.901 -0.1698 -0.5939 -0.1932
 8635SOL    HW137541   4.256   4.236   7.870 -0.3783  0.6420  1.0263
 8635SOL    HW237542   4.186   4.128   7.830  1.4273 -0.0721 -0.4506
 8636SOL     OW37543   3.351   1.915   6.397 -0.7013  0.5411  0.1707
 8636SOL    HW137544   3.438   1.918   6.437 -0.0014 -1.0572 -1.2268
 8636SOL    HW237545   3.297   1.987   6.430 -0.3978  0.1455  1.5241
 8637SOL     OW37546   3.017   3.412   6.666 -0.3639  0.2890 -0.1689
 8637SOL    HW137547   3.042   3.485   6.610  0.8057  0.6086  0.7770
 8637SOL    HW237548   3.014   3.339   6.604 -1.3853 -0.2754  0.5337
 8638SOL     OW37549   3.997   2.229  15.792 -0.3289  0.1673  0.1205
 8638SOL    HW137550   4.037   2.173  15.858 -0.1335 -0.0227 -0.1578
 8638SOL    HW237551   3.904   2.224  15.815 -0.3794  3.3005  0.6197
 8639SOL     OW37552   3.880   1.689   4.644  0.4145  1.0236  0.2038
 8639SOL    HW137553   3.853   1.723   4.730  0.6996  0.1801  0.6262
 8639SOL    HW237554   3.942   1.619   4.659 -1.6627 -0.6946  0.7917
 8640SOL     OW37555   4.431   0.404  14.450  0.0993 -0.2713 -0.0283
 8640SOL    HW137556   4.482   0.407  14.369  0.2705 -0.4757  0.0732
 8640SOL    HW237557   4.349   0.382  14.406  0.5609 -1.7309 -0.1562
 8641SOL     OW37558   4.096   1.367   0.616 -0.0011  0.2467 -0.1429
 8641SOL    HW137559   4.140   1.290   0.651  0.4658  0.8756  0.6769
 8641SOL    HW237560   4.005   1.338   0.611  0.0008 -0.1758  2.0791
 8642SOL     OW37561   2.382   0.622   1.454  0.0099  0.0512  0.4253
 8642SOL    HW137562   2.440   0.548   1.470 -0.1713 -0.0337  0.6942
 8642SOL    HW237563   2.397   0.632   1.360 -1.6202 -0.1602  0.1398
 8643SOL     OW37564   0.867   2.623   4.222  0.6519 -0.1975 -0.3299
 8643SOL    HW137565   0.931   2.564   4.185 -1.3965 -1.9306 -1.1237
 8643SOL    HW237566   0.805   2.643   4.151  0.7000  0.7070 -0.1284
 8644SOL     OW37567   1.270   0.701   5.697  0.4050  0.4098 -0.3601
 8644SOL    HW137568   1.286   0.790   5.728 -2.1059 -0.4535  3.3307
 8644SOL    HW237569   1.361   0.671   5.698  0.1067 -0.4891 -0.6035
 8645SOL     OW37570   4.367   3.855  16.191  0.5466  0.3640 -0.3002
 8645SOL    HW137571   4.321   3.854  16.275  2.2400  1.0917  0.6371
 8645SOL    HW237572   4.460   3.841  16.209  1.0304 -0.7033 -3.7599
 8646SOL     OW37573   4.505   2.751   3.494  0.2945  0.3446 -0.8885
 8646SOL    HW137574   4.593   2.745   3.458  0.6799  3.1395 -0.3978
 8646SOL    HW237575   4.469   2.831   3.455 -2.6025 -0.4556  0.1682
 8647SOL     OW37576   4.314   0.797   3.423  0.1327 -0.1191  0.3190
 8647SOL    HW137577   4.371   0.744   3.479 -0.8157 -0.0532  1.3497
 8647SOL    HW237578   4.230   0.766   3.458  0.0259 -2.2743 -1.8336
 8648SOL     OW37579   3.989   4.729  14.459 -0.0211  0.1249 -0.7173
 8648SOL    HW137580   4.026   4.736  14.371  3.4726 -1.1484  0.6527
 8648SOL    HW237581   4.002   4.635  14.471  1.5933  0.1329 -2.3750
 8649SOL     OW37582   2.227   1.425   4.968 -0.1105 -0.4826 -0.1951
 8649SOL    HW137583   2.259   1.515   4.977  0.8662 -0.9639  1.0985
 8649SOL    HW237584   2.139   1.432   5.005  0.0218  0.9185 -0.1459
 8650SOL     OW37585   3.810   1.411  17.398 -0.5046  0.0603  0.3948
 8650SOL    HW137586   3.845   1.498  17.378 -0.8185  0.3426  1.0738
 8650SOL    HW237587   3.869   1.353  17.350 -1.2996  1.0542 -1.7857
 8651SOL     OW37588   1.115   0.429   0.201 -0.1180  0.2743 -0.5190
 8651SOL    HW137589   1.108   0.481   0.280  1.9065  0.2655 -0.3238
 8651SOL    HW237590   1.028   0.440   0.163 -0.1592 -0.3747 -0.6276
 8652SOL     OW37591   2.485   2.416  15.142 -0.0224 -0.2214  0.4012
 8652SOL    HW137592   2.556   2.450  15.198  0.2800 -1.6725  0.8851
 8652SOL    HW237593   2.529   2.339  15.108  0.5118  0.5734 -0.7151
 8653SOL     OW37594   3.595   1.921   7.772  0.7504  0.0662  0.0079
 8653SOL    HW137595   3.657   1.940   7.843 -0.5075  0.8407  0.8898
 8653SOL    HW237596   3.528   1.989   7.775  1.8185  1.2825 -3.3210
 8654SOL     OW37597   0.390   1.432  10.053  0.3334 -0.6956 -0.0867
 8654SOL    HW137598   0.297   1.426  10.074  0.4849  1.4052  1.1744
 8654SOL    HW237599   0.429   1.387  10.128  1.8231 -0.5228 -0.7505
 8655SOL     OW37600   4.531   2.990   2.271  0.2746  0.1096 -0.3060
 8655SOL    HW137601   4.508   2.897   2.270  4.2332 -0.8711 -0.9965
 8655SOL    HW237602   4.442   3.019   2.253 -0.2119 -1.0617  0.1492
 8656SOL     OW37603   1.159   3.371  14.955  0.3183  0.1761 -0.1681
 8656SOL    HW137604   1.189   3.459  14.937 -1.4354  0.8666  0.2605
 8656SOL    HW237605   1.064   3.356  14.955  0.5227 -1.1653 -0.8969
 8657SOL     OW37606   2.682   0.716  14.368 -0.1856  0.1698 -0.2153
 8657SOL    HW137607   2.647   0.800  14.339 -0.5160  0.4424  0.9804
 8657SOL    HW237608   2.775   0.729  14.345  0.1318  0.0845  1.0259
 8658SOL     OW37609   0.265   1.859  10.196 -0.2215  0.1628 -0.0124
 8658SOL    HW137610   0.270   1.856  10.101 -0.2928  2.6508 -0.0939
 8658SOL    HW237611   0.340   1.807  10.223 -0.2306  1.7938  3.2143
 8659SOL     OW37612   1.663   0.032  14.661  0.2534 -0.0187 -0.2557
 8659SOL    HW137613   1.713   0.058  14.739  2.3155  1.3345 -2.0169
 8659SOL    HW237614   1.635   0.121  14.640  0.3318  0.3355  1.1598
 8660SOL     OW37615   2.059   2.620  12.056  0.2384  0.5009 -0.2587
 8660SOL    HW137616   2.025   2.543  12.009  1.0428 -0.3275  0.5223
 8660SOL    HW237617   2.119   2.663  11.995 -0.6479  0.2621 -1.3103
 8661SOL     OW37618   4.545   3.908  15.955  0.2387 -0.5498  0.3083
 8661SOL    HW137619   4.456   3.938  15.970  0.2060 -0.1065 -0.7346
 8661SOL    HW237620   4.566   3.861  16.036 -0.2824  1.0752  1.3881
 8662SOL     OW37621   0.822   1.049   5.691  0.0906 -0.0417 -0.4679
 8662SOL    HW137622   0.784   1.087   5.612  0.5627  1.6790  0.1266
 8662SOL    HW237623   0.744   1.050   5.747  0.7004  2.9608  0.3511
 8663SOL     OW37624   2.516   3.334   8.729 -0.0499 -0.2871 -0.3690
 8663SOL    HW137625   2.593   3.333   8.672  0.7422  0.8020  0.6679
 8663SOL    HW237626   2.511   3.244   8.761 -1.7518 -0.0374  0.0251
 8664SOL     OW37627   0.275   3.275   5.938  0.1649  0.2688  0.3229
 8664SOL    HW137628   0.215   3.285   5.864 -0.3985  0.3481  0.7883
 8664SOL    HW237629   0.262   3.362   5.977  2.2123  0.7580 -0.0983
 8665SOL     OW37630   2.634   4.420   2.379  1.2271 -0.0643  0.1110
 8665SOL    HW137631   2.653   4.327   2.388 -0.7060 -0.2712  1.9791
 8665SOL    HW237632   2.569   4.443   2.445  0.7813 -0.0398 -0.3337
 8666SOL     OW37633   1.947   4.324   0.490  0.7378 -0.7406  0.2573
 8666SOL    HW137634   1.951   4.251   0.428  0.4957 -2.7072  2.5768
 8666SOL    HW237635   1.957   4.396   0.427  2.0859 -0.3369  0.9412
 8667SOL     OW37636   3.879   4.044   6.195  0.4436 -0.9141  0.2028
 8667SOL    HW137637   3.904   3.953   6.209 -1.8630 -1.4778  0.6188
 8667SOL    HW237638   3.961   4.085   6.220  1.4505 -1.1961 -2.6163
 8668SOL     OW37639   0.804   3.001   4.489  0.3724 -0.2428  0.3002
 8668SOL    HW137640   0.780   3.086   4.526 -1.1067 -0.8386  0.7023
 8668SOL    HW237641   0.896   3.013   4.468 -0.4565  2.1060 -1.9597
 8669SOL     OW37642   4.309   3.184   5.775 -0.2378 -0.1339  0.1450
 8669SOL    HW137643   4.306   3.244   5.700  0.6579 -1.8016 -1.2345
 8669SOL    HW237644   4.356   3.243   5.834 -1.0390 -0.5074  1.1493
 8670SOL     OW37645   0.956   0.516   6.732  0.3460  0.1816  0.3323
 8670SOL    HW137646   0.983   0.607   6.719 -2.5644  0.7794 -1.4579
 8670SOL    HW237647   0.861   0.527   6.724  0.1572 -0.0561  2.1683
 8671SOL     OW37648   1.986   1.596  16.181 -0.0190 -0.0149  0.1848
 8671SOL    HW137649   2.042   1.673  16.175  2.7861 -1.8428  2.8466
 8671SOL    HW237650   1.961   1.600  16.274  0.5353 -2.1937  0.4304
 8672SOL     OW37651   0.775   3.939   6.758 -0.5005  0.2480  0.5703
 8672SOL    HW137652   0.837   4.006   6.786  0.0442  0.8054 -2.0641
 8672SOL    HW237653   0.738   3.965   6.674  2.3676  0.6374 -0.5531
 8673SOL     OW37654   3.956   3.597   6.744 -0.2141  0.4338  0.0036
 8673SOL    HW137655   3.973   3.660   6.813 -0.0408  0.5898 -0.1823
 8673SOL    HW237656   3.964   3.651   6.665  2.2283 -0.1675 -0.1606
 8674SOL     OW37657   1.041   2.662   6.740 -0.2136 -0.3417  0.0257
 8674SOL    HW137658   1.064   2.634   6.651  1.3768  1.6308 -0.1642
 8674SOL    HW237659   0.983   2.737   6.722  0.7374  0.1423 -0.9922
 8675SOL     OW37660   1.886   3.441   9.109 -0.4119 -0.5994 -0.0984
 8675SOL    HW137661   1.881   3.519   9.164  1.2724  0.0129 -0.8235
 8675SOL    HW237662   1.904   3.481   9.024 -3.5168  2.6582  0.7830
 8676SOL     OW37663   1.377   1.950   3.319 -0.7491  0.3628  0.3551
 8676SOL    HW137664   1.321   1.945   3.243  0.3945  1.1602 -0.5451
 8676SOL    HW237665   1.444   1.884   3.304  0.7300  1.7797  0.6583
 8677SOL     OW37666   1.480   2.257  17.366  0.3700  0.0119  0.0684
 8677SOL    HW137667   1.447   2.179  17.321  1.0223 -0.3844  0.2707
 8677SOL    HW237668   1.457   2.330  17.310 -0.1857 -0.5598 -0.4562
 8678SOL     OW37669   1.297   3.026   4.185  0.0999 -0.2210 -0.0161
 8678SOL    HW137670   1.268   3.050   4.097  0.0718  2.5770  0.7556
 8678SOL    HW237671   1.221   3.009   4.241  1.6142 -1.0961  1.7639
 8679SOL     OW37672   1.247   0.383   4.231  0.0154  0.1067  0.1217
 8679SOL    HW137673   1.208   0.447   4.171 -0.5638 -1.3812 -1.0980
 8679SOL    HW237674   1.221   0.422   4.315 -1.7888  0.1492 -0.4561
 8680SOL     OW37675   3.741   2.102   2.723 -0.0098 -0.2455  0.7578
 8680SOL    HW137676   3.728   2.009   2.742 -0.5248 -0.7281 -1.9757
 8680SOL    HW237677   3.817   2.105   2.664  0.2353 -0.2118  1.0716
 8681SOL     OW37678   3.252   2.412   5.700 -0.2038 -0.1708  0.2792
 8681SOL    HW137679   3.303   2.493   5.704  2.7646 -2.0759  0.4569
 8681SOL    HW237680   3.273   2.382   5.612  0.5534 -0.8350  0.6905
 8682SOL     OW37681   3.967   2.167   7.210 -0.3124  0.2918  0.1751
 8682SOL    HW137682   3.886   2.218   7.217 -0.6676 -0.2272 -0.1828
 8682SOL    HW237683   4.039   2.230   7.208 -0.9479  1.0122  0.0481
 8683SOL     OW37684   1.399   3.579   3.489  0.0218  0.4760 -0.3488
 8683SOL    HW137685   1.343   3.542   3.420  0.3833 -1.1988  0.2807
 8683SOL    HW237686   1.346   3.553   3.564  3.7004  1.8018  2.7208
 8684SOL     OW37687   3.972   1.194   9.394 -0.4765  0.4267 -0.0766
 8684SOL    HW137688   3.990   1.106   9.426  1.1028  1.4022  1.7996
 8684SOL    HW237689   3.975   1.243   9.477  0.1740  0.6115 -0.2012
 8685SOL     OW37690   1.674   0.968   6.643  0.3081  0.0254  0.0104
 8685SOL    HW137691   1.668   0.875   6.622 -0.5990 -0.3372  1.8796
 8685SOL    HW237692   1.636   1.010   6.565 -1.7857  1.3470  1.7574
 8686SOL     OW37693   2.294   2.179   8.103 -0.1425 -0.6239 -0.3379
 8686SOL    HW137694   2.359   2.249   8.105 -0.4916 -0.2836 -0.7814
 8686SOL    HW237695   2.217   2.218   8.062  1.1159  3.2692  1.0051
 8687SOL     OW37696   2.513   3.760  10.977 -0.3062 -0.2396 -0.2043
 8687SOL    HW137697   2.556   3.682  11.012  2.4554  0.2717 -2.5359
 8687SOL    HW237698   2.569   3.830  11.011 -2.2132  1.4865 -0.5807
 8688SOL     OW37699   0.520   1.913   6.967  0.0530 -0.0570 -0.4511
 8688SOL    HW137700   0.550   1.965   7.042  3.2783 -1.5154 -0.7368
 8688SOL    HW237701   0.591   1.852   6.947 -0.6264 -0.4921 -1.5082
 8689SOL     OW37702   3.583   2.258   9.483  0.3616 -0.0282 -0.6075
 8689SOL    HW137703   3.585   2.163   9.469  0.4075 -0.1015 -0.1127
 8689SOL    HW237704   3.570   2.263   9.578 -0.4386 -1.6764 -0.6290
 8690SOL     OW37705   0.326   4.233   0.026 -0.3752 -0.1211  0.3810
 8690SOL    HW137706   0.352   4.168  17.709 -0.4424 -0.6253  0.8657
 8690SOL    HW237707   0.392   4.300   0.007 -0.2669 -0.7122 -1.2657
 8691SOL     OW37708   1.049   3.432   3.462 -0.4951 -0.1967  0.5729
 8691SOL    HW137709   1.110   3.424   3.388  1.0459 -2.0554  2.0342
 8691SOL    HW237710   1.002   3.507   3.427  0.8833  0.4072  0.0411
 8692SOL     OW37711   3.332   3.317   1.789 -0.3261  0.0570 -0.5994
 8692SOL    HW137712   3.243   3.317   1.755 -0.4745  2.9124 -0.1984
 8692SOL    HW237713   3.347   3.225   1.811  0.6602  0.1732 -0.7850
 8693SOL     OW37714   4.112   1.114   3.966 -0.3396 -0.3900  0.0430
 8693SOL    HW137715   4.164   1.115   4.047 -2.2430  2.0499  1.2273
 8693SOL    HW237716   4.177   1.086   3.901  0.2299  0.2338  0.3377
 8694SOL     OW37717   4.398   0.162   6.464 -0.5234  0.2346 -0.0091
 8694SOL    HW137718   4.374   0.109   6.540 -2.2087 -2.0394 -2.1651
 8694SOL    HW237719   4.318   0.163   6.412 -0.2676 -0.5595 -0.4106
 8695SOL     OW37720   1.610   4.227   7.411 -0.3125  0.6631 -0.2136
 8695SOL    HW137721   1.559   4.270   7.342  0.7645  0.8671 -0.8764
 8695SOL    HW237722   1.549   4.183   7.470  1.6525  1.4238  2.4048
 8696SOL     OW37723   0.003   2.394  12.018 -0.0145 -0.1762 -1.1513
 8696SOL    HW137724   0.043   2.475  12.048 -0.2055 -0.4917 -0.0486
 8696SOL    HW237725   0.062   2.384  11.943 -1.6698  1.4300 -2.6482
 8697SOL     OW37726   1.193   4.603  16.720  0.6860  0.2300 -0.0055
 8697SOL    HW137727   1.236   4.689  16.714 -0.4806  0.6536 -2.0886
 8697SOL    HW237728   1.249   4.576  16.794 -0.3651 -0.5615  0.5067
 8698SOL     OW37729   1.272   0.448   5.924 -0.3460 -0.2927  0.4647
 8698SOL    HW137730   1.320   0.369   5.899  2.1082  1.6837 -1.0309
 8698SOL    HW237731   1.203   0.449   5.856 -0.1912 -0.1260  0.3102
 8699SOL     OW37732   3.548   3.367   8.659  0.0452 -0.5830  0.0769
 8699SOL    HW137733   3.462   3.338   8.629 -1.1107  0.6594  2.2009
 8699SOL    HW237734   3.527   3.448   8.705 -1.1061 -0.5498 -0.4934
 8700SOL     OW37735   2.855   3.958   1.276  0.2442 -0.1761 -0.1463
 8700SOL    HW137736   2.780   4.000   1.317  1.5303  1.7663  0.2026
 8700SOL    HW237737   2.812   3.889   1.226 -0.9382 -1.3060  2.4599
 8701SOL     OW37738   3.272   3.943   9.662 -0.3502 -1.1154  0.1272
 8701SOL    HW137739   3.236   4.018   9.710  1.3763  0.4546 -1.0164
 8701SOL    HW237740   3.190   3.905   9.628 -1.3504  1.0961  0.0713
 8702SOL     OW37741   4.363   4.321  15.151 -0.0857  0.3441  0.1111
 8702SOL    HW137742   4.400   4.360  15.072  1.9668  0.7567  1.2750
 8702SOL    HW237743   4.444   4.272  15.160 -0.9449 -1.5908 -2.6996
 8703SOL     OW37744   0.647   4.396   7.263  0.0058  0.4059 -0.4870
 8703SOL    HW137745   0.709   4.441   7.320 -0.4895 -1.8879  1.8506
 8703SOL    HW237746   0.598   4.341   7.324  0.0260 -1.1744 -1.8817
 8704SOL     OW37747   4.537   2.227   9.093 -0.4958  0.3659 -0.5846
 8704SOL    HW137748   4.612   2.222   9.152 -1.6041  1.5997  0.9107
 8704SOL    HW237749   4.476   2.245   9.165  0.4108  1.6924 -0.1517
 8705SOL     OW37750   2.325   1.165  16.536  0.4726 -0.0341 -0.4697
 8705SOL    HW137751   2.347   1.167  16.443  0.4173 -3.0292 -0.5166
 8705SOL    HW237752   2.322   1.260  16.554  1.9607 -0.5392  2.5337
 8706SOL     OW37753   2.423   0.138  11.452  0.1973 -0.1138  0.4383
 8706SOL    HW137754   2.484   0.211  11.462  0.0220 -0.2712  2.6456
 8706SOL    HW237755   2.371   0.146  11.532  0.5625 -2.0545  0.8621
 8707SOL     OW37756   1.928   2.111   9.223  0.7500  0.1856 -0.2699
 8707SOL    HW137757   1.916   2.074   9.310 -0.3202 -0.6806 -0.7785
 8707SOL    HW237758   1.836   2.133   9.211  0.8137 -0.1540 -1.4468
 8708SOL     OW37759   1.609   0.850   8.231 -0.5028  0.3459 -0.0739
 8708SOL    HW137760   1.603   0.939   8.264  3.7885  0.8035 -0.5357
 8708SOL    HW237761   1.690   0.858   8.180  0.7119 -1.4855  1.5274
 8709SOL     OW37762   1.242   4.705   3.601 -0.2332  0.2272 -0.0238
 8709SOL    HW137763   1.221   0.055   3.567 -1.0629  0.4442  1.0289
 8709SOL    HW237764   1.334   4.693   3.578 -0.7169  0.2118 -1.9272
 8710SOL     OW37765   4.105   0.165   7.735  0.1514 -0.4463  0.5307
 8710SOL    HW137766   4.022   0.148   7.689 -0.7702  0.0966  2.0030
 8710SOL    HW237767   4.092   0.260   7.733  1.5200 -0.2875 -0.8688
 8711SOL     OW37768   3.102   2.924   2.744  0.8604 -0.0040 -0.1407
 8711SOL    HW137769   3.011   2.925   2.776  1.1722  0.8059  0.7512
 8711SOL    HW237770   3.096   2.891   2.655  1.9598 -0.8798  0.1176
 8712SOL     OW37771   0.482   0.268   7.910  0.6291 -0.6459 -0.0163
 8712SOL    HW137772   0.397   0.228   7.926 -1.3039  3.4509 -0.1665
 8712SOL    HW237773   0.513   0.285   7.999  1.9767 -1.2121 -0.3760
 8713SOL     OW37774   0.134   4.159   9.036  0.0651  0.1717  0.5856
 8713SOL    HW137775   0.148   4.080   9.088  0.4527 -1.1935 -1.6343
 8713SOL    HW237776   0.054   4.125   8.995 -0.0185  1.0493  0.0184
 8714SOL     OW37777   4.427   3.381  17.075 -0.0190  0.3949 -0.6303
 8714SOL    HW137778   4.518   3.386  17.105  0.2413  1.1549 -1.5363
 8714SOL    HW237779   4.432   3.368  16.981 -0.8032  1.0891 -0.7776
 8715SOL     OW37780   2.019   3.144  16.791 -0.0336 -0.1208  0.6467
 8715SOL    HW137781   1.957   3.182  16.729  2.3893  1.3439 -0.8679
 8715SOL    HW237782   2.076   3.118  16.719 -1.6456  0.5098 -0.8530
 8716SOL     OW37783   1.559   0.784   2.585 -0.3734  0.0372  0.5800
 8716SOL    HW137784   1.569   0.691   2.604  0.9014  0.0247 -0.1522
 8716SOL    HW237785   1.476   0.787   2.537 -2.2992 -1.3406  3.8292
 8717SOL     OW37786   3.138   1.587   6.703 -0.1144  0.2753  0.4850
 8717SOL    HW137787   3.072   1.655   6.690 -0.8554 -1.1253 -3.0656
 8717SOL    HW237788   3.084   1.541   6.767 -0.7627  1.6211  0.9223
 8718SOL     OW37789   1.334   3.170   6.756 -0.3221 -0.0438  0.2420
 8718SOL    HW137790   1.285   3.188   6.676 -1.0543 -2.4564  0.1433
 8718SOL    HW237791   1.315   3.076   6.752 -1.4716  0.2143 -0.5055
 8719SOL     OW37792   3.543   4.299  11.195 -0.3233 -0.0092  0.8304
 8719SOL    HW137793   3.484   4.244  11.143 -0.9135  2.1332 -0.7517
 8719SOL    HW237794   3.550   4.372  11.134 -0.0233 -0.4032  0.3930
 8720SOL     OW37795   4.030   0.206   4.378 -0.3992  0.4331  0.3513
 8720SOL    HW137796   4.003   0.137   4.317  2.4954 -0.9478  0.6612
 8720SOL    HW237797   3.947   0.254   4.381 -0.6770 -0.0266  0.0672
 8721SOL     OW37798   0.571   3.236   5.134 -0.0658  0.0342 -0.2472
 8721SOL    HW137799   0.577   3.143   5.114 -0.0639  0.1512 -0.7839
 8721SOL    HW237800   0.587   3.236   5.228  0.9795 -0.7212 -0.4176
 8722SOL     OW37801   1.035   4.526   8.286 -0.3453 -0.0511 -0.1614
 8722SOL    HW137802   1.012   4.529   8.193  1.5469  0.4620 -0.5972
 8722SOL    HW237803   0.985   4.597   8.325  2.8252  2.2207 -0.2775
 8723SOL     OW37804   2.461   1.667   2.506 -0.0225  0.0013 -0.4056
 8723SOL    HW137805   2.521   1.683   2.579 -1.1100 -1.5245  0.8277
 8723SOL    HW237806   2.390   1.627   2.556 -0.9747  2.2622  0.0266
 8724SOL     OW37807   4.548   1.572  10.198 -0.2244  0.3872 -0.5869
 8724SOL    HW137808   4.565   1.601  10.288  0.9640  0.0073 -0.6926
 8724SOL    HW237809   4.465   1.525  10.210 -0.0500 -0.6846 -3.7644
 8725SOL     OW37810   2.002   2.250   1.111 -0.1572  0.0758  0.0492
 8725SOL    HW137811   1.986   2.246   1.205 -3.1676  0.9892 -0.4244
 8725SOL    HW237812   1.972   2.172   1.064 -1.0520  0.7328 -0.4716
 8726SOL     OW37813   1.088   3.127  10.386  0.7034  0.6712  0.2670
 8726SOL    HW137814   0.996   3.120  10.414  0.9421 -1.5472  0.5246
 8726SOL    HW237815   1.085   3.121  10.290 -1.0955 -0.5246  0.3891
 8727SOL     OW37816   4.249   1.381   2.267  0.2103 -0.4525  0.4358
 8727SOL    HW137817   4.177   1.422   2.316  0.1501  1.6391 -1.4080
 8727SOL    HW237818   4.234   1.439   2.192 -0.3705 -1.0454  0.0990
 8728SOL     OW37819   3.360   4.316   4.351  0.5398 -0.1512 -0.3007
 8728SOL    HW137820   3.284   4.265   4.323  1.3338 -1.4942 -0.0431
 8728SOL    HW237821   3.310   4.388   4.389  1.6340 -0.1789  1.2139
 8729SOL     OW37822   4.642   4.212   3.365  0.2380  0.3216 -0.2690
 8729SOL    HW137823   4.548   4.224   3.379  0.3818  3.5332 -1.9010
 8729SOL    HW237824   4.667   4.291   3.317 -1.3957  0.3686 -1.0254
 8730SOL     OW37825   1.453   2.604   3.289  0.4064 -0.0195  0.3007
 8730SOL    HW137826   1.482   2.688   3.255 -1.1305  0.4714  0.1737
 8730SOL    HW237827   1.358   2.617   3.285  0.2941 -0.3241  1.7179
 8731SOL     OW37828   3.614   4.232  15.126  0.1656 -0.7311  0.1102
 8731SOL    HW137829   3.697   4.277  15.144  0.4158 -0.9305 -0.5410
 8731SOL    HW237830   3.581   4.264  15.042  0.6798  2.1033  0.9883
 8732SOL     OW37831   0.927   2.643   5.001 -0.2023  0.0829  0.3819
 8732SOL    HW137832   0.952   2.690   5.080  0.0802  1.3931 -0.4856
 8732SOL    HW237833   0.866   2.581   5.041  0.9487 -3.2808 -3.1266
 8733SOL     OW37834   1.999   3.603  11.958  0.0586 -0.0115 -0.3000
 8733SOL    HW137835   1.964   3.689  11.981 -0.7085 -0.9162  1.9226
 8733SOL    HW237836   1.946   3.543  12.011  0.0538 -1.4247 -1.9276
 8734SOL     OW37837   2.253   2.030   0.833  0.1196  0.2611 -0.6304
 8734SOL    HW137838   2.240   2.074   0.917 -0.8556 -0.8686 -0.1921
 8734SOL    HW237839   2.305   2.090   0.779  1.2891 -0.1140  0.0651
 8735SOL     OW37840   4.387   2.814   5.946  0.3277 -0.1485 -0.2825
 8735SOL    HW137841   4.313   2.754   5.946 -1.5343  2.1324 -4.0920
 8735SOL    HW237842   4.374   2.860   6.030  1.3359 -0.4822  0.0480
 8736SOL     OW37843   4.624   0.291   8.163  0.6009  0.1956  0.6303
 8736SOL    HW137844   4.680   0.319   8.236  1.3389  0.9820 -0.2300
 8736SOL    HW237845   4.553   0.268   8.223  1.6600 -0.6854  1.5600
 8737SOL     OW37846   1.071   1.359   0.634 -0.1666 -0.0617 -0.4145
 8737SOL    HW137847   1.127   1.426   0.595  0.9021 -0.4801  0.3997
 8737SOL    HW237848   1.108   1.278   0.599 -1.4943 -0.4124 -1.0273
 8738SOL     OW37849   4.044   1.559   3.968 -0.1775  0.5741 -0.3202
 8738SOL    HW137850   3.968   1.506   3.993  0.0135 -0.1975 -1.3890
 8738SOL    HW237851   4.106   1.504   4.018  0.1502  0.1603 -1.1912
 8739SOL     OW37852   1.596   2.119   3.774  0.5396 -0.2106  0.2990
 8739SOL    HW137853   1.535   2.145   3.705 -0.1534 -2.7630 -0.0565
 8739SOL    HW237854   1.571   2.027   3.787 -0.1792 -0.1063 -0.3585
 8740SOL     OW37855   2.231   4.095   5.074 -0.8827  0.0673  0.4066
 8740SOL    HW137856   2.258   4.030   5.139 -0.5927  1.2236  1.4406
 8740SOL    HW237857   2.249   4.177   5.120  0.2768  0.5363 -0.9107
 8741SOL     OW37858   4.024   2.349   1.875 -0.1766  0.4013  0.4740
 8741SOL    HW137859   4.049   2.260   1.899  1.7514  1.2332  1.5062
 8741SOL    HW237860   4.097   2.383   1.824 -0.1177  1.9730  1.6362
 8742SOL     OW37861   0.798   2.537   5.454  0.5622 -0.8635 -0.3324
 8742SOL    HW137862   0.746   2.512   5.378 -0.7720  0.8073  0.0383
 8742SOL    HW237863   0.802   2.632   5.441  1.5734 -0.7073  1.0780
 8743SOL     OW37864   3.006   3.332   5.650 -0.4148  0.8081  0.0496
 8743SOL    HW137865   3.054   3.329   5.733  0.4680  1.2607 -0.4508
 8743SOL    HW237866   3.066   3.382   5.595 -0.1450  1.2258  0.7178
 8744SOL     OW37867   4.722   3.861   6.095 -0.1652  0.1729 -0.5526
 8744SOL    HW137868   4.725   3.776   6.051  1.6639  0.3614 -0.7782
 8744SOL    HW237869   0.025   3.840   6.179 -1.3682 -4.6293 -1.1900
 8745SOL     OW37870   0.544   2.487   7.284  0.2868  0.3070 -0.0809
 8745SOL    HW137871   0.543   2.583   7.277  0.1861  0.4134  1.4916
 8745SOL    HW237872   0.589   2.470   7.201 -0.0156 -1.0485  0.0396
 8746SOL     OW37873   1.097   0.384  14.399  0.1208 -0.0416 -0.2904
 8746SOL    HW137874   1.113   0.428  14.315  0.3368  1.0227  0.3115
 8746SOL    HW237875   1.023   0.437  14.429  0.5567 -0.3718  1.3141
 8747SOL     OW37876   4.155   3.432   3.709 -0.4413 -0.1602  0.2754
 8747SOL    HW137877   4.138   3.348   3.665 -0.2473 -0.0419 -0.0246
 8747SOL    HW237878   4.147   3.498   3.640  1.1392 -0.4127 -0.1570
 8748SOL     OW37879   1.516   3.830   7.323 -0.2149 -0.0282  0.2172
 8748SOL    HW137880   1.536   3.920   7.348 -0.9990  0.0168  0.6984
 8748SOL    HW237881   1.445   3.836   7.259 -0.6081  2.8188  0.9319
 8749SOL     OW37882   1.574   3.923   8.371  0.4596 -0.0314  0.1882
 8749SOL    HW137883   1.514   3.994   8.394 -0.0653 -0.5352  0.3546
 8749SOL    HW237884   1.564   3.872   8.451 -1.5446  1.5925  0.9518
 8750SOL     OW37885   3.257   4.106  15.619 -0.5564 -0.1270  0.0068
 8750SOL    HW137886   3.240   4.200  15.607 -2.9816 -0.5842 -0.0646
 8750SOL    HW237887   3.282   4.070  15.535 -0.9279 -2.0709  0.7362
 8751SOL     OW37888   0.519   2.631   3.237 -1.0770  0.0818 -0.4361
 8751SOL    HW137889   0.473   2.587   3.166 -2.6684  1.4278 -0.2357
 8751SOL    HW237890   0.467   2.616   3.316  0.3494  1.1697  0.7237
 8752SOL     OW37891   3.439   0.338   3.503  0.0369  0.6102  0.3450
 8752SOL    HW137892   3.517   0.350   3.448 -0.8552  2.2081 -0.5833
 8752SOL    HW237893   3.375   0.332   3.432 -0.5131 -0.8217  0.9837
 8753SOL     OW37894   4.239   2.835   9.228  0.0185 -0.2833 -0.6450
 8753SOL    HW137895   4.267   2.844   9.137  0.1333 -0.4836 -0.6294
 8753SOL    HW237896   4.323   2.825   9.273  0.1027  2.2233 -0.2741
 8754SOL     OW37897   4.705   4.471   6.220 -0.6780 -0.1651  0.2928
 8754SOL    HW137898   4.649   4.433   6.288  0.2159  0.1379  1.1999
 8754SOL    HW237899   0.031   4.516   6.277  0.6870 -1.5948 -0.0930
 8755SOL     OW37900   4.619   0.182   4.899 -0.2332  0.1322 -0.4456
 8755SOL    HW137901   4.570   0.257   4.866 -0.2113  0.2547 -0.1942
 8755SOL    HW237902   4.653   0.136   4.822 -0.7245 -0.2399 -0.4406
 8756SOL     OW37903   0.549   2.873  11.219 -0.1021 -0.2131 -0.5858
 8756SOL    HW137904   0.564   2.893  11.127  1.2431 -1.3724 -0.6180
 8756SOL    HW237905   0.501   2.790  11.215  0.0710 -0.2430 -1.9535
 8757SOL     OW37906   2.098   0.771   5.771  0.3086  0.8492 -0.2842
 8757SOL    HW137907   2.145   0.798   5.692  0.0173  1.1346 -0.3570
 8757SOL    HW237908   2.027   0.834   5.778  0.5849  1.2211 -0.8652
 8758SOL     OW37909   4.229   1.036  12.364 -0.0480  0.0216  0.7586
 8758SOL    HW137910   4.163   1.105  12.360  2.1187  2.0939  0.7544
 8758SOL    HW237911   4.255   1.033  12.272  1.6468  2.7180  1.1259
 8759SOL     OW37912   1.060   0.987   0.671  0.0311  1.2911 -0.5810
 8759SOL    HW137913   1.049   0.992   0.766  0.0419 -0.3400 -0.4938
 8759SOL    HW237914   0.990   1.049   0.653 -2.1781 -0.6053  1.5064
 8760SOL     OW37915   1.776   2.081  10.500  0.0395 -0.0999 -0.5030
 8760SOL    HW137916   1.867   2.109  10.511  0.3041 -1.0521 -0.3411
 8760SOL    HW237917   1.733   2.097  10.584  0.7849  1.7977 -0.4872
 8761SOL     OW37918   1.063   2.958   3.648  0.4621  0.2709  0.3587
 8761SOL    HW137919   1.118   2.904   3.592 -0.8421  1.7457 -2.3560
 8761SOL    HW237920   1.000   2.982   3.580  0.7190 -0.6022 -0.1860
 8762SOL     OW37921   1.590   1.575   6.387 -0.2597 -0.0634 -0.1990
 8762SOL    HW137922   1.566   1.668   6.383  0.8850  0.2115 -0.7374
 8762SOL    HW237923   1.679   1.585   6.354 -0.0364 -2.0478 -0.1509
 8763SOL     OW37924   2.915   4.532  14.042  0.4662 -0.5368 -0.1619
 8763SOL    HW137925   2.836   4.484  14.019 -0.1462  1.0105 -1.3614
 8763SOL    HW237926   2.979   4.462  14.057  0.3645 -0.4418  0.6898
 8764SOL     OW37927   3.711   0.999   3.822 -0.4515  0.4875  1.0386
 8764SOL    HW137928   3.769   1.044   3.761 -1.3211 -1.9371 -1.5934
 8764SOL    HW237929   3.627   1.003   3.778 -0.4057  0.1933  0.9255
 8765SOL     OW37930   1.325   1.895  16.691 -0.4240 -0.4848  0.6885
 8765SOL    HW137931   1.407   1.926  16.652 -2.2293  1.2563 -1.7116
 8765SOL    HW237932   1.328   1.930  16.781  0.9672  0.6466  0.2155
 8766SOL     OW37933   1.438   2.631   8.040 -0.2556  0.2684 -0.2373
 8766SOL    HW137934   1.426   2.580   7.960 -0.4530  1.2644 -0.8427
 8766SOL    HW237935   1.355   2.679   8.049 -1.1775 -1.3929  0.0298
 8767SOL     OW37936   1.343   4.518   2.554  0.3397 -0.1904  0.3293
 8767SOL    HW137937   1.283   4.472   2.495  0.7900 -0.3421 -0.0145
 8767SOL    HW237938   1.392   4.447   2.596 -0.8450 -2.2914 -1.8593
 8768SOL     OW37939   1.270   2.045   5.191 -0.1181 -0.5926 -0.8855
 8768SOL    HW137940   1.195   2.008   5.237 -0.9193 -0.7137 -2.3041
 8768SOL    HW237941   1.327   1.968   5.200 -0.6967 -1.0346 -1.0045
 8769SOL     OW37942   2.885   3.517   3.900  0.1223  0.2620 -0.1907
 8769SOL    HW137943   2.812   3.558   3.853 -0.1789  0.2502  0.2624
 8769SOL    HW237944   2.940   3.487   3.828  2.5853  0.6674  1.4982
 8770SOL     OW37945   3.439   2.589   6.683 -0.2499  0.4443 -0.0537
 8770SOL    HW137946   3.440   2.652   6.756  0.8995  2.8370 -2.1380
 8770SOL    HW237947   3.501   2.524   6.715 -0.6922 -0.1599 -0.4318
 8771SOL     OW37948   2.697   3.800   3.252 -0.0862  0.3894  0.6731
 8771SOL    HW137949   2.699   3.815   3.347  1.2232 -0.2282  0.7477
 8771SOL    HW237950   2.640   3.868   3.217  0.2014 -0.2641 -1.0596
 8772SOL     OW37951   1.955   4.255  11.232 -0.2527 -0.0072  0.6546
 8772SOL    HW137952   1.884   4.195  11.210 -0.8409  1.0084 -0.2733
 8772SOL    HW237953   1.922   4.303  11.308 -1.4690  1.0213 -0.5050
 8773SOL     OW37954   1.686   2.340  12.115  0.4778  0.1686 -0.2894
 8773SOL    HW137955   1.718   2.339  12.025 -0.6627  1.9514 -0.7212
 8773SOL    HW237956   1.634   2.261  12.131  1.1973 -0.2671 -0.1305
 8774SOL     OW37957   0.222   4.692   5.457  0.1270  0.3821 -0.1763
 8774SOL    HW137958   0.279   0.012   5.508 -0.2612  0.8729 -0.2913
 8774SOL    HW237959   0.202   0.010   5.382  2.6725  2.9538  1.0595
 8775SOL     OW37960   4.277   4.663   5.503 -0.2051 -0.0948  0.8008
 8775SOL    HW137961   4.286   4.571   5.479 -0.9764  0.3107 -1.0308
 8775SOL    HW237962   4.199   4.676   5.449 -0.1594  0.0034  0.7587
 8776SOL     OW37963   0.514   2.828   6.138  0.4547  0.6951 -0.3419
 8776SOL    HW137964   0.471   2.901   6.094 -0.0617 -0.0779 -1.1154
 8776SOL    HW237965   0.475   2.753   6.094  1.3012  0.7335 -1.1667
 8777SOL     OW37966   0.931   3.185   6.915  0.0893 -0.4597  0.0626
 8777SOL    HW137967   0.858   3.176   6.854 -1.6398  1.0948  1.9120
 8777SOL    HW237968   0.879   3.173   6.994 -0.1369  0.3863  0.0478
 8778SOL     OW37969   0.341   0.384   2.395 -0.1663  0.5269  0.3613
 8778SOL    HW137970   0.397   0.384   2.474  0.4072 -0.5707 -0.0419
 8778SOL    HW237971   0.412   0.409   2.335 -0.0337  0.3951  0.4614
 8779SOL     OW37972   3.334   2.517   4.628 -0.1490 -0.4682  0.1054
 8779SOL    HW137973   3.246   2.552   4.640  0.9804  2.7841 -1.0026
 8779SOL    HW237974   3.369   2.528   4.717  0.0347 -1.3077  0.1368
 8780SOL     OW37975   2.027   1.217   1.595  1.1557  0.1358 -0.1398
 8780SOL    HW137976   2.068   1.179   1.517 -2.5567  0.4662 -2.2493
 8780SOL    HW237977   2.056   1.308   1.591  2.3292 -0.1875  1.3932
 8781SOL     OW37978   4.144   1.538  11.432 -0.4687 -0.3207 -0.4367
 8781SOL    HW137979   4.220   1.586  11.467 -0.3826 -1.0967  0.4380
 8781SOL    HW237980   4.100   1.612  11.391 -2.9293 -1.2915  0.4946
 8782SOL     OW37981   2.663   1.749   3.741  0.4641 -0.7142  0.0495
 8782SOL    HW137982   2.570   1.748   3.763  0.4760 -3.3528 -0.1147
 8782SOL    HW237983   2.669   1.667   3.693 -0.3805 -2.4076  2.8907
 8783SOL     OW37984   4.523   4.711  12.019  0.1453 -0.9982 -0.1529
 8783SOL    HW137985   4.585   4.666  12.078 -1.1118  0.5711  2.3801
 8783SOL    HW237986   4.547   4.665  11.939  1.5036 -1.4441  0.5030
 8784SOL     OW37987   1.871   3.864   7.175 -0.0097  0.9071  0.1789
 8784SOL    HW137988   1.910   3.940   7.131  0.2101  0.3555 -0.5953
 8784SOL    HW237989   1.787   3.844   7.133  1.2365 -1.1315 -1.3709
 8785SOL     OW37990   0.489   0.726   4.474  1.0198  0.2723 -0.2432
 8785SOL    HW137991   0.560   0.773   4.430  2.1931  0.6897  2.1393
 8785SOL    HW237992   0.535   0.676   4.541 -0.5257 -1.0086 -0.1185
 8786SOL     OW37993   4.139   4.657   6.472 -0.6357  0.1552  0.1487
 8786SOL    HW137994   4.124   4.664   6.566  0.3400 -1.0615  0.4021
 8786SOL    HW237995   4.120   0.008   6.440 -0.9970 -0.0876 -0.3173
 8787SOL     OW37996   3.051   3.142  11.001 -0.1702  0.0421 -0.3287
 8787SOL    HW137997   3.138   3.166  10.970 -0.0259 -2.0231 -1.5098
 8787SOL    HW237998   3.000   3.222  11.010  0.7540  0.6016 -0.1304
 8788SOL     OW37999   3.989   3.209  17.008  0.0747 -0.4622 -0.1231
 8788SOL    HW138000   4.025   3.125  16.981 -1.0293 -0.4122 -1.7385
 8788SOL    HW238001   4.028   3.230  17.093  2.4786 -0.5573 -1.2320
 8789SOL     OW38002   1.426   0.186  14.877 -0.6587  0.0262 -0.7060
 8789SOL    HW138003   1.381   0.179  14.792 -0.9515 -2.1708 -0.3510
 8789SOL    HW238004   1.515   0.218  14.861 -1.6996  3.5036  0.5335
 8790SOL     OW38005   1.036   0.978   2.415  0.4535 -0.3111 -0.0104
 8790SOL    HW138006   1.100   0.947   2.351 -0.1066 -0.2836 -0.5866
 8790SOL    HW238007   1.054   0.908   2.477  0.3627 -0.1401  0.2098
 8791SOL     OW38008   3.290   4.364   3.652 -0.2578 -0.2549  0.4292
 8791SOL    HW138009   3.210   4.317   3.672 -0.2720 -0.1148  0.6955
 8791SOL    HW238010   3.253   4.453   3.652 -1.7453 -0.8753 -1.3941
 8792SOL     OW38011   3.048   2.730   4.154  0.1675 -0.5231 -0.6872
 8792SOL    HW138012   3.050   2.713   4.060 -0.3094 -2.6562 -0.3192
 8792SOL    HW238013   3.022   2.646   4.193 -0.0447 -1.3629 -2.6422
 8793SOL     OW38014   2.252   3.602  11.166  0.2931 -0.1628  0.0960
 8793SOL    HW138015   2.257   3.652  11.085  2.2685 -1.8476 -0.8392
 8793SOL    HW238016   2.337   3.559  11.174  1.1727  1.4991 -0.3970
 8794SOL     OW38017   1.732   2.038   5.997  0.2773  0.4171  0.3362
 8794SOL    HW138018   1.673   2.014   5.926 -1.9916 -0.2036  2.4145
 8794SOL    HW238019   1.670   2.047   6.070  0.3127  2.8430  0.0474
 8795SOL     OW38020   1.766   1.512   9.562 -0.3691 -0.2947 -0.4059
 8795SOL    HW138021   1.805   1.555   9.486  3.3474 -0.9604  1.1043
 8795SOL    HW238022   1.848   1.502   9.610 -0.9819  1.1370  0.9173
 8796SOL     OW38023   0.786   3.449   1.986  0.3958 -0.7331 -0.4192
 8796SOL    HW138024   0.734   3.428   1.908 -1.3307 -0.8408  0.7617
 8796SOL    HW238025   0.769   3.372   2.040  1.3206 -0.0990  0.7573
 8797SOL     OW38026   2.242   4.608  12.867  0.5962 -0.4510  0.1370
 8797SOL    HW138027   2.178   4.664  12.911  0.3871 -0.7188  0.1772
 8797SOL    HW238028   2.299   4.677  12.833 -1.5109  1.2376  0.0146
 8798SOL     OW38029   1.549   4.534   7.607  0.1778 -0.6769 -0.5082
 8798SOL    HW138030   1.637   4.503   7.588  1.0256  0.0648  2.2491
 8798SOL    HW238031   1.500   4.452   7.608  1.0026 -1.1554  0.0759
 8799SOL     OW38032   1.195   2.599   1.699  0.5178 -0.7561  0.2751
 8799SOL    HW138033   1.273   2.604   1.643  0.7387 -1.9913  0.4891
 8799SOL    HW238034   1.159   2.515   1.670 -1.0816 -0.1841  0.6370
 8800SOL     OW38035   4.061   0.472   7.269  0.2905  0.7081  0.6430
 8800SOL    HW138036   4.041   0.387   7.309  1.6721 -0.7668 -1.7797
 8800SOL    HW238037   4.152   0.489   7.294  0.0221  1.1230  1.3622
 8801SOL     OW38038   1.062   2.932   4.455 -0.4646  0.2646  0.4338
 8801SOL    HW138039   1.085   2.853   4.504 -0.8963 -0.4923 -0.5854
 8801SOL    HW238040   1.075   2.907   4.363  1.9202  1.5842  0.4110
 8802SOL     OW38041   2.327   1.765   9.610 -0.2190  0.5689  0.2148
 8802SOL    HW138042   2.355   1.850   9.578 -1.8586  1.6539  1.6621
 8802SOL    HW238043   2.349   1.765   9.703  1.6943 -0.0874 -0.2161
 8803SOL     OW38044   1.691   0.306   7.360 -0.5796  0.3397  0.4396
 8803SOL    HW138045   1.744   0.226   7.366 -1.1647 -0.1053 -0.4819
 8803SOL    HW238046   1.633   0.274   7.292  1.1700  0.1335 -0.9614
 8804SOL     OW38047   2.285   1.446  16.954  0.1923  0.2121 -0.0918
 8804SOL    HW138048   2.277   1.541  16.965 -0.7988  0.2502 -1.1453
 8804SOL    HW238049   2.273   1.425  16.861 -1.3357 -0.6700  0.3121
 8805SOL     OW38050   0.700   3.517   3.538 -0.2886  0.0515 -0.4751
 8805SOL    HW138051   0.715   3.492   3.447 -1.3710  0.2410 -0.7050
 8805SOL    HW238052   0.747   3.600   3.540  3.6086 -2.0811 -2.2016
 8806SOL     OW38053   0.474   0.984   8.784 -0.2379 -0.3270  0.1275
 8806SOL    HW138054   0.426   1.051   8.832  0.6700 -0.2346  0.8997
 8806SOL    HW238055   0.409   0.915   8.772  0.2550 -0.8837  0.6530
 8807SOL     OW38056   3.215   0.733   4.615  0.1605  0.3208 -0.4791
 8807SOL    HW138057   3.259   0.748   4.531 -0.0215 -0.3760 -0.6983
 8807SOL    HW238058   3.129   0.770   4.592 -0.2638 -0.9704 -0.9561
 8808SOL     OW38059   1.865   2.628   8.900  0.1029 -0.8370  0.4593
 8808SOL    HW138060   1.954   2.624   8.934  0.4582 -0.6769 -0.4780
 8808SOL    HW238061   1.815   2.679   8.964  1.6026  1.1399  0.0645
 8809SOL     OW38062   4.278   1.026   8.176  0.1695  0.1713 -0.5287
 8809SOL    HW138063   4.372   1.013   8.186  0.5642  2.3353 -1.3554
 8809SOL    HW238064   4.251   0.988   8.259  0.5439  0.9165 -0.0633
 8810SOL     OW38065   1.927   3.531   5.220 -0.1232 -0.2851 -0.0026
 8810SOL    HW138066   1.901   3.547   5.311  1.1322 -1.5421  0.5889
 8810SOL    HW238067   1.981   3.609   5.208 -0.1396 -0.5726 -1.9449
 8811SOL     OW38068   2.817   4.151  17.046  0.4657 -0.4776 -0.1662
 8811SOL    HW138069   2.876   4.132  16.973  2.9861  1.0560  1.4649
 8811SOL    HW238070   2.733   4.163  17.002 -0.0671  0.0601  0.9999
 8812SOL     OW38071   0.733   1.187  16.836 -0.4318  0.6189 -0.3334
 8812SOL    HW138072   0.741   1.094  16.858 -0.4868  1.2724  2.4944
 8812SOL    HW238073   0.651   1.192  16.788 -0.8930 -2.2598  0.1748
 8813SOL     OW38074   1.837   4.106  10.869  0.2468  0.0920  0.3863
 8813SOL    HW138075   1.854   4.173  10.802  0.0397 -0.3830 -0.1467
 8813SOL    HW238076   1.784   4.156  10.931 -0.1610  0.0873  0.0395
 8814SOL     OW38077   4.006   2.487   6.004 -0.3452 -0.0912  0.2161
 8814SOL    HW138078   4.084   2.447   6.043  0.4273  0.5004 -0.7182
 8814SOL    HW238079   3.974   2.547   6.071 -0.5905  0.1094 -0.0806
 8815SOL     OW38080   4.440   4.100   0.393  0.4455  0.3376  0.1625
 8815SOL    HW138081   4.457   4.087   0.486  0.1476 -2.0079 -0.1072
 8815SOL    HW238082   4.398   4.186   0.398  2.5577  1.4439 -1.2441
 8816SOL     OW38083   2.059   3.857  11.325 -0.4722 -0.6555 -0.0769
 8816SOL    HW138084   2.027   3.817  11.244  1.3670 -0.9242 -0.6813
 8816SOL    HW238085   2.138   3.905  11.300 -1.4895  1.1154  0.1403
 8817SOL     OW38086   0.575   2.045   7.193 -0.2518  0.3617  0.2887
 8817SOL    HW138087   0.535   2.107   7.254 -2.4989  0.3109 -1.0929
 8817SOL    HW238088   0.664   2.068   7.217  0.5069 -1.6048 -0.6465
 8818SOL     OW38089   1.850   2.023   7.083  0.1494 -0.5883  0.8947
 8818SOL    HW138090   1.761   2.002   7.053 -0.9802  2.0855  2.4259
 8818SOL    HW238091   1.881   1.934   7.102 -0.1842 -0.5657  1.5413
 8819SOL     OW38092   2.228   3.915  12.532 -0.0763  0.2090 -0.2716
 8819SOL    HW138093   2.317   3.951  12.528  0.0896 -0.0633  0.7910
 8819SOL    HW238094   2.242   3.842  12.593  1.5387  1.5415  0.9740
 8820SOL     OW38095   3.406   0.961   8.513  0.0438  0.0094 -0.1522
 8820SOL    HW138096   3.410   1.055   8.493 -0.9739  0.5335  2.1464
 8820SOL    HW238097   3.357   0.936   8.434 -0.1695 -4.4951  1.4300
 8821SOL     OW38098   2.375   4.326   1.794 -0.4993 -0.1678 -0.4739
 8821SOL    HW138099   2.366   4.410   1.839 -1.8563 -0.1823 -0.7151
 8821SOL    HW238100   2.407   4.270   1.864  1.8730  0.9579 -0.6456
 8822SOL     OW38101   3.974   0.826   8.963  0.5810  0.2210  0.0300
 8822SOL    HW138102   3.883   0.806   8.983  0.9930 -0.1961  1.4701
 8822SOL    HW238103   3.988   0.762   8.893  0.4485 -0.3795  0.5583
 8823SOL     OW38104   0.951   4.628   4.868 -0.8930 -0.1474  0.3150
 8823SOL    HW138105   0.892   4.700   4.846 -1.1146 -0.7905 -1.1958
 8823SOL    HW238106   1.035   4.655   4.829 -0.7571 -1.1463 -0.0677
 8824SOL     OW38107   2.876   0.644   5.915  0.1287 -0.0129 -0.0695
 8824SOL    HW138108   2.810   0.703   5.878  0.6109  1.8096  1.9631
 8824SOL    HW238109   2.885   0.592   5.836 -1.2137 -0.7089  0.2234
 8825SOL     OW38110   1.617   2.648   9.342 -0.1049  0.3416  0.1064
 8825SOL    HW138111   1.701   2.611   9.315 -0.6723  0.1839 -1.4514
 8825SOL    HW238112   1.629   2.641   9.437 -1.6237  1.9221  0.4214
 8826SOL     OW38113   2.972   2.281   3.148 -0.1351 -0.4206  0.1787
 8826SOL    HW138114   2.969   2.318   3.060  2.4551  0.1137  0.3226
 8826SOL    HW238115   3.066   2.269   3.158 -0.1089 -1.0659 -0.8543
 8827SOL     OW38116   3.449   3.717   1.676  0.0134  0.1710  0.3654
 8827SOL    HW138117   3.435   3.660   1.752  0.4435  0.6151  0.7717
 8827SOL    HW238118   3.420   3.663   1.602 -0.3178  2.9544 -1.5322
 8828SOL     OW38119   3.187   0.432   8.703 -0.5749  0.4157 -0.4304
 8828SOL    HW138120   3.255   0.376   8.739 -1.7641  0.4086  1.7810
 8828SOL    HW238121   3.149   0.371   8.639 -2.9993 -0.3488  1.7131
 8829SOL     OW38122   0.530   1.835  14.631  0.3692  0.0257 -0.1735
 8829SOL    HW138123   0.575   1.801  14.708 -2.0118 -1.2590  0.6569
 8829SOL    HW238124   0.555   1.774  14.561  0.3745  1.0911 -1.1045
 8830SOL     OW38125   4.081   0.193   5.453 -0.2024 -0.3098 -0.1738
 8830SOL    HW138126   4.131   0.263   5.411  0.8298 -1.6027 -1.1175
 8830SOL    HW238127   4.145   0.151   5.511 -2.1129 -0.1501  2.0384
 8831SOL     OW38128   1.225   1.363   4.330 -0.2544 -0.6409 -0.4004
 8831SOL    HW138129   1.283   1.438   4.338  0.9009 -1.3990 -1.6347
 8831SOL    HW238130   1.169   1.371   4.407  1.8385 -2.3689  1.2709
 8832SOL     OW38131   1.951   3.333  12.114 -0.3425 -1.1542 -0.1522
 8832SOL    HW138132   1.976   3.246  12.083  1.5028 -1.5356  2.4493
 8832SOL    HW238133   1.856   3.329  12.105 -0.2794  0.0052 -1.3598
 8833SOL     OW38134   1.480   0.440   2.856  0.3092 -0.4783 -0.1900
 8833SOL    HW138135   1.388   0.462   2.837  0.7467 -0.5449 -2.4040
 8833SOL    HW238136   1.471   0.347   2.836  0.5393 -0.6143  0.3377
 8834SOL     OW38137   4.104   1.964   3.730 -0.1075  0.5194  0.2268
 8834SOL    HW138138   4.103   1.975   3.825 -1.1476 -0.4021  0.3192
 8834SOL    HW238139   4.076   1.873   3.725  0.5630  0.3304 -0.0684
 8835SOL     OW38140   0.851   2.451   3.750 -0.2298 -0.6422  0.1650
 8835SOL    HW138141   0.779   2.397   3.718  0.8035 -1.6090 -0.5617
 8835SOL    HW238142   0.866   2.392   3.823  0.9950  0.6704  0.9734
 8836SOL     OW38143   4.373   3.432   0.127  0.1839 -0.2997 -0.0685
 8836SOL    HW138144   4.311   3.363   0.150 -2.2743  1.4640 -1.3515
 8836SOL    HW238145   4.312   3.493   0.085  2.5316  1.7649 -0.4449
 8837SOL     OW38146   0.318   2.971   4.991  0.2483  0.4441 -0.1661
 8837SOL    HW138147   0.405   2.976   5.030 -0.2445  0.4100  0.9299
 8837SOL    HW238148   0.275   2.899   5.038 -0.2516  2.2056  2.0873
 8838SOL     OW38149   0.679   2.084   7.914  0.0413 -0.7694 -0.1936
 8838SOL    HW138150   0.599   2.043   7.948  0.2891 -1.7709 -0.8159
 8838SOL    HW238151   0.646   2.138   7.842  0.8526 -0.0683 -0.0348
 8839SOL     OW38152   4.636   3.458   0.196  0.6807  0.1842 -0.1684
 8839SOL    HW138153   4.623   3.411   0.279  1.5121 -1.2031 -0.8440
 8839SOL    HW238154   4.547   3.443   0.164  1.5556 -1.4869 -1.7694
 8840SOL     OW38155   0.189   3.526   3.546 -0.8013 -0.1267  0.0416
 8840SOL    HW138156   0.173   3.576   3.466 -3.1450  0.3295  0.7907
 8840SOL    HW238157   0.282   3.547   3.554 -0.6727 -0.5935 -0.2106
 8841SOL     OW38158   2.640   2.077   1.175 -0.6633  0.0495 -0.4308
 8841SOL    HW138159   2.672   2.041   1.092  1.2630  0.4586  0.1554
 8841SOL    HW238160   2.616   2.167   1.154  2.0696  0.9695  0.4137
 8842SOL     OW38161   3.175   2.483   6.925  0.2828  0.1647 -0.0959
 8842SOL    HW138162   3.083   2.484   6.954  0.2704  1.9252 -0.2066
 8842SOL    HW238163   3.220   2.526   6.997  0.0199 -0.1066  0.2312
 8843SOL     OW38164   2.446   0.820   0.155 -0.0517 -0.1798 -0.3937
 8843SOL    HW138165   2.506   0.858   0.091  1.8830 -1.5595  0.5945
 8843SOL    HW238166   2.408   0.742   0.115  2.0080 -1.3721 -0.0595
 8844SOL     OW38167   1.067   4.453   7.048 -0.2560 -0.5447 -0.0026
 8844SOL    HW138168   1.076   4.538   7.091  0.7108 -0.1172 -1.0505
 8844SOL    HW238169   0.972   4.448   7.036 -0.2255  0.1681 -0.5686
 8845SOL     OW38170   1.565   0.285   2.288 -1.1613  0.0066 -0.0482
 8845SOL    HW138171   1.530   0.213   2.341 -0.7715 -0.2487 -0.1299
 8845SOL    HW238172   1.603   0.235   2.215 -0.1189  0.7690 -0.0236
 8846SOL     OW38173   2.416   2.266   2.488 -0.1226  0.5782 -0.1942
 8846SOL    HW138174   2.395   2.305   2.573 -0.9930  0.5607 -0.4031
 8846SOL    HW238175   2.329   2.279   2.450  0.2184 -0.1219 -1.2098
 8847SOL     OW38176   1.653   3.552   2.447 -0.0142  0.2964  0.1993
 8847SOL    HW138177   1.638   3.616   2.377  1.5214  0.1880 -0.2260
 8847SOL    HW238178   1.710   3.606   2.502 -0.8672  0.3149  1.0626
 8848SOL     OW38179   1.320   0.018   2.653 -0.3670  0.7194  1.0730
 8848SOL    HW138180   1.315   4.670   2.608  2.0763  0.2883  1.6374
 8848SOL    HW238181   1.370   0.056   2.581 -0.2670  0.9521  1.2638
 8849SOL     OW38182   4.427   4.521   1.065 -0.4072 -0.8848 -0.1590
 8849SOL    HW138183   4.432   4.433   1.102  3.5833 -0.0816  1.2531
 8849SOL    HW238184   4.465   4.502   0.979  0.9519  3.8848 -0.6570
 8850SOL     OW38185   3.869   2.575  15.972 -0.0111 -0.5619  0.1851
 8850SOL    HW138186   3.949   2.565  16.024  0.2434 -0.6669 -0.2301
 8850SOL    HW238187   3.830   2.488  15.985  0.4892 -0.6152  1.3421
 8851SOL     OW38188   3.096   2.190   5.729  0.1549 -0.1916  0.1665
 8851SOL    HW138189   3.138   2.277   5.731  0.6824 -0.4925  3.0892
 8851SOL    HW238190   3.047   2.195   5.811 -1.0452  0.6598 -0.6035
 8852SOL     OW38191   0.677   1.160   1.638 -0.3580 -0.4272  0.2169
 8852SOL    HW138192   0.728   1.082   1.660 -0.7690 -0.5780  0.6525
 8852SOL    HW238193   0.719   1.221   1.699 -0.6534  1.2154 -1.2061
 8853SOL     OW38194   3.768   2.968  15.907  0.3461 -0.0321 -0.0008
 8853SOL    HW138195   3.745   3.061  15.905 -1.1071 -0.3877 -0.4142
 8853SOL    HW238196   3.743   2.949  15.817 -1.9018 -0.2414  0.6662
 8854SOL     OW38197   0.644   4.071   7.345  0.0856  0.1219 -0.1542
 8854SOL    HW138198   0.694   4.099   7.268  0.6078  1.9474  0.8499
 8854SOL    HW238199   0.694   4.108   7.417  0.2582 -0.6866  0.1362
 8855SOL     OW38200   3.251   1.066   6.169  0.1285 -0.4842  0.0467
 8855SOL    HW138201   3.313   1.049   6.099 -1.5965 -2.6510 -0.9727
 8855SOL    HW238202   3.211   0.980   6.184  1.4582 -1.1310 -0.1544
 8856SOL     OW38203   2.144   2.285   9.181  0.1283  0.0421 -0.4403
 8856SOL    HW138204   2.175   2.243   9.101  0.6299 -1.1455  0.3710
 8856SOL    HW238205   2.069   2.234   9.212 -1.8440  3.3484  0.1201
 8857SOL     OW38206   4.266   3.819   4.680 -0.4849  0.0215  0.4499
 8857SOL    HW138207   4.302   3.875   4.749  0.5657  0.2684 -0.3125
 8857SOL    HW238208   4.261   3.878   4.605  0.0816 -0.4858  0.0191
 8858SOL     OW38209   3.625   1.222   5.928  0.0628 -0.0249 -0.3644
 8858SOL    HW138210   3.690   1.249   5.993  0.7114 -1.4118 -0.4398
 8858SOL    HW238211   3.603   1.310   5.897  0.3438 -0.0070 -0.5097
 8859SOL     OW38212   2.525   0.107   7.523 -0.2931 -0.2166 -1.3360
 8859SOL    HW138213   2.557   0.018   7.535 -0.3875 -0.0959 -0.1655
 8859SOL    HW238214   2.604   0.138   7.478 -1.0328  1.8509 -1.2174
 8860SOL     OW38215   2.337   1.864  15.683 -0.2022  0.2175  0.1329
 8860SOL    HW138216   2.377   1.821  15.759 -2.1242 -2.1947 -0.2346
 8860SOL    HW238217   2.288   1.935  15.725 -1.3185 -0.7585  0.4652
 8861SOL     OW38218   3.230   2.020   9.446 -0.0910 -0.5405  0.6078
 8861SOL    HW138219   3.323   2.016   9.466  0.2162 -1.1656 -0.9162
 8861SOL    HW238220   3.199   2.013   9.536  2.2388 -2.9089  1.2331
 8862SOL     OW38221   2.408   1.069  14.287 -0.3573  0.0152  0.3869
 8862SOL    HW138222   2.438   1.157  14.311 -2.7030  1.0430 -0.4979
 8862SOL    HW238223   2.494   1.030  14.272  0.2185  0.8039  1.5703
 8863SOL     OW38224   0.526   0.964   3.023  0.0177 -0.8077  0.0392
 8863SOL    HW138225   0.559   1.032   3.081  1.4845 -1.3814 -0.1137
 8863SOL    HW238226   0.456   1.007   2.975  0.6661 -2.4324 -2.3762
 8864SOL     OW38227   3.192   0.317  15.671 -0.2415 -0.8629  0.3494
 8864SOL    HW138228   3.187   0.375  15.594  0.9906  0.6283  1.3987
 8864SOL    HW238229   3.253   0.355  15.733  1.9603 -1.0079 -1.7347
 8865SOL     OW38230   4.178   0.596   7.557  0.6015 -0.7608 -0.1006
 8865SOL    HW138231   4.202   0.650   7.482 -1.2524  3.0951  2.0800
 8865SOL    HW238232   4.093   0.636   7.577 -0.1996 -1.3743 -2.3064
 8866SOL     OW38233   2.207   0.878   8.455  0.2076  0.0532  0.0440
 8866SOL    HW138234   2.132   0.901   8.401 -0.4447 -1.5252  0.2761
 8866SOL    HW238235   2.220   0.959   8.504  1.1208 -0.9357  1.4636
 8867SOL     OW38236   2.672   3.303   1.834 -0.2649  0.0222 -0.1422
 8867SOL    HW138237   2.733   3.233   1.857 -3.3647 -2.6431  0.0894
 8867SOL    HW238238   2.691   3.329   1.744 -1.3452 -0.4435 -0.5088
 8868SOL     OW38239   2.119   0.500   5.758  0.1361 -0.1882  0.4809
 8868SOL    HW138240   2.123   0.595   5.746  2.0991 -0.3217 -0.0101
 8868SOL    HW238241   2.026   0.482   5.769  0.2315  0.2741  1.9859
 8869SOL     OW38242   3.704   0.892   5.128 -0.5650 -0.1289 -0.5255
 8869SOL    HW138243   3.770   0.961   5.126 -0.9388  0.2122 -0.9666
 8869SOL    HW238244   3.627   0.927   5.083 -0.7291 -0.1231 -0.2376
 8870SOL     OW38245   2.118   1.930  16.385 -0.1372 -0.0263 -0.2322
 8870SOL    HW138246   2.121   1.989  16.310  1.4520  2.4006  1.7620
 8870SOL    HW238247   2.171   1.973  16.452  0.7701 -0.9882 -0.3272
 8871SOL     OW38248   2.901   0.374  10.822 -0.5331 -0.3008  0.3728
 8871SOL    HW138249   2.987   0.415  10.832 -1.6469  1.8249  1.2008
 8871SOL    HW238250   2.887   0.334  10.908  3.0613 -1.3520  0.4528
 8872SOL     OW38251   4.016   1.713   7.964  0.3276 -0.0292  0.2218
 8872SOL    HW138252   4.107   1.736   7.947  0.1369 -0.8284 -1.7762
 8872SOL    HW238253   4.016   1.663   8.046 -1.2804  0.7923  0.7337
 8873SOL     OW38254   3.020   2.000   1.944  0.2624 -0.5907  0.3852
 8873SOL    HW138255   3.018   1.907   1.967 -2.2191 -0.9658 -1.3271
 8873SOL    HW238256   2.958   1.997   1.871  1.7868 -0.7509 -0.8982
 8874SOL     OW38257   3.101   3.672  11.399 -0.3413 -0.0084 -0.5717
 8874SOL    HW138258   3.140   3.585  11.411  2.3308  1.2373 -0.2417
 8874SOL    HW238259   3.065   3.694  11.485  2.3496  0.7350  0.3615
 8875SOL     OW38260   0.568   4.501   6.533 -0.1254  1.1129 -0.6962
 8875SOL    HW138261   0.553   4.581   6.584 -2.7822  1.8408 -2.6206
 8875SOL    HW238262   0.567   4.423   6.587 -0.7020  0.4999 -1.5937
 8876SOL     OW38263   2.086   3.993   9.713 -0.5909  0.6821 -0.4514
 8876SOL    HW138264   2.147   4.016   9.782  0.8481 -1.2695 -1.0595
 8876SOL    HW238265   2.147   3.990   9.639  1.2844  4.6084  0.9849
 8877SOL     OW38266   2.781   3.621   1.715  0.4790  0.4020 -0.7310
 8877SOL    HW138267   2.791   3.595   1.807 -0.7753 -1.0606 -1.0212
 8877SOL    HW238268   2.848   3.560   1.682  1.9128  1.2331  0.6418
 8878SOL     OW38269   3.304   4.531   5.517  0.4463  0.2770  0.2503
 8878SOL    HW138270   3.372   4.572   5.569 -0.4587 -1.3951  2.7537
 8878SOL    HW238271   3.294   4.608   5.460  1.7852 -0.2943 -0.7479
 8879SOL     OW38272   2.984   2.188   6.640  0.3708  0.5559  0.0230
 8879SOL    HW138273   2.978   2.146   6.554  2.5740  0.5927 -0.1338
 8879SOL    HW238274   2.904   2.241   6.637  1.0400  1.5830  0.4564
 8880SOL     OW38275   2.387   0.289   6.078  0.9519  0.0167 -0.9266
 8880SOL    HW138276   2.379   0.295   5.983 -0.2377  1.7804 -0.7098
 8880SOL    HW238277   2.481   0.275   6.087  0.8491 -1.1479 -1.5996
 8881SOL     OW38278   1.439   2.260   4.833  0.1081 -0.0879  0.0681
 8881SOL    HW138279   1.481   2.228   4.753 -0.0652  0.3406 -0.1936
 8881SOL    HW238280   1.427   2.349   4.799  0.4234 -0.1290 -0.1558
 8882SOL     OW38281   1.612   3.687   3.624 -0.0185 -0.1505  0.1652
 8882SOL    HW138282   1.541   3.683   3.560  1.9407  2.0809 -2.1868
 8882SOL    HW238283   1.657   3.765   3.592 -0.8331  0.4511  0.5232
 8883SOL     OW38284   0.990   2.009   6.777  0.0548 -0.0137  0.0908
 8883SOL    HW138285   1.038   1.932   6.748  0.7479  0.7098 -0.7074
 8883SOL    HW238286   0.908   1.963   6.792 -0.0400 -0.1200 -0.7633
 8884SOL     OW38287   3.238   1.838  16.570  0.1332 -0.1751  0.5163
 8884SOL    HW138288   3.319   1.888  16.568 -0.2796  0.6204  3.1449
 8884SOL    HW238289   3.215   1.856  16.662 -0.8321 -0.2666  0.2959
 8885SOL     OW38290   2.820   1.082   5.188 -0.1235 -0.2529 -0.5739
 8885SOL    HW138291   2.828   1.002   5.138  1.9869  0.3342 -1.1531
 8885SOL    HW238292   2.745   1.072   5.248 -1.6435  1.4328 -2.1718
 8886SOL     OW38293   0.506   0.856  14.397  0.4893  0.0502  0.2124
 8886SOL    HW138294   0.517   0.930  14.338  0.2444 -0.2435 -0.2001
 8886SOL    HW238295   0.411   0.852  14.413  0.5146 -0.6617  0.1885
 8887SOL     OW38296   4.651   1.340   8.798  0.0142  0.7717 -0.1725
 8887SOL    HW138297   4.634   1.268   8.737  0.4666 -0.6505  1.4027
 8887SOL    HW238298   0.008   1.348   8.805  0.0061  0.6014  0.1234
 8888SOL     OW38299   4.062   0.921   1.117  0.2687 -0.2555 -0.0714
 8888SOL    HW138300   3.994   0.866   1.156 -0.3244 -0.3161 -1.2043
 8888SOL    HW238301   4.008   0.982   1.066 -0.1791 -1.2154 -0.7326
 8889SOL     OW38302   3.755   3.314   5.724  0.4266  0.4141 -0.5909
 8889SOL    HW138303   3.739   3.399   5.683 -1.4022  0.8329  0.9519
 8889SOL    HW238304   3.786   3.344   5.810 -0.2470  0.3958 -0.3411
 8890SOL     OW38305   1.463   3.875   2.623 -0.0164 -0.2382  0.0476
 8890SOL    HW138306   1.458   3.917   2.537 -0.6288 -1.5935 -0.5792
 8890SOL    HW238307   1.462   3.781   2.604  0.6407 -0.4847  1.1781
 8891SOL     OW38308   3.008   3.376   8.640  0.0418  0.2953  0.2162
 8891SOL    HW138309   2.924   3.336   8.661 -0.7696  1.5523 -0.6182
 8891SOL    HW238310   3.019   3.407   8.730  0.9769 -1.8707  0.8428
 8892SOL     OW38311   1.508   0.341   8.745 -0.2984 -0.0698 -0.8415
 8892SOL    HW138312   1.448   0.416   8.748 -1.8186 -1.2749 -1.2607
 8892SOL    HW238313   1.580   0.365   8.686  0.7323  2.1966  1.3243
 8893SOL     OW38314   0.340   1.709  14.075  0.6101  0.3074 -0.6894
 8893SOL    HW138315   0.286   1.735  14.000 -1.0460 -0.7830  0.1316
 8893SOL    HW238316   0.423   1.737  14.036 -0.5902  1.3808 -2.4511
 8894SOL     OW38317   0.689   0.921  16.877 -1.2257 -0.4001 -0.0869
 8894SOL    HW138318   0.723   0.881  16.798 -1.1995 -1.5023  0.4749
 8894SOL    HW238319   0.713   0.853  16.940  1.9689  0.5493 -0.3136
 8895SOL     OW38320   1.284   2.518  13.749 -0.2958 -0.2118 -0.0762
 8895SOL    HW138321   1.195   2.553  13.747  0.0706  0.6922 -0.6055
 8895SOL    HW238322   1.275   2.435  13.703 -0.2676 -0.9781  1.2837
 8896SOL     OW38323   0.772   3.863   0.186  0.0574 -0.4651 -0.3162
 8896SOL    HW138324   0.737   3.925   0.122 -0.7298 -1.8784 -1.2600
 8896SOL    HW238325   0.863   3.856   0.159  0.0174 -2.8121  0.1405
 8897SOL     OW38326   4.103   0.327  15.035 -0.6715  0.1946  0.4085
 8897SOL    HW138327   4.108   0.282  14.950 -0.5042  1.0149 -0.0168
 8897SOL    HW238328   4.189   0.304  15.069 -1.4058 -1.1846  1.3285
 8898SOL     OW38329   0.231   4.730  11.568  1.0148 -0.0536 -0.2480
 8898SOL    HW138330   0.270   4.643  11.558 -0.8179 -1.1749  2.6102
 8898SOL    HW238331   0.262   0.017  11.655 -2.1037  2.3854  0.1893
 8899SOL     OW38332   1.843   2.800   5.778 -0.1315  0.8607  0.2894
 8899SOL    HW138333   1.823   2.755   5.860 -0.0190 -0.8062 -0.5891
 8899SOL    HW238334   1.780   2.773   5.712 -0.5651 -0.9720  1.4413
 8900SOL     OW38335   4.313   0.670   7.974 -0.6689 -0.3066  0.6956
 8900SOL    HW138336   4.345   0.614   8.045 -1.6160 -1.6706  0.0459
 8900SOL    HW238337   4.219   0.675   7.990 -0.7629 -0.3776  0.1874
 8901SOL     OW38338   0.720   0.845   2.377 -0.8123 -0.6989 -0.0812
 8901SOL    HW138339   0.762   0.759   2.388 -2.5096 -1.5613 -0.4420
 8901SOL    HW238340   0.788   0.896   2.422 -1.9456  0.9782 -0.2720
 8902SOL     OW38341   3.741   0.864  10.697 -0.8643 -0.1848  0.0279
 8902SOL    HW138342   3.677   0.927  10.729 -2.5767 -1.8266 -0.2083
 8902SOL    HW238343   3.733   0.807  10.773 -1.3416  0.4195  0.4285
 8903SOL     OW38344   3.402   4.423   1.914  0.5038  0.7291 -0.4775
 8903SOL    HW138345   3.432   4.335   1.890  0.9685  0.6711  0.3094
 8903SOL    HW238346   3.357   4.395   1.994 -1.1043 -3.2620 -2.7338
 8904SOL     OW38347   0.095   0.677   6.962 -0.1704 -0.4544 -0.4419
 8904SOL    HW138348   0.025   0.671   6.897 -0.9339  0.0967  0.3370
 8904SOL    HW238349   0.052   0.648   7.042  0.1031 -0.0713 -0.1565
 8905SOL     OW38350   1.817   2.840   7.605  0.0054 -0.5484  0.7911
 8905SOL    HW138351   1.797   2.829   7.512 -0.9765 -0.4840  0.9888
 8905SOL    HW238352   1.845   2.752   7.629  1.7562  0.1691  1.3782
 8906SOL     OW38353   2.411   4.623  13.630  0.1797  0.1767 -0.2049
 8906SOL    HW138354   2.335   4.586  13.585  2.2893 -4.4514  0.0861
 8906SOL    HW238355   2.393   4.717  13.627 -1.8872 -0.1861  0.9236
 8907SOL     OW38356   2.419   3.643  12.454  0.2709 -0.8039  0.2652
 8907SOL    HW138357   2.443   3.731  12.428  1.1947 -0.6219  1.6989
 8907SOL    HW238358   2.369   3.661  12.534  1.1939 -1.3251  0.9657
 8908SOL     OW38359   1.395   4.679  12.024 -0.2509  0.0193 -0.1450
 8908SOL    HW138360   1.388   4.621  12.099  0.8369 -1.9948 -1.6015
 8908SOL    HW238361   1.313   4.655  11.981 -1.9472  3.5690  1.1205
 8909SOL     OW38362   3.717   1.237   6.540  0.0401 -0.0410  0.2850
 8909SOL    HW138363   3.695   1.194   6.622  1.0044 -3.5865 -1.3024
 8909SOL    HW238364   3.657   1.311   6.547 -2.4860 -2.0410 -0.3072
 8910SOL     OW38365   1.127   0.810   4.940  0.1518  0.3162  0.3056
 8910SOL    HW138366   1.115   0.773   5.027 -0.0272  2.5456  1.2117
 8910SOL    HW238367   1.206   0.864   4.949  0.0334  0.5690 -0.1350
 8911SOL     OW38368   2.610   2.144   2.939  0.1217  0.4009  0.4697
 8911SOL    HW138369   2.605   2.239   2.929  0.2509  0.2998 -0.5923
 8911SOL    HW238370   2.540   2.127   2.875 -0.2476  0.1358  0.9417
 8912SOL     OW38371   0.529   2.061  10.044 -0.8565 -0.0975 -0.1817
 8912SOL    HW138372   0.554   2.136   9.990  1.4323 -1.1253 -0.5477
 8912SOL    HW238373   0.600   1.998  10.037 -0.0568  0.6126  1.4176
 8913SOL     OW38374   2.441   3.877   5.130  0.3552 -0.5356  0.0680
 8913SOL    HW138375   2.436   3.797   5.183 -1.3525 -0.1586  0.4652
 8913SOL    HW238376   2.516   3.876   5.071 -0.4697 -1.5276 -0.9791
 8914SOL     OW38377   1.526   4.581  14.006  0.3094  0.6072  0.0342
 8914SOL    HW138378   1.580   4.577  13.927 -1.5405 -0.9013 -1.1507
 8914SOL    HW238379   1.457   4.519  13.985  1.4668 -0.0738 -1.7155
 8915SOL     OW38380   0.575   3.316  10.518  0.2682  0.0494 -0.1749
 8915SOL    HW138381   0.594   3.366  10.597  0.2526 -0.4338  0.1335
 8915SOL    HW238382   0.612   3.374  10.450 -0.1160  0.1168 -0.3280
 8916SOL     OW38383   1.131   1.583   1.006 -0.1162 -0.1820 -1.0073
 8916SOL    HW138384   1.220   1.597   0.973  0.7694 -0.5785  1.2085
 8916SOL    HW238385   1.093   1.522   0.944 -0.4662 -3.4124  2.4282
 8917SOL     OW38386   0.148   3.109  16.492 -0.1388  0.1570 -0.0333
 8917SOL    HW138387   0.068   3.103  16.544  0.1400  0.6460  0.4479
 8917SOL    HW238388   0.205   3.052  16.544 -0.0815 -0.9297 -1.2811
 8918SOL     OW38389   0.815   0.728  16.716  0.0038 -0.0385 -0.3134
 8918SOL    HW138390   0.775   0.642  16.721 -0.1362  0.1013  1.0573
 8918SOL    HW238391   0.893   0.706  16.768  1.7730  1.9792 -2.0831
 8919SOL     OW38392   1.530   1.246   9.021 -0.1203 -0.1484 -0.3154
 8919SOL    HW138393   1.616   1.288   9.021  0.5410 -1.5530  2.7159
 8919SOL    HW238394   1.555   1.169   8.970 -2.5355 -1.0850 -0.0543
 8920SOL     OW38395   3.905   2.203  10.496  0.7040  0.4186  0.6231
 8920SOL    HW138396   3.974   2.244  10.548  0.0980  0.2669  1.5256
 8920SOL    HW238397   3.947   2.121  10.472 -0.1712  0.0987  0.1774
 8921SOL     OW38398   3.119   0.750   9.993  0.8538  0.0352  0.0431
 8921SOL    HW138399   3.066   0.751  10.073 -0.5255 -1.9421 -0.8559
 8921SOL    HW238400   3.091   0.674   9.942  2.0695 -0.3027 -0.1252
 8922SOL     OW38401   0.335   3.259   7.636 -0.2713  0.4056  0.4900
 8922SOL    HW138402   0.423   3.248   7.671  0.6186 -2.0515 -2.5028
 8922SOL    HW238403   0.334   3.354   7.626  1.5098  0.1412 -2.1966
 8923SOL     OW38404   4.158   1.648   5.320 -0.4443  0.1526 -0.5689
 8923SOL    HW138405   4.209   1.700   5.259 -1.7539 -0.4914 -2.2178
 8923SOL    HW238406   4.198   1.561   5.314 -1.8610 -0.6038  0.6864
 8924SOL     OW38407   3.955   2.908   8.333  0.1677  0.0650 -0.0152
 8924SOL    HW138408   4.045   2.896   8.364  0.0012  3.1925  1.7186
 8924SOL    HW238409   3.930   2.977   8.395  0.7318 -0.1691  0.4715
 8925SOL     OW38410   2.192   3.886  11.717  0.3925 -0.4965  0.0872
 8925SOL    HW138411   2.244   3.815  11.679 -0.0120 -0.5780 -0.3161
 8925SOL    HW238412   2.181   3.936  11.636  0.2089  1.9460  1.6339
 8926SOL     OW38413   1.555   1.840   0.746 -0.1380  0.4497  0.5495
 8926SOL    HW138414   1.485   1.877   0.801 -0.8607 -0.2995  0.1275
 8926SOL    HW238415   1.629   1.882   0.790  1.0602  0.4915 -1.5351
 8927SOL     OW38416   3.148   4.108   0.947  0.0423 -0.8344  0.4915
 8927SOL    HW138417   3.054   4.117   0.932 -0.1939 -0.1365  2.4714
 8927SOL    HW238418   3.166   4.070   0.861  0.5640 -0.5667  0.4812
 8928SOL     OW38419   2.978   0.941   4.166 -0.4892 -0.0197  0.5382
 8928SOL    HW138420   2.909   0.968   4.227 -1.3768  0.3097 -0.6274
 8928SOL    HW238421   3.030   1.022   4.165 -1.8049  0.8092 -0.1870
 8929SOL     OW38422   4.416   1.081  11.600  0.4324  0.9509 -0.5445
 8929SOL    HW138423   4.343   1.019  11.594 -1.0025  2.5671  0.2823
 8929SOL    HW238424   4.369   1.164  11.591 -0.8020  0.2929 -0.1705
 8930SOL     OW38425   2.918   3.448   4.399 -0.3660 -0.8690 -0.2019
 8930SOL    HW138426   2.963   3.443   4.314 -0.1241 -0.8571 -0.0766
 8930SOL    HW238427   2.843   3.500   4.370  0.9067  0.9623 -0.2549
 8931SOL     OW38428   3.436   2.405   3.624 -0.0915 -0.6965 -0.2138
 8931SOL    HW138429   3.454   2.475   3.561 -1.4372 -0.9429 -0.8793
 8931SOL    HW238430   3.525   2.371   3.631 -0.5568 -1.3434  2.4614
 8932SOL     OW38431   4.686   2.581  15.350 -0.0734 -0.1931  0.6216
 8932SOL    HW138432   4.686   2.611  15.259  1.8330  1.3254  1.1323
 8932SOL    HW238433   4.704   2.489  15.332  0.6539  0.2816 -1.0314
 8933SOL     OW38434   4.103   0.181   6.398  0.4941 -0.3770  0.1952
 8933SOL    HW138435   4.050   0.238   6.454  0.9260  0.1503  0.0615
 8933SOL    HW238436   4.071   0.213   6.314 -0.4474  0.2718  0.7960
 8934SOL     OW38437   2.391   1.910   3.043 -0.1282  0.5075 -0.8571
 8934SOL    HW138438   2.478   1.902   3.083 -0.7955 -0.5080  0.3713
 8934SOL    HW238439   2.377   1.816   3.031 -0.2743  0.4726 -0.4048
 8935SOL     OW38440   3.403   3.836  10.890  0.7384  0.2961 -0.0204
 8935SOL    HW138441   3.373   3.805  10.976  1.6267 -2.5124 -0.7203
 8935SOL    HW238442   3.382   3.754  10.845 -0.3336 -0.0809  1.1719
 8936SOL     OW38443   2.199   4.578   4.539  0.0597 -0.1780  0.6189
 8936SOL    HW138444   2.208   4.558   4.633 -0.9244 -0.2286  0.7005
 8936SOL    HW238445   2.104   4.574   4.526  0.1564 -2.7710  0.7069
 8937SOL     OW38446   2.581   3.465   6.162 -0.1880 -0.0780  0.1977
 8937SOL    HW138447   2.526   3.396   6.126 -0.2791 -0.5326  1.2114
 8937SOL    HW238448   2.514   3.532   6.167 -0.0706  0.0517  0.0297
 8938SOL     OW38449   2.542   1.716   7.351  0.2340  0.5344  0.4716
 8938SOL    HW138450   2.559   1.722   7.445 -0.8641  2.3912  0.5553
 8938SOL    HW238451   2.477   1.647   7.339  1.1630 -0.2280 -0.0610
 8939SOL     OW38452   3.957   3.811   5.373 -0.8589  0.3810 -0.0447
 8939SOL    HW138453   4.004   3.777   5.450  0.0799 -1.5434 -1.4716
 8939SOL    HW238454   3.976   3.904   5.380 -1.0685  0.3845  0.4990
 8940SOL     OW38455   3.374   3.501   4.629 -0.9062  0.1338 -0.4515
 8940SOL    HW138456   3.389   3.589   4.664 -0.6708  0.1907 -0.7004
 8940SOL    HW238457   3.459   3.462   4.646 -0.3193  1.8813  0.6400
 8941SOL     OW38458   1.071   0.358   6.093  0.1785 -0.3639 -0.1890
 8941SOL    HW138459   1.131   0.304   6.143 -0.1736 -0.6570 -0.0791
 8941SOL    HW238460   1.130   0.385   6.022 -1.2656  1.8757 -0.5742
 8942SOL     OW38461   3.767   2.215  12.415 -0.1839  0.4596 -0.0199
 8942SOL    HW138462   3.763   2.189  12.323  2.4381 -0.7356  0.2243
 8942SOL    HW238463   3.853   2.248  12.441  0.1810 -1.1514  0.8583
 8943SOL     OW38464   2.946   2.179   4.748 -0.4737 -0.4238  0.0694
 8943SOL    HW138465   2.947   2.106   4.810 -1.2216  0.1800  0.7822
 8943SOL    HW238466   3.013   2.233   4.790 -1.5982  0.0500  1.2481
 8944SOL     OW38467   0.333   4.614   1.822  0.1117  0.8539  0.2890
 8944SOL    HW138468   0.294   4.673   1.886 -3.2195  0.3080 -1.2332
 8944SOL    HW238469   0.399   4.673   1.785 -1.1877  1.3017 -1.3246
 8945SOL     OW38470   4.121   3.982   2.810  0.4999 -0.8347  0.3440
 8945SOL    HW138471   4.030   3.959   2.827  0.0769  0.9716  0.5511
 8945SOL    HW238472   4.123   3.968   2.715 -0.7686  2.6735 -0.2025
 8946SOL     OW38473   2.548   3.862   8.453  0.1028  0.1509 -0.2689
 8946SOL    HW138474   2.637   3.883   8.425  0.1714  0.6247  0.3330
 8946SOL    HW238475   2.563   3.833   8.543  2.0449  0.1404 -0.5934
 8947SOL     OW38476   3.701   1.564   5.230 -0.0788 -0.9444  0.2040
 8947SOL    HW138477   3.607   1.549   5.216  0.0997 -1.5359 -0.3658
 8947SOL    HW238478   3.711   1.656   5.203  1.0650 -0.7215  1.4442
 8948SOL     OW38479   4.182   4.329   8.143 -0.0770  0.5952  0.1146
 8948SOL    HW138480   4.141   4.307   8.060 -0.8808 -1.5248  1.0616
 8948SOL    HW238481   4.277   4.325   8.127 -0.3821 -1.1239 -1.2050
 8949SOL     OW38482   0.703   1.495   9.227 -0.2085 -0.0581  0.0152
 8949SOL    HW138483   0.759   1.429   9.187 -0.4824 -0.8072  0.8560
 8949SOL    HW238484   0.761   1.530   9.294  0.6595 -0.6915 -0.4027
 8950SOL     OW38485   2.841   3.019   7.449 -0.2148  0.0137  0.2173
 8950SOL    HW138486   2.824   2.982   7.535 -2.3676  1.6349  0.5086
 8950SOL    HW238487   2.791   2.965   7.387  0.5234  1.8247 -1.9828
 8951SOL     OW38488   3.762   2.343   8.018  0.7740  0.4786  0.6865
 8951SOL    HW138489   3.672   2.330   7.986  0.7173 -0.3425  1.1756
 8951SOL    HW238490   3.786   2.414   7.958 -2.0217  1.6449  0.9016
 8952SOL     OW38491   2.214   3.097   7.196  0.3259  0.2771  0.1140
 8952SOL    HW138492   2.184   3.049   7.119  0.7196 -0.2605  0.2938
 8952SOL    HW238493   2.141   3.151   7.225  0.9520  1.8210 -1.1693
 8953SOL     OW38494   0.553   0.404  12.031 -0.4484 -0.4003 -0.8776
 8953SOL    HW138495   0.507   0.404  11.948  0.5396  1.0627 -1.4194
 8953SOL    HW238496   0.480   0.412  12.093  1.4181  1.4305  1.0823
 8954SOL     OW38497   4.352   2.351   4.312  0.3178 -0.0146 -0.2628
 8954SOL    HW138498   4.289   2.284   4.336  0.7750  0.2543  1.6821
 8954SOL    HW238499   4.424   2.309   4.358 -1.0537  0.9212  2.7522
 8955SOL     OW38500   4.609   0.699   1.898 -0.0915  0.1301 -0.1868
 8955SOL    HW138501   4.613   0.734   1.987 -2.9651  0.3153 -0.1394
 8955SOL    HW238502   4.585   0.776   1.846 -1.7669  0.9123  1.7720
 8956SOL     OW38503   4.613   3.557  11.441  0.6167 -0.0881 -0.2681
 8956SOL    HW138504   4.540   3.617  11.429  0.1043 -0.5572  0.4886
 8956SOL    HW238505   4.672   3.580  11.370 -0.2510  1.2203 -0.5434
 8957SOL     OW38506   2.998   3.764   2.790  0.3085 -0.3932 -0.5970
 8957SOL    HW138507   2.922   3.731   2.840  0.4353 -1.7849 -1.3116
 8957SOL    HW238508   3.029   3.695   2.732  0.2165 -0.9017 -0.0484
 8958SOL     OW38509   0.494   4.492  11.842  0.3669 -0.2689  0.0769
 8958SOL    HW138510   0.463   4.480  11.932 -0.2806 -1.9567 -0.3575
 8958SOL    HW238511   0.579   4.449  11.839  1.8301  2.7605 -1.1257
 8959SOL     OW38512   2.302   1.713   4.587 -0.6319  0.1326 -0.3832
 8959SOL    HW138513   2.328   1.721   4.678 -0.7492  1.0840 -0.4382
 8959SOL    HW238514   2.371   1.763   4.544 -1.3582 -0.2528 -2.0377
 8960SOL     OW38515   3.190   1.781  12.210  0.7019  0.4853  0.5470
 8960SOL    HW138516   3.259   1.787  12.144 -0.3949  1.9435 -0.4669
 8960SOL    HW238517   3.193   1.685  12.216  1.8769  0.3896 -1.3536
 8961SOL     OW38518   2.480   2.943   5.973 -0.0754  0.1262 -0.3740
 8961SOL    HW138519   2.392   2.905   5.968  0.1047 -0.5502  1.5709
 8961SOL    HW238520   2.516   2.938   5.885  3.1512 -0.0605  0.9627
 8962SOL     OW38521   1.648   1.803   8.125 -0.0484 -0.1082  0.0607
 8962SOL    HW138522   1.622   1.789   8.216  1.9955 -1.1593  0.4713
 8962SOL    HW238523   1.691   1.888   8.134 -0.0193 -0.2880  1.5752
 8963SOL     OW38524   2.114   2.613   4.984  0.2194 -0.2144 -0.3950
 8963SOL    HW138525   2.048   2.593   5.050 -2.1299 -0.7415 -2.9261
 8963SOL    HW238526   2.174   2.653   5.047  0.4154 -0.6621 -0.2927
 8964SOL     OW38527   3.191   2.674  16.633  0.7361 -0.6859  0.4188
 8964SOL    HW138528   3.122   2.714  16.686  0.9038  0.3071 -0.1002
 8964SOL    HW238529   3.231   2.610  16.692 -1.4171 -0.7084  1.8380
 8965SOL     OW38530   2.989   2.734   3.165  0.0647  0.0606 -0.0201
 8965SOL    HW138531   2.998   2.652   3.115  1.6710  0.5815 -0.5805
 8965SOL    HW238532   2.950   2.709   3.249 -0.8287 -2.2770 -1.1245
 8966SOL     OW38533   1.793   2.209  13.540  0.3540  0.5228 -0.6091
 8966SOL    HW138534   1.802   2.302  13.519 -0.2879  0.8022  0.3735
 8966SOL    HW238535   1.849   2.207  13.617  0.4689  0.5269 -0.6909
 8967SOL     OW38536   3.728   1.067   2.908 -0.1043 -0.2918  0.6600
 8967SOL    HW138537   3.791   1.137   2.928 -0.8063 -0.0739  2.1024
 8967SOL    HW238538   3.707   1.035   2.996 -0.1729 -1.0241  0.3711
 8968SOL     OW38539   3.882   2.732   7.059 -0.0967  0.2690 -0.1403
 8968SOL    HW138540   3.973   2.706   7.045 -0.4493 -0.0047 -1.9774
 8968SOL    HW238541   3.901   2.825   7.052 -2.2296  0.6728 -0.4419
 8969SOL     OW38542   4.238   1.838  14.269 -0.2357 -0.2428 -0.5990
 8969SOL    HW138543   4.264   1.880  14.351 -2.9180  1.2438 -0.5195
 8969SOL    HW238544   4.290   1.758  14.273  0.3166  0.2033  1.1768
 8970SOL     OW38545   0.276   0.390   3.383 -0.1278  0.2309  0.1654
 8970SOL    HW138546   0.194   0.420   3.345  0.1406 -0.2552 -0.8064
 8970SOL    HW238547   0.265   0.299   3.357  0.1270 -0.0673  1.1187
 8971SOL     OW38548   2.046   2.267  14.911  0.8840  0.2516  0.2203
 8971SOL    HW138549   2.136   2.237  14.924  0.7950  0.7513  1.9821
 8971SOL    HW238550   1.987   2.194  14.929  1.4380 -0.1305  0.4690
 8972SOL     OW38551   3.060   4.193  10.943  0.5443 -0.6169  0.4183
 8972SOL    HW138552   3.061   4.176  10.849  2.0056 -2.2027  0.7270
 8972SOL    HW238553   2.989   4.141  10.980 -0.4761 -0.6358 -1.5235
 8973SOL     OW38554   1.204   2.335   2.784 -0.0863 -1.1637  0.2619
 8973SOL    HW138555   1.122   2.289   2.802 -0.7019 -0.8145 -1.5939
 8973SOL    HW238556   1.257   2.256   2.794  1.5485 -0.1843 -0.6164
 8974SOL     OW38557   3.290   4.299   2.444  0.2277  0.5727 -0.0976
 8974SOL    HW138558   3.349   4.229   2.472 -1.8895 -0.1974  2.4255
 8974SOL    HW238559   3.213   4.259   2.483  0.8224  0.7169  1.2146
 8975SOL     OW38560   3.375   1.157   4.645  0.1415 -0.0616  0.2508
 8975SOL    HW138561   3.310   1.148   4.576 -1.3453  0.5196  1.5805
 8975SOL    HW238562   3.323   1.161   4.725 -3.7658 -0.2451 -2.2944
 8976SOL     OW38563   0.358   4.462  11.610  0.3507  0.1451 -0.7883
 8976SOL    HW138564   0.389   4.462  11.701  1.2251 -0.6462 -1.0811
 8976SOL    HW238565   0.434   4.422  11.566 -0.6517 -0.1363 -2.2572
 8977SOL     OW38566   3.617   1.931   8.602 -0.3887 -0.6932  0.0966
 8977SOL    HW138567   3.606   1.865   8.534  1.5924 -0.8918 -0.0146
 8977SOL    HW238568   3.531   1.973   8.604  0.4740  1.0513  0.9647
 8978SOL     OW38569   1.912   1.188   2.919 -0.3589 -0.0055  0.4350
 8978SOL    HW138570   1.829   1.179   2.873 -0.8720  0.1076  1.3353
 8978SOL    HW238571   1.971   1.164   2.847 -0.4776 -0.2712  0.4265
 8979SOL     OW38572   2.893   3.720  15.216 -0.3095  0.2743 -0.2172
 8979SOL    HW138573   2.869   3.717  15.123 -3.6298 -1.9119  0.7083
 8979SOL    HW238574   2.829   3.661  15.255  0.1573 -0.4557 -0.5672
 8980SOL     OW38575   1.993   4.486   2.637 -0.4446 -0.6216  0.5354
 8980SOL    HW138576   1.938   4.520   2.565 -0.5137  1.9630  1.8241
 8980SOL    HW238577   1.965   4.525   2.719 -1.6099  0.3737 -0.3258
 8981SOL     OW38578   1.907   3.324  16.038 -0.0839  0.0106 -0.1031
 8981SOL    HW138579   1.892   3.419  16.041 -2.2129 -0.3738  1.2580
 8981SOL    HW238580   1.967   3.332  15.963  0.1071 -0.6747 -0.0159
 8982SOL     OW38581   3.569   3.740   1.355  0.8938 -0.4932 -0.1220
 8982SOL    HW138582   3.605   3.737   1.267 -0.2746 -1.6928 -0.5520
 8982SOL    HW238583   3.643   3.710   1.408  1.4099  0.6352 -0.2187
 8983SOL     OW38584   0.192   3.186   7.425 -0.1695 -0.5207  0.2221
 8983SOL    HW138585   0.236   3.163   7.507 -0.1064  0.6296  0.5058
 8983SOL    HW238586   0.231   3.271   7.411  0.1789 -0.6510  0.4052
 8984SOL     OW38587   0.883   2.044   7.486 -0.4675 -0.3408  0.4679
 8984SOL    HW138588   0.922   2.023   7.401 -2.0314  2.0661 -0.8533
 8984SOL    HW238589   0.906   2.136   7.498 -1.8679  0.1892 -0.7665
 8985SOL     OW38590   3.656   3.259   3.277 -0.5905 -0.1113  0.1377
 8985SOL    HW138591   3.613   3.217   3.351  2.1776  2.1352  2.9918
 8985SOL    HW238592   3.593   3.330   3.265 -0.7667  0.1216  2.4722
 8986SOL     OW38593   3.834   0.354   6.179  0.1954 -0.0315  0.2825
 8986SOL    HW138594   3.802   0.279   6.228  2.4882 -0.0732  1.7339
 8986SOL    HW238595   3.926   0.331   6.164 -0.8017 -2.6009 -1.7993
 8987SOL     OW38596   1.218   2.187  12.491  0.2556  0.0311 -0.0372
 8987SOL    HW138597   1.242   2.112  12.436  0.8276  2.3293 -2.9033
 8987SOL    HW238598   1.296   2.233  12.459 -0.1476  1.1334  0.5773
 8988SOL     OW38599   0.915   4.131   1.446 -0.2691 -0.2662  0.4522
 8988SOL    HW138600   0.824   4.149   1.469 -0.2545  0.1099  0.2097
 8988SOL    HW238601   0.922   4.036   1.461 -1.2311 -0.5395 -0.8038
 8989SOL     OW38602   2.604   4.666  12.907  0.0537 -0.0867 -0.2243
 8989SOL    HW138603   2.622   0.003  12.849  0.0094 -0.1206 -0.2812
 8989SOL    HW238604   2.616   4.713  12.990 -1.9909  2.1969 -1.2271
 8990SOL     OW38605   3.131   2.715   7.847  0.2398  0.1214  0.7727
 8990SOL    HW138606   3.123   2.666   7.765 -3.6001  3.1425 -0.6760
 8990SOL    HW238607   3.226   2.726   7.842  0.0508  0.4393 -2.1579
 8991SOL     OW38608   4.043   3.145   0.810 -0.7799  0.3792  0.3082
 8991SOL    HW138609   4.006   3.219   0.761  0.2286  0.6697 -0.0231
 8991SOL    HW238610   4.050   3.078   0.742  0.7638  0.0431  0.7983
 8992SOL     OW38611   1.761   4.128  11.979  0.6202 -0.3473 -0.6099
 8992SOL    HW138612   1.677   4.172  11.995 -0.2383 -1.9072 -0.8279
 8992SOL    HW238613   1.738   4.057  11.920  1.5093  0.9009 -2.4483
 8993SOL     OW38614   0.205   1.874   8.636  0.5639  0.4439  0.2301
 8993SOL    HW138615   0.278   1.919   8.677  0.8484 -0.8990  1.2000
 8993SOL    HW238616   0.134   1.893   8.697  0.5931 -1.1654  0.7863
 8994SOL     OW38617   3.832   4.212  14.906  0.2215 -0.2273 -0.3471
 8994SOL    HW138618   3.800   4.128  14.937 -0.7310  0.7050  1.1876
 8994SOL    HW238619   3.886   4.241  14.979  0.0495  0.4622 -0.4835
 8995SOL     OW38620   4.346   0.866   2.941 -0.8179 -0.3801 -0.2114
 8995SOL    HW138621   4.255   0.855   2.971 -0.1535 -2.4603  1.0703
 8995SOL    HW238622   4.371   0.956   2.961 -0.7178 -0.9089  2.0251
 8996SOL     OW38623   1.490   3.740  12.838  0.4956  0.4120  0.0341
 8996SOL    HW138624   1.458   3.791  12.912 -0.2286 -1.7513  1.2282
 8996SOL    HW238625   1.578   3.711  12.861  0.3263  0.4326  0.7139
 8997SOL     OW38626   4.670   3.474   6.439  0.6555 -0.6729 -0.0127
 8997SOL    HW138627   4.734   3.490   6.508  0.9478  0.7231 -0.6059
 8997SOL    HW238628   4.635   3.561   6.421  0.7812 -0.6243 -0.0267
 8998SOL     OW38629   0.519   4.107   5.549 -0.2169  0.8645 -0.5853
 8998SOL    HW138630   0.488   4.189   5.513  2.3833  0.9172 -2.7599
 8998SOL    HW238631   0.479   4.049   5.483  0.8372 -1.4025  0.7467
 8999SOL     OW38632   3.144   1.240   0.547 -0.1825  0.1395 -0.5994
 8999SOL    HW138633   3.089   1.314   0.572 -1.1534 -0.3503 -1.2630
 8999SOL    HW238634   3.087   1.165   0.529  0.6504 -1.1962  2.4097
 9000SOL     OW38635   1.362   1.086   0.022  0.0024  0.0480 -0.0847
 9000SOL    HW138636   1.373   1.128   0.107 -0.3286 -1.2402  0.5977
 9000SOL    HW238637   1.406   1.001   0.029 -1.4674 -0.8068 -1.1807
 9001SOL     OW38638   2.911   0.179  10.206 -0.0408 -0.5378 -0.2944
 9001SOL    HW138639   2.998   0.161  10.172  0.0597  0.1883 -0.4151
 9001SOL    HW238640   2.929   0.245  10.273  1.3755  0.9574 -2.1689
 9002SOL     OW38641   2.439   0.380  13.103 -0.4838  0.4546  0.2919
 9002SOL    HW138642   2.461   0.456  13.049  0.9812 -1.0226 -1.1988
 9002SOL    HW238643   2.457   0.416  13.190 -0.3053 -0.7580  0.7620
 9003SOL     OW38644   3.639   3.611   3.658 -0.2750 -0.7574  0.1313
 9003SOL    HW138645   3.577   3.638   3.726 -1.0215  2.1482 -1.7105
 9003SOL    HW238646   3.575   3.579   3.594 -0.1935 -0.5558 -0.0512
 9004SOL     OW38647   1.789   2.462   5.408  0.3526 -0.1666 -0.2190
 9004SOL    HW138648   1.737   2.400   5.357  1.5916 -1.3236 -0.0936
 9004SOL    HW238649   1.868   2.409   5.423 -0.1633 -0.6919  0.6862
 9005SOL     OW38650   4.516   3.328   1.624  0.2608 -0.3127  0.3633
 9005SOL    HW138651   4.500   3.400   1.562 -1.0537 -0.2715  0.7597
 9005SOL    HW238652   4.428   3.306   1.652  0.4274  1.1862  2.0688
 9006SOL     OW38653   3.470   1.243   4.057  0.3428  0.2622  0.4628
 9006SOL    HW138654   3.421   1.300   3.997  0.4173  0.0955  0.2409
 9006SOL    HW238655   3.470   1.298   4.135 -3.1220  2.0784 -0.8115
 9007SOL     OW38656   2.311   1.567  12.304  0.5065  0.2614 -0.3354
 9007SOL    HW138657   2.218   1.545  12.300  0.9656 -2.1650  1.9184
 9007SOL    HW238658   2.344   1.570  12.214  0.4013 -0.3952 -0.3989
 9008SOL     OW38659   0.085   2.416   2.912 -0.2347  0.5837  0.0443
 9008SOL    HW138660   0.069   2.505   2.942  0.5779  0.3137  1.2801
 9008SOL    HW238661   0.163   2.402   2.967 -2.1007 -1.5662  2.1227
 9009SOL     OW38662   3.426   3.858   2.480  0.2673  0.3441  0.2274
 9009SOL    HW138663   3.338   3.830   2.458  0.2500 -1.1808  2.3308
 9009SOL    HW238664   3.474   3.785   2.519 -0.9488  0.5359  2.0410
 9010SOL     OW38665   0.868   2.313   6.967  0.2203 -0.1275  0.7816
 9010SOL    HW138666   0.919   2.244   7.011  0.1661 -1.1123 -0.7008
 9010SOL    HW238667   0.889   2.294   6.876  0.2634 -0.0275  0.7716
 9011SOL     OW38668   3.015   0.655   8.388 -0.0279 -0.6962 -0.6053
 9011SOL    HW138669   3.067   0.693   8.459  0.2464  0.6678 -1.5285
 9011SOL    HW238670   2.971   0.583   8.432  0.5828 -1.3593 -1.0879
 9012SOL     OW38671   0.968   4.379   8.040 -0.6385  0.0418 -0.1593
 9012SOL    HW138672   0.883   4.354   8.004  0.0260 -0.2855 -1.4949
 9012SOL    HW238673   0.994   4.307   8.098 -0.5586  0.2575  0.0741
 9013SOL     OW38674   4.455   0.875   5.588  0.0396 -0.0699 -0.3105
 9013SOL    HW138675   4.475   0.940   5.655  0.8306 -1.6547  0.9793
 9013SOL    HW238676   4.419   0.804   5.641 -0.0765 -0.8602 -1.4579
 9014SOL     OW38677   3.462   3.845   9.344 -0.4830  0.1972 -0.0741
 9014SOL    HW138678   3.533   3.809   9.291 -0.0068  0.6733  0.2476
 9014SOL    HW238679   3.470   3.940   9.335  1.7737  0.0299  0.1946
 9015SOL     OW38680   2.145   1.980   1.498 -0.4634  0.1360 -0.3514
 9015SOL    HW138681   2.203   2.018   1.564  1.0558  0.1601 -1.7135
 9015SOL    HW238682   2.139   2.055   1.440 -0.0950  1.1812  0.9521
 9016SOL     OW38683   3.029   3.389   3.504  0.1674  0.1508  0.4033
 9016SOL    HW138684   2.993   3.460   3.557  1.2321 -0.2998  1.7143
 9016SOL    HW238685   2.976   3.401   3.425 -1.4906 -0.2585  1.4412
 9017SOL     OW38686   1.074   1.906   5.333 -0.2350  0.3100 -0.0614
 9017SOL    HW138687   0.986   1.911   5.371 -0.3777 -0.2467 -0.3175
 9017SOL    HW238688   1.103   1.818   5.357 -1.2360  0.0649  0.2376
 9018SOL     OW38689   2.569   1.424   5.891  0.0097 -0.2401  0.2090
 9018SOL    HW138690   2.592   1.359   5.958 -1.9237  0.3649  1.4626
 9018SOL    HW238691   2.618   1.401   5.813  0.2705 -0.8564  0.5573
 9019SOL     OW38692   3.667   0.596   0.166 -0.2268 -0.0160  0.0305
 9019SOL    HW138693   3.602   0.530   0.140 -0.3549 -1.2764  3.6549
 9019SOL    HW238694   3.716   0.539   0.225  0.7685  0.0821 -0.6958
 9020SOL     OW38695   3.398   3.759  15.634  0.0868  0.0744 -0.4279
 9020SOL    HW138696   3.459   3.692  15.663  0.1912  0.0720 -0.6503
 9020SOL    HW238697   3.354   3.792  15.712 -0.9703 -1.3628 -0.4165
 9021SOL     OW38698   0.741   0.279   5.402 -0.4652 -0.3078 -0.1928
 9021SOL    HW138699   0.686   0.203   5.384  2.9042 -2.2357 -2.2658
 9021SOL    HW238700   0.806   0.285   5.332 -0.2047  0.0082  0.0743
 9022SOL     OW38701   1.070   2.482   8.088  0.0168 -0.0393 -0.2927
 9022SOL    HW138702   1.031   2.563   8.122 -0.5760 -0.1807 -0.6431
 9022SOL    HW238703   1.052   2.478   7.994  0.6679  3.6199 -0.5726
 9023SOL     OW38704   1.918   0.602   3.200 -0.4785  0.4518  0.7196
 9023SOL    HW138705   1.957   0.554   3.127  0.0775  0.1830  1.1917
 9023SOL    HW238706   1.910   0.687   3.158  0.3588  0.3382  0.3392
 9024SOL     OW38707   0.595   2.939  12.498 -0.6020  0.6059 -0.5032
 9024SOL    HW138708   0.516   2.886  12.481  1.0637 -2.3171  0.8184
 9024SOL    HW238709   0.623   2.949  12.407 -3.5847  0.4206 -1.4657
 9025SOL     OW38710   0.169   4.335   6.452 -0.0183  0.4203  0.2545
 9025SOL    HW138711   0.158   4.422   6.411 -0.6510 -0.0774 -0.6444
 9025SOL    HW238712   0.115   4.332   6.530 -0.8501  0.9529 -0.2944
 9026SOL     OW38713   1.641   3.749  16.333 -0.0736  0.1385  0.2534
 9026SOL    HW138714   1.697   3.815  16.293 -0.0883  1.3624  2.2406
 9026SOL    HW238715   1.596   3.721  16.253 -0.8081 -0.3649  0.8333
 9027SOL     OW38716   3.812   0.977   1.045  0.5928  0.2913 -0.1450
 9027SOL    HW138717   3.742   0.966   0.981  0.5617 -0.8957  0.0939
 9027SOL    HW238718   3.792   0.902   1.100  0.4614  1.1869  1.0458
 9028SOL     OW38719   4.403   0.232   2.916 -0.1522 -0.0952 -0.6811
 9028SOL    HW138720   4.355   0.159   2.876  0.9750 -0.5364 -1.2168
 9028SOL    HW238721   4.325   0.276   2.950  0.2510  0.1369 -0.0763
 9029SOL     OW38722   1.311   3.963   7.990  0.0236 -0.3140  0.2720
 9029SOL    HW138723   1.265   3.949   7.907 -0.1865 -2.0061  0.6612
 9029SOL    HW238724   1.402   3.948   7.963 -0.4997 -1.0834 -1.0640
 9030SOL     OW38725   3.762   1.019  15.849  0.7293 -0.7273  0.8739
 9030SOL    HW138726   3.794   0.942  15.896 -0.9502 -1.3892  0.9220
 9030SOL    HW238727   3.804   1.094  15.892  0.9326 -0.0035 -0.5940
 9031SOL     OW38728   4.269   1.216   4.884 -0.1130  0.5079  0.6579
 9031SOL    HW138729   4.205   1.183   4.821 -0.0801 -0.7116  1.2792
 9031SOL    HW238730   4.221   1.226   4.966  0.1946  1.0834  0.7707
 9032SOL     OW38731   3.758   2.054   8.846  0.0950 -0.0393  0.4464
 9032SOL    HW138732   3.780   1.973   8.892  0.0130  0.8197  1.9866
 9032SOL    HW238733   3.722   2.014   8.767 -1.0810 -0.9299  1.4352
 9033SOL     OW38734   0.678   1.388   2.604 -0.1150  0.4635  0.3068
 9033SOL    HW138735   0.696   1.481   2.594  1.6876 -0.0916 -1.5761
 9033SOL    HW238736   0.642   1.352   2.522  1.9291 -1.7585  0.3976
 9034SOL     OW38737   3.356   4.581   6.409 -0.1127  0.1782  0.3176
 9034SOL    HW138738   3.366   4.561   6.316 -1.8092  1.2105 -0.0875
 9034SOL    HW238739   3.343   4.492   6.441  0.0250  0.4009  1.0005
 9035SOL     OW38740   4.362   3.004   7.435  0.0816  0.2699 -0.0576
 9035SOL    HW138741   4.408   2.962   7.362  1.2183  0.9840  0.2463
 9035SOL    HW238742   4.395   2.958   7.513  1.5451  1.1513 -0.1548
 9036SOL     OW38743   4.103   4.537   1.630  0.4188  0.0145  0.1277
 9036SOL    HW138744   4.151   4.476   1.573  1.4292 -0.6662  1.6978
 9036SOL    HW238745   4.152   4.618   1.614 -2.0102  1.1496 -1.5582
 9037SOL     OW38746   0.793   4.102  11.681 -0.0213 -0.5472  0.0495
 9037SOL    HW138747   0.741   4.076  11.605 -0.0177  2.9573 -1.1836
 9037SOL    HW238748   0.872   4.047  11.680 -0.2570 -0.8702 -0.4747
 9038SOL     OW38749   2.177   4.307   8.258 -0.9286  0.3467 -0.1119
 9038SOL    HW138750   2.099   4.252   8.265  0.6586 -1.8345  0.5327
 9038SOL    HW238751   2.136   4.390   8.283 -2.7191 -0.3134 -0.9031
 9039SOL     OW38752   4.529   1.904  14.800  0.0267  0.2040  0.5710
 9039SOL    HW138753   4.557   1.981  14.751  0.0827 -0.2255 -0.0795
 9039SOL    HW238754   4.598   1.906  14.867 -0.0348  1.7456  0.5910
 9040SOL     OW38755   1.595   3.531  13.935 -0.1778  0.1039  0.0563
 9040SOL    HW138756   1.501   3.523  13.952 -0.1975 -0.4729 -0.2873
 9040SOL    HW238757   1.594   3.590  13.860 -1.5259  0.5367  0.4029
 9041SOL     OW38758   2.817   1.708   5.549 -0.0917  0.3739 -0.2121
 9041SOL    HW138759   2.870   1.788   5.552  1.9214 -0.9251 -0.5564
 9041SOL    HW238760   2.742   1.744   5.503  0.3768  0.7672 -0.6646
 9042SOL     OW38761   0.009   1.763   2.997 -0.5487  0.4651 -0.1456
 9042SOL    HW138762   4.685   1.802   2.935 -1.0908 -1.3539 -0.7416
 9042SOL    HW238763   0.066   1.701   2.951 -0.8301  0.3156 -0.2872
 9043SOL     OW38764   1.153   4.637   4.439 -0.5517  0.2407 -0.6212
 9043SOL    HW138765   1.169   4.731   4.450  2.1191 -0.2685 -0.1233
 9043SOL    HW238766   1.135   4.639   4.345  0.8318  2.2433 -0.8487
 9044SOL     OW38767   1.466   1.417   4.950  0.5973  0.0967  0.4810
 9044SOL    HW138768   1.535   1.482   4.938  0.0392  0.6414  0.1928
 9044SOL    HW238769   1.429   1.405   4.862  2.1904 -3.1168  0.2674
 9045SOL     OW38770   0.686   0.430   8.272 -0.3124  0.4797 -0.1232
 9045SOL    HW138771   0.592   0.420   8.254 -0.4235 -0.7607  1.0825
 9045SOL    HW238772   0.713   0.502   8.215 -3.5562 -1.1272 -3.6963
 9046SOL     OW38773   2.337   4.123   2.998 -0.0725 -0.4786 -0.4770
 9046SOL    HW138774   2.288   4.163   2.926 -1.1469 -0.4820  0.2466
 9046SOL    HW238775   2.384   4.201   3.024  1.3195 -1.8019  0.9958
 9047SOL     OW38776   4.488   0.658   6.980 -0.3278 -0.4933  0.1899
 9047SOL    HW138777   4.396   0.682   6.994 -0.6440  1.0499 -4.7093
 9047SOL    HW238778   4.498   0.681   6.888 -1.2280  0.8035  0.3968
 9048SOL     OW38779   0.554   0.479   2.198 -0.2551  0.5026  0.0470
 9048SOL    HW138780   0.608   0.411   2.157 -0.6910 -0.4048  0.9861
 9048SOL    HW238781   0.562   0.561   2.149  0.2923 -0.5970 -1.6761
 9049SOL     OW38782   2.949   1.822   7.913 -0.3664 -0.0055  0.4895
 9049SOL    HW138783   2.977   1.840   7.824 -0.1184  1.5352  0.8791
 9049SOL    HW238784   2.916   1.908   7.942  1.9905  1.8842 -2.4033
 9050SOL     OW38785   3.873   3.907   3.662 -0.0069  0.0657 -0.2168
 9050SOL    HW138786   3.853   3.910   3.755  2.9405  0.0816  0.4013
 9050SOL    HW238787   3.967   3.923   3.670  0.0662 -0.2211 -0.4698
 9051SOL     OW38788   1.733   3.918   3.484 -0.0328  0.3255 -0.0972
 9051SOL    HW138789   1.814   3.924   3.433 -0.3511  0.6030 -0.5709
 9051SOL    HW238790   1.725   4.008   3.517 -0.8226 -0.2150  1.1801
 9052SOL     OW38791   0.929   0.214   3.306  0.0244  0.0162  0.3304
 9052SOL    HW138792   0.888   0.262   3.378 -0.3053  1.1180 -0.5868
 9052SOL    HW238793   1.020   0.226   3.334 -0.6989  0.9752  2.2297
 9053SOL     OW38794   4.255   4.685  15.996 -0.4295  0.0097 -0.4225
 9053SOL    HW138795   4.242   4.594  15.967 -2.5160  0.0817  0.2916
 9053SOL    HW238796   4.330   4.712  15.943  0.0104 -1.1800 -0.4068
 9054SOL     OW38797   4.537   3.950  15.102 -0.2439 -0.1624 -0.1825
 9054SOL    HW138798   4.455   3.910  15.072  0.0414 -1.3941  0.6558
 9054SOL    HW238799   4.537   3.939  15.198  1.1807 -0.2748 -0.2001
 9055SOL     OW38800   3.864   2.975  13.293 -0.0511  0.4123 -0.0901
 9055SOL    HW138801   3.887   2.986  13.385 -1.6400 -1.3257  0.5079
 9055SOL    HW238802   3.775   3.010  13.279  1.1978  3.0588 -1.4813
 9056SOL     OW38803   1.559   1.308   3.570  0.2002 -0.3254  0.4630
 9056SOL    HW138804   1.513   1.392   3.569 -0.2320 -0.5712  0.1419
 9056SOL    HW238805   1.644   1.324   3.528 -0.0607  1.3296  0.5438
 9057SOL     OW38806   0.311   2.309   8.099 -0.4474  0.0584  0.2218
 9057SOL    HW138807   0.369   2.305   8.175 -0.2770  0.2479  0.1004
 9057SOL    HW238808   0.321   2.401   8.074 -0.5161 -0.1498 -0.5881
 9058SOL     OW38809   2.179   0.318   3.506  0.1354  0.1870 -0.2790
 9058SOL    HW138810   2.142   0.242   3.461  0.9676 -0.7812  0.6695
 9058SOL    HW238811   2.125   0.307   3.585 -0.6294  2.0612 -0.5293
 9059SOL     OW38812   2.464   4.502   2.587 -0.7539  0.0469  0.1044
 9059SOL    HW138813   2.426   4.572   2.535  1.4452  0.3978 -1.0548
 9059SOL    HW238814   2.386   4.456   2.618  0.3063 -2.3268 -0.6850
 9060SOL     OW38815   0.661   2.706   4.011  0.7555  0.0710  0.0540
 9060SOL    HW138816   0.712   2.719   3.932  0.3152  2.3999  0.1447
 9060SOL    HW238817   0.603   2.635   3.984 -1.3267  1.5124  0.6391
 9061SOL     OW38818   2.431   4.410   4.961  0.0750  0.2084 -0.5146
 9061SOL    HW138819   2.381   4.353   4.904 -0.2465  1.8970 -1.9154
 9061SOL    HW238820   2.480   4.449   4.889  0.9594  0.5512  0.2655
 9062SOL     OW38821   3.475   0.695  16.228  0.3011 -0.2805 -0.9557
 9062SOL    HW138822   3.478   0.668  16.136  3.1237 -2.5843 -0.1871
 9062SOL    HW238823   3.544   0.761  16.234  1.9898 -2.1449  0.1135
 9063SOL     OW38824   0.066   2.931  13.599  0.1899 -0.1287  0.0476
 9063SOL    HW138825   0.116   2.883  13.533  1.6365  0.6670  0.5733
 9063SOL    HW238826   4.712   2.906  13.584  0.4209  0.2042 -1.8273
 9064SOL     OW38827   0.511   4.460  16.576  0.0345  0.0831  0.3348
 9064SOL    HW138828   0.418   4.475  16.592  0.0729 -0.0406  0.6667
 9064SOL    HW238829   0.494   4.429  16.487 -0.2254 -1.0003  0.7589
 9065SOL     OW38830   2.488   1.449   8.654  0.2261  0.1155 -0.0449
 9065SOL    HW138831   2.476   1.541   8.678 -2.0332 -0.1726 -0.0892
 9065SOL    HW238832   2.508   1.452   8.561  1.9921  1.0564  0.3697
 9066SOL     OW38833   4.406   0.922   2.372 -0.8489  0.0344 -0.4331
 9066SOL    HW138834   4.396   0.902   2.465 -0.0176 -2.0316 -0.7845
 9066SOL    HW238835   4.318   0.903   2.340 -0.8099 -1.4040  0.2873
 9067SOL     OW38836   2.231   1.157   5.497  0.4408  0.2228 -0.0523
 9067SOL    HW138837   2.237   1.099   5.422  4.0768 -0.2020  0.5459
 9067SOL    HW238838   2.139   1.179   5.510 -0.0153 -1.0881 -1.1681
 9068SOL     OW38839   0.331   4.445   7.989  0.1003  0.1286  0.9338
 9068SOL    HW138840   0.321   4.523   7.935  1.2493 -0.6413 -0.4005
 9068SOL    HW238841   0.333   4.488   8.075  2.5067  0.4876  0.7028
 9069SOL     OW38842   3.525   0.481   3.718  0.6217  0.3876 -0.0671
 9069SOL    HW138843   3.490   0.432   3.643  2.3109 -1.4272  0.3495
 9069SOL    HW238844   3.617   0.500   3.700  0.5047  0.2181 -0.8443
 9070SOL     OW38845   1.886   2.058   4.721  0.4715  0.0554 -0.1198
 9070SOL    HW138846   1.977   2.034   4.703 -0.6240 -1.2734 -4.0392
 9070SOL    HW238847   1.884   2.150   4.694 -1.2166  0.3864  1.1464
 9071SOL     OW38848   0.104   3.175   8.249 -0.5111 -0.0036 -0.1267
 9071SOL    HW138849   0.156   3.225   8.185  1.0289  0.0300  1.1478
 9071SOL    HW238850   0.105   3.241   8.318  0.3760 -0.0506 -0.0904
 9072SOL     OW38851   0.716   2.675   2.486  0.0714  0.2878 -0.4370
 9072SOL    HW138852   0.673   2.600   2.444  0.1125 -0.8687  1.6012
 9072SOL    HW238853   0.646   2.740   2.489 -0.2561 -0.2951  3.7465
 9073SOL     OW38854   1.063   3.770   7.089  0.2557 -0.1515  0.0304
 9073SOL    HW138855   1.058   3.679   7.116  1.1011 -0.0170  0.6566
 9073SOL    HW238856   1.157   3.788   7.080 -0.1728  2.6142  1.1605
 9074SOL     OW38857   0.705   0.100  11.903  0.6493 -0.2381  0.3771
 9074SOL    HW138858   0.648   0.154  11.848  2.1709  0.2750 -0.6707
 9074SOL    HW238859   0.676   0.012  11.879  0.2339 -0.1619  0.5984
 9075SOL     OW38860   1.931   4.717  11.480  0.0479  0.0453  0.1296
 9075SOL    HW138861   1.908   0.068  11.508 -3.3349 -1.1461  1.0783
 9075SOL    HW238862   1.951   4.681  11.567  1.0115  1.4657  0.4890
 9076SOL     OW38863   4.422   3.905  12.078 -0.2839  0.1657  0.3289
 9076SOL    HW138864   4.443   3.997  12.092 -3.4436  0.4587  3.1713
 9076SOL    HW238865   4.469   3.878  12.000 -1.6994 -1.4791  0.0575
 9077SOL     OW38866   0.709   4.540   9.094 -0.4872 -0.1854  0.4304
 9077SOL    HW138867   0.801   4.526   9.117 -0.1729  0.0958 -0.6929
 9077SOL    HW238868   0.676   4.551   9.184  1.0907 -0.7004  1.0752
 9078SOL     OW38869   3.338   2.996   4.897 -0.3655  0.2068  0.7003
 9078SOL    HW138870   3.345   2.981   4.991 -0.3713 -0.1149  0.6467
 9078SOL    HW238871   3.263   2.938   4.884 -0.9689  1.3465 -0.9541
 9079SOL     OW38872   1.760   1.669   7.078 -0.8576 -0.4954  0.0196
 9079SOL    HW138873   1.826   1.611   7.116 -1.1977 -0.7000  0.2879
 9079SOL    HW238874   1.735   1.631   6.994  2.1126 -0.5556 -0.8456
 9080SOL     OW38875   0.761   3.229   9.151 -0.0964  0.2592  0.0015
 9080SOL    HW138876   0.836   3.272   9.109  0.4683  0.6652  1.4201
 9080SOL    HW238877   0.702   3.304   9.158 -1.5263 -0.8125 -0.5673
 9081SOL     OW38878   1.371   3.014   5.404  0.8580 -0.1131 -0.3297
 9081SOL    HW138879   1.421   3.080   5.355  0.8212 -0.7628 -1.2544
 9081SOL    HW238880   1.422   2.933   5.394 -1.3071 -1.3897 -1.1455
 9082SOL     OW38881   1.463   1.412   4.683  0.1275 -0.1673 -0.8555
 9082SOL    HW138882   1.504   1.485   4.636  1.2728 -0.7920 -0.8215
 9082SOL    HW238883   1.524   1.346   4.649 -0.3968 -1.8384  1.4962
 9083SOL     OW38884   0.670   2.399   9.473 -0.0592  0.2133 -0.7440
 9083SOL    HW138885   0.695   2.477   9.423  2.9614 -0.8830 -0.9872
 9083SOL    HW238886   0.754   2.355   9.488 -0.5022 -0.8854 -1.5203
 9084SOL     OW38887   4.514   0.735   5.338 -0.1287 -0.3062  0.6543
 9084SOL    HW138888   4.544   0.644   5.345  1.0011 -0.0793 -1.2405
 9084SOL    HW238889   4.499   0.754   5.430 -3.0482  0.5892  0.0048
 9085SOL     OW38890   3.383   4.718   2.176  0.2989 -0.0294 -0.7372
 9085SOL    HW138891   3.303   0.026   2.149 -0.5097 -0.5106  0.8572
 9085SOL    HW238892   3.412   4.683   2.093  1.3948 -1.4971  0.2733
 9086SOL     OW38893   4.336   3.968   0.154  0.9040  0.8783  0.1753
 9086SOL    HW138894   4.385   3.963   0.236  0.4924  0.1829  0.3801
 9086SOL    HW238895   4.409   3.954   0.094  0.1347 -0.0710 -0.5508
 9087SOL     OW38896   1.772   1.312   1.375  0.0496 -0.1873 -0.0381
 9087SOL    HW138897   1.815   1.363   1.306 -0.5651 -2.5627 -2.1587
 9087SOL    HW238898   1.714   1.381   1.407  0.2043 -1.2108  2.4528
 9088SOL     OW38899   3.566   0.050   4.303  0.3315  0.0623 -0.1655
 9088SOL    HW138900   3.530   0.011   4.224 -0.5470  1.0339 -0.2368
 9088SOL    HW238901   3.645   4.733   4.314  0.0193 -0.5729 -1.0423
 9089SOL     OW38902   0.237   3.082   5.453 -0.3120 -0.1676 -0.1620
 9089SOL    HW138903   0.165   3.109   5.396 -1.2780 -0.0353  1.1299
 9089SOL    HW238904   0.255   2.991   5.432 -1.3833 -0.3803 -0.1506
 9090SOL     OW38905   0.348   1.674   8.874  0.2062  0.2865  0.0957
 9090SOL    HW138906   0.321   1.765   8.866  0.2785  0.2731 -0.3123
 9090SOL    HW238907   0.295   1.628   8.809 -1.3040 -1.1719  2.3611
 9091SOL     OW38908   1.783   3.977  16.211 -0.5263 -0.5088 -0.5645
 9091SOL    HW138909   1.864   4.021  16.185 -0.9690  0.5501 -0.1190
 9091SOL    HW238910   1.729   3.991  16.134 -1.8333  1.2449  0.6622
 9092SOL     OW38911   0.636   3.761   1.632  0.5721 -0.7948  0.4543
 9092SOL    HW138912   0.694   3.790   1.562 -0.3935 -1.4259 -0.6180
 9092SOL    HW238913   0.595   3.679   1.603 -3.5811  1.8583 -1.2363
 9093SOL     OW38914   0.045   2.454   7.603  0.5631 -0.0006  0.3263
 9093SOL    HW138915   4.698   2.451   7.648  1.6317 -1.9917  2.2175
 9093SOL    HW238916   0.076   2.365   7.622 -0.4126 -0.4958 -0.4277
 9094SOL     OW38917   3.829   1.142   2.637  0.0243  0.3471  0.0607
 9094SOL    HW138918   3.780   1.224   2.637  0.0377  0.3483 -1.7752
 9094SOL    HW238919   3.789   1.094   2.710  0.7066 -1.1172 -0.5258
 9095SOL     OW38920   2.789   1.988   3.630 -0.0032 -0.0011  0.0183
 9095SOL    HW138921   2.855   1.977   3.562  0.1791 -1.5414  0.4613
 9095SOL    HW238922   2.751   1.901   3.640  2.5765 -1.0025  1.1769
 9096SOL     OW38923   4.310   3.972   4.922  0.3722  0.5777  0.1204
 9096SOL    HW138924   4.269   3.916   4.988 -0.5833 -0.0260 -0.9732
 9096SOL    HW238925   4.258   4.052   4.934 -0.9558 -0.1572 -0.6831
 9097SOL     OW38926   4.326   1.962   5.395  0.1338  0.4239  0.0352
 9097SOL    HW138927   4.277   1.950   5.313 -0.3936  1.5235  0.1950
 9097SOL    HW238928   4.257   1.973   5.460  1.3131 -2.2692  1.7293
 9098SOL     OW38929   4.341   2.850   2.595  0.5616  1.1471  0.1957
 9098SOL    HW138930   4.283   2.917   2.559  0.7498  1.3136  0.2008
 9098SOL    HW238931   4.280   2.789   2.636  0.8076 -0.9719 -2.5434
 9099SOL     OW38932   1.112   0.651   7.005 -0.0282 -0.4132 -0.1022
 9099SOL    HW138933   1.029   0.698   7.016  0.4593  0.5726 -0.6166
 9099SOL    HW238934   1.163   0.699   7.070 -1.3732 -0.6108  1.0844
 9100SOL     OW38935   1.098   2.461   8.650 -0.3124  0.3356  0.0444
 9100SOL    HW138936   1.158   2.532   8.629 -0.9544  0.1481 -2.4082
 9100SOL    HW238937   1.020   2.491   8.604  0.5299  2.6082  0.1220
 9101SOL     OW38938   2.703   2.913   6.243 -0.5102  0.1266 -0.3473
 9101SOL    HW138939   2.624   2.859   6.232  0.0591 -0.9421  0.9206
 9101SOL    HW238940   2.770   2.849   6.220  0.0583  0.4569  0.3969
 9102SOL     OW38941   0.209   2.548  11.352  0.1585 -0.2389 -0.4857
 9102SOL    HW138942   0.138   2.489  11.378  0.5208 -0.1647  0.6672
 9102SOL    HW238943   0.240   2.517  11.268  3.1119 -0.6605  0.7614
 9103SOL     OW38944   3.020   1.168   0.937  0.0752 -0.3976  0.4975
 9103SOL    HW138945   2.973   1.249   0.917  1.7638  0.1248 -1.4145
 9103SOL    HW238946   3.048   1.179   1.028  0.4703 -2.0001  0.5602
 9104SOL     OW38947   3.608   4.426  11.419  0.5768  0.0183 -0.1079
 9104SOL    HW138948   3.580   4.379  11.340 -1.5634  1.4199 -0.1601
 9104SOL    HW238949   3.557   4.505  11.405 -0.7354 -1.2159 -2.2519
 9105SOL     OW38950   4.153   2.908   2.775  0.0107  0.4705 -0.4044
 9105SOL    HW138951   4.116   2.963   2.843 -0.3347 -2.7542  2.0346
 9105SOL    HW238952   4.234   2.955   2.754 -0.1864  0.8881 -0.2219
 9106SOL     OW38953   0.645   3.063  10.590  0.0130 -0.1457 -0.0487
 9106SOL    HW138954   0.628   3.142  10.540  2.3749  0.5554  0.2195
 9106SOL    HW238955   0.601   3.082  10.672 -0.4232 -0.7455 -0.1479
 9107SOL     OW38956   1.643   0.361   8.050 -0.4764 -0.2464  0.2997
 9107SOL    HW138957   1.731   0.398   8.044 -0.4355 -0.4225 -0.1733
 9107SOL    HW238958   1.626   0.337   7.959  0.7474  1.7716 -0.4761
 9108SOL     OW38959   0.700   2.582  11.042 -0.1452 -0.4747  0.3949
 9108SOL    HW138960   0.745   2.614  11.120  0.1153 -1.6712  0.7466
 9108SOL    HW238961   0.762   2.516  11.011  1.9961  2.0830 -0.7102
 9109SOL     OW38962   0.134   2.776   2.175  0.7101 -0.2191 -0.3524
 9109SOL    HW138963   0.128   2.871   2.182  1.3145 -0.3718  2.3091
 9109SOL    HW238964   0.104   2.775   2.084  1.9131  1.2391 -0.7827
 9110SOL     OW38965   0.256   4.529   6.881  0.1955 -0.4063  0.3435
 9110SOL    HW138966   0.170   4.557   6.850  0.7206  0.9064  0.0648
 9110SOL    HW238967   0.310   4.560   6.809  2.4898 -0.7280  1.9285
 9111SOL     OW38968   2.829   3.718   8.188  0.2897  0.5852 -0.2015
 9111SOL    HW138969   2.791   3.641   8.146  1.4506 -0.8882  1.4518
 9111SOL    HW238970   2.923   3.701   8.191  0.3019  0.5440 -0.8024
 9112SOL     OW38971   2.848   1.301   8.945  0.1617 -0.5671  0.6300
 9112SOL    HW138972   2.944   1.295   8.942  0.0648 -1.4738 -0.5249
 9112SOL    HW238973   2.841   1.235   9.015 -0.7571 -1.7251 -0.5616
 9113SOL     OW38974   0.274   3.199  10.777 -0.5358  0.1034  0.1749
 9113SOL    HW138975   0.206   3.145  10.736 -1.5452  0.6307  1.1689
 9113SOL    HW238976   0.347   3.136  10.776 -0.2235  0.4891 -0.8673
 9114SOL     OW38977   3.644   2.265  17.561  0.1295 -0.0554 -0.0617
 9114SOL    HW138978   3.715   2.203  17.543  0.5762 -0.0699  1.7276
 9114SOL    HW238979   3.689   2.349  17.562 -0.1048  0.0452  2.0466
 9115SOL     OW38980   1.431   2.622   1.578  0.5080 -0.0250 -0.4730
 9115SOL    HW138981   1.463   2.689   1.638 -0.7649 -1.8248  2.2382
 9115SOL    HW238982   1.489   2.633   1.503 -2.4439 -0.3895 -2.8518
 9116SOL     OW38983   0.406   2.987   4.573 -0.3343 -0.1273 -0.4706
 9116SOL    HW138984   0.321   2.953   4.544 -1.2047  0.0764  1.8720
 9116SOL    HW238985   0.432   2.915   4.630 -0.5000  0.9642  0.9991
 9117SOL     OW38986   1.827   0.274   8.652  0.4901  0.0219 -0.5366
 9117SOL    HW138987   1.917   0.306   8.653  0.0885  1.1862 -3.2111
 9117SOL    HW238988   1.777   0.334   8.597 -2.4687 -1.7707  0.1545
 9118SOL     OW38989   2.707   2.857   4.967  0.5382 -0.1946  0.0971
 9118SOL    HW138990   2.718   2.880   4.874 -0.1207 -1.2112 -0.2332
 9118SOL    HW238991   2.618   2.822   4.961  0.9568 -1.3184  0.5882
 9119SOL     OW38992   3.740   3.702   7.681  0.0886  0.4003 -0.2383
 9119SOL    HW138993   3.740   3.632   7.746 -0.6871 -1.0349 -1.7771
 9119SOL    HW238994   3.831   3.714   7.654  0.4900  0.1025  0.9950
 9120SOL     OW38995   0.983   1.458  12.514  0.3120 -0.0814  0.2422
 9120SOL    HW138996   1.068   1.418  12.498 -0.7398 -2.2248  0.0654
 9120SOL    HW238997   0.962   1.443  12.607 -1.0040  0.8239  0.0972
 9121SOL     OW38998   3.758   2.264   3.257 -0.0398 -0.2871 -0.1774
 9121SOL    HW138999   3.731   2.354   3.273 -0.1259 -0.3738  0.1619
 9121SOL    HW239000   3.755   2.223   3.344  1.2024 -0.1202 -0.0515
 9122SOL     OW39001   3.697   2.813   3.409  0.2300 -0.2414 -0.0777
 9122SOL    HW139002   3.705   2.796   3.502  1.1174  0.6918  0.0229
 9122SOL    HW239003   3.612   2.856   3.413  0.4551  0.3176 -1.1219
 9123SOL     OW39004   2.969   0.148   9.839  0.0484  0.4463  0.2392
 9123SOL    HW139005   2.907   0.182   9.774 -2.0075 -0.1161  1.9114
 9123SOL    HW239006   3.042   0.209   9.828 -0.4460  0.5893 -2.2628
 9124SOL     OW39007   1.119   2.670  11.682 -0.4145 -0.3018  0.1843
 9124SOL    HW139008   1.104   2.576  11.686 -0.6241 -0.3883 -2.2520
 9124SOL    HW239009   1.156   2.680  11.594  2.8022 -0.9783  1.4897
 9125SOL     OW39010   3.258   3.134   6.184 -0.6303 -0.1498 -1.1086
 9125SOL    HW139011   3.202   3.118   6.108  1.2851  1.0784 -2.7680
 9125SOL    HW239012   3.243   3.058   6.240 -0.7435 -1.5720 -3.0580
 9126SOL     OW39013   1.893   2.796   8.110 -0.1334 -0.0530  0.2864
 9126SOL    HW139014   1.944   2.845   8.045 -0.0540 -3.6595 -2.3827
 9126SOL    HW239015   1.927   2.830   8.192 -0.2017  1.8686 -0.4825
 9127SOL     OW39016   0.269   1.399   3.773 -0.4889  0.0701  0.2786
 9127SOL    HW139017   0.226   1.328   3.725 -0.3153  2.5717 -3.5329
 9127SOL    HW239018   0.297   1.456   3.702  1.2496 -0.6303  0.4093
 9128SOL     OW39019   2.405   0.637  16.733  0.1170  0.3491 -0.1610
 9128SOL    HW139020   2.473   0.657  16.669 -0.2877  0.5501 -0.5262
 9128SOL    HW239021   2.362   0.722  16.741  0.7195  0.5076  1.6210
 9129SOL     OW39022   4.098   3.764   5.597 -0.3007  0.6253  0.8250
 9129SOL    HW139023   4.156   3.741   5.525 -2.8373 -1.8537 -0.3957
 9129SOL    HW239024   4.154   3.737   5.669 -2.6175 -0.8350  2.0870
 9130SOL     OW39025   0.982   1.796   7.511  0.2940  0.4831  0.1602
 9130SOL    HW139026   0.959   1.888   7.518 -1.3083  0.0539  0.5120
 9130SOL    HW239027   0.898   1.752   7.523  0.8371 -0.7438 -0.5257
 9131SOL     OW39028   1.290   0.076   2.035  0.0920  0.1285  0.1512
 9131SOL    HW139029   1.273   4.720   2.021  0.7767  0.0352 -0.0444
 9131SOL    HW239030   1.206   0.116   2.013 -0.0114  0.5377  1.3121
 9132SOL     OW39031   0.499   0.110   9.261  0.5561 -0.7362  0.6449
 9132SOL    HW139032   0.565   0.047   9.291  1.1001 -0.4427  0.0470
 9132SOL    HW239033   0.519   0.182   9.322 -0.4703  0.2026 -0.1429
 9133SOL     OW39034   1.670   0.780   6.175 -0.4784  0.2192  0.2379
 9133SOL    HW139035   1.675   0.756   6.083 -0.2917 -2.2707  0.9175
 9133SOL    HW239036   1.728   0.857   6.178  0.8801 -0.8191  0.8453
 9134SOL     OW39037   1.682   3.030   4.783 -0.3384 -0.1016  0.2797
 9134SOL    HW139038   1.655   2.938   4.777 -0.3275 -0.2425  2.6252
 9134SOL    HW239039   1.616   3.067   4.841  0.4449  1.5990  0.0774
 9135SOL     OW39040   1.205   3.102  12.495  0.1078 -0.0333 -0.2369
 9135SOL    HW139041   1.223   3.103  12.401  1.6700 -1.3561  0.0480
 9135SOL    HW239042   1.111   3.104  12.478  0.1735 -3.0237 -1.0596
 9136SOL     OW39043   4.689   3.926   3.324  0.7421  0.1107  0.2738
 9136SOL    HW139044   4.614   3.934   3.266  1.8139 -1.1488 -1.2915
 9136SOL    HW239045   4.693   4.019   3.345 -1.2918  0.2334  0.0489
 9137SOL     OW39046   4.300   0.540  13.989  0.2835 -0.3972  0.0883
 9137SOL    HW139047   4.213   0.564  13.956  1.4154 -0.4823 -2.9434
 9137SOL    HW239048   4.286   0.455  14.030  2.3668  0.2633  2.1624
 9138SOL     OW39049   2.647   3.997   0.228  0.6510 -0.7099 -0.1959
 9138SOL    HW139050   2.575   4.005   0.166  0.7408 -2.5852 -0.5454
 9138SOL    HW239051   2.685   3.912   0.204 -0.7070 -1.8028  1.5483
 9139SOL     OW39052   3.790   3.607   2.478  0.5545  0.0201  0.0748
 9139SOL    HW139053   3.842   3.643   2.406 -0.7931  0.0097 -0.9072
 9139SOL    HW239054   3.776   3.518   2.447 -0.0062  0.4470 -0.8799
 9140SOL     OW39055   3.364   3.397  13.709 -0.3525 -0.0391 -0.0754
 9140SOL    HW139056   3.339   3.413  13.800  2.0792  0.4948  0.5121
 9140SOL    HW239057   3.450   3.439  13.703 -0.3241  0.0228  0.8214
 9141SOL     OW39058   3.348   0.434   5.395  0.2153 -0.4379  0.2932
 9141SOL    HW139059   3.284   0.376   5.436 -0.6668 -1.0971 -1.9966
 9141SOL    HW239060   3.425   0.379   5.379 -0.3610 -1.2481  0.3290
 9142SOL     OW39061   0.964   1.340   6.223 -0.5442  0.2713  0.0365
 9142SOL    HW139062   0.959   1.309   6.132  0.7284  0.6256 -0.1545
 9142SOL    HW239063   1.060   1.346   6.226 -0.5222 -0.8437  1.5485
 9143SOL     OW39064   0.324   3.136  11.062  0.2035 -0.1513  0.5160
 9143SOL    HW139065   0.327   3.175  10.974  1.9408  1.4667  1.2931
 9143SOL    HW239066   0.406   3.174  11.094  0.2060  0.0316  0.2919
 9144SOL     OW39067   2.066   0.114   5.882  0.2623 -0.3734 -0.1013
 9144SOL    HW139068   1.996   0.064   5.838 -2.3585  1.4048  2.0561
 9144SOL    HW239069   2.081   0.049   5.951  0.4900  0.0139  0.2107
 9145SOL     OW39070   2.300   2.384  15.335 -0.1680 -0.2933  0.6715
 9145SOL    HW139071   2.380   2.393  15.283  0.3648  0.3446  1.6031
 9145SOL    HW239072   2.236   2.397  15.265  1.2740 -0.3170 -0.6579
 9146SOL     OW39073   0.596   1.552   2.056  0.0112 -0.1544 -0.6335
 9146SOL    HW139074   0.511   1.541   2.014 -1.4762  1.7596  1.8418
 9146SOL    HW239075   0.590   1.482   2.120 -1.7687 -0.7197 -1.4325
 9147SOL     OW39076   1.021   4.253   4.802 -0.6999 -0.6956 -0.4375
 9147SOL    HW139077   0.967   4.236   4.724  0.0112 -0.8166 -0.9068
 9147SOL    HW239078   1.039   4.159   4.805  0.5141 -0.4283  0.5273
 9148SOL     OW39079   0.165   3.182   3.164 -0.2560 -0.1114 -0.2883
 9148SOL    HW139080   0.207   3.162   3.248 -0.6732  0.2759  0.0126
 9148SOL    HW239081   0.112   3.103   3.156  0.1902 -0.4621  0.1954
 9149SOL     OW39082   1.056   2.534   3.573 -0.0054  0.1202  0.1540
 9149SOL    HW139083   0.990   2.515   3.640  1.0746 -1.1783  0.8408
 9149SOL    HW239084   1.013   2.594   3.512 -0.2263  1.1860  1.3527
 9150SOL     OW39085   4.167   2.843   5.592 -0.4297  0.2734 -0.3839
 9150SOL    HW139086   4.141   2.762   5.636 -1.8280  0.4173 -0.9188
 9150SOL    HW239087   4.260   2.842   5.612 -0.3503  1.5907 -0.7186
 9151SOL     OW39088   0.803   1.654   5.415 -0.4369  0.5314 -0.0445
 9151SOL    HW139089   0.798   1.575   5.360  0.2615 -0.4163  1.2754
 9151SOL    HW239090   0.790   1.616   5.502 -1.1754 -0.5765 -0.6278
 9152SOL     OW39091   0.208   0.855  13.715 -0.6350  0.3647 -0.1292
 9152SOL    HW139092   0.119   0.846  13.750 -0.6812 -0.6447 -0.5086
 9152SOL    HW239093   0.207   0.950  13.697 -2.9489  0.1280 -1.2998
 9153SOL     OW39094   2.870   3.755   3.036 -0.2204 -0.8332  0.1117
 9153SOL    HW139095   2.806   3.779   3.104  0.0381  0.6059 -0.1605
 9153SOL    HW239096   2.930   3.699   3.086  2.2773  1.8677  0.1175
 9154SOL     OW39097   0.330   0.932   6.501  0.0013 -0.0592 -0.1747
 9154SOL    HW139098   0.243   0.933   6.461 -0.7872  1.7046  1.5853
 9154SOL    HW239099   0.321   0.983   6.582 -0.9696  0.1516 -0.4101
 9155SOL     OW39100   0.114   4.060   1.895 -0.1683 -0.3538  0.0584
 9155SOL    HW139101   0.147   4.044   1.806  1.1187 -1.6593  0.7776
 9155SOL    HW239102   0.196   4.060   1.944  0.9420  1.0137 -1.8149
 9156SOL     OW39103   1.413   0.693   8.589  0.0959  0.9866 -1.2351
 9156SOL    HW139104   1.378   0.633   8.656 -0.9301 -0.8952 -3.4483
 9156SOL    HW239105   1.392   0.654   8.504  0.6432 -0.6398 -0.6214
 9157SOL     OW39106   1.192   4.572   5.255  0.4206  0.1713 -0.3712
 9157SOL    HW139107   1.220   4.513   5.185 -1.1280  0.7088 -1.4576
 9157SOL    HW239108   1.256   4.644   5.253  0.2225  0.3988  1.9967
 9158SOL     OW39109   1.545   1.053   4.608  0.2077 -0.0114 -0.2465
 9158SOL    HW139110   1.528   1.119   4.541 -1.8427  0.7423  1.0446
 9158SOL    HW239111   1.587   0.980   4.561 -0.2202 -0.5244  0.1672
 9159SOL     OW39112   2.419   0.070   1.285  0.0654  0.0293  0.4253
 9159SOL    HW139113   2.386   0.006   1.348 -0.3428  2.0599  2.2492
 9159SOL    HW239114   2.335   0.115   1.275  0.6812  1.7740  3.1359
 9160SOL     OW39115   1.019   2.664  13.731  0.1462  0.3027  0.4288
 9160SOL    HW139116   0.989   2.639  13.643 -0.1470 -0.4654  0.7532
 9160SOL    HW239117   0.957   2.615  13.783 -1.3107 -0.4803 -2.0356
 9161SOL     OW39118   1.553   1.953  16.552 -0.0236 -0.1328  0.0032
 9161SOL    HW139119   1.578   1.917  16.467 -2.2390  2.3035 -1.6718
 9161SOL    HW239120   1.636   1.996  16.572  1.0667 -1.1951 -2.2742
 9162SOL     OW39121   3.453   1.761   5.295  0.0117  0.1398  0.2049
 9162SOL    HW139122   3.429   1.844   5.255 -2.5034 -0.1332  1.1348
 9162SOL    HW239123   3.449   1.788   5.387 -0.8000  0.4873  0.0634
 9163SOL     OW39124   3.823   0.065  12.322 -0.0313  0.4375 -0.1503
 9163SOL    HW139125   3.898   0.088  12.267  0.7289  0.1893  0.7800
 9163SOL    HW239126   3.807   4.714  12.290 -0.2668  1.2093 -2.1473
 9164SOL     OW39127   0.724   3.293   3.657  0.2644 -0.0122 -0.2654
 9164SOL    HW139128   0.638   3.264   3.627  0.4519  0.4299 -1.2107
 9164SOL    HW239129   0.714   3.385   3.632  0.4725 -0.0168 -0.3595
 9165SOL     OW39130   0.467   1.275  13.571  0.5216 -0.6447  0.1757
 9165SOL    HW139131   0.380   1.313  13.580  1.9529  2.8221 -0.3715
 9165SOL    HW239132   0.471   1.253  13.478  0.2114  0.4706 -0.1086
 9166SOL     OW39133   1.878   3.270   3.295  0.4675  0.5046 -0.4596
 9166SOL    HW139134   1.954   3.325   3.274  2.4429 -1.4635  1.5077
 9166SOL    HW239135   1.807   3.331   3.277 -0.1403  0.1317  0.7272
 9167SOL     OW39136   0.535   0.889   5.526 -0.2649  0.8396 -0.2071
 9167SOL    HW139137   0.538   0.891   5.622  1.3458  0.8157 -0.2569
 9167SOL    HW239138   0.595   0.815   5.513 -1.4571 -0.4007  1.3230
 9168SOL     OW39139   0.450   0.532  13.358  0.0077 -0.3742 -0.1640
 9168SOL    HW139140   0.422   0.441  13.362 -0.2719 -0.2700  0.3119
 9168SOL    HW239141   0.396   0.573  13.426  0.9845 -0.1664  0.4860
 9169SOL     OW39142   1.999   3.965   6.281  0.2716  0.5127 -0.0981
 9169SOL    HW139143   1.958   3.921   6.356  1.3021  1.8830  1.2781
 9169SOL    HW239144   1.915   3.990   6.244  0.7041  2.7009  0.4159
 9170SOL     OW39145   0.507   2.597   2.779  0.1696 -0.0959  0.2247
 9170SOL    HW139146   0.496   2.656   2.705  1.1417 -2.1823 -1.6024
 9170SOL    HW239147   0.451   2.524   2.752 -0.6146  0.8233 -0.6237
 9171SOL     OW39148   2.569   4.642   6.809  0.0538  0.1457 -0.4224
 9171SOL    HW139149   2.645   4.658   6.753  0.6207 -1.3365 -0.0805
 9171SOL    HW239150   2.509   4.703   6.765  1.8250  0.6513 -2.1563
 9172SOL     OW39151   1.692   4.243   7.088  0.4252 -0.1665 -0.5166
 9172SOL    HW139152   1.707   4.328   7.130 -0.5373  0.5512 -1.6365
 9172SOL    HW239153   1.781   4.214   7.107  1.2071  1.0853 -2.3087
 9173SOL     OW39154   4.125   0.689   8.441 -0.0974 -0.1395  0.5620
 9173SOL    HW139155   4.121   0.682   8.345  3.2392 -1.1448  0.4793
 9173SOL    HW239156   4.031   0.688   8.460 -0.1935  0.3554  0.0932
 9174SOL     OW39157   0.691   0.103   6.434  0.2255 -0.3696  0.2875
 9174SOL    HW139158   0.731   0.040   6.494  0.0469  0.4578  1.2841
 9174SOL    HW239159   0.658   0.171   6.493 -0.0527  0.3343 -0.6943
 9175SOL     OW39160   1.988   4.334  13.601 -0.1130  0.5371 -0.7921
 9175SOL    HW139161   2.037   4.266  13.555 -0.8247 -1.6633  1.7296
 9175SOL    HW239162   1.928   4.282  13.654 -0.6824 -0.5119 -2.4793
 9176SOL     OW39163   1.009   0.315   9.121 -0.2315 -0.3427 -0.1826
 9176SOL    HW139164   0.967   0.373   9.058  1.9567 -1.3065 -2.5730
 9176SOL    HW239165   0.940   0.249   9.120  0.9700 -1.5996 -3.0027
 9177SOL     OW39166   2.412   3.597   1.198 -0.2124 -0.0105 -0.8900
 9177SOL    HW139167   2.317   3.591   1.212 -0.1411  1.9557  0.5397
 9177SOL    HW239168   2.415   3.635   1.110  1.7311  1.2461 -0.2737
 9178SOL     OW39169   3.945   0.741  15.112 -0.3417  0.3200 -0.7111
 9178SOL    HW139170   3.921   0.806  15.046  1.1787  0.9112 -0.6766
 9178SOL    HW239171   4.000   0.791  15.172  0.4867  0.9239 -1.9903
 9179SOL     OW39172   4.346   4.175  16.767  0.6978 -0.5724 -0.1194
 9179SOL    HW139173   4.406   4.249  16.762 -0.7252  0.5340 -0.7273
 9179SOL    HW239174   4.381   4.116  16.699  0.8887  1.1753 -1.5522
 9180SOL     OW39175   3.244   1.882   3.845  0.6319  0.3005 -0.3201
 9180SOL    HW139176   3.171   1.824   3.863  0.5885  0.4484 -0.0160
 9180SOL    HW239177   3.323   1.827   3.842 -0.7054 -1.6496  0.4067
 9181SOL     OW39178   0.870   2.149   9.497 -0.1836 -0.2055 -0.1834
 9181SOL    HW139179   0.809   2.094   9.547 -1.3236 -0.1404 -1.4925
 9181SOL    HW239180   0.918   2.078   9.454  0.4540  0.3098 -0.3193
 9182SOL     OW39181   3.633   0.574   7.277  0.1774 -0.4381 -0.0656
 9182SOL    HW139182   3.699   0.618   7.331  1.1459  0.1308 -1.7349
 9182SOL    HW239183   3.585   0.537   7.351  1.3434  2.0266  1.9329
 9183SOL     OW39184   0.068   4.219  15.987  0.1142 -0.1712  0.4023
 9183SOL    HW139185   0.014   4.188  15.915 -0.5910  0.1285  0.8059
 9183SOL    HW239186   0.145   4.246  15.936  0.2801  2.3499  1.9646
 9184SOL     OW39187   4.377   0.729   8.343 -0.1507  0.6061 -0.3830
 9184SOL    HW139188   4.371   0.651   8.288  2.8840 -0.5674  0.9812
 9184SOL    HW239189   4.312   0.702   8.408 -0.6458 -1.7454 -1.8703
 9185SOL     OW39190   4.279   2.282  12.050 -0.1497  0.3724 -0.0672
 9185SOL    HW139191   4.233   2.314  11.972  1.0670  0.4121 -0.7782
 9185SOL    HW239192   4.333   2.210  12.016  1.1702  1.7703 -0.9282
 9186SOL     OW39193   0.735   4.535  15.052 -0.4248  0.1380 -0.6556
 9186SOL    HW139194   0.670   4.473  15.085  2.2921 -0.8389  2.9244
 9186SOL    HW239195   0.787   4.567  15.126  1.0263 -2.1824 -0.6921
 9187SOL     OW39196   0.530   3.526   7.855  0.2679  0.1694  0.0823
 9187SOL    HW139197   0.559   3.463   7.922  0.2612  0.6428  0.5315
 9187SOL    HW239198   0.507   3.599   7.912  0.2562  0.4544 -0.2963
 9188SOL     OW39199   2.154   0.706   3.029  0.2452  0.3147 -0.1868
 9188SOL    HW139200   2.228   0.727   2.972  2.2597 -1.8866  1.5939
 9188SOL    HW239201   2.085   0.766   3.001 -1.8788 -2.8277 -1.6457
 9189SOL     OW39202   3.997   4.367   7.548  0.3309  0.3654 -0.3148
 9189SOL    HW139203   4.066   4.384   7.484  1.9691  0.6892  1.5653
 9189SOL    HW239204   4.034   4.380   7.635 -2.1990  0.2904  0.7726
 9190SOL     OW39205   1.774   4.455   7.475 -0.2624 -0.3401  0.1336
 9190SOL    HW139206   1.862   4.483   7.499 -0.2541  0.6184 -1.0136
 9190SOL    HW239207   1.791   4.370   7.434  0.1927 -0.8508  1.3881
 9191SOL     OW39208   1.121   4.154   4.383 -0.1013 -0.0928  0.3902
 9191SOL    HW139209   1.164   4.198   4.310 -0.8499 -1.2925 -0.7858
 9191SOL    HW239210   1.134   4.216   4.454  1.9790  0.0942 -0.1704
 9192SOL     OW39211   3.516   4.570  12.234  0.3263 -0.0831 -0.2971
 9192SOL    HW139212   3.503   4.483  12.196  0.6629  0.2472 -1.1668
 9192SOL    HW239213   3.464   4.623  12.173 -1.7118 -0.2186  1.3613
 9193SOL     OW39214   0.519   3.062  10.856 -0.0078  0.1196 -0.3843
 9193SOL    HW139215   0.570   3.095  10.929 -2.3313  2.3220  0.2406
 9193SOL    HW239216   0.531   2.969  10.878  1.4237  0.8305  1.8236
 9194SOL     OW39217   3.472   2.627  15.947  0.2947 -0.3110  0.0958
 9194SOL    HW139218   3.540   2.651  16.010 -0.3311  0.5414  0.4444
 9194SOL    HW239219   3.452   2.713  15.909 -0.9139 -0.5464  0.2141
 9195SOL     OW39220   3.544   0.597   5.737 -0.2478  0.1327 -0.0513
 9195SOL    HW139221   3.485   0.643   5.796  1.8209  2.1428  0.4551
 9195SOL    HW239222   3.508   0.511   5.757 -0.4953  0.3593  0.4779
 9196SOL     OW39223   0.482   4.532  13.605 -0.4276 -0.0958  0.3187
 9196SOL    HW139224   0.568   4.509  13.570 -1.0815 -1.6641 -0.3027
 9196SOL    HW239225   0.501   4.586  13.681  0.0627  0.9539 -0.5560
 9197SOL     OW39226   3.927   0.323   6.550  0.2729 -0.3520 -0.1906
 9197SOL    HW139227   3.880   0.392   6.503 -1.0861 -0.7232  0.6384
 9197SOL    HW239228   3.909   0.344   6.641 -3.1880 -1.4989 -0.5951
 9198SOL     OW39229   4.651   1.265   6.733 -0.2389 -0.1035  0.3483
 9198SOL    HW139230   4.563   1.226   6.732  0.4497 -1.6416  0.0103
 9198SOL    HW239231   4.663   1.283   6.826  0.7253 -1.2060  0.4384
 9199SOL     OW39232   0.105   1.847   2.425 -0.1304  0.3882  0.1714
 9199SOL    HW139233   0.159   1.784   2.471  0.7974  1.0386 -0.0299
 9199SOL    HW239234   0.037   1.793   2.386  2.1742 -0.4466 -2.6606
 9200SOL     OW39235   1.062   0.963   2.860 -0.3365 -0.3844 -0.2768
 9200SOL    HW139236   1.019   1.047   2.876  0.1734 -0.4716  1.5356
 9200SOL    HW239237   1.079   0.925   2.946  1.3234  0.1275 -0.3752
 9201SOL     OW39238   1.260   3.140   3.943  0.6929 -0.0154 -0.8036
 9201SOL    HW139239   1.319   3.085   3.893 -0.3349 -0.6668 -1.2786
 9201SOL    HW239240   1.203   3.179   3.878 -0.6119  0.5812  0.6882
 9202SOL     OW39241   2.676   1.927  12.404 -0.7567  0.2017 -0.3412
 9202SOL    HW139242   2.770   1.924  12.421 -1.1627 -2.7449  1.5156
 9202SOL    HW239243   2.641   1.876  12.477  1.8171  0.7901  1.2861
 9203SOL     OW39244   3.855   1.886  13.768  0.0165  0.2982  0.1130
 9203SOL    HW139245   3.804   1.831  13.827  0.2468  2.2966  2.1673
 9203SOL    HW239246   3.904   1.822  13.715 -2.3309  0.4471 -2.2065
 9204SOL     OW39247   2.100   1.930   5.874 -0.0677 -0.1298  0.0556
 9204SOL    HW139248   2.050   1.877   5.811 -0.2428 -0.7843  0.7449
 9204SOL    HW239249   2.063   2.018   5.868  1.1401  0.3666 -0.1436
 9205SOL     OW39250   0.061   4.545   7.644 -0.2655 -0.3293 -0.0890
 9205SOL    HW139251   0.019   4.573   7.726 -2.4614  0.1310 -1.3832
 9205SOL    HW239252   0.007   4.593   7.581  1.1522  0.0765 -1.0092
 9206SOL     OW39253   3.679   1.891   4.540 -0.0154 -0.2258 -0.5258
 9206SOL    HW139254   3.714   1.855   4.458  0.2548  1.4172 -1.1380
 9206SOL    HW239255   3.705   1.825   4.604 -0.9604  1.5650  1.6835
 9207SOL     OW39256   4.712   1.993  12.149 -0.1435 -0.4928 -0.0534
 9207SOL    HW139257   0.028   2.008  12.228  0.8481 -0.4716 -0.7274
 9207SOL    HW239258   0.036   1.944  12.094  0.6707  0.2107  0.2150
 9208SOL     OW39259   1.231   3.402   3.668 -0.0701 -0.1753  0.6359
 9208SOL    HW139260   1.147   3.423   3.626  0.1803  0.2548  0.3458
 9208SOL    HW239261   1.195   3.329   3.718  0.6891 -0.5906  0.5661
 9209SOL     OW39262   0.823   4.287  12.222 -0.4159 -0.3380 -0.0494
 9209SOL    HW139263   0.756   4.240  12.171 -0.0088  0.8317 -1.6618
 9209SOL    HW239264   0.805   4.241  12.304 -0.5662  2.4672  1.4990
 9210SOL     OW39265   3.039   0.126  16.225 -0.2822  0.2054  0.3964
 9210SOL    HW139266   3.076   0.212  16.204  0.5452 -0.2655 -0.0767
 9210SOL    HW239267   3.009   0.087  16.142  3.4480  0.4215 -1.0679
 9211SOL     OW39268   1.313   3.715   6.083 -0.2110 -0.4097  0.5343
 9211SOL    HW139269   1.287   3.795   6.038  2.2258  0.3533  0.4312
 9211SOL    HW239270   1.332   3.653   6.013 -1.0891 -0.4757  0.3612
 9212SOL     OW39271   0.563   1.460   3.128  0.7999  0.0781 -0.1945
 9212SOL    HW139272   0.643   1.452   3.075 -0.4403  0.7200 -2.1523
 9212SOL    HW239273   0.586   1.497   3.213  3.3608 -2.5725  0.2973
 9213SOL     OW39274   3.615   0.735   4.156 -0.7640 -0.6004  0.5900
 9213SOL    HW139275   3.520   0.730   4.147 -0.6432  1.5796 -1.8653
 9213SOL    HW239276   3.622   0.831   4.159 -3.2674 -0.3515 -3.0501
 9214SOL     OW39277   2.653   2.959   4.060  0.0987 -0.2972 -0.6003
 9214SOL    HW139278   2.734   2.942   4.107 -1.2808  0.9460  2.2283
 9214SOL    HW239279   2.591   2.936   4.129  0.4066 -0.8754 -0.5120
 9215SOL     OW39280   2.947   0.611   5.445 -0.1916  0.1649  0.4853
 9215SOL    HW139281   2.997   0.531   5.454  1.2150  0.8938 -0.7533
 9215SOL    HW239282   2.980   0.636   5.359  0.5409  0.2001  0.7763
 9216SOL     OW39283   4.018   0.643   8.778  0.5094 -0.4388 -0.1329
 9216SOL    HW139284   3.976   0.650   8.692 -0.8129 -1.0162  0.4616
 9216SOL    HW239285   3.995   0.552   8.797  0.1809 -0.3770 -0.2364
 9217SOL     OW39286   0.437   3.729  11.901 -0.1860 -0.1928 -0.8337
 9217SOL    HW139287   0.471   3.663  11.962  0.1417  0.0291 -0.7733
 9217SOL    HW239288   0.468   3.690  11.819 -0.2684  1.3570 -1.6079
 9218SOL     OW39289   0.578   2.292   1.867  0.4010  0.3888 -0.7731
 9218SOL    HW139290   0.486   2.265   1.865  0.2277  0.8824  0.3626
 9218SOL    HW239291   0.586   2.316   1.775 -0.5277  1.1638 -0.6443
 9219SOL     OW39292   0.306   4.260   3.545 -0.0174  0.2577  0.2880
 9219SOL    HW139293   0.224   4.308   3.556 -0.9519 -1.2527 -0.0550
 9219SOL    HW239294   0.335   4.252   3.636  0.9745  4.2850  0.3058
 9220SOL     OW39295   4.197   2.415   6.560 -0.1430 -0.0688 -0.1246
 9220SOL    HW139296   4.106   2.397   6.534 -0.2303  0.6071 -0.3079
 9220SOL    HW239297   4.183   2.462   6.642  0.7537  0.4583 -0.2717
 9221SOL     OW39298   1.695   3.927   4.400 -0.2410 -0.3583 -0.2503
 9221SOL    HW139299   1.687   3.834   4.418  0.3601  0.0877  2.2919
 9221SOL    HW239300   1.654   3.963   4.479 -3.0775 -1.3483 -1.2929
 9222SOL     OW39301   4.580   2.623   9.811  0.3571  0.3512 -0.3061
 9222SOL    HW139302   4.528   2.549   9.779 -0.0617  0.7809 -0.6175
 9222SOL    HW239303   4.561   2.673   9.731 -1.5537  0.8017  0.4370
 9223SOL     OW39304   4.733   0.695   6.064  0.2710  0.4440  0.1626
 9223SOL    HW139305   4.735   0.764   5.998 -2.4662  1.3501  1.0340
 9223SOL    HW239306   0.086   0.689   6.096  0.3648  0.3116 -0.1248
 9224SOL     OW39307   0.231   0.721   6.201  0.4641 -0.2286 -0.0799
 9224SOL    HW139308   0.265   0.631   6.200  3.1529  0.8268 -1.4168
 9224SOL    HW239309   0.313   0.767   6.219  0.0182  0.5878 -0.1500
 9225SOL     OW39310   1.733   3.571  12.124  0.4940 -0.2217 -0.3969
 9225SOL    HW139311   1.665   3.514  12.161  2.2183 -1.0549  1.4763
 9225SOL    HW239312   1.782   3.574  12.207 -0.2299  1.5854 -0.0338
 9226SOL     OW39313   1.737   3.488   6.079  0.2898  0.4666  0.4501
 9226SOL    HW139314   1.755   3.454   5.992 -3.7051 -0.9724  0.1614
 9226SOL    HW239315   1.764   3.575   6.050 -0.5867  1.1446  1.6429
 9227SOL     OW39316   1.016   2.401   1.632  0.1181  0.2427  0.9279
 9227SOL    HW139317   1.048   2.312   1.641  0.6548  0.1476 -1.9818
 9227SOL    HW239318   0.946   2.366   1.577  1.3301  0.5664 -0.8052
 9228SOL     OW39319   3.495   3.791  12.549 -0.3182  0.3341 -0.1837
 9228SOL    HW139320   3.541   3.719  12.504  1.0212  0.0432  1.6681
 9228SOL    HW239321   3.462   3.748  12.628  1.7421  0.0652  0.5435
 9229SOL     OW39322   0.937   0.575   1.639 -0.1887 -0.2998 -0.3136
 9229SOL    HW139323   1.004   0.616   1.695  1.0218  0.3463 -2.2231
 9229SOL    HW239324   0.860   0.622   1.672  0.1802 -0.2123  0.4250
 9230SOL     OW39325   4.236   0.629   4.683 -0.1131  0.1954 -0.8739
 9230SOL    HW139326   4.160   0.615   4.739  2.4740 -1.1107  2.3335
 9230SOL    HW239327   4.273   0.541   4.675  0.3585  0.3448 -0.3664
 9231SOL     OW39328   1.627   3.321   7.851  1.1086 -0.5872  0.2686
 9231SOL    HW139329   1.671   3.301   7.934  3.0992  3.5887  0.2241
 9231SOL    HW239330   1.668   3.248   7.804  2.1666  0.1411  0.0512
 9232SOL     OW39331   2.112   2.452  15.151 -0.0471  0.0042  0.2832
 9232SOL    HW139332   2.111   2.548  15.148 -0.6826 -0.0422 -0.9935
 9232SOL    HW239333   2.093   2.430  15.060 -3.1299  4.2340 -0.0901
 9233SOL     OW39334   0.705   2.228  17.512  0.1300 -0.3132 -0.0768
 9233SOL    HW139335   0.735   2.271  17.433 -0.1249  0.0016  0.0014
 9233SOL    HW239336   0.613   2.254  17.509 -0.0178 -0.7117  0.7765
 9234SOL     OW39337   4.097   1.100   6.037  0.3883 -0.1279 -0.3684
 9234SOL    HW139338   4.077   1.189   6.067  1.1307 -0.0686 -0.0429
 9234SOL    HW239339   4.143   1.056   6.108  0.0053  0.6880  0.3902
 9235SOL     OW39340   4.096   3.271   6.963 -0.4341  0.4484 -0.5181
 9235SOL    HW139341   4.140   3.225   7.034 -2.0539 -1.4962 -0.7768
 9235SOL    HW239342   4.033   3.203   6.940  0.3009 -0.3859 -0.0578
 9236SOL     OW39343   1.262   0.168   6.150 -0.3576 -0.0041 -0.5100
 9236SOL    HW139344   1.207   0.132   6.221  1.4879  0.8300  1.3429
 9236SOL    HW239345   1.352   0.138   6.157 -0.1222  0.5618 -1.1853
 9237SOL     OW39346   3.987   2.307  15.494  0.1381 -0.1432 -0.6652
 9237SOL    HW139347   4.013   2.252  15.568  0.9315  0.3289 -0.5907
 9237SOL    HW239348   3.991   2.394  15.533  0.3613  0.3192 -1.7243
 9238SOL     OW39349   2.306   1.353   9.610 -0.2416  0.4585  0.4624
 9238SOL    HW139350   2.272   1.418   9.549  0.4935 -0.3232 -0.7640
 9238SOL    HW239351   2.235   1.364   9.674 -2.3355 -2.0694 -1.4103
 9239SOL     OW39352   2.476   2.934   8.156 -0.6729 -0.2940 -0.0853
 9239SOL    HW139353   2.459   2.898   8.069  0.6895 -0.4918 -0.2705
 9239SOL    HW239354   2.390   2.917   8.194 -0.9190 -1.1156 -1.0064
 9240SOL     OW39355   4.240   0.380   8.827 -0.8872  0.3447 -0.0400
 9240SOL    HW139356   4.273   0.453   8.774 -0.3550 -0.4568 -0.8071
 9240SOL    HW239357   4.254   0.417   8.914  0.6443  0.8087 -0.4734
 9241SOL     OW39358   3.873   1.718   9.351  0.1111 -0.3758  0.3170
 9241SOL    HW139359   3.946   1.728   9.291 -0.0741 -0.4973  0.0686
 9241SOL    HW239360   3.906   1.738   9.438  0.3238 -2.3738  0.7102
 9242SOL     OW39361   0.474   0.462  11.424 -0.5875  0.1498 -0.2354
 9242SOL    HW139362   0.457   0.372  11.451  2.2537  0.3642  2.2069
 9242SOL    HW239363   0.525   0.500  11.496 -0.9097 -1.3349  0.7643
 9243SOL     OW39364   0.456   3.526   6.151  0.2135 -0.1378  0.0654
 9243SOL    HW139365   0.398   3.503   6.079  1.5004  0.3334 -1.1306
 9243SOL    HW239366   0.390   3.532   6.219  0.0584 -0.3489 -0.0665
 9244SOL     OW39367   2.970   4.483   5.847  0.3552 -0.4403 -0.6426
 9244SOL    HW139368   3.060   4.514   5.862 -0.5890  0.7012  2.6832
 9244SOL    HW239369   2.945   4.457   5.936  1.5321  0.3787 -0.0524
 9245SOL     OW39370   0.845   0.785  17.038 -0.3093  0.1748  0.0987
 9245SOL    HW139371   0.932   0.804  17.002  0.0800 -0.4956  0.6877
 9245SOL    HW239372   0.866   0.738  17.119 -2.7118  0.0703  0.6540
 9246SOL     OW39373   3.806   0.930  13.898  0.0353  0.1784  0.1101
 9246SOL    HW139374   3.715   0.907  13.916  0.3585  0.0718  1.5940
 9246SOL    HW239375   3.839   0.851  13.854  0.4901  0.6561 -0.4229
 9247SOL     OW39376   0.173   1.725   5.114 -0.3805  0.1990 -0.1218
 9247SOL    HW139377   0.230   1.801   5.124  0.2795 -0.4698  1.1890
 9247SOL    HW239378   0.207   1.675   5.188 -2.2648 -0.1416  0.5252
 9248SOL     OW39379   2.649   2.129   7.859 -0.0679  0.3221  0.6721
 9248SOL    HW139380   2.706   2.196   7.821 -2.5871  0.8826 -2.1367
 9248SOL    HW239381   2.570   2.179   7.879  1.2645  2.3855  0.7616
 9249SOL     OW39382   0.396   4.126   2.170  0.8755 -0.2557  0.5482
 9249SOL    HW139383   0.411   4.044   2.123  1.1485 -1.2193  2.3499
 9249SOL    HW239384   0.479   4.170   2.150  0.9929 -0.6563  0.1495
 9250SOL     OW39385   0.970   0.614   6.402 -0.0130 -0.1136 -0.0203
 9250SOL    HW139386   0.988   0.521   6.387  0.0426 -0.4378  2.0162
 9250SOL    HW239387   0.884   0.616   6.444 -0.4815 -1.0731 -0.9366
 9251SOL     OW39388   4.547   2.805   2.000 -0.4386  0.3038 -0.2246
 9251SOL    HW139389   4.496   2.778   2.077  2.5258 -1.5426  1.0787
 9251SOL    HW239390   4.629   2.844   2.030 -0.5014  0.2972 -0.0445
 9252SOL     OW39391   3.821   3.197   1.497  0.1981 -0.2842  0.1483
 9252SOL    HW139392   3.795   3.107   1.476 -2.3822  0.7081 -0.9196
 9252SOL    HW239393   3.788   3.251   1.426  0.9206  1.7563  1.3656
 9253SOL     OW39394   3.793   2.349  11.412  0.1897  0.1541  0.0790
 9253SOL    HW139395   3.867   2.297  11.443  0.5104 -0.6402 -2.0374
 9253SOL    HW239396   3.761   2.394  11.491  1.3783 -1.7292  1.6305
 9254SOL     OW39397   1.510   3.995   4.141  0.3276  0.0094 -0.1226
 9254SOL    HW139398   1.501   4.055   4.216 -0.4454  0.7192 -0.7829
 9254SOL    HW239399   1.559   3.921   4.176 -0.4447  0.1110  1.1882
 9255SOL     OW39400   1.050   4.040   7.074 -0.1569 -0.2723  0.8296
 9255SOL    HW139401   1.025   4.049   6.982  0.3717 -3.2371  0.3909
 9255SOL    HW239402   1.037   3.946   7.085  3.9590 -0.7716  1.3778
 9256SOL     OW39403   0.214   3.793   4.019  0.2538 -0.8465 -0.3395
 9256SOL    HW139404   0.280   3.817   3.953 -1.0965  0.4510 -1.2267
 9256SOL    HW239405   0.194   3.881   4.053 -0.4975 -1.1212 -0.0716
 9257SOL     OW39406   2.114   1.142   4.271  0.2833 -0.0985  0.0008
 9257SOL    HW139407   2.185   1.078   4.267  0.5668  0.0854  1.9014
 9257SOL    HW239408   2.114   1.151   4.366  2.0522  0.9338 -0.0829
 9258SOL     OW39409   2.004   1.306  10.538 -0.8409 -0.1343 -0.3112
 9258SOL    HW139410   2.053   1.225  10.554 -1.9662 -0.8040 -0.1898
 9258SOL    HW239411   2.074   1.371  10.545  0.7014 -2.0572  2.5352
 9259SOL     OW39412   1.381   2.137  11.935 -0.1986  0.0112 -0.6307
 9259SOL    HW139413   1.436   2.061  11.955 -0.7032 -0.7952 -2.2734
 9259SOL    HW239414   1.396   2.196  12.009  2.0630  1.4465 -2.2344
 9260SOL     OW39415   1.598   4.612   2.310  0.0840  0.3564  0.2496
 9260SOL    HW139416   1.609   4.649   2.223 -0.5887  1.6739  0.7375
 9260SOL    HW239417   1.527   4.549   2.297 -0.4191  0.9365  0.1767
 9261SOL     OW39418   2.073   1.852  14.528 -0.1683 -0.1223 -0.3135
 9261SOL    HW139419   2.152   1.833  14.476 -1.0495  1.0694 -2.1043
 9261SOL    HW239420   2.014   1.846  14.452  1.7083 -0.6405 -1.7347
 9262SOL     OW39421   2.850   4.186   2.400 -0.5701 -0.4155 -0.5747
 9262SOL    HW139422   2.881   4.114   2.455 -1.8090 -0.6748 -0.2084
 9262SOL    HW239423   2.856   4.255   2.467  2.8093 -0.8241 -0.4499
 9263SOL     OW39424   1.663   1.424   5.186  0.2010  0.0009  0.3909
 9263SOL    HW139425   1.575   1.411   5.151 -0.2060  0.2413  1.3233
 9263SOL    HW239426   1.684   1.333   5.207 -0.7424 -0.6957 -1.6627
 9264SOL     OW39427   2.669   2.762   7.244  0.1017  0.0652 -0.1517
 9264SOL    HW139428   2.731   2.819   7.199  1.0992 -0.1232  0.9994
 9264SOL    HW239429   2.587   2.811   7.237  1.6796  2.5308 -1.3440
 9265SOL     OW39430   2.570   1.228   1.807 -1.3489  0.3570  0.2193
 9265SOL    HW139431   2.596   1.309   1.851  0.3072 -1.0177  1.8025
 9265SOL    HW239432   2.639   1.229   1.740 -0.8955  0.5604  0.6865
 9266SOL     OW39433   3.095   4.627   3.405  0.5737  0.6829  0.4679
 9266SOL    HW139434   3.140   4.691   3.350  0.4999 -0.3457 -0.8040
 9266SOL    HW239435   3.013   4.677   3.413  1.2444  1.9538 -0.5988
 9267SOL     OW39436   1.669   3.660  11.748  0.4686  0.5532 -0.2292
 9267SOL    HW139437   1.681   3.586  11.807  1.0151 -0.6533 -1.8631
 9267SOL    HW239438   1.753   3.706  11.748  2.1021 -2.4596 -2.2060
 9268SOL     OW39439   3.677   2.752  16.076  0.1015 -0.0462  0.1396
 9268SOL    HW139440   3.759   2.704  16.060  0.0911 -0.7238  2.1394
 9268SOL    HW239441   3.697   2.827  16.020 -2.5780  0.5684  0.0067
 9269SOL     OW39442   0.144   4.615   4.565  0.0337  0.2261  0.3948
 9269SOL    HW139443   0.208   4.684   4.545 -0.4824 -0.6771 -4.3880
 9269SOL    HW239444   0.143   4.611   4.660 -1.3804  1.6349  0.4312
 9270SOL     OW39445   3.656   1.896   0.180  0.4748 -0.5373  0.3226
 9270SOL    HW139446   3.625   1.898   0.270 -1.3447  1.8510 -0.3669
 9270SOL    HW239447   3.720   1.968   0.180 -1.6877  1.3743  1.5332
 9271SOL     OW39448   1.317   3.744   1.980  0.0168 -0.6181  0.9207
 9271SOL    HW139449   1.233   3.698   1.983 -1.0125  1.2565  1.0903
 9271SOL    HW239450   1.352   3.741   2.069  2.0408 -1.4210  0.0860
 9272SOL     OW39451   2.393   0.141   4.309  0.0305  0.1032  0.4510
 9272SOL    HW139452   2.444   0.074   4.264  0.1698  0.8624 -0.5364
 9272SOL    HW239453   2.311   0.129   4.261 -1.3341  0.5509  2.6477
 9273SOL     OW39454   3.183   2.934   6.393  0.5593  0.7882 -0.0337
 9273SOL    HW139455   3.088   2.943   6.382  0.5744  0.3961 -0.5007
 9273SOL    HW239456   3.199   2.860   6.334 -2.6238  0.1295 -0.0693
 9274SOL     OW39457   0.792   2.713   3.795 -0.8037 -0.4089 -0.0929
 9274SOL    HW139458   0.824   2.625   3.775 -0.8754 -0.5877  0.5537
 9274SOL    HW239459   0.734   2.734   3.722 -2.6015 -2.9262  0.5828
 9275SOL     OW39460   0.789   4.679   1.618 -0.0380  0.3950  0.3100
 9275SOL    HW139461   0.862   4.716   1.668 -0.6787 -0.3915  1.8358
 9275SOL    HW239462   0.818   4.681   1.527 -0.1364 -0.3427  0.2612
 9276SOL     OW39463   1.335   2.771   7.262  0.3950 -0.2380 -0.0615
 9276SOL    HW139464   1.345   2.698   7.323 -0.5570 -1.8107 -1.7689
 9276SOL    HW239465   1.424   2.806   7.267  0.2345 -0.0050  1.0923
 9277SOL     OW39466   3.393   1.798   3.161  0.1016 -0.8250 -0.8101
 9277SOL    HW139467   3.358   1.818   3.074  1.3558 -2.1652 -1.6411
 9277SOL    HW239468   3.469   1.750   3.127  0.1103 -0.6010 -1.1062
 9278SOL     OW39469   4.196   3.452   2.307  0.0342 -0.6424 -0.7773
 9278SOL    HW139470   4.230   3.528   2.261 -2.2595  0.1333 -1.2017
 9278SOL    HW239471   4.168   3.395   2.235  0.7699  0.4873 -1.9398
 9279SOL     OW39472   0.468   3.876   5.366  0.1679 -0.8380  0.4147
 9279SOL    HW139473   0.388   3.841   5.405  0.4519 -0.9865  0.8668
 9279SOL    HW239474   0.502   3.807   5.308  0.6460 -0.7567  0.5990
 9280SOL     OW39475   1.194   4.362   8.469 -0.2050  0.0726  0.0625
 9280SOL    HW139476   1.153   4.432   8.419 -2.0225 -0.3661  0.9235
 9280SOL    HW239477   1.189   4.289   8.406  0.3203 -1.3662  1.6731
 9281SOL     OW39478   3.087   4.728   6.593  0.1135  0.6235 -0.5167
 9281SOL    HW139479   3.009   4.702   6.643  0.0844  0.7228 -0.5095
 9281SOL    HW239480   3.142   4.652   6.575 -1.4917 -0.4229 -1.1014
 9282SOL     OW39481   2.629   2.952   8.391 -0.1778  0.3039  0.1437
 9282SOL    HW139482   2.560   2.958   8.456  0.4552  2.0453  0.6569
 9282SOL    HW239483   2.580   2.957   8.309  0.2472 -0.7040 -0.1640
 9283SOL     OW39484   0.836   1.839   9.968 -1.0821 -0.1805 -0.1266
 9283SOL    HW139485   0.790   1.818   9.887 -0.2209  2.0053 -1.1817
 9283SOL    HW239486   0.909   1.777   9.973 -1.0540 -0.2062 -0.8758
 9284SOL     OW39487   2.159   0.872  10.298 -0.4776 -0.6468  0.4543
 9284SOL    HW139488   2.217   0.816  10.348  3.5007  2.5158 -0.6151
 9284SOL    HW239489   2.156   0.822  10.216  0.0107 -1.1812  0.7732
 9285SOL     OW39490   1.056   3.026   0.207 -0.0721  0.1119  0.2888
 9285SOL    HW139491   1.095   3.052   0.291  0.3378  1.6038 -0.3607
 9285SOL    HW239492   1.033   3.113   0.176 -0.0513 -0.1187 -0.3660
 9286SOL     OW39493   2.245   2.495   6.371  0.4243 -0.0676 -0.3397
 9286SOL    HW139494   2.296   2.446   6.307 -0.2148 -0.4700 -0.5340
 9286SOL    HW239495   2.254   2.585   6.340  3.0729 -0.5142 -0.8543
 9287SOL     OW39496   2.820   3.969   2.207 -0.0201  0.8558 -0.4851
 9287SOL    HW139497   2.800   4.058   2.235  0.2160  0.7403  0.0561
 9287SOL    HW239498   2.858   3.984   2.121  0.4064 -0.4494 -0.5320
 9288SOL     OW39499   1.758   1.226  17.372  0.2791  0.1925 -0.1872
 9288SOL    HW139500   1.685   1.176  17.335  1.5289 -1.0330 -0.9899
 9288SOL    HW239501   1.824   1.161  17.350 -1.1689 -2.1245  2.3882
 9289SOL     OW39502   3.231   0.594   3.455 -0.1463 -0.5283  0.8085
 9289SOL    HW139503   3.207   0.502   3.445  0.7529 -0.8960  2.0343
 9289SOL    HW239504   3.309   0.590   3.401 -0.8890  0.4850 -0.3266
 9290SOL     OW39505   0.605   3.666   8.393  0.5514 -0.1130  0.0819
 9290SOL    HW139506   0.698   3.683   8.377  0.9813  0.0620  2.8636
 9290SOL    HW239507   0.618   3.580   8.434 -0.5649 -0.8583 -1.1035
 9291SOL     OW39508   3.901   2.574   7.362  0.1883  0.3326  0.0502
 9291SOL    HW139509   3.874   2.665   7.369  0.1156  0.4281 -1.3414
 9291SOL    HW239510   3.834   2.543   7.301  1.7059 -4.0215  0.5851
 9292SOL     OW39511   0.335   2.624  12.235 -0.2027 -0.4047 -0.8312
 9292SOL    HW139512   0.400   2.568  12.192 -1.7202  1.2125 -5.2156
 9292SOL    HW239513   0.256   2.588  12.194  0.4498 -2.0227 -0.6994
 9293SOL     OW39514   2.898   0.009   7.566 -0.0964 -0.3952  0.1737
 9293SOL    HW139515   2.955   4.728   7.640 -0.1501  0.5269  0.4338
 9293SOL    HW239516   2.911   0.103   7.559 -2.5295  0.0708  2.0135
 9294SOL     OW39517   2.481   1.741   8.606  0.1114 -0.1705  0.4201
 9294SOL    HW139518   2.396   1.753   8.565 -0.9969 -3.0801  1.8424
 9294SOL    HW239519   2.465   1.774   8.694 -0.9393  0.5614 -0.0429
 9295SOL     OW39520   0.036   3.006   8.036 -0.0962  0.3446  0.0251
 9295SOL    HW139521   0.131   3.009   8.050 -0.1427  0.7319  0.2510
 9295SOL    HW239522   0.011   3.063   8.108  1.0037  0.6918  0.1238
 9296SOL     OW39523   4.265   1.358   5.350 -0.1939  0.0208 -0.7463
 9296SOL    HW139524   4.173   1.370   5.374 -0.6114 -2.5438 -1.1215
 9296SOL    HW239525   4.308   1.388   5.430  1.3390 -0.7473 -1.2877
 9297SOL     OW39526   3.050   4.215   3.631  0.4808  0.1628 -0.0138
 9297SOL    HW139527   3.070   4.141   3.573 -2.1458 -1.6330  1.3661
 9297SOL    HW239528   2.991   4.173   3.693  0.1335 -0.7429 -0.9411
 9298SOL     OW39529   0.989   2.600   7.746 -0.6113  0.0774  0.7900
 9298SOL    HW139530   0.914   2.603   7.805 -0.2602 -0.1239  1.2411
 9298SOL    HW239531   0.988   2.511   7.710  0.8556  0.7656 -0.9793
 9299SOL     OW39532   3.543   1.094   8.187 -0.9140  0.6064  0.3188
 9299SOL    HW139533   3.463   1.144   8.172 -1.3277  0.5694  2.2949
 9299SOL    HW239534   3.591   1.148   8.249 -0.5971  0.3692  0.2812
 9300SOL     OW39535   0.590   2.919   1.680 -0.3054 -0.1256  0.0198
 9300SOL    HW139536   0.604   2.996   1.626  2.8984  0.6754  1.9646
 9300SOL    HW239537   0.668   2.915   1.736  1.3220 -0.2517 -2.2520
 9301SOL     OW39538   0.454   2.683   6.835 -0.0227  0.5248  0.3397
 9301SOL    HW139539   0.418   2.641   6.913  0.0121 -1.3013 -0.6236
 9301SOL    HW239540   0.531   2.627   6.820 -0.8211 -0.1817 -1.1322
 9302SOL     OW39541   1.295   1.883   0.923  0.0006  0.3256  0.4091
 9302SOL    HW139542   1.249   1.861   1.004 -0.1589 -0.5066  0.0949
 9302SOL    HW239543   1.226   1.875   0.858  0.9522 -0.6844 -0.4729
 9303SOL     OW39544   0.791   0.336   6.057 -0.5097  0.5441  0.1877
 9303SOL    HW139545   0.814   0.353   5.965 -0.4082  2.6383  0.6138
 9303SOL    HW239546   0.880   0.333   6.091  0.9820  2.2387 -3.5483
 9304SOL     OW39547   2.014   3.340  10.159  0.1924 -1.2241  0.2168
 9304SOL    HW139548   1.924   3.332  10.191 -0.9385  2.1994 -2.1050
 9304SOL    HW239549   2.052   3.259  10.192 -0.4508 -0.4747  2.8206
 9305SOL     OW39550   1.988   0.658   8.841  0.1510  0.5849  0.0069
 9305SOL    HW139551   2.014   0.749   8.854 -2.4552  1.4568 -0.9190
 9305SOL    HW239552   1.978   0.653   8.746 -0.0355 -0.0180  0.0538
 9306SOL     OW39553   2.544   1.019   2.005 -0.3731  0.5269 -0.5232
 9306SOL    HW139554   2.510   1.060   2.085  1.9485  2.0458 -0.2785
 9306SOL    HW239555   2.582   1.097   1.963  0.0241  1.7290  2.0529
 9307SOL     OW39556   3.536   1.129   2.598 -0.4156  0.0902 -0.9098
 9307SOL    HW139557   3.565   1.221   2.601 -1.2702  0.3512 -0.5419
 9307SOL    HW239558   3.447   1.139   2.564 -1.1667 -0.9898  0.7571
 9308SOL     OW39559   4.526   2.244  12.666 -0.2899 -0.4610 -0.2759
 9308SOL    HW139560   4.437   2.248  12.703 -0.9918  2.2360 -2.2583
 9308SOL    HW239561   4.576   2.180  12.717  1.1504  0.4454 -0.5714
 9309SOL     OW39562   1.743   1.664   3.835  0.5140  0.0721 -0.0913
 9309SOL    HW139563   1.773   1.730   3.897  0.3312  0.3449 -0.2929
 9309SOL    HW239564   1.803   1.592   3.852 -1.6449 -1.2071  2.2732
 9310SOL     OW39565   2.128   1.507   4.479 -0.1752  0.0486  0.1711
 9310SOL    HW139566   2.055   1.494   4.540 -0.7191 -2.9779 -1.0828
 9310SOL    HW239567   2.180   1.572   4.526  1.3650 -1.3888  0.4713
 9311SOL     OW39568   2.064   0.863  16.522 -0.2616 -0.2067  0.4930
 9311SOL    HW139569   1.969   0.874  16.515 -0.6950 -3.3374  1.3889
 9311SOL    HW239570   2.094   0.890  16.436 -0.0189  0.8779  0.9240
 9312SOL     OW39571   3.910   4.233   1.641  0.0499  0.2787  0.5656
 9312SOL    HW139572   3.943   4.312   1.597  0.8135 -0.1427  0.3659
 9312SOL    HW239573   3.816   4.247   1.639  0.0519 -0.0360 -2.6577
 9313SOL     OW39574   0.808   2.808   1.062  0.0686  0.1697  0.0357
 9313SOL    HW139575   0.741   2.867   1.026  0.8971 -0.1771 -2.0664
 9313SOL    HW239576   0.750   2.733   1.077 -0.5141  0.7581  0.7399
 9314SOL     OW39577   2.781   1.372   4.768 -0.2602  0.1215  0.6553
 9314SOL    HW139578   2.845   1.381   4.698 -0.1357 -0.0386  0.7487
 9314SOL    HW239579   2.699   1.388   4.721  0.7492  1.5456 -0.6420
 9315SOL     OW39580   3.207   0.435   4.307 -0.4574 -0.2505  0.1846
 9315SOL    HW139581   3.154   0.432   4.386 -2.3028  2.7344 -0.9544
 9315SOL    HW239582   3.173   0.518   4.274 -0.8845 -0.4782  0.0619
 9316SOL     OW39583   2.409   0.987   0.836 -0.4162 -0.2238  0.1111
 9316SOL    HW139584   2.361   0.935   0.901 -0.9743 -1.2566 -1.1203
 9316SOL    HW239585   2.395   0.946   0.751  1.2234  1.7475 -1.1012
 9317SOL     OW39586   1.240   2.222   3.980 -0.1549 -0.5124  0.0077
 9317SOL    HW139587   1.245   2.131   3.952 -0.0842 -0.4171 -0.2858
 9317SOL    HW239588   1.255   2.270   3.899  0.8665 -2.0682 -0.7118
 9318SOL     OW39589   2.755   2.785   2.623 -0.2502 -0.0027 -0.2519
 9318SOL    HW139590   2.727   2.695   2.608 -0.1473  0.0283 -0.6518
 9318SOL    HW239591   2.776   2.816   2.534  1.6797 -0.1248  0.1598
 9319SOL     OW39592   0.912   4.387  13.939 -0.2390 -0.6548  0.2772
 9319SOL    HW139593   0.948   4.302  13.915  0.3969 -1.0554  2.6890
 9319SOL    HW239594   0.898   4.417  13.849 -1.4050 -0.8511  0.3892
 9320SOL     OW39595   0.697   0.807   4.321 -0.0041 -0.4521 -0.0779
 9320SOL    HW139596   0.683   0.811   4.226  2.5159 -0.8135 -0.4753
 9320SOL    HW239597   0.734   0.893   4.342 -0.3647 -0.6376  1.2975
 9321SOL     OW39598   3.892   3.877   0.710  0.0145 -0.0645 -0.4152
 9321SOL    HW139599   3.888   3.849   0.619 -0.7196  1.2080 -0.7762
 9321SOL    HW239600   3.912   3.969   0.691 -1.6591  0.4501  0.3271
 9322SOL     OW39601   3.621   3.585   6.025 -0.5624  0.0955  0.1433
 9322SOL    HW139602   3.583   3.658   5.976 -0.8048 -0.8346 -1.0691
 9322SOL    HW239603   3.596   3.597   6.117 -1.5339  0.4228 -0.1679
 9323SOL     OW39604   4.580   0.255  14.955  0.1217 -0.0778 -0.0992
 9323SOL    HW139605   4.555   0.265  14.863  0.8821  0.1328 -0.2756
 9323SOL    HW239606   4.495   0.277  14.994 -0.1555 -1.7015  0.2420
 9324SOL     OW39607   1.023   1.785   9.146  0.8304  0.0881 -0.3161
 9324SOL    HW139608   0.984   1.724   9.084 -1.1804 -0.3943  1.4291
 9324SOL    HW239609   1.078   1.831   9.083  0.9533 -0.0673 -0.3236
 9325SOL     OW39610   2.836   0.702   4.377 -0.5998  0.3440 -0.1190
 9325SOL    HW139611   2.793   0.756   4.311 -1.1920  1.7225  1.3765
 9325SOL    HW239612   2.897   0.656   4.320  0.9027  0.1982  1.5829
 9326SOL     OW39613   0.110   2.442   9.512  0.1369 -0.0766 -0.8699
 9326SOL    HW139614   0.098   2.501   9.438  0.8618  1.5088  0.2801
 9326SOL    HW239615   0.200   2.412   9.497  0.8736  1.6888 -0.0148
 9327SOL     OW39616   1.158   4.547   6.393 -0.0866 -0.2184  0.0237
 9327SOL    HW139617   1.184   4.475   6.335 -1.3069 -1.0318  0.4895
 9327SOL    HW239618   1.106   4.506   6.463  0.1468  0.1096  0.3919
 9328SOL     OW39619   3.122   1.795   5.115 -0.2985  0.0418 -0.4043
 9328SOL    HW139620   3.037   1.768   5.082  0.4105 -2.3530 -0.2411
 9328SOL    HW239621   3.148   1.724   5.174  0.7066  0.2956 -0.5391
 9329SOL     OW39622   2.742   4.206   2.734 -0.2205 -0.0321 -0.3968
 9329SOL    HW139623   2.677   4.161   2.680 -1.2341 -1.1119  1.7009
 9329SOL    HW239624   2.789   4.128   2.764 -0.7070  0.2889  1.1866
 9330SOL     OW39625   2.798   0.504  10.267  0.2445  0.7340 -0.5841
 9330SOL    HW139626   2.812   0.473  10.357 -0.1120  0.3039 -0.6781
 9330SOL    HW239627   2.782   0.423  10.219 -2.2452  0.3941  0.8259
 9331SOL     OW39628   0.515   2.646   2.174 -0.2982  0.0597  0.2725
 9331SOL    HW139629   0.539   2.701   2.100  0.5064  0.6678  0.9857
 9331SOL    HW239630   0.509   2.563   2.127 -2.5425  1.0439 -1.1833
 9332SOL     OW39631   1.705   0.383   9.178  0.1658 -0.0962 -0.6925
 9332SOL    HW139632   1.725   0.471   9.208  0.1300 -0.5647  0.7412
 9332SOL    HW239633   1.741   0.383   9.089  0.2325 -0.7499 -0.6665
 9333SOL     OW39634   2.652   1.687   4.613  0.2692 -0.6788  0.0928
 9333SOL    HW139635   2.720   1.755   4.608  0.5246 -0.8211  1.6220
 9333SOL    HW239636   2.614   1.681   4.525  0.5253 -2.0871  0.0774
 9334SOL     OW39637   4.693   0.665   8.432  0.1861  0.0134  0.4513
 9334SOL    HW139638   4.728   0.752   8.413 -1.6869  0.6441 -0.0915
 9334SOL    HW239639   4.683   0.625   8.345  2.4989  0.8183 -0.1809
 9335SOL     OW39640   2.945   1.937  12.214  0.4041  0.2573  0.2440
 9335SOL    HW139641   2.983   2.018  12.247  3.2436 -0.7853 -0.4520
 9335SOL    HW239642   3.031   1.898  12.200  0.4354 -0.4849  2.4795
 9336SOL     OW39643   4.381   3.731   6.684 -0.2623  0.3206  0.5502
 9336SOL    HW139644   4.364   3.712   6.592  1.8329  1.4504 -0.0579
 9336SOL    HW239645   4.352   3.821   6.694 -1.4880 -0.0808  0.5845
 9337SOL     OW39646   3.798   2.693   4.312 -1.0549  0.7635  0.0585
 9337SOL    HW139647   3.871   2.691   4.251 -1.2857  2.3473 -0.2633
 9337SOL    HW239648   3.723   2.653   4.268 -2.2274  3.2594 -0.1705
 9338SOL     OW39649   1.828   1.574   8.539  0.3911 -0.2982  0.3590
 9338SOL    HW139650   1.903   1.613   8.584  0.7850  0.7674 -1.2413
 9338SOL    HW239651   1.872   1.504   8.490  2.5417  2.5276 -1.6966
 9339SOL     OW39652   3.604   0.355   9.546 -0.0581 -0.2255 -0.1656
 9339SOL    HW139653   3.575   0.413   9.475 -2.9376  0.3324  1.4743
 9339SOL    HW239654   3.696   0.357   9.520  0.0999 -0.5808  0.3746
 9340SOL     OW39655   3.840   1.681   5.955 -0.2994  0.6340 -0.5311
 9340SOL    HW139656   3.847   1.773   5.929 -1.1986  0.3437 -1.7743
 9340SOL    HW239657   3.853   1.688   6.049 -0.3556  3.5392 -0.7274
 9341SOL     OW39658   3.272   1.127   8.058  0.6691 -0.3151  0.5216
 9341SOL    HW139659   3.286   1.111   7.965  2.2757  2.1349  0.3516
 9341SOL    HW239660   3.187   1.084   8.069 -0.0212  0.6032 -1.2599
 9342SOL     OW39661   3.356   1.695   3.433  0.0415 -0.0152 -0.0580
 9342SOL    HW139662   3.381   1.692   3.341  1.2034 -1.3482  0.3092
 9342SOL    HW239663   3.357   1.790   3.445  2.3014  0.0721 -1.0377
 9343SOL     OW39664   0.815   2.804  12.605 -0.2177  0.3012  0.0853
 9343SOL    HW139665   0.876   2.773  12.538  1.1129  0.2283  1.3339
 9343SOL    HW239666   0.757   2.860  12.553  1.2518 -0.5890 -2.5078
 9344SOL     OW39667   0.283   0.160   5.230 -0.6718  0.1337 -0.2784
 9344SOL    HW139668   0.297   0.249   5.263 -0.5360  1.1540 -3.0905
 9344SOL    HW239669   0.193   0.163   5.197 -0.3748  3.3309 -0.7930
 9345SOL     OW39670   0.961   1.244   5.035 -0.0008 -0.7562  0.4129
 9345SOL    HW139671   1.018   1.237   4.958 -1.4781  1.6672 -0.9107
 9345SOL    HW239672   1.016   1.300   5.089 -0.7695 -0.9304  1.3619
 9346SOL     OW39673   1.156   1.833   8.923 -0.4976  0.0767  0.8621
 9346SOL    HW139674   1.085   1.861   8.865  2.0426  0.8547 -1.8560
 9346SOL    HW239675   1.174   1.749   8.882 -0.2071 -0.6908  2.5388
 9347SOL     OW39676   1.306   1.310   6.759  0.4501 -0.0680 -0.0238
 9347SOL    HW139677   1.358   1.255   6.817  2.6212  1.0430 -0.8680
 9347SOL    HW239678   1.250   1.357   6.820  1.9438 -0.5514  1.6980
 9348SOL     OW39679   2.667   0.068  11.159  0.1038 -0.1498 -0.2790
 9348SOL    HW139680   2.656   4.734  11.222  0.4384  0.2638  0.2417
 9348SOL    HW239681   2.687   0.028  11.074 -1.7967 -1.4816 -0.1129
 9349SOL     OW39682   0.086   4.428   5.987  0.5802  0.0945  0.1603
 9349SOL    HW139683   0.048   4.446   6.073  0.8285  3.5141 -0.4683
 9349SOL    HW239684   0.047   4.352   5.944 -0.4815  1.4138 -1.1821
 9350SOL     OW39685   1.929   4.290   0.034  0.0218 -0.4964 -0.1850
 9350SOL    HW139686   1.857   4.240   0.072 -1.3806  0.1940 -1.9492
 9350SOL    HW239687   1.918   4.382   0.055  0.3362 -0.3550 -0.6289
 9351SOL     OW39688   3.463   1.438   7.577  0.3520 -0.0641 -0.4352
 9351SOL    HW139689   3.513   1.386   7.515 -1.4821 -1.9031 -0.3822
 9351SOL    HW239690   3.380   1.455   7.532 -0.0764  1.1844  0.8041
 9352SOL     OW39691   0.930   2.229   0.088 -0.0243 -0.0024 -0.1812
 9352SOL    HW139692   1.010   2.267   0.052 -1.3765  1.1059 -2.0526
 9352SOL    HW239693   0.916   2.306   0.143  0.6852  0.0903 -0.1247
 9353SOL     OW39694   2.098   0.898   6.302  0.3547 -0.2413 -0.2234
 9353SOL    HW139695   2.060   0.868   6.219  0.9701 -1.5876 -0.0181
 9353SOL    HW239696   2.143   0.816   6.324 -3.1085 -1.9555  0.4460
 9354SOL     OW39697   2.119   1.431   2.402  0.1940  0.1481 -0.0416
 9354SOL    HW139698   2.026   1.451   2.387 -0.6744 -4.4001 -0.6047
 9354SOL    HW239699   2.115   1.441   2.497 -0.0920 -0.4000  0.0019
 9355SOL     OW39700   2.956   2.441  15.297 -0.4591 -0.3227 -0.5587
 9355SOL    HW139701   2.942   2.348  15.281 -1.8342 -0.0380 -1.0438
 9355SOL    HW239702   2.964   2.475  15.208 -3.1098 -0.3957 -0.8314
 9356SOL     OW39703   3.967   1.132   9.129  0.1558  0.0392  0.1761
 9356SOL    HW139704   3.966   1.158   9.221 -0.2343  0.9093 -0.0763
 9356SOL    HW239705   3.892   1.072   9.123 -0.7543  1.2507 -0.4805
 9357SOL     OW39706   3.617   4.708  16.828  0.4346  0.2275 -0.7596
 9357SOL    HW139707   3.675   4.673  16.895 -1.7955 -0.6802  0.6817
 9357SOL    HW239708   3.577   0.035  16.887 -0.7997 -1.7408  0.5343
 9358SOL     OW39709   2.108   0.724   4.919 -0.2134  0.3083 -0.4041
 9358SOL    HW139710   2.072   0.766   4.997  1.3195  1.0085 -0.0679
 9358SOL    HW239711   2.166   0.660   4.960 -0.1674  1.4359  1.3188
 9359SOL     OW39712   2.484   1.545   2.001 -0.0636  0.3234 -0.0287
 9359SOL    HW139713   2.455   1.547   2.092 -2.9328 -2.7744 -0.8851
 9359SOL    HW239714   2.568   1.503   2.020 -0.0042 -0.2698 -1.6560
 9360SOL     OW39715   4.445   3.879   5.820  0.1907  0.4292  0.6226
 9360SOL    HW139716   4.502   3.836   5.758 -2.8529 -1.8279 -0.6021
 9360SOL    HW239717   4.507   3.936   5.865 -0.9498  0.7269  1.8388
 9361SOL     OW39718   0.054   4.066  10.484  1.0264  0.3933 -0.2857
 9361SOL    HW139719   0.061   4.115  10.566 -3.0332  1.4778 -0.5791
 9361SOL    HW239720   0.134   4.101  10.444  2.0917 -0.7002  0.9146
 9362SOL     OW39721   3.957   4.226   4.882  0.0815 -0.1790  0.1341
 9362SOL    HW139722   3.959   4.222   4.786  2.6881  2.0625  0.0648
 9362SOL    HW239723   4.015   4.301   4.893 -0.7375  0.5954 -0.8148
 9363SOL     OW39724   2.462   3.067   6.389  0.0324 -0.1540 -0.0332
 9363SOL    HW139725   2.521   3.098   6.320 -0.4521 -0.1379 -0.4428
 9363SOL    HW239726   2.377   3.052   6.348  0.7587  0.4689 -1.7653
 9364SOL     OW39727   1.924   1.548  14.044  0.8584  0.6556  0.6761
 9364SOL    HW139728   1.938   1.640  14.025 -2.1931  0.6868 -1.4731
 9364SOL    HW239729   1.846   1.528  13.992 -0.9328  3.7876  2.1739
 9365SOL     OW39730   4.706   1.148   8.220 -0.1164 -0.4382 -0.1547
 9365SOL    HW139731   4.658   1.074   8.182 -2.7348  1.0429  0.2442
 9365SOL    HW239732   4.655   1.219   8.182 -1.0514 -0.7909  0.4362
 9366SOL     OW39733   3.397   4.321   8.135  0.1227 -0.3117  0.2404
 9366SOL    HW139734   3.448   4.375   8.074 -2.7105  0.2243 -1.6162
 9366SOL    HW239735   3.319   4.372   8.156 -0.7999 -1.3441 -0.6674
 9367SOL     OW39736   2.370   0.331   4.661  0.2530 -0.3884 -0.4189
 9367SOL    HW139737   2.309   0.405   4.656 -0.5115 -0.8126  2.9349
 9367SOL    HW239738   2.312   0.259   4.635  0.7478 -0.9325 -0.0279
 9368SOL     OW39739   2.647   1.629   2.319 -0.2955  0.1156  0.5314
 9368SOL    HW139740   2.732   1.668   2.342 -0.3209  0.7790 -0.4690
 9368SOL    HW239741   2.583   1.673   2.375 -2.9546 -1.4207 -1.3202
 9369SOL     OW39742   3.104   3.796   6.857 -0.1818  0.3041  0.1932
 9369SOL    HW139743   3.166   3.727   6.835 -1.2505 -0.0719 -1.6125
 9369SOL    HW239744   3.121   3.806   6.951 -1.9718 -1.2011  0.6687
 9370SOL     OW39745   2.123   1.097   1.846  0.5386 -0.3356  0.4502
 9370SOL    HW139746   2.068   1.139   1.780  2.1413  0.2299 -0.5429
 9370SOL    HW239747   2.193   1.162   1.847 -0.1429  0.4260 -0.9221
 9371SOL     OW39748   2.873   2.728   8.596  0.0089  0.4332 -0.3426
 9371SOL    HW139749   2.815   2.759   8.666 -1.4341  1.4025 -1.9765
 9371SOL    HW239750   2.958   2.768   8.614  1.1481 -3.1882  2.2806
 9372SOL     OW39751   0.904   0.184  12.041  0.3643  0.4044 -0.1928
 9372SOL    HW139752   0.881   0.277  12.028  1.4051  0.6105 -0.5504
 9372SOL    HW239753   0.837   0.142  11.987 -1.5795  0.1525  2.4376
 9373SOL     OW39754   1.567   3.088   1.665 -0.4448 -0.4068  0.3132
 9373SOL    HW139755   1.506   3.019   1.640  1.3666 -1.9053  0.0370
 9373SOL    HW239756   1.523   3.170   1.646 -3.2532 -1.8257  0.7101
 9374SOL     OW39757   3.383   0.956   1.833 -0.1674 -0.3290 -0.3110
 9374SOL    HW139758   3.372   1.041   1.876 -0.7177 -0.0976 -0.9095
 9374SOL    HW239759   3.418   0.987   1.750 -1.3298 -0.4325 -0.8405
 9375SOL     OW39760   1.467   0.177   0.998  0.3334  0.1048 -0.2627
 9375SOL    HW139761   1.458   0.241   1.069  2.0249 -1.4451  1.3277
 9375SOL    HW239762   1.387   0.188   0.947 -0.0818  2.1174  0.8305
 9376SOL     OW39763   1.910   2.425   8.154  0.3422 -0.3512 -0.1032
 9376SOL    HW139764   1.875   2.503   8.110 -1.3287  0.1613  2.1111
 9376SOL    HW239765   1.975   2.469   8.209 -1.3027  0.9386  0.8028
 9377SOL     OW39766   3.320   3.357   8.262 -0.6251  0.4680  0.1989
 9377SOL    HW139767   3.276   3.306   8.194  0.7927  3.4866 -2.9237
 9377SOL    HW239768   3.258   3.340   8.334  0.3989 -0.5895  0.8348
 9378SOL     OW39769   3.605   2.690   5.463 -0.0283  0.3523 -0.1309
 9378SOL    HW139770   3.683   2.738   5.492  0.9892 -0.9280 -0.7537
 9378SOL    HW239771   3.552   2.761   5.426  0.2886  0.7814  0.2355
 9379SOL     OW39772   4.280   1.009   0.850 -0.1070  0.3098  0.7737
 9379SOL    HW139773   4.247   1.098   0.838 -0.3341  0.3823  1.9973
 9379SOL    HW239774   4.211   0.952   0.815 -1.0841  1.6308  0.5183
 9380SOL     OW39775   2.916   1.132   9.408 -0.0326  0.1708 -0.4316
 9380SOL    HW139776   2.934   1.213   9.455 -2.4780  0.0964  0.6383
 9380SOL    HW239777   2.825   1.120   9.436 -0.1136  1.2498 -0.1972
 9381SOL     OW39778   3.636   2.799   3.676  0.1117  0.5323  0.3996
 9381SOL    HW139779   3.647   2.824   3.767 -0.2147  0.4636  0.4603
 9381SOL    HW239780   3.554   2.847   3.669  0.1261  0.7331  1.6509
 9382SOL     OW39781   3.111   3.887  10.963 -0.4384 -0.3692 -0.2022
 9382SOL    HW139782   3.200   3.875  10.996 -0.2716 -0.2827 -0.6203
 9382SOL    HW239783   3.138   3.953  10.899  0.2563 -1.0554 -0.6160
 9383SOL     OW39784   1.793   4.193   4.877  0.5585  0.4998 -0.6374
 9383SOL    HW139785   1.854   4.128   4.913 -0.0288 -0.8523 -2.0816
 9383SOL    HW239786   1.732   4.190   4.951 -1.1696  1.7076 -2.0033
 9384SOL     OW39787   4.498   4.161  12.143 -0.6379 -0.4582 -0.1358
 9384SOL    HW139788   4.563   4.168  12.213 -1.5590 -0.5700  0.7327
 9384SOL    HW239789   4.528   4.222  12.075 -0.2284  0.1519  0.5870
 9385SOL     OW39790   0.501   3.200   8.904 -0.2605  0.2494  0.2706
 9385SOL    HW139791   0.534   3.118   8.941  0.8931 -0.1105 -1.5366
 9385SOL    HW239792   0.412   3.192   8.939 -1.3376  1.9210 -2.0697
 9386SOL     OW39793   0.713   0.739   1.688 -0.3475  0.2541 -0.2945
 9386SOL    HW139794   0.774   0.811   1.700 -0.1770  0.1996 -0.8367
 9386SOL    HW239795   0.637   0.781   1.647 -0.4811  0.9427  0.6754
 9387SOL     OW39796   3.738   2.394  15.153 -1.1256 -0.7519  0.2409
 9387SOL    HW139797   3.676   2.359  15.088 -0.7350 -1.0751  0.0494
 9387SOL    HW239798   3.739   2.317  15.209  0.8906  1.1784  2.8855
 9388SOL     OW39799   1.385   0.853  12.599  0.1847 -0.1092 -0.1374
 9388SOL    HW139800   1.390   0.948  12.588 -0.1447 -0.1657 -0.7779
 9388SOL    HW239801   1.305   0.833  12.551 -0.6922  0.4225  1.1237
 9389SOL     OW39802   2.812   3.236   3.626 -0.0902  0.4584 -0.1196
 9389SOL    HW139803   2.901   3.232   3.589 -0.3035 -0.8120 -0.5162
 9389SOL    HW239804   2.777   3.321   3.598 -0.0773 -0.0307 -1.6415
 9390SOL     OW39805   3.090   3.072  16.665 -0.3918  0.2158 -0.5647
 9390SOL    HW139806   3.091   3.009  16.738 -1.1859 -0.6295 -1.2773
 9390SOL    HW239807   3.015   3.126  16.688  0.1477  1.9397 -2.9180
 9391SOL     OW39808   4.359   3.082   6.640 -0.3496 -0.0509  0.0623
 9391SOL    HW139809   4.366   3.139   6.717 -1.1544  1.7846 -1.2094
 9391SOL    HW239810   4.434   3.117   6.591 -0.4102  0.5979  0.4252
 9392SOL     OW39811   3.033   1.701  17.049  0.0276  0.5407  0.2640
 9392SOL    HW139812   2.974   1.751  16.992  2.2378 -0.0635 -2.5801
 9392SOL    HW239813   3.061   1.768  17.112  0.5692 -0.1610  0.7755
 9393SOL     OW39814   1.185   0.815   3.979  0.7677  0.0565 -0.1857
 9393SOL    HW139815   1.151   0.901   3.954 -0.6225  0.4085  2.9157
 9393SOL    HW239816   1.179   0.766   3.897  0.0503  0.0323 -0.1248
 9394SOL     OW39817   0.267   0.098   8.125  0.5364 -0.0697 -0.0050
 9394SOL    HW139818   0.218   0.021   8.155 -0.7619  1.1912  1.0761
 9394SOL    HW239819   0.203   0.132   8.063  0.6062  0.8987  0.4623
 9395SOL     OW39820   2.254   4.419  17.480  0.3915  0.0683 -0.3977
 9395SOL    HW139821   2.275   4.383  17.393  1.6572  2.1005 -0.9353
 9395SOL    HW239822   2.340   4.423  17.523  0.1596  2.0871 -0.1549
 9396SOL     OW39823   4.007   2.559   4.165 -0.6458  0.2932  0.6827
 9396SOL    HW139824   4.001   2.643   4.119 -0.2175 -0.1342 -0.1481
 9396SOL    HW239825   4.077   2.578   4.227 -1.5120  0.5503  1.5907
 9397SOL     OW39826   3.367   3.629   6.790 -0.0193 -0.8029  0.5469
 9397SOL    HW139827   3.407   3.617   6.876 -0.6740 -1.8296  0.7099
 9397SOL    HW239828   3.367   3.536   6.767 -0.0548 -0.7508  0.3399
 9398SOL     OW39829   0.984   1.227   9.522  0.2203 -0.4535 -0.0557
 9398SOL    HW139830   0.978   1.133   9.502 -0.5971 -0.5827  0.8233
 9398SOL    HW239831   0.908   1.246   9.577 -0.0829 -1.1973 -0.2110
 9399SOL     OW39832   4.383   3.503  14.264  0.0032 -0.1153 -0.0087
 9399SOL    HW139833   4.312   3.506  14.199 -0.2718 -0.4504  0.2823
 9399SOL    HW239834   4.456   3.475  14.209  0.6511  1.7382 -0.0980
 9400SOL     OW39835   2.768   2.993  14.170 -0.0602 -0.2090 -0.3976
 9400SOL    HW139836   2.753   3.074  14.121  1.7856 -1.7979 -3.6058
 9400SOL    HW239837   2.847   2.965  14.124 -0.9223 -1.8880 -0.8584
 9401SOL     OW39838   1.022   1.133   0.929 -0.4334  0.5558  0.2725
 9401SOL    HW139839   1.078   1.164   1.000  0.0830 -1.4380  0.7552
 9401SOL    HW239840   1.007   1.216   0.884 -3.1561 -0.2094 -0.2150
 9402SOL     OW39841   0.071   0.882  17.536  0.0222  0.2675  0.4132
 9402SOL    HW139842   0.026   0.935  17.471  2.6077 -0.0121 -1.6004
 9402SOL    HW239843   0.083   0.947  17.606 -1.9547  1.4309 -0.3257
 9403SOL     OW39844   2.042   4.290   7.868 -0.0777 -0.2563 -0.0701
 9403SOL    HW139845   2.122   4.273   7.917 -1.2212  0.7067  2.1518
 9403SOL    HW239846   1.978   4.229   7.905  1.1894 -1.7127 -0.3004
 9404SOL     OW39847   1.126   1.809   1.149 -0.0053 -0.2514  0.0952
 9404SOL    HW139848   1.100   1.727   1.107  2.5640 -1.2858  0.5322
 9404SOL    HW239849   1.146   1.771   1.235  2.2126 -2.1758 -1.2737
 9405SOL     OW39850   0.856   4.444   1.169 -0.4278  0.1790  0.5007
 9405SOL    HW139851   0.928   4.506   1.175  1.2471 -1.6948 -0.3901
 9405SOL    HW239852   0.779   4.488   1.204 -2.4272 -2.2069 -0.8391
 9406SOL     OW39853   0.592   1.844   9.829 -0.2459  0.2356 -0.4662
 9406SOL    HW139854   0.538   1.808   9.759 -0.1780 -1.9237  0.5912
 9406SOL    HW239855   0.535   1.813   9.900  1.3579 -0.4876  0.5134
 9407SOL     OW39856   1.001   3.160   9.795  0.3329  0.2468  0.2684
 9407SOL    HW139857   0.949   3.143   9.717 -0.8433 -2.9098  1.7228
 9407SOL    HW239858   1.064   3.219   9.754  1.9170 -0.6911  1.3613
 9408SOL     OW39859   4.564   2.234   7.629  0.2728  0.2108 -0.3240
 9408SOL    HW139860   4.653   2.210   7.656  0.9602  1.8909 -1.1236
 9408SOL    HW239861   4.562   2.220   7.534  1.2920 -1.8196 -0.0589
 9409SOL     OW39862   3.986   4.284  17.666 -0.3361 -0.2271 -0.6126
 9409SOL    HW139863   4.021   4.198  17.691  1.0652  0.3613 -0.5441
 9409SOL    HW239864   4.068   4.334  17.666 -0.4607 -0.0150  0.3927
 9410SOL     OW39865   0.273   3.467  10.732 -0.0064  0.3413 -0.1396
 9410SOL    HW139866   0.218   3.490  10.806 -0.2767 -0.9656  0.0659
 9410SOL    HW239867   0.266   3.373  10.748 -1.2823  0.4495 -0.0582
 9411SOL     OW39868   2.700   0.454   2.068  0.1572 -0.5574  0.2943
 9411SOL    HW139869   2.787   0.418   2.087  0.3295 -2.0771 -3.4501
 9411SOL    HW239870   2.706   0.461   1.973 -2.8419 -2.0102  0.0005
 9412SOL     OW39871   2.115   1.355   9.819  0.4449  0.5029 -0.4979
 9412SOL    HW139872   2.056   1.308   9.878  1.3937  2.6329  2.1300
 9412SOL    HW239873   2.071   1.430   9.779  1.2607  0.4992 -1.4126
 9413SOL     OW39874   2.811   1.296   3.485 -0.3092 -0.2126  0.3335
 9413SOL    HW139875   2.792   1.249   3.404 -2.8879 -0.2643  0.9370
 9413SOL    HW239876   2.739   1.263   3.540  0.4225 -2.8281 -0.2991
 9414SOL     OW39877   1.175   3.103   6.006 -0.4621 -0.0333 -0.0870
 9414SOL    HW139878   1.221   3.182   5.979  0.0200  0.0749  1.0305
 9414SOL    HW239879   1.246   3.052   6.045 -0.4486 -0.3424 -0.5194
 9415SOL     OW39880   3.842   2.330   5.078  0.1723  0.2364  0.0027
 9415SOL    HW139881   3.807   2.419   5.068 -0.6748 -0.0708  0.2132
 9415SOL    HW239882   3.937   2.334   5.073  0.2209 -2.5099 -0.9460
 9416SOL     OW39883   1.185   2.350   0.816 -0.4035  0.7611  0.5314
 9416SOL    HW139884   1.243   2.374   0.888 -0.2363 -3.1179  1.7129
 9416SOL    HW239885   1.107   2.396   0.847 -0.8553  0.9575 -0.9220
 9417SOL     OW39886   3.430   1.600   4.466 -0.5988  0.3384  0.2509
 9417SOL    HW139887   3.370   1.546   4.518  0.9865 -2.9869 -1.4012
 9417SOL    HW239888   3.512   1.558   4.493  0.0994  1.4371 -0.1545
 9418SOL     OW39889   2.922   0.495  10.535 -0.0458 -0.0687 -0.6841
 9418SOL    HW139890   2.873   0.453  10.605 -1.6934 -2.0871 -3.0835
 9418SOL    HW239891   2.927   0.580  10.579  0.7524  1.2691 -3.3666
 9419SOL     OW39892   4.617   2.816  16.391  0.5881  0.3339 -0.3998
 9419SOL    HW139893   4.712   2.806  16.395  0.6214  0.1912 -1.6456
 9419SOL    HW239894   4.582   2.814  16.480  0.2347 -1.4197 -0.5615
 9420SOL     OW39895   3.743   4.536  14.943 -0.5559 -0.1956 -0.4267
 9420SOL    HW139896   3.746   4.608  15.005 -1.6169 -0.4087 -0.1409
 9420SOL    HW239897   3.823   4.490  14.972 -0.1696  0.6445 -0.1700
 9421SOL     OW39898   4.553   1.289   3.936  0.6076 -0.1327  0.5225
 9421SOL    HW139899   4.630   1.310   3.988 -0.5253  1.7995  1.4092
 9421SOL    HW239900   4.566   1.355   3.869  1.2154 -1.0750 -0.2902
 9422SOL     OW39901   1.952   4.076   8.563  0.2803 -0.3087 -0.4446
 9422SOL    HW139902   1.893   4.034   8.501 -0.2630  1.8694 -1.4244
 9422SOL    HW239903   1.909   4.162   8.560  0.4713 -0.2015 -0.0450
 9423SOL     OW39904   4.173   0.962   5.081 -0.5181  0.2894  0.3601
 9423SOL    HW139905   4.208   0.887   5.033  0.9435  0.8123  0.5902
 9423SOL    HW239906   4.101   0.975   5.021  2.2585  2.3830 -2.5223
 9424SOL     OW39907   0.813   0.566   2.417  0.0266  0.0952 -0.4015
 9424SOL    HW139908   0.760   0.486   2.411  0.4672 -0.5241  3.7412
 9424SOL    HW239909   0.855   0.562   2.503 -3.9326 -1.9721  1.4478
 9425SOL     OW39910   3.582   0.503   9.306 -0.3789 -0.0627  0.2062
 9425SOL    HW139911   3.515   0.541   9.250 -0.5479  2.3434  2.0570
 9425SOL    HW239912   3.611   0.586   9.343 -1.8927  1.0285 -1.0764
 9426SOL     OW39913   3.171   4.223   0.411  0.4502  0.5269  0.1525
 9426SOL    HW139914   3.140   4.267   0.490 -3.0260 -0.9591 -0.3975
 9426SOL    HW239915   3.167   4.293   0.346 -1.9063  1.5113  1.3477
 9427SOL     OW39916   4.057   1.909  17.205  0.6984  0.3447  0.1156
 9427SOL    HW139917   3.973   1.938  17.240 -0.4200  0.1776 -2.4815
 9427SOL    HW239918   4.032   1.846  17.138 -0.5198 -0.4196  1.2873
 9428SOL     OW39919   0.450   0.710   7.496  0.5583 -0.3869 -0.5384
 9428SOL    HW139920   0.391   0.784   7.479 -0.1260 -0.1939  2.7924
 9428SOL    HW239921   0.535   0.748   7.477 -0.3470  1.0455 -1.7282
 9429SOL     OW39922   1.211   1.416   2.208  0.3097 -0.2132 -0.5120
 9429SOL    HW139923   1.118   1.415   2.230  0.4494 -1.2690  0.0384
 9429SOL    HW239924   1.229   1.507   2.230  1.7890 -1.2804  2.6017
 9430SOL     OW39925   2.726   4.498   2.696  0.9467  0.4331  0.5572
 9430SOL    HW139926   2.773   4.424   2.736  2.1721  0.9493  0.0939
 9430SOL    HW239927   2.633   4.476   2.700  0.4346  2.1065 -1.6750
 9431SOL     OW39928   0.719   3.512  15.790 -0.5898 -0.5056  0.0765
 9431SOL    HW139929   0.718   3.418  15.772  1.3443 -1.0067  2.6350
 9431SOL    HW239930   0.721   3.557  15.705 -0.4980 -0.6948 -0.0218
 9432SOL     OW39931   2.181   1.802  12.411 -0.0277  0.6616  0.4997
 9432SOL    HW139932   2.250   1.853  12.369 -1.0466  2.5592  1.0957
 9432SOL    HW239933   2.231   1.721  12.414 -2.3082 -0.7863 -0.4878
 9433SOL     OW39934   0.902   3.166  15.540  0.6009 -0.5071  0.4283
 9433SOL    HW139935   0.857   3.096  15.493 -1.0151 -0.3824  1.8153
 9433SOL    HW239936   0.991   3.133  15.526 -0.0720 -2.3894  0.6487
 9434SOL     OW39937   1.383   1.569   2.765 -0.1491  0.6308  0.0369
 9434SOL    HW139938   1.321   1.539   2.831  0.6273  1.5503  1.2027
 9434SOL    HW239939   1.397   1.487   2.719 -0.3406  0.9974 -0.6721
 9435SOL     OW39940   0.116   4.184  10.712  0.6441  0.2454  0.4396
 9435SOL    HW139941   0.077   4.172  10.799 -0.9272  0.0406 -0.3160
 9435SOL    HW239942   0.190   4.238  10.742  2.2079 -1.1376 -0.9416
 9436SOL     OW39943   1.427   1.019   2.035 -0.6609  0.5667 -0.3423
 9436SOL    HW139944   1.469   1.105   2.044  0.7286 -0.3640  2.1459
 9436SOL    HW239945   1.505   0.967   2.019 -0.0440  1.9299 -1.7719
 9437SOL     OW39946   1.890   1.888   0.249 -0.4148  0.3000  0.1094
 9437SOL    HW139947   1.897   1.843   0.333 -0.3416  0.6959  0.3126
 9437SOL    HW239948   1.859   1.812   0.199 -1.1790  1.0638 -0.5739
 9438SOL     OW39949   1.615   0.078   7.982  0.1627  0.6671 -0.5045
 9438SOL    HW139950   1.528   0.099   8.013 -0.0359  1.8307 -1.8278
 9438SOL    HW239951   1.625   0.125   7.899  0.5253  2.3257  0.4873
 9439SOL     OW39952   1.053   3.364   8.676 -0.2420  0.2920  0.2352
 9439SOL    HW139953   0.970   3.317   8.679 -1.1153  1.7804 -0.9721
 9439SOL    HW239954   1.021   3.454   8.682 -1.5356 -0.1016 -0.7363
 9440SOL     OW39955   4.276   0.846  11.500  0.8865  0.1585 -0.0480
 9440SOL    HW139956   4.366   0.811  11.497  1.4171  1.2757  2.6325
 9440SOL    HW239957   4.267   0.894  11.418 -3.8247  0.7624  0.8193
 9441SOL     OW39958   2.280   2.621   5.250  0.0563 -0.2119  0.5228
 9441SOL    HW139959   2.226   2.569   5.309 -0.9079 -2.4246 -2.2891
 9441SOL    HW239960   2.302   2.687   5.315  2.2961  1.0210 -1.4835
 9442SOL     OW39961   3.845   2.632   4.585  0.0515  0.2455  0.0576
 9442SOL    HW139962   3.877   2.721   4.598 -0.6212  0.5863 -0.5541
 9442SOL    HW239963   3.824   2.634   4.491 -2.0480 -1.4455  0.4839
 9443SOL     OW39964   4.428   1.981   9.028 -0.5332 -0.6496  0.2698
 9443SOL    HW139965   4.481   2.058   9.004  0.0939 -1.7252 -1.7620
 9443SOL    HW239966   4.361   1.977   8.960  2.7480  1.5998 -3.1248
 9444SOL     OW39967   2.749   0.827   5.558 -0.1967 -0.1906  0.0238
 9444SOL    HW139968   2.703   0.816   5.642  0.8933 -1.6520  0.4433
 9444SOL    HW239969   2.745   0.740   5.517 -1.4238  0.0063 -0.2680
 9445SOL     OW39970   1.461   2.508   6.640 -0.1758 -0.0411 -0.0412
 9445SOL    HW139971   1.534   2.535   6.696  0.5907  0.0794 -1.1050
 9445SOL    HW239972   1.439   2.594   6.604 -1.2120 -0.3757 -0.2023
 9446SOL     OW39973   1.329   3.163   5.036  0.0876  0.4222 -0.0085
 9446SOL    HW139974   1.378   3.106   5.096  0.8847  0.8686 -0.2395
 9446SOL    HW239975   1.396   3.227   5.012  0.8186 -0.7558 -1.0699
 9447SOL     OW39976   1.133   2.169   1.699 -0.1038 -0.1387  0.4509
 9447SOL    HW139977   1.183   2.144   1.777  0.3193 -0.3886  0.0954
 9447SOL    HW239978   1.204   2.161   1.636  0.6715 -1.7262  1.4996
 9448SOL     OW39979   3.793   3.531   0.489 -0.2874 -0.1690 -0.1944
 9448SOL    HW139980   3.775   3.515   0.397 -0.3696 -0.0749 -0.1949
 9448SOL    HW239981   3.780   3.626   0.492 -2.4855 -0.3910 -3.0196
 9449SOL     OW39982   1.383   0.331   3.811 -0.5718  0.1785  0.0766
 9449SOL    HW139983   1.429   0.285   3.740  1.5283 -0.9202  2.1448
 9449SOL    HW239984   1.422   0.295   3.891  0.1557  0.3745 -0.1880
 9450SOL     OW39985   4.416   0.452   6.081  0.1254  0.8332 -0.1643
 9450SOL    HW139986   4.348   0.512   6.112  0.2548  1.1648 -0.5310
 9450SOL    HW239987   4.405   0.442   5.987 -1.8422 -1.2372  0.2880
 9451SOL     OW39988   2.924   1.477  16.163 -0.0834 -0.4393  0.2716
 9451SOL    HW139989   2.980   1.404  16.137  0.8628  0.2460  0.4157
 9451SOL    HW239990   2.931   1.534  16.087  4.1288 -1.9611 -0.4440
 9452SOL     OW39991   0.238   1.232   8.436  0.2340  0.3942  0.2205
 9452SOL    HW139992   0.306   1.165   8.434 -0.9085 -0.7515 -0.2257
 9452SOL    HW239993   0.192   1.207   8.356 -0.8363  1.8033  0.3903
 9453SOL     OW39994   0.969   1.058   7.789 -0.0447 -0.5328  0.8962
 9453SOL    HW139995   1.019   1.125   7.834 -1.5015  1.1268  0.0555
 9453SOL    HW239996   1.047   1.028   7.742 -0.3923  1.2758 -0.8384
 9454SOL     OW39997   0.317   1.904  13.148  0.3412  0.2303 -0.1469
 9454SOL    HW139998   0.267   1.977  13.184  0.3204  0.4214 -0.5587
 9454SOL    HW239999   0.251   1.835  13.145  1.6082 -1.0399  1.2272
 9455SOL     OW40000   1.214   3.512   4.326  0.6590 -0.0667 -0.2425
 9455SOL    HW140001   1.218   3.455   4.249 -0.0178 -0.3427 -0.0762
 9455SOL    HW240002   1.129   3.478   4.356  0.4199  1.1269  0.4241
 9456SOL     OW40003   0.842   2.649   0.715 -0.1990  0.3441 -0.2887
 9456SOL    HW140004   0.751   2.630   0.691 -0.6408 -0.0443  1.7642
 9456SOL    HW240005   0.838   2.626   0.807 -0.3338  1.4220 -0.0277
 9457SOL     OW40006   4.353   0.362   4.837  0.5270  0.2717 -0.4781
 9457SOL    HW140007   4.372   0.349   4.744 -0.3530  0.9188 -0.7446
 9457SOL    HW240008   4.261   0.334   4.832  1.4215 -2.6889 -0.6526
 9458SOL     OW40009   2.396   2.616   7.418  0.1180  0.0264 -0.5673
 9458SOL    HW140010   2.379   2.646   7.329 -3.0373 -0.4455 -0.1434
 9458SOL    HW240011   2.306   2.599   7.447  0.2319  1.5550  0.6792
 9459SOL     OW40012   4.160   0.899   6.222  0.2706  0.3049 -0.2008
 9459SOL    HW140013   4.081   0.861   6.260  1.8991 -1.8783  1.0199
 9459SOL    HW240014   4.229   0.903   6.289 -0.2564  0.4020  0.3440
 9460SOL     OW40015   0.173   3.007   7.198 -0.0228  0.2175  0.2395
 9460SOL    HW140016   0.094   3.060   7.210  0.6001  0.9271  1.1448
 9460SOL    HW240017   0.226   3.034   7.273 -0.2932  0.2819  0.4089
 9461SOL     OW40018   0.859   0.934   9.482  0.1637  0.3565  0.9147
 9461SOL    HW140019   0.873   0.851   9.528 -0.7484 -1.2713 -1.6880
 9461SOL    HW240020   0.931   0.938   9.419 -0.1396  0.9579  0.6094
 9462SOL     OW40021   2.476   0.629   2.130  0.1941  0.4728  0.2740
 9462SOL    HW140022   2.521   0.710   2.155  0.4675 -0.1998  1.9309
 9462SOL    HW240023   2.543   0.566   2.106 -0.9953 -0.1451 -1.4380
 9463SOL     OW40024   3.712   2.552   1.305 -0.0397  0.2721  0.5376
 9463SOL    HW140025   3.725   2.611   1.378  0.7683  0.6830  0.0630
 9463SOL    HW240026   3.790   2.569   1.252 -0.4645  0.1835 -0.1287
 9464SOL     OW40027   1.235   1.400   3.295 -1.0696  0.4867 -0.2448
 9464SOL    HW140028   1.295   1.469   3.264 -0.1950 -0.9588 -1.7644
 9464SOL    HW240029   1.285   1.321   3.276 -1.0136  0.1124  1.4779
 9465SOL     OW40030   2.441   2.743  16.592  0.2387 -0.0911  0.4825
 9465SOL    HW140031   2.406   2.811  16.649  0.5602  2.3188 -2.2288
 9465SOL    HW240032   2.464   2.678  16.659  0.3348 -1.9948 -1.3929
 9466SOL     OW40033   2.344   1.622   5.849  0.3560  0.0110 -0.1410
 9466SOL    HW140034   2.265   1.567   5.856 -2.4334  3.5521 -3.5718
 9466SOL    HW240035   2.407   1.553   5.866  0.9633  0.9463  1.4495
 9467SOL     OW40036   3.122   3.790   0.118  0.1072 -0.0636 -0.0108
 9467SOL    HW140037   3.110   3.853   0.189 -0.7933 -1.6856  1.2921
 9467SOL    HW240038   3.213   3.764   0.129  0.1208 -0.6185 -1.4325
 9468SOL     OW40039   2.581   2.616   5.539 -0.1278 -0.0154 -0.0498
 9468SOL    HW140040   2.618   2.689   5.490  1.8675 -1.7310 -1.1094
 9468SOL    HW240041   2.633   2.541   5.509 -3.3595 -1.4325 -2.2007
 9469SOL     OW40042   1.405   0.237   5.826  0.4004 -0.1511 -0.0873
 9469SOL    HW140043   1.426   0.156   5.872 -1.1326 -0.8908 -0.6684
 9469SOL    HW240044   1.400   0.198   5.739  2.4681  1.6951 -1.0470
 9470SOL     OW40045   3.125   0.872   1.742 -0.0126  0.2240  0.3563
 9470SOL    HW140046   3.213   0.909   1.752  0.5997 -1.8622  2.4945
 9470SOL    HW240047   3.110   0.819   1.820 -1.1988 -0.3527 -0.2558
 9471SOL     OW40048   4.368   4.405  17.093  0.3863  0.1371 -0.0050
 9471SOL    HW140049   4.401   4.485  17.052  2.0197 -1.3102 -1.4944
 9471SOL    HW240050   4.275   4.418  17.075  0.5873  0.5775 -0.7095
 9472SOL     OW40051   2.010   4.587   7.460 -0.3898  0.3202 -0.3154
 9472SOL    HW140052   2.048   4.585   7.372 -0.0214 -1.1994 -0.1167
 9472SOL    HW240053   2.063   4.526   7.510  0.5838  1.2987 -0.1554
 9473SOL     OW40054   0.803   4.198  13.349 -0.2971  1.0794 -0.0674
 9473SOL    HW140055   0.788   4.277  13.298 -0.3533  0.6290 -0.7464
 9473SOL    HW240056   0.800   4.132  13.280  0.8573 -0.2384  1.1414
 9474SOL     OW40057   1.666   1.285   7.150 -0.0006 -0.6430 -0.0680
 9474SOL    HW140058   1.593   1.341   7.123 -0.2978 -0.8107  0.3878
 9474SOL    HW240059   1.629   1.200   7.125  0.9939 -1.5005  1.3672
 9475SOL     OW40060   4.417   3.855   9.360  0.3930  0.0239 -0.5891
 9475SOL    HW140061   4.403   3.771   9.316 -1.4365  0.1508 -0.2626
 9475SOL    HW240062   4.332   3.899   9.351  0.2871 -0.0310  0.1435
 9476SOL     OW40063   1.881   0.833   1.328  0.1731  0.3418 -0.9530
 9476SOL    HW140064   1.961   0.784   1.350 -0.2440  0.2626  0.3782
 9476SOL    HW240065   1.839   0.839   1.414  1.0398  0.0339 -0.5020
 9477SOL     OW40066   3.174   2.630   3.901  0.0903  0.1939  0.0481
 9477SOL    HW140067   3.267   2.646   3.889 -0.0504 -0.1280 -1.4216
 9477SOL    HW240068   3.176   2.538   3.928  0.1344 -0.0085 -0.6705
 9478SOL     OW40069   4.439   2.357   1.564 -0.1609 -0.1376 -0.1689
 9478SOL    HW140070   4.499   2.282   1.562  1.3194  1.0640 -0.6664
 9478SOL    HW240071   4.499   2.426   1.593 -0.1778 -1.6021  3.4655
 9479SOL     OW40072   1.395   1.053   0.713  0.1370  0.2256  0.1608
 9479SOL    HW140073   1.490   1.049   0.705 -0.1183 -1.6933 -1.9255
 9479SOL    HW240074   1.372   0.989   0.780 -2.3529 -0.4242 -1.3005
 9480SOL     OW40075   2.663   2.407   2.804  1.3417 -0.2436  0.1068
 9480SOL    HW140076   2.675   2.364   2.719  2.2559 -1.2550  0.7539
 9480SOL    HW240077   2.578   2.451   2.795  1.5279 -0.3152 -2.0108
 9481SOL     OW40078   4.155   3.346  10.572  0.4355  0.1764  0.2574
 9481SOL    HW140079   4.132   3.437  10.555  0.9556  0.2111 -0.2582
 9481SOL    HW240080   4.243   3.372  10.600  0.2547  0.6140  0.4090
 9482SOL     OW40081   3.788   4.022  17.631  0.3052 -0.3006  0.4134
 9482SOL    HW140082   3.851   3.993  17.697 -0.1089  1.4048  1.5816
 9482SOL    HW240083   3.808   4.113  17.609  2.2347 -0.5874  1.0059
 9483SOL     OW40084   2.224   4.693  13.153  0.1411 -0.0334  0.2076
 9483SOL    HW140085   2.245   0.030  13.097 -1.3829  0.2492  0.0315
 9483SOL    HW240086   2.287   4.714  13.222 -1.1416  1.7352  0.8208
 9484SOL     OW40087   0.959   0.276   8.327  0.3435 -0.0320  0.1277
 9484SOL    HW140088   0.905   0.353   8.347 -0.4494 -0.4832 -0.3185
 9484SOL    HW240089   0.935   0.225   8.404 -2.3137  3.6553  1.7326
 9485SOL     OW40090   2.535   4.177  10.092  0.2552 -0.0958 -0.2870
 9485SOL    HW140091   2.474   4.247  10.067 -0.0351 -1.7860 -4.3980
 9485SOL    HW240092   2.554   4.197  10.183 -2.1204 -2.2871  0.6932
 9486SOL     OW40093   0.514   0.183   3.936 -0.0978  0.2376  0.0045
 9486SOL    HW140094   0.561   0.187   3.853  1.3355 -0.0203  0.8033
 9486SOL    HW240095   0.440   0.236   3.907  0.2295  0.4098 -0.5260
 9487SOL     OW40096   4.197   1.036   3.379 -0.1115 -0.4322 -0.5406
 9487SOL    HW140097   4.235   0.949   3.369 -0.3307 -0.8087  1.8143
 9487SOL    HW240098   4.107   1.020   3.408 -0.1462  0.0642 -0.3581
 9488SOL     OW40099   2.313   2.438  12.257 -0.4775 -0.2719 -0.2727
 9488SOL    HW140100   2.228   2.435  12.302  0.0854 -0.1731  0.8116
 9488SOL    HW240101   2.342   2.348  12.270 -2.5564 -1.0304 -0.7837
 9489SOL     OW40102   0.655   0.644   3.064  0.3720 -0.0884 -0.5515
 9489SOL    HW140103   0.615   0.701   2.999  0.0249  0.9486  0.5828
 9489SOL    HW240104   0.704   0.584   3.008 -0.4842 -1.0409 -0.2864
 9490SOL     OW40105   4.589   2.837   7.241 -0.0136 -0.2773  0.0879
 9490SOL    HW140106   4.570   2.789   7.322  0.3252  0.6789  0.7270
 9490SOL    HW240107   4.678   2.819   7.211  1.3033  1.2633  3.0841
 9491SOL     OW40108   4.136   2.247  16.233 -0.2582 -0.2402 -0.2154
 9491SOL    HW140109   4.172   2.300  16.305  1.5158  0.2933 -1.4991
 9491SOL    HW240110   4.135   2.161  16.274 -0.0385  0.9379  2.2875
 9492SOL     OW40111   3.232   2.965   3.045  0.1390  0.4204 -1.0934
 9492SOL    HW140112   3.269   2.877   3.051 -1.1445 -0.0332  0.3265
 9492SOL    HW240113   3.142   2.933   3.032  0.2066 -0.6589  0.9822
 9493SOL     OW40114   1.929   2.808   1.331 -0.2514  0.6389  0.1271
 9493SOL    HW140115   1.881   2.887   1.308 -4.1998 -2.4733 -2.4254
 9493SOL    HW240116   1.930   2.809   1.427 -0.8763 -1.5146  0.1541
 9494SOL     OW40117   3.404   0.407   0.968  0.4693  0.3884  0.0002
 9494SOL    HW140118   3.315   0.411   1.003  1.0421 -2.2476  1.7451
 9494SOL    HW240119   3.382   0.412   0.876  0.0428 -0.9195  0.0399
 9495SOL     OW40120   4.094   3.026   7.339  0.0771 -0.8375 -0.1982
 9495SOL    HW140121   4.150   3.102   7.324  0.8765 -1.2801  0.5043
 9495SOL    HW240122   4.153   2.976   7.396  3.0912  0.3414 -2.3375
 9496SOL     OW40123   1.343   2.638   2.077  0.1132  0.1379 -0.6274
 9496SOL    HW140124   1.399   2.707   2.042  0.1602  0.6639  0.4958
 9496SOL    HW240125   1.369   2.651   2.168 -1.2972 -0.1454 -0.1865
 9497SOL     OW40126   4.713   3.963  12.867 -0.6802 -0.5305 -0.3052
 9497SOL    HW140127   4.651   3.925  12.803 -0.6750  0.3879 -0.8532
 9497SOL    HW240128   0.055   3.916  12.841 -0.1385 -0.5876  1.4473
 9498SOL     OW40129   3.312   0.124   7.597 -0.2526  0.1812  0.2757
 9498SOL    HW140130   3.282   0.183   7.528  1.7446 -0.6101 -1.2614
 9498SOL    HW240131   3.236   0.069   7.617  2.7398 -3.1526  2.4523
 9499SOL     OW40132   1.243   0.091  16.305  0.4697  0.4959 -0.6797
 9499SOL    HW140133   1.240   4.735  16.330  1.2676  1.0086  1.3621
 9499SOL    HW240134   1.299   0.076  16.229  0.3553 -2.1200 -0.2672
 9500SOL     OW40135   1.603   0.518   4.798 -0.2666 -0.2126  0.3033
 9500SOL    HW140136   1.682   0.516   4.745 -0.8456  3.1998 -0.6937
 9500SOL    HW240137   1.541   0.469   4.744 -0.4870  1.1525 -0.6890
 9501SOL     OW40138   2.095   0.494  12.149  0.3791 -0.1157 -0.8729
 9501SOL    HW140139   2.007   0.467  12.176  0.0077 -0.0806 -2.0233
 9501SOL    HW240140   2.092   0.589  12.153  0.0012 -0.1518 -0.3618
 9502SOL     OW40141   0.097   2.898   4.685  0.1058  0.3533  0.3888
 9502SOL    HW140142   0.123   2.870   4.597 -1.0984 -0.3717  0.2599
 9502SOL    HW240143   0.030   2.830   4.697  1.5584 -1.5570 -2.1724
 9503SOL     OW40144   1.187   4.388   2.402  0.0911 -0.0524  0.4485
 9503SOL    HW140145   1.206   4.340   2.321 -2.6645  1.6922 -1.2365
 9503SOL    HW240146   1.114   4.336   2.436 -0.6039  1.7476  1.6880
 9504SOL     OW40147   3.928   2.855   6.594 -0.2444 -0.1003 -0.2523
 9504SOL    HW140148   4.014   2.894   6.610 -0.4918  0.6787 -0.8196
 9504SOL    HW240149   3.914   2.893   6.507 -1.9971  0.3092  0.2083
 9505SOL     OW40150   1.559   1.021   5.654  0.4363  0.0947 -0.2025
 9505SOL    HW140151   1.472   0.995   5.625 -0.4160  1.1885  1.3314
 9505SOL    HW240152   1.537   1.100   5.704  2.6235 -0.6456  1.9264
 9506SOL     OW40153   2.911   0.727  10.175  0.3061  0.1053 -0.1255
 9506SOL    HW140154   2.867   0.645  10.199  0.8349  0.0958  0.8393
 9506SOL    HW240155   2.967   0.731  10.253  0.3003 -1.2913 -0.0460
 9507SOL     OW40156   0.664   0.657   5.518 -0.1621  0.0139 -0.0515
 9507SOL    HW140157   0.612   0.622   5.446  1.6188  0.2498 -1.4238
 9507SOL    HW240158   0.740   0.600   5.515 -1.1006 -1.1273 -2.4838
 9508SOL     OW40159   2.909   2.016   3.089  0.6315  0.2556 -0.2155
 9508SOL    HW140160   2.919   2.102   3.130 -0.3439 -0.3179  1.2406
 9508SOL    HW240161   2.990   1.969   3.107  1.1383  1.6832  1.2866
 9509SOL     OW40162   4.207   3.621   0.015 -0.3690  0.2997  0.2999
 9509SOL    HW140163   4.139   3.605  17.697 -0.5884 -0.0045  0.6046
 9509SOL    HW240164   4.182   3.709   0.045 -2.0172  0.3058 -1.1353
 9510SOL     OW40165   3.977   2.149   8.032  0.0216  0.5034  0.4541
 9510SOL    HW140166   3.909   2.215   8.018  0.8695  1.4904  1.0385
 9510SOL    HW240167   4.054   2.185   7.988  0.1767  1.6232  1.6434
 9511SOL     OW40168   1.300   1.504   7.872 -0.1903  0.5636 -0.2913
 9511SOL    HW140169   1.392   1.521   7.851 -0.4180 -0.8742 -2.4692
 9511SOL    HW240170   1.268   1.483   7.784  1.1514 -0.7501 -0.4715
 9512SOL     OW40171   0.968   4.312   3.863  0.0103 -0.5442 -0.1513
 9512SOL    HW140172   0.939   4.398   3.894  0.6698 -0.8876  1.4070
 9512SOL    HW240173   0.949   4.328   3.770  1.7597 -0.9742 -0.5915
 9513SOL     OW40174   1.157   1.248   1.978  0.2868 -0.5719 -0.2690
 9513SOL    HW140175   1.136   1.314   1.912 -2.6592 -1.0829  0.1486
 9513SOL    HW240176   1.158   1.309   2.051 -1.7771 -0.7726 -0.0663
 9514SOL     OW40177   4.228   3.490  11.532 -0.0088 -0.1640 -0.5175
 9514SOL    HW140178   4.217   3.569  11.584  2.4371 -1.0421  1.3176
 9514SOL    HW240179   4.165   3.514  11.464  0.4361  0.1864 -0.8035
 9515SOL     OW40180   3.992   3.088  13.069  0.2179 -0.1192  0.3101
 9515SOL    HW140181   4.026   3.161  13.121  0.9699 -0.1804 -0.1008
 9515SOL    HW240182   3.966   3.020  13.131  1.9425  1.0196  2.2721
 9516SOL     OW40183   4.314   2.477   2.383  0.0448 -0.1397 -0.1317
 9516SOL    HW140184   4.406   2.474   2.357  0.0014  0.0857 -0.3134
 9516SOL    HW240185   4.325   2.514   2.471 -0.4920 -0.1425 -0.0636
 9517SOL     OW40186   3.811   0.695   5.825 -0.5106  0.3124  0.1868
 9517SOL    HW140187   3.730   0.652   5.797 -1.2399  2.1945 -0.6052
 9517SOL    HW240188   3.778   0.753   5.894 -0.8915  0.1263  0.1643
 9518SOL     OW40189   0.346   3.002   6.743 -0.4889  0.2623 -0.2052
 9518SOL    HW140190   0.300   2.943   6.802 -4.2183  2.1874 -1.1958
 9518SOL    HW240191   0.393   3.054   6.808 -1.0727  0.1792  0.2797
 9519SOL     OW40192   4.482   0.220  16.105 -0.0027  0.1936  0.0294
 9519SOL    HW140193   4.479   0.219  16.010  1.8155 -0.5300 -0.0234
 9519SOL    HW240194   4.533   0.139  16.109 -1.4208 -0.6550  0.9178
 9520SOL     OW40195   4.655   1.491  11.390 -0.1538  0.8262 -0.0913
 9520SOL    HW140196   4.595   1.533  11.451  1.1227  1.7057  0.5602
 9520SOL    HW240197   4.607   1.410  11.376 -0.5969  0.8209  1.5213
 9521SOL     OW40198   2.159   3.077   8.965  0.3945 -0.0988 -0.2040
 9521SOL    HW140199   2.156   3.147   9.031 -0.7427 -0.2676 -0.0822
 9521SOL    HW240200   2.111   3.010   9.013  0.7632  0.3334  0.7743
 9522SOL     OW40201   1.348   3.643  12.599 -0.2596 -0.2412 -0.1619
 9522SOL    HW140202   1.265   3.681  12.627  0.3561  1.1610 -0.2575
 9522SOL    HW240203   1.390   3.677  12.677 -0.7390 -2.7604  1.1937
 9523SOL     OW40204   4.192   1.412   3.385  0.2633  0.2639 -0.5079
 9523SOL    HW140205   4.156   1.491   3.346 -0.3337  0.5008  0.5133
 9523SOL    HW240206   4.280   1.409   3.346  1.0254 -1.1692  1.3030
 9524SOL     OW40207   3.450   0.288   4.791 -0.0560 -0.1181  0.1452
 9524SOL    HW140208   3.437   0.304   4.884 -0.3445  0.5231 -0.0041
 9524SOL    HW240209   3.401   0.359   4.748 -0.7230 -0.7984 -0.2096
 9525SOL     OW40210   3.765   3.373   8.478  0.3177  0.4318  0.1940
 9525SOL    HW140211   3.805   3.454   8.446  1.1264  0.1503  0.5009
 9525SOL    HW240212   3.696   3.401   8.539 -0.9718 -0.0188 -1.0557
 9526SOL     OW40213   4.242   2.611   3.439 -0.1849 -0.1268  0.0425
 9526SOL    HW140214   4.325   2.657   3.449 -0.5124  0.7909 -1.5211
 9526SOL    HW240215   4.278   2.522   3.442  2.1854  0.8163 -0.8691
 9527SOL     OW40216   0.006   3.214   6.924 -0.0249 -0.0081 -0.0254
 9527SOL    HW140217   0.085   3.248   6.967  0.1211 -0.0967 -0.2250
 9527SOL    HW240218   0.031   3.137   6.873  0.2395  0.6582 -0.9019
 9528SOL     OW40219   1.987   2.254   5.951  0.2791 -0.2552 -0.5295
 9528SOL    HW140220   1.947   2.335   5.983  1.3896 -0.6652  1.9254
 9528SOL    HW240221   2.054   2.239   6.018  0.9388  1.5785 -0.7584
 9529SOL     OW40222   1.669   1.479  15.717  0.3576 -0.0227 -0.3847
 9529SOL    HW140223   1.679   1.526  15.800 -1.3281  1.1700 -0.8559
 9529SOL    HW240224   1.651   1.549  15.655 -1.9746 -1.0074 -0.8132
 9530SOL     OW40225   1.182   4.242   2.155  0.4969 -0.0436  0.4689
 9530SOL    HW140226   1.257   4.192   2.123  1.6526  0.5627  2.3130
 9530SOL    HW240227   1.144   4.284   2.078  1.3010  1.7917  1.0893
 9531SOL     OW40228   2.285   2.293   4.529 -0.0850 -0.3988  0.4330
 9531SOL    HW140229   2.354   2.283   4.464  0.0790  1.5413  0.3010
 9531SOL    HW240230   2.274   2.388   4.534  0.8129 -0.1896 -1.6114
 9532SOL     OW40231   2.207   0.256   1.334  0.0793 -0.0321  0.4749
 9532SOL    HW140232   2.167   0.247   1.248  2.1694  0.6408 -0.5737
 9532SOL    HW240233   2.138   0.259   1.401 -1.6862 -1.8753 -1.3021
 9533SOL     OW40234   1.041   2.645  11.281  0.4210  0.0765 -0.0643
 9533SOL    HW140235   1.001   2.720  11.236 -2.1941 -1.4334 -0.2606
 9533SOL    HW240236   0.970   2.581  11.274  0.3016  0.4040 -1.8604
 9534SOL     OW40237   3.364   3.578   2.983 -0.1402 -0.5636 -0.4466
 9534SOL    HW140238   3.421   3.634   2.930 -2.4060  1.5268 -0.6411
 9534SOL    HW240239   3.283   3.627   2.991  0.7686  0.4173  2.4655
 9535SOL     OW40240   1.203   1.443   1.235  0.1698  0.0852 -0.2226
 9535SOL    HW140241   1.174   1.495   1.310 -1.1333  2.4175 -2.3514
 9535SOL    HW240242   1.180   1.494   1.157 -0.8363  0.7919  0.5286
 9536SOL     OW40243   1.956   0.686   1.101  0.6183 -0.2789 -0.2931
 9536SOL    HW140244   1.923   0.774   1.082  0.5817 -0.3905 -0.7352
 9536SOL    HW240245   1.999   0.700   1.186 -1.7233  1.9211  0.5528
 9537SOL     OW40246   0.183   1.172  14.009 -0.2910 -0.1868 -0.0118
 9537SOL    HW140247   0.256   1.231  14.023 -0.7922  0.5178 -0.3402
 9537SOL    HW240248   0.145   1.168  14.097  0.6433  0.2323  0.4029
 9538SOL     OW40249   1.827   3.225   8.054 -0.1845 -0.1480 -0.6468
 9538SOL    HW140250   1.877   3.145   8.038  0.0112 -0.2620  0.5330
 9538SOL    HW240251   1.783   3.193   8.132  1.2138 -1.4134 -0.3770
 9539SOL     OW40252   3.714   4.489   4.781  0.4964 -0.2906  0.5133
 9539SOL    HW140253   3.716   4.564   4.840  2.7576  1.6730 -2.0765
 9539SOL    HW240254   3.703   4.530   4.695  0.6184  0.9747  1.1089
 9540SOL     OW40255   0.073   0.315   1.952 -0.3201  0.3884  0.6662
 9540SOL    HW140256   0.151   0.319   2.008  1.2360 -1.6652 -1.3855
 9540SOL    HW240257   0.005   0.348   2.012 -1.8151  0.4210 -1.0387
 9541SOL     OW40258   4.695   1.668   3.607  0.1190  0.0911 -0.2814
 9541SOL    HW140259   0.012   1.731   3.656 -2.7995  2.6729 -0.3317
 9541SOL    HW240260   0.023   1.628   3.550  0.9512 -0.7838  1.2868
 9542SOL     OW40261   1.475   0.214  11.084 -0.8269 -0.4074  0.0295
 9542SOL    HW140262   1.411   0.269  11.129  0.7937 -1.1733  3.2857
 9542SOL    HW240263   1.551   0.271  11.093 -2.5050  1.6382  1.2437
 9543SOL     OW40264   1.220   2.316   7.465  0.7887 -0.6434 -0.2994
 9543SOL    HW140265   1.280   2.316   7.390  0.0972 -2.5921 -0.8642
 9543SOL    HW240266   1.279   2.305   7.539 -0.2819  0.7844  0.7757
 9544SOL     OW40267   2.967   0.820   4.575 -0.5754  0.6981  0.0318
 9544SOL    HW140268   2.931   0.787   4.493 -1.3988 -0.0847  0.7116
 9544SOL    HW240269   2.953   0.915   4.566 -1.5956  0.3851 -1.5674
 9545SOL     OW40270   0.022   4.620   6.762  0.5479  0.2691  0.3960
 9545SOL    HW140271   0.012   4.693   6.701  0.0095  0.2680  0.4798
 9545SOL    HW240272   4.690   4.643   6.824  0.7781  0.4338  0.5956
 9546SOL     OW40273   0.895   2.913   6.688 -0.6995  0.5171 -0.4166
 9546SOL    HW140274   0.868   3.002   6.664  0.9520  0.9098 -0.8265
 9546SOL    HW240275   0.808   2.873   6.687 -1.3470  1.9390 -1.4733
 9547SOL     OW40276   4.270   3.995   8.610  0.3181 -0.2854  0.2275
 9547SOL    HW140277   4.322   4.065   8.650  0.3089 -1.4712  2.3295
 9547SOL    HW240278   4.206   3.986   8.681 -0.9724  2.1356 -0.6200
 9548SOL     OW40279   3.581   3.258   4.271  0.3564 -0.2078 -0.2477
 9548SOL    HW140280   3.587   3.199   4.346 -0.6284 -2.2241 -1.7547
 9548SOL    HW240281   3.498   3.306   4.273 -0.7223 -2.0117 -2.0568
 9549SOL     OW40282   0.262   4.630   5.965 -0.0977  0.4913  0.0751
 9549SOL    HW140283   0.237   4.680   6.043 -0.8372  2.3475 -1.3616
 9549SOL    HW240284   0.198   4.559   5.972 -1.7325  1.9923  0.3946
 9550SOL     OW40285   4.495   3.687   7.365 -0.2070 -0.7362 -0.4698
 9550SOL    HW140286   4.413   3.638   7.376 -0.2445 -0.6515 -0.3804
 9550SOL    HW240287   4.489   3.721   7.276 -2.5740 -1.2772 -0.5284
 9551SOL     OW40288   1.503   2.057   9.569  0.1537 -0.1547  0.2806
 9551SOL    HW140289   1.476   1.970   9.539  3.0381 -0.2552 -2.0710
 9551SOL    HW240290   1.485   2.046   9.662 -2.5749  0.5401 -0.1651
 9552SOL     OW40291   1.738   0.801   2.007 -0.6201  0.8386 -0.3299
 9552SOL    HW140292   1.821   0.836   2.038  0.3598 -1.8348  0.0495
 9552SOL    HW240293   1.700   0.775   2.091  1.3587 -1.2735 -0.0968
 9553SOL     OW40294   0.434   3.147   6.924 -0.0314  0.5852 -0.1571
 9553SOL    HW140295   0.375   3.212   6.963  2.0140  0.7600  2.5845
 9553SOL    HW240296   0.513   3.201   6.918  0.6078 -0.2532  0.8677
 9554SOL     OW40297   2.005   4.680   0.991  0.2080 -0.5359 -0.3073
 9554SOL    HW140298   1.951   4.602   1.004 -0.1803 -0.4397 -1.2924
 9554SOL    HW240299   2.011   4.707   1.083 -0.4981 -2.4933  0.3005
 9555SOL     OW40300   2.712   2.195   7.465 -0.2811  0.8383  0.1061
 9555SOL    HW140301   2.680   2.266   7.521 -0.1355 -0.3252  1.6254
 9555SOL    HW240302   2.627   2.170   7.427 -0.0339 -1.0037  0.7896
 9556SOL     OW40303   1.616   4.552   2.997  0.1975  0.2705  0.2247
 9556SOL    HW140304   1.698   4.565   2.950 -1.7699 -0.4444 -3.4599
 9556SOL    HW240305   1.592   4.640   3.024  1.0534  0.7887 -0.7302
 9557SOL     OW40306   2.038   2.937  13.547  0.7196 -0.1188  0.9266
 9557SOL    HW140307   2.020   3.021  13.505 -0.2176 -0.5178  0.5151
 9557SOL    HW240308   2.124   2.958  13.584  0.8257  2.9101 -1.0159
 9558SOL     OW40309   1.289   2.679   8.638  0.6051  0.1651  0.6042
 9558SOL    HW140310   1.317   2.725   8.717 -2.0239 -1.3931  2.4357
 9558SOL    HW240311   1.338   2.718   8.566  0.3001 -1.2526 -0.3780
 9559SOL     OW40312   3.680   0.921   8.533  0.5065  0.1027 -0.2657
 9559SOL    HW140313   3.585   0.907   8.531  0.9085 -2.6203 -0.6826
 9559SOL    HW240314   3.686   1.004   8.581 -3.3174  0.7637 -0.9178
 9560SOL     OW40315   3.668   0.289   2.715  0.3521 -0.2226 -0.2429
 9560SOL    HW140316   3.699   0.231   2.646  1.9040 -0.5835  0.7782
 9560SOL    HW240317   3.575   0.267   2.705  0.5991 -1.2702 -0.1427
 9561SOL     OW40318   2.078   2.437   7.563 -0.3877 -0.5542  0.3141
 9561SOL    HW140319   2.099   2.517   7.515 -2.1141 -1.8042 -2.5167
 9561SOL    HW240320   1.997   2.466   7.605 -0.4994  0.6907 -0.7875
 9562SOL     OW40321   1.450   1.825   7.943 -0.3299 -0.9116  0.2900
 9562SOL    HW140322   1.499   1.793   7.867  1.4682  0.5077  0.8551
 9562SOL    HW240323   1.510   1.805   8.014  0.2417 -1.7397 -0.4318
 9563SOL     OW40324   4.098   0.338   3.474 -0.8000 -0.0533 -0.0491
 9563SOL    HW140325   4.119   0.294   3.392 -1.4119  0.1693 -0.3201
 9563SOL    HW240326   4.190   0.359   3.493 -1.2550  0.1082  2.0072
 9564SOL     OW40327   4.021   3.131   6.414 -0.4265 -0.7649 -0.1850
 9564SOL    HW140328   4.102   3.181   6.417 -0.0790 -1.4240  1.0936
 9564SOL    HW240329   3.989   3.143   6.324 -0.6162 -1.9966 -0.2813
 9565SOL     OW40330   2.244   4.013   3.220 -0.2014 -0.1909  0.0107
 9565SOL    HW140331   2.196   4.094   3.241  0.5241  0.1256  0.4456
 9565SOL    HW240332   2.301   4.049   3.153 -1.6027 -1.3005 -1.7607
 9566SOL     OW40333   4.072   4.639  11.919 -0.4092  0.3348  0.4464
 9566SOL    HW140334   4.139   4.660  11.984 -1.1993  0.6603  1.1529
 9566SOL    HW240335   3.994   4.678  11.959 -0.5940  0.2068  0.2082
 9567SOL     OW40336   4.100   3.437  14.426  0.2403 -0.0486 -0.6638
 9567SOL    HW140337   4.143   3.385  14.358  0.6592  0.2993 -0.6698
 9567SOL    HW240338   4.065   3.365  14.478 -1.1939  0.3848 -1.0521
 9568SOL     OW40339   0.370   2.521   3.025  0.0097 -0.5743  0.3987
 9568SOL    HW140340   0.360   2.438   3.071  1.4352 -0.5870  0.7105
 9568SOL    HW240341   0.402   2.494   2.939 -0.4956 -0.6289  0.2290
 9569SOL     OW40342   1.169   2.978   7.362 -0.5066  0.3376  0.0336
 9569SOL    HW140343   1.144   2.912   7.427  0.8911 -0.7283 -0.5011
 9569SOL    HW240344   1.236   2.938   7.307 -1.1378 -1.4595  0.5589
   4.73725   4.73725  17.74729
