Membrane in water
40344
    1TMC1    C1    1   2.051   0.478  11.459 -0.7946  0.0076 -0.9408
    1TMC1    C2    2   2.145   0.385  11.447  0.5560 -0.6380  0.2449
    1TMC1    C3    3   2.199   0.349  11.327 -0.3766 -0.1159  1.0670
    1TMC1    C4    4   2.009   0.549  11.351  0.0659  0.4968 -0.2940
    1TMC1    C5    5   2.069   0.522  11.232 -0.3071  0.1444  0.2187
    1TMC1    C6    6   2.160   0.416  11.211 -0.0564 -0.2472  0.4305
    1TMC1     C    7   1.951   0.463  11.563  0.3302  0.1752 -0.0170
    1TMC1     O    8   1.843   0.510  11.534 -0.3726  0.1323 -0.0255
    1TMC1     H    9   2.175   0.320  11.529  0.9343 -1.2287 -0.3588
    1TMC1    H1   10   1.927   0.619  11.344 -0.5212 -0.0665  0.8498
    1TMC1    H2   11   2.214   0.389  11.122 -0.6316 -0.5646  0.1742
    1TMC1    C7   12   2.016   0.582  11.111  0.0458  0.4514  0.0404
    1TMC1    C8   13   2.317   0.258  11.329  0.7154  0.6906 -0.0616
    1TMC1    O1   14   1.894   0.579  11.101  0.0804 -0.1318 -0.0963
    1TMC1    O2   15   2.373   0.234  11.438 -0.1867 -0.7600  0.6047
    1TMC1    O3   16   2.106   0.554  11.014 -0.1411 -0.1822  0.1846
    1TMC1    H3   17   2.194   0.581  11.047 -0.2279 -0.7377  0.8765
    1TMC1    O5   18   2.298   0.164  11.230 -0.8479 -0.5078  0.0701
    1TMC1    H5   19   2.230   0.188  11.163 -0.9488 -0.6501  0.1216
    2MPD2     C   20   1.792   0.294  12.018  0.4831  0.3818  0.1430
    2MPD2    C1   21   1.720   0.334  11.915  0.0827 -0.0766 -0.0278
    2MPD2    C2   22   1.785   0.368  11.799  0.3801  0.2284 -0.7095
    2MPD2    C3   23   1.927   0.369  11.796  0.1469 -0.0577 -0.0308
    2MPD2    C4   24   2.001   0.330  11.909 -1.2182 -0.1471  0.3020
    2MPD2    C5   25   1.929   0.286  12.019  0.2404 -0.2579 -0.0227
    2MPD2     H   26   1.727   0.406  11.716 -2.2898 -0.6366  0.7533
    2MPD2    H1   27   2.109   0.333  11.916 -1.1654 -0.6432 -0.3542
    2MPD2    H2   28   1.741   0.267  12.110  0.6124 -0.6541 -0.0929
    2MPD2    H3   29   1.978   0.267  12.114 -0.3698  0.5855  0.4626
    2MPD2     N   30   1.996   0.405  11.675 -0.0300  0.4161  0.1521
    2MPD2    H5   31   2.096   0.389  11.689 -0.1253  0.0788  0.4537
    2MPD2    N1   32   1.578   0.320  11.926 -0.1753 -0.2798  0.0871
    2MPD2    H7   33   1.531   0.277  12.005  0.3589  1.5384  1.3906
    3TMC1    C1   34   1.361   2.594  10.097  0.2226  0.1036 -0.2988
    3TMC1    C2   35   1.459   2.683  10.137 -0.1769 -0.7869 -0.3244
    3TMC1    C3   36   1.433   2.820  10.139  0.1898 -0.4226  0.3212
    3TMC1    C4   37   1.236   2.639  10.053 -0.6184 -0.5820  0.2777
    3TMC1    C5   38   1.219   2.773  10.056  0.1521 -0.4681 -0.0163
    3TMC1    C6   39   1.315   2.868  10.088  0.5116 -0.8103 -0.0691
    3TMC1     C   40   1.380   2.454  10.120 -0.2992  0.3855  0.4486
    3TMC1     O   41   1.491   2.413  10.133 -0.1911  0.0285 -0.1638
    3TMC1     H   42   1.552   2.645  10.178 -0.1582  1.3471  1.6409
    3TMC1    H1   43   1.158   2.575  10.014  1.7160 -2.0095 -2.0041
    3TMC1    H2   44   1.277   2.970  10.097  0.2363 -0.9490  0.3483
    3TMC1    C7   45   1.103   2.826   9.978  0.8528  0.2860  0.5561
    3TMC1    C8   46   1.525   2.908  10.214 -0.0741  0.4323 -0.7720
    3TMC1    O1   47   1.084   2.945   9.973  0.1223 -0.1956 -0.4566
    3TMC1    O2   48   1.593   2.868  10.310 -0.8245  0.2007 -0.1406
    3TMC1    O3   49   1.048   2.737   9.897  0.7566 -0.6100 -0.1471
    3TMC1    H3   50   1.040   2.642   9.921 -2.1512 -0.0400  1.1822
    3TMC1    O5   51   1.495   3.036  10.180  0.0605 -0.2925 -0.0004
    3TMC1    H5   52   1.445   3.057  10.098 -0.5747  0.4654  0.5765
    4MPD2     C   53   1.226   1.972  10.100 -0.1008 -0.5639 -0.6400
    4MPD2    C1   54   1.138   2.041  10.178  0.7129 -0.1242  0.5031
    4MPD2    C2   55   1.145   2.178  10.180 -0.6952 -0.1725  0.2662
    4MPD2    C3   56   1.254   2.246  10.127  0.3846 -0.4419 -0.2569
    4MPD2    C4   57   1.352   2.171  10.072  0.1630  0.0478 -0.4417
    4MPD2    C5   58   1.332   2.035  10.058  0.6583  0.1487  0.3747
    4MPD2     H   59   1.070   2.235  10.234 -1.8807  0.1550 -1.6931
    4MPD2    H1   60   1.441   2.218  10.033 -0.1325 -0.1675 -1.3723
    4MPD2    H2   61   1.225   1.865  10.088  0.0666 -0.6802  0.4568
    4MPD2    H3   62   1.411   1.986  10.003 -0.5442 -0.2875 -0.9619
    4MPD2     N   63   1.267   2.385  10.135 -0.5853 -0.1036 -0.4698
    4MPD2    H5   64   1.186   2.444  10.151  0.2994  0.6315  1.3242
    4MPD2    N1   65   1.037   1.979  10.249  0.1059  0.2849  0.0736
    4MPD2    H7   66   0.965   2.038  10.290  1.2870  1.2572  0.7322
    5TCq1    O1   67   1.569   3.626  12.165  0.0443 -0.5001  0.1699
    5TCq1    C1   68   1.629   3.539  12.082  0.6242  0.0018  0.0192
    5TCq1    O2   69   1.740   3.554  12.031 -0.0799 -0.5738 -0.8770
    5TCq1    C2   70   1.527   3.461  12.022 -0.4134  0.2598  0.0793
    5TCq1    C3   71   1.438   3.380  12.096 -0.3635 -0.2529 -0.0768
    5TCq1    C4   72   1.353   3.303  12.023  0.1070 -0.0380 -0.0588
    5TCq1    C5   73   1.346   3.311  11.890 -0.8403  0.0411 -0.0819
    5TCq1    C6   74   1.437   3.385  11.820 -0.0599  0.0111  0.4507
    5TCq1    C7   75   1.532   3.459  11.881 -0.1854 -0.2202 -0.3993
    5TCq1    C8   76   1.445   3.359  11.680  1.1798 -0.4256  0.3675
    5TCq1    O4   77   1.437   3.240  11.640  0.4359  0.4446 -0.6059
    5TCq1    C9   78   1.258   3.216  12.089 -0.2136 -0.3963 -0.2655
    5TCq1    O5   79   1.209   3.129  12.014  0.3878 -0.2259  0.1422
    5TCq1    O6   80   1.230   3.227  12.212 -0.1854  0.0530  0.0419
    5TCq1    H1   81   1.476   3.605  12.189 -0.0917  0.0865  0.1527
    5TCq1    H2   82   1.455   3.367  12.202  1.3725 -1.8980 -0.5475
    5TCq1    H3   83   1.262   3.273  11.832 -0.6000  3.7682 -2.8274
    5TCq1    H4   84   1.594   3.530  11.829  0.8746 -0.4083  0.6019
    6MPD2     C   85   1.504   3.611  11.430 -0.4360 -0.1306 -0.0689
    6MPD2    C1   86   1.494   3.488  11.478 -0.8910 -0.3732 -0.1379
    6MPD2    C2   87   1.510   3.384  11.384  0.1998  0.3999 -0.5224
    6MPD2    C3   88   1.551   3.408  11.250  0.1274 -0.0474  0.2137
    6MPD2    C4   89   1.556   3.537  11.210 -0.2418 -0.4541  0.0006
    6MPD2    C5   90   1.544   3.641  11.299  0.5468 -0.0452  0.4967
    6MPD2     H   91   1.506   3.278  11.409  0.8725  1.0737  2.4150
    6MPD2    H1   92   1.586   3.556  11.107  0.2148 -2.2987 -0.2204
    6MPD2    H2   93   1.492   3.696  11.496  0.5607  0.5161 -0.7134
    6MPD2    H3   94   1.560   3.745  11.274  1.6140  0.2754  2.5210
    6MPD2     N   95   1.560   3.296  11.161 -0.1475 -0.4118  0.9494
    6MPD2    H5   96   1.540   3.202  11.190  1.7914 -1.1911 -0.1897
    6MPD2    N1   97   1.462   3.477  11.614  0.3691  0.1057 -1.2565
    6MPD2    H7   98   1.471   3.564  11.667 -1.0313 -1.4202  1.5249
    7TCq1    O1   99   3.164   2.284  13.918 -0.4781 -0.2307 -0.4232
    7TCq1    C1  100   3.174   2.222  14.040 -0.1402 -0.1467  0.7815
    7TCq1    O2  101   3.210   2.259  14.150  0.3652  0.0181  0.4614
    7TCq1    C2  102   3.146   2.082  14.021  0.3010  0.3224 -0.0773
    7TCq1    C3  103   3.081   2.017  14.119 -0.5126 -0.2053 -0.2196
    7TCq1    C4  104   3.072   1.884  14.104  0.6956 -0.0749  0.5090
    7TCq1    C5  105   3.131   1.814  14.002 -0.3479 -0.0230  0.2065
    7TCq1    C6  106   3.192   1.887  13.904  0.0227 -0.0558  0.2434
    7TCq1    C7  107   3.212   2.020  13.924 -0.6367  0.0610  0.6830
    7TCq1    C8  108   3.215   1.826  13.773 -0.6760  0.7861 -0.2345
    7TCq1    O4  109   3.234   1.709  13.782  0.1180 -0.2918  0.2901
    7TCq1    C9  110   2.996   1.815  14.207  0.5249 -0.4908  0.3174
    7TCq1    O5  111   2.997   1.688  14.199  0.3164  0.6338  0.0494
    7TCq1    O6  112   2.938   1.885  14.291  0.4317 -0.5409 -0.1986
    7TCq1    H1  113   3.135   2.222  13.848  2.3057 -2.6140  0.5580
    7TCq1    H2  114   3.036   2.071  14.201 -0.4086 -0.0185 -0.2867
    7TCq1    H3  115   3.122   1.707  13.992  2.3274 -0.1744 -0.5810
    7TCq1    H4  116   3.282   2.079  13.865 -2.3987  1.1761 -0.3084
    8MPD2     C  117   3.463   1.864  13.335  0.3939  0.2948  0.0300
    8MPD2    C1  118   3.484   1.778  13.441 -0.0911 -0.7569  0.2340
    8MPD2    C2  119   3.396   1.779  13.543  0.5736  0.0476  0.1755
    8MPD2    C3  120   3.308   1.887  13.555  0.5688  0.2760 -0.3026
    8MPD2    C4  121   3.297   1.981  13.458  0.4298  0.4366  1.0515
    8MPD2    C5  122   3.374   1.967  13.343 -0.3787 -0.0337  0.3007
    8MPD2     H  123   3.416   1.703  13.618  0.1507 -0.4862 -0.2451
    8MPD2    H1  124   3.225   2.062  13.463  0.3107  0.4366 -0.5457
    8MPD2    H2  125   3.523   1.873  13.246 -0.4160  0.9617 -0.4517
    8MPD2    H3  126   3.378   2.044  13.268  1.1903  0.2329  0.6599
    8MPD2     N  127   3.245   1.913  13.675  0.9440 -0.0237  0.0838
    8MPD2    H5  128   3.204   2.006  13.680 -0.0602 -0.4223 -0.6521
    8MPD2    N1  129   3.593   1.692  13.429 -0.1127  0.3455 -0.5186
    8MPD2    H7  130   3.647   1.691  13.343  0.4669 -0.0063 -0.1521
    9TMC1    C1  131   1.887   1.542  10.804 -0.3185 -0.1380 -0.1160
    9TMC1    C2  132   1.786   1.450  10.779 -0.7913 -0.4456 -1.3710
    9TMC1    C3  133   1.803   1.350  10.688  0.2742 -0.3536  0.1269
    9TMC1    C4  134   2.009   1.523  10.741  0.1357 -0.8499 -0.4645
    9TMC1    C5  135   2.026   1.414  10.662  0.4640  0.1989  0.9181
    9TMC1    C6  136   1.926   1.326  10.633 -0.4878 -0.0715 -0.0847
    9TMC1     C  137   1.881   1.635  10.911 -0.7553  0.3098  0.6374
    9TMC1     O  138   1.982   1.700  10.932 -0.7432  0.6058 -0.0396
    9TMC1     H  139   1.691   1.455  10.830  1.3495 -1.1583  2.6452
    9TMC1    H1  140   2.090   1.592  10.761 -0.1852 -0.0630 -1.8293
    9TMC1    H2  141   1.941   1.246  10.562  0.6350  0.5550 -0.5389
    9TMC1    C7  142   2.161   1.384  10.624  0.2614 -0.1938  0.8595
    9TMC1    C8  143   1.721   1.239  10.705  0.0473 -0.7291  0.3326
    9TMC1    O1  144   2.195   1.374  10.510 -0.9053  0.5825  0.6960
    9TMC1    O2  145   1.597   1.237  10.687 -0.5470 -0.9135  0.3042
    9TMC1    O3  146   2.235   1.389  10.731 -0.1101  0.2651  0.5430
    9TMC1    H3  147   2.175   1.398  10.808 -1.9552  1.9997 -1.0678
    9TMC1    O5  148   1.793   1.144  10.764 -0.1726  0.3119 -0.0216
    9TMC1    H5  149   1.885   1.169  10.788  0.1605 -0.1177 -0.8260
   10MPD2     C  150   1.814   1.806  11.154 -0.1589  0.0987  0.3384
   10MPD2    C1  151   1.741   1.694  11.115  0.0833  0.3260  0.3148
   10MPD2    C2  152   1.633   1.663  11.200 -0.4756  0.1830  0.9860
   10MPD2    C3  153   1.616   1.706  11.325  0.2379  0.1728  0.8374
   10MPD2    C4  154   1.684   1.820  11.359 -0.1982  0.1080  0.1622
   10MPD2    C5  155   1.781   1.872  11.276 -0.5624  0.1018 -0.0524
   10MPD2     H  156   1.568   1.580  11.174 -0.7888  0.5490  0.6072
   10MPD2    H1  157   1.654   1.874  11.449  1.6121  1.6227 -0.1190
   10MPD2    H2  158   1.911   1.830  11.112 -0.9853  1.8512 -0.5864
   10MPD2    H3  159   1.835   1.963  11.299  0.2957 -0.9227  1.9597
   10MPD2     N  160   1.524   1.650  11.415 -0.0314  0.4991 -0.7270
   10MPD2    H5  161   1.555   1.659  11.511  1.5049  0.5092 -1.2251
   10MPD2    N1  162   1.762   1.623  10.994 -0.6053  0.4928 -0.2674
   10MPD2    H7  163   1.688   1.558  10.972  0.5915 -1.6379  2.0294
   11TCq1    O1  164   1.866   1.282  14.214  0.6052 -0.4089 -0.0820
   11TCq1    C1  165   1.999   1.285  14.187 -0.3588  0.8797  0.1202
   11TCq1    O2  166   2.090   1.321  14.265 -0.3552 -0.1091 -0.7732
   11TCq1    C2  167   2.015   1.230  14.050 -0.5319 -0.2027  0.8253
   11TCq1    C3  168   2.143   1.242  13.993 -0.0605 -0.0210 -0.3155
   11TCq1    C4  169   2.179   1.155  13.897 -0.3114 -0.4596 -0.1789
   11TCq1    C5  170   2.104   1.039  13.864  0.4799  0.1416  0.2779
   11TCq1    C6  171   1.986   1.016  13.941  0.3762 -0.1548 -0.0768
   11TCq1    C7  172   1.933   1.120  14.021  0.0464  0.2084  0.2226
   11TCq1    C8  173   1.895   0.919  13.895  0.1654  0.0412 -0.5967
   11TCq1    O4  174   1.774   0.945  13.899 -0.0088  0.4307  0.2609
   11TCq1    C9  175   2.285   1.192  13.808  0.8937 -0.5366  1.2233
   11TCq1    O5  176   2.316   1.106  13.719 -0.8798 -0.1526 -0.6110
   11TCq1    O6  177   2.344   1.300  13.832 -0.2086  0.0522 -0.5845
   11TCq1    H1  178   1.811   1.258  14.136 -1.5514  1.3786  0.8919
   11TCq1    H2  179   2.203   1.321  14.035 -0.7381 -0.8768  2.2563
   11TCq1    H3  180   2.129   0.974  13.781  2.6896  1.6756 -0.2571
   11TCq1    H4  181   1.851   1.088  14.084  1.3547  0.2462  1.9516
   12MPD2     C  182   1.810   0.714  13.701  0.5334 -0.4916  0.6075
   12MPD2    C1  183   1.915   0.699  13.788  0.2839  0.1461 -0.6712
   12MPD2    C2  184   1.972   0.581  13.802 -0.0468  0.1622  0.8008
   12MPD2    C3  185   1.920   0.466  13.751  0.7237 -0.0597  0.2992
   12MPD2    C4  186   1.804   0.475  13.667  0.7676 -0.8105 -0.0431
   12MPD2    C5  187   1.754   0.603  13.645 -1.0695  0.8186 -0.3265
   12MPD2     H  188   2.059   0.577  13.866  0.4670 -1.3717  0.0301
   12MPD2    H1  189   1.765   0.384  13.623  2.3110 -1.4699 -0.0401
   12MPD2    H2  190   1.764   0.810  13.681 -0.2875 -0.9785  0.1332
   12MPD2    H3  191   1.665   0.605  13.583 -0.8028 -1.6827 -0.8092
   12MPD2     N  192   1.974   0.339  13.773  0.0154  0.0899 -0.1856
   12MPD2    H5  193   1.922   0.257  13.742 -1.4921  0.8657  0.2934
   12MPD2    N1  194   1.968   0.807  13.857 -0.2020  0.3789  0.0407
   12MPD2    H7  195   2.061   0.793  13.894  0.7588 -0.1169 -2.5583
   13TCq1    O1  196   1.892   1.465  11.535  0.4585  0.3394 -0.0850
   13TCq1    C1  197   1.933   1.507  11.411 -0.3666  0.3133 -0.4665
   13TCq1    O2  198   2.024   1.589  11.396  0.0587  0.2060 -0.8527
   13TCq1    C2  199   1.889   1.416  11.305  0.0181 -0.5139 -0.1169
   13TCq1    C3  200   1.973   1.399  11.197 -0.2745  0.5743  0.4910
   13TCq1    C4  201   1.938   1.315  11.095  0.3819 -0.9378 -0.1796
   13TCq1    C5  202   1.816   1.259  11.095 -0.0963  0.9308 -0.6718
   13TCq1    C6  203   1.726   1.288  11.190 -0.6144 -0.2252  0.4117
   13TCq1    C7  204   1.761   1.357  11.302  0.4751  0.3454  0.0600
   13TCq1    C8  205   1.586   1.237  11.182  0.0303 -0.2722  0.0520
   13TCq1    O4  206   1.504   1.303  11.244  0.2527 -0.2400 -0.4364
   13TCq1    C9  207   2.028   1.291  10.985 -0.2038  0.3648  0.3573
   13TCq1    O5  208   1.991   1.198  10.906 -0.3567  0.0359  0.0839
   13TCq1    O6  209   2.124   1.367  10.968 -0.0441  0.2690 -0.2244
   13TCq1    H1  210   1.844   1.380  11.543 -1.0861  1.1685 -0.3966
   13TCq1    H2  211   2.065   1.456  11.191 -0.0563  0.0875 -0.7987
   13TCq1    H3  212   1.790   1.197  11.010 -0.4158  0.7795 -0.4631
   13TCq1    H4  213   1.689   1.381  11.379 -0.7949  0.2950 -1.1190
   14MPD2     C  214   1.492   0.924  11.009 -0.1929  0.0734 -0.3769
   14MPD2    C1  215   1.470   1.029  11.099  0.0531 -0.0634 -0.3913
   14MPD2    C2  216   1.348   1.057  11.151  0.6382  0.6452  1.1286
   14MPD2    C3  217   1.242   0.970  11.136 -0.3619  0.2179 -0.1520
   14MPD2    C4  218   1.261   0.856  11.060 -0.4037  0.2304  0.0722
   14MPD2    C5  219   1.385   0.835  10.990 -0.3427  0.6931 -0.6502
   14MPD2     H  220   1.331   1.143  11.215 -1.2444  2.0484 -1.2549
   14MPD2    H1  221   1.177   0.789  11.044  1.6591 -2.3453  0.0470
   14MPD2    H2  222   1.590   0.904  10.969  0.1349 -0.0045  0.4481
   14MPD2    H3  223   1.402   0.747  10.928  0.4418 -1.2300  2.3104
   14MPD2     N  224   1.120   1.018  11.181  0.3549 -0.5213 -0.6282
   14MPD2    H5  225   1.120   1.104  11.235 -2.4976 -1.4493  0.8526
   14MPD2    N1  226   1.581   1.116  11.118  0.0684  0.2319 -0.5923
   14MPD2    H7  227   1.664   1.090  11.065 -0.2050 -1.4691 -0.1816
   15TCq1    O1  228   0.094   0.723   1.177 -0.6376 -0.1280  0.4586
   15TCq1    C1  229   4.726   0.695   1.097 -0.1755 -0.4702  0.3227
   15TCq1    O2  230   4.614   0.743   1.116 -0.3964  0.3344  0.2141
   15TCq1    C2  231   0.023   0.569   1.035  0.7956 -0.0210 -0.2036
   15TCq1    C3  232   0.144   0.551   0.967 -0.4732  0.0590  0.1512
   15TCq1    C4  233   0.144   0.449   0.878  0.1810  0.4491 -0.0104
   15TCq1    C5  234   0.027   0.389   0.845  0.1105  0.8036 -0.3077
   15TCq1    C6  235   4.653   0.414   0.914 -0.2714  0.5523  0.6434
   15TCq1    C7  236   4.645   0.507   1.010 -0.6408 -0.0901 -0.0506
   15TCq1    C8  237   4.545   0.314   0.903  0.2837 -0.4362  0.1348
   15TCq1    O4  238   4.584   0.213   0.841  0.4327 -0.3569 -0.0743
   15TCq1    C9  239   0.264   0.441   0.799  0.1972 -0.1864  0.0259
   15TCq1    O5  240   0.264   0.359   0.707 -0.2309 -0.2075 -0.2335
   15TCq1    O6  241   0.365   0.509   0.834  0.8956 -0.5354 -0.8040
   15TCq1    H1  242   0.174   0.666   1.173 -1.1650 -0.9632  1.9562
   15TCq1    H2  243   0.229   0.615   0.984  0.6826 -2.2698  2.9835
   15TCq1    H3  244   0.031   0.316   0.765 -1.9793  2.0420 -1.5265
   15TCq1    H4  245   4.561   0.514   1.077 -0.8545  1.0258 -0.4404
   16MPD2     C  246   4.191   0.300   1.019 -0.3180 -0.1711  0.0727
   16MPD2    C1  247   4.313   0.255   0.972  0.0881  0.3456  0.1433
   16MPD2    C2  248   4.326   0.118   0.954  0.5102  0.4738 -0.1306
   16MPD2    C3  249   4.218   0.036   0.978  0.3614 -0.2143 -0.7498
   16MPD2    C4  250   4.099   0.083   1.031  0.0693  0.4440  0.1461
   16MPD2    C5  251   4.096   0.219   1.057 -0.1900 -0.5899 -0.7912
   16MPD2     H  252   4.421   0.072   0.926  2.9217  3.2132  3.6137
   16MPD2    H1  253   4.017   0.021   1.064  0.2365 -0.1530 -0.5568
   16MPD2    H2  254   4.195   0.407   1.037  1.9668 -0.2968  0.3790
   16MPD2    H3  255   4.006   0.257   1.104  0.8910  0.7756  0.1821
   16MPD2     N  256   4.238   4.639   0.961 -0.6605  0.5567 -0.1880
   16MPD2    H5  257   4.335   4.615   0.945 -1.5048 -1.8500 -1.7694
   16MPD2    N1  258   4.420   0.345   0.955 -0.3131  0.3166  0.6029
   16MPD2    H7  259   4.403   0.442   0.977 -2.2809 -0.2900  1.8009
   17TMC1    C1  260   1.970   4.707  11.693 -0.7664  0.4459  0.1828
   17TMC1    C2  261   1.917   4.654  11.807 -0.1488 -0.1941  0.1933
   17TMC1    C3  262   1.988   4.650  11.925 -0.2931 -0.1942 -0.3159
   17TMC1    C4  263   2.094   0.029  11.705 -0.0851 -0.3733 -0.4236
   17TMC1    C5  264   2.162   0.032  11.829 -0.1925 -0.3558 -0.3250
   17TMC1    C6  265   2.108   4.709  11.932 -0.2562 -0.0977 -0.1507
   17TMC1     C  266   1.870   0.040  11.613 -0.5524  0.0490  0.4742
   17TMC1     O  267   1.751   0.041  11.648 -0.7779 -0.2969 -0.1147
   17TMC1     H  268   1.815   4.619  11.807 -0.2606  0.1466  1.3563
   17TMC1    H1  269   2.148   0.071  11.621  1.7918  0.0443  0.9804
   17TMC1    H2  270   2.156   4.710  12.029 -0.2309 -0.0844 -0.1634
   17TMC1    C7  271   2.265   0.132  11.834  0.2455  0.2116 -0.1153
   17TMC1    C8  272   1.905   4.656  12.042 -0.7110  0.1145 -0.3683
   17TMC1    O1  273   2.255   0.223  11.751  0.0511 -0.4898 -0.1529
   17TMC1    O2  274   1.788   4.685  12.033 -0.2103  0.4801  0.1288
   17TMC1    O3  275   2.316   0.137  11.955 -0.0300  0.0407 -0.0173
   17TMC1    H3  276   2.334   0.052  12.000 -1.3733 -1.6567 -2.7052
   17TMC1    O5  277   1.945   4.551  12.115 -0.2759  0.3371  0.3126
   17TMC1    H5  278   2.037   4.523  12.091  0.0431  0.7396  1.0634
   18MPD2     C  279   1.732   0.213  11.418 -0.0359  0.0068  0.4422
   18MPD2    C1  280   1.853   0.158  11.400 -0.1304  0.3991  0.0259
   18MPD2    C2  281   1.915   0.185  11.279  0.0261 -0.5297  0.8094
   18MPD2    C3  282   1.858   0.254  11.175 -1.2128 -0.1361 -0.2306
   18MPD2    C4  283   1.731   0.308  11.198  0.0639  0.2322  0.4603
   18MPD2    C5  284   1.674   0.290  11.322 -0.3175  0.2001 -0.0481
   18MPD2     H  285   2.011   0.134  11.274  1.4469  2.3263 -0.8567
   18MPD2    H1  286   1.679   0.352  11.114  0.8042  1.0051  0.3944
   18MPD2    H2  287   1.691   0.214  11.519  0.5224 -0.5614  0.6743
   18MPD2    H3  288   1.577   0.335  11.341 -0.4639 -0.8240  1.6808
   18MPD2     N  289   1.901   0.271  11.045 -0.0539  0.5399 -0.7514
   18MPD2    H5  290   1.847   0.321  10.974 -3.4600  0.7704  1.9686
   18MPD2    N1  291   1.924   0.085  11.496 -0.2888 -0.0830 -0.0281
   18MPD2    H7  292   2.016   0.055  11.464  0.2206 -1.0861  2.3454
   19TMC2    C1  293   3.218   0.596  13.841 -0.5188 -0.3385 -1.1296
   19TMC2    C2  294   3.133   0.689  13.795  0.3219  0.0987 -0.4255
   19TMC2    C3  295   2.993   0.683  13.813 -0.1775 -0.2727 -0.2505
   19TMC2    C4  296   3.170   0.486  13.908 -0.5168  1.1263  0.5363
   19TMC2    C5  297   3.034   0.473  13.915 -0.5103  0.7011  0.9165
   19TMC2    C6  298   2.943   0.568  13.867  0.8320  1.0323  0.8031
   19TMC2     C  299   3.346   0.645  13.884  0.5268  0.9377 -0.1496
   19TMC2     O  300   3.379   0.753  13.830 -0.2810 -0.2377 -0.1507
   19TMC2     H  301   3.177   0.783  13.763  1.3775 -0.0805  0.4900
   19TMC2    H1  302   3.233   0.406  13.945 -1.8266  0.2190  0.8143
   19TMC2    H2  303   2.840   0.548  13.893  0.3428  0.8971 -1.3007
   19TMC2    C7  304   2.994   0.385  14.024 -0.9356  0.2629  0.2627
   19TMC2    C8  305   2.913   0.780  13.747 -0.1266 -0.7879  0.4027
   19TMC2    O1  306   3.060   0.289  14.055 -0.1657  0.5754  0.0352
   19TMC2    O2  307   2.947   0.820  13.636  0.0443  0.5137 -0.1912
   19TMC2    O5  308   2.781   0.772  13.798  0.0696 -0.2800  0.6204
   19TMC2    H5  309   2.791   0.736  13.889 -1.4417  0.3403  1.0265
   20MPD2     C  310   3.589   0.733  14.046 -0.4516 -0.3414  0.6914
   20MPD2    C1  311   3.512   0.620  14.073 -0.1736  0.0370  0.3166
   20MPD2    C2  312   3.551   0.544  14.184 -0.5080 -0.2949  0.2463
   20MPD2    C3  313   3.665   0.572  14.264 -0.2716 -0.1128  0.4596
   20MPD2    C4  314   3.731   0.696  14.241 -0.0380  1.1034  0.5052
   20MPD2    C5  315   3.694   0.765  14.126  0.8128 -0.5572  0.1092
   20MPD2     H  316   3.496   0.451  14.192  2.2760 -2.1765 -2.0711
   20MPD2    H1  317   3.821   0.729  14.292  0.7741 -0.1894 -0.0926
   20MPD2    H2  318   3.574   0.798  13.960 -0.0449  0.4814  1.2460
   20MPD2    H3  319   3.746   0.857  14.101 -1.2463  0.4892 -0.2977
   20MPD2     N  320   3.702   0.492  14.376 -0.0743  0.1173  0.2511
   20MPD2    H5  321   3.754   0.542  14.448 -2.8641  0.0884  2.2899
   20MPD2    N1  322   3.400   0.581  13.995 -0.3304 -0.6625  0.1695
   20MPD2    H7  323   3.350   0.500  14.031 -0.3006 -0.5156  0.5421
   21TMC2    C1  324   0.220   0.656  14.553 -0.6749 -0.2459 -0.1538
   21TMC2    C2  325   0.322   0.582  14.599 -0.8916  0.6125 -1.0270
   21TMC2    C3  326   0.426   0.639  14.662 -0.0968 -0.2566  0.4817
   21TMC2    C4  327   0.219   0.792  14.583  0.5605  0.4431 -0.8020
   21TMC2    C5  328   0.315   0.838  14.671 -0.3039  0.0998  0.1844
   21TMC2    C6  329   0.433   0.773  14.699 -0.5383 -0.3124  0.3166
   21TMC2     C  330   0.141   0.591  14.441 -0.0275 -0.5531 -0.1047
   21TMC2     O  331   0.109   0.475  14.462  0.2612  0.8162  0.0823
   21TMC2     H  332   0.329   0.476  14.582 -0.5199  0.3273  0.8850
   21TMC2    H1  333   0.127   0.846  14.561  0.1847 -0.1868 -0.7661
   21TMC2    H2  334   0.515   0.806  14.762  0.0897 -1.9920  0.3839
   21TMC2    C7  335   0.315   0.977  14.710  0.5206 -0.2660 -0.4353
   21TMC2    C8  336   0.533   0.564  14.713 -0.0919  0.1172  0.0746
   21TMC2    O1  337   0.348   1.002  14.822  0.3919 -0.2663  0.0634
   21TMC2    O2  338   0.586   0.584  14.819 -0.6439 -0.2953  0.0380
   21TMC2    O5  339   0.605   0.554  14.603  0.4926  0.5080  0.6406
   21TMC2    H5  340   0.556   0.577  14.521  0.3199  1.5202  1.0268
   22MPD2     C  341   0.271   0.985  14.164 -0.1881  0.8401 -0.4433
   22MPD2    C1  342   0.344   0.885  14.225 -0.7570  0.0784 -1.1026
   22MPD2    C2  343   0.278   0.783  14.288  0.1713  0.0950 -0.1752
   22MPD2    C3  344   0.144   0.788  14.297  0.7992 -0.4282 -0.6780
   22MPD2    C4  345   0.069   0.885  14.235 -0.3578 -1.1523 -0.1252
   22MPD2    C5  346   0.132   0.980  14.176 -0.3055  0.2067  0.7869
   22MPD2     H  347   0.333   0.695  14.318 -0.6613 -0.1145  0.7430
   22MPD2    H1  348   4.699   0.888  14.233 -0.3344 -0.5337 -0.3099
   22MPD2    H2  349   0.313   1.058  14.095  2.7405 -0.8952 -0.5155
   22MPD2    H3  350   0.066   1.053  14.131  0.5000 -1.9557 -3.8674
   22MPD2     N  351   0.081   0.674  14.352  0.7500  0.3250  0.3467
   22MPD2    H5  352   4.721   0.669  14.326  0.3327 -0.9371  2.2315
   22MPD2    N1  353   0.479   0.871  14.200 -0.4370 -0.6886 -0.0551
   22MPD2    H7  354   0.531   0.789  14.232 -0.4847 -0.5530  0.3748
   23TMC2    C1  355   1.460   1.975  14.843  0.3152  0.3149  0.2569
   23TMC2    C2  356   1.509   1.997  14.715  0.1451 -0.2743  0.9518
   23TMC2    C3  357   1.412   2.023  14.622  0.4705  0.1963  0.2453
   23TMC2    C4  358   1.328   1.969  14.880  0.1106  0.5534  0.1688
   23TMC2    C5  359   1.242   2.007  14.781  0.5598 -0.8187  0.6826
   23TMC2    C6  360   1.275   2.025  14.648 -0.4552  0.1249  0.4614
   23TMC2     C  361   1.545   2.009  14.951 -0.1183  0.3797 -0.3908
   23TMC2     O  362   1.538   1.955  15.062  0.1050  0.1989 -0.4839
   23TMC2     H  363   1.613   1.992  14.687 -0.0607  1.5306 -0.1541
   23TMC2    H1  364   1.297   1.966  14.984  0.5784 -1.3771  0.2575
   23TMC2    H2  365   1.208   2.067  14.574 -0.7655 -0.6603  0.2957
   23TMC2    C7  366   1.098   1.992  14.820  0.4818  0.2359  0.1008
   23TMC2    C8  367   1.451   2.027  14.484  0.0176  0.4815 -0.6338
   23TMC2    O1  368   1.074   1.954  14.933 -0.7364 -0.0892 -0.5322
   23TMC2    O2  369   1.563   2.057  14.440  0.2930  0.6637  0.0492
   23TMC2    O5  370   1.352   1.963  14.412  0.2085 -0.0269  0.8354
   23TMC2    H5  371   1.263   1.949  14.451 -0.6193  0.1608 -0.9622
   24MPD2     C  372   1.915   2.306  15.135  0.0261  0.3515 -0.2074
   24MPD2    C1  373   1.855   2.198  15.194 -0.7340  0.2834 -0.0795
   24MPD2    C2  374   1.758   2.129  15.127 -0.0484 -0.0492 -0.0643
   24MPD2    C3  375   1.717   2.179  15.004  0.4435  0.7720  0.7181
   24MPD2    C4  376   1.767   2.295  14.953 -0.3717  0.2731  0.2202
   24MPD2    C5  377   1.871   2.356  15.015 -0.5477  0.1558 -0.4335
   24MPD2     H  378   1.716   2.046  15.184 -2.3855  1.2035  0.0513
   24MPD2    H1  379   1.732   2.328  14.856 -2.4649  0.4776  1.0494
   24MPD2    H2  380   2.005   2.349  15.178  0.8686 -0.5050 -1.1062
   24MPD2    H3  381   1.928   2.435  14.969 -0.5935 -0.2318 -1.1568
   24MPD2     N  382   1.613   2.123  14.922  0.5564 -0.0335  0.1910
   24MPD2    H5  383   1.594   2.163  14.830  2.8801  1.0625  0.1792
   24MPD2    N1  384   1.901   2.150  15.321 -0.0608  0.2348 -0.4553
   24MPD2    H7  385   1.862   2.059  15.344  0.9132 -0.3779 -1.2528
   25TMC2    C1  386   1.245   4.050  11.672  0.1223 -0.1403  0.0520
   25TMC2    C2  387   1.341   4.132  11.721 -0.1088 -0.4816  0.4575
   25TMC2    C3  388   1.316   4.197  11.840  0.0522  0.5326  0.1843
   25TMC2    C4  389   1.128   4.021  11.748 -0.2884 -0.2862 -0.8106
   25TMC2    C5  390   1.114   4.089  11.866 -0.3390  0.6949 -0.0913
   25TMC2    C6  391   1.205   4.180  11.916 -0.0787  0.3284 -0.6010
   25TMC2     C  392   1.267   3.997  11.541  0.0344  0.3727  0.1728
   25TMC2     O  393   1.381   3.979  11.498  0.1907  0.0192  0.4489
   25TMC2     H  394   1.431   4.141  11.662 -0.1458  1.3248  0.6949
   25TMC2    H1  395   1.064   3.938  11.721 -1.3186  1.3629 -3.4582
   25TMC2    H2  396   1.193   4.226  12.013  1.0774 -1.0982  0.2222
   25TMC2    C7  397   1.010   4.063  11.960 -0.6200 -0.2523 -0.0582
   25TMC2    C8  398   1.410   4.288  11.892 -0.2592 -0.0032  0.5492
   25TMC2    O1  399   0.998   4.135  12.057  0.8540  0.7065  0.4683
   25TMC2    O2  400   1.526   4.266  11.872 -0.1531 -0.3727 -0.3227
   25TMC2    O5  401   1.350   4.403  11.912 -0.4975 -0.0677 -0.2029
   25TMC2    H5  402   1.255   4.403  11.888 -0.6709 -0.5151  0.4767
   26MPD2     C  403   1.101   3.798  11.097  0.5168  0.0747  0.5221
   26MPD2    C1  404   0.997   3.871  11.151  0.5977  0.7162 -0.3883
   26MPD2    C2  405   1.010   3.928  11.279  0.6650  0.2585  0.3196
   26MPD2    C3  406   1.135   3.919  11.349 -0.9410  0.5509  0.0799
   26MPD2    C4  407   1.237   3.840  11.287  0.3000  0.1614 -0.7225
   26MPD2    C5  408   1.225   3.789  11.159 -0.1399  0.3721  0.1570
   26MPD2     H  409   0.940   3.999  11.323 -0.0787 -0.4176  0.2254
   26MPD2    H1  410   1.329   3.816  11.339  1.0631  3.1966 -0.6603
   26MPD2    H2  411   1.073   3.737  11.012  2.3817 -1.4632  0.9877
   26MPD2    H3  412   1.303   3.720  11.130  1.1676  1.2057  1.6722
   26MPD2     N  413   1.146   3.973  11.480  0.5104 -0.0221  0.6350
   26MPD2    H5  414   1.063   4.008  11.527  0.5127  1.2451 -0.3004
   26MPD2    N1  415   0.874   3.854  11.084 -0.3650  0.1129 -0.2356
   26MPD2    H7  416   0.878   3.807  10.994  1.5000  0.0839 -0.1257
   27TMC2    C1  417   0.052   1.990  11.555  0.8451  0.7034  0.4242
   27TMC2    C2  418   0.082   2.101  11.481  0.4402 -0.0771  0.3668
   27TMC2    C3  419   0.162   2.193  11.537  0.1163  0.2919  0.0585
   27TMC2    C4  420   0.093   1.972  11.684  0.5593  0.2169  0.1798
   27TMC2    C5  421   0.169   2.068  11.738 -1.4845 -0.3290  0.0447
   27TMC2    C6  422   0.209   2.179  11.664  0.1548  0.6664  0.0720
   27TMC2     C  423   4.706   1.891  11.497  0.4303 -0.2683 -0.6467
   27TMC2     O  424   4.703   1.877  11.374 -0.5318 -0.0387 -0.2997
   27TMC2     H  425   0.053   2.110  11.377 -1.1688  0.8976  0.9030
   27TMC2    H1  426   0.062   1.883  11.737  1.6992 -0.5647 -0.4792
   27TMC2    H2  427   0.283   2.251  11.699  1.5576 -1.1989  0.9290
   27TMC2    C7  428   0.153   2.081  11.879 -0.4131  0.4333 -0.0743
   27TMC2    C8  429   0.157   2.327  11.501  0.1730 -0.5465  0.1100
   27TMC2    O1  430   0.091   1.992  11.940  0.0252  0.3520 -0.5356
   27TMC2    O2  431   0.244   2.410  11.524  0.5273  0.1478 -0.3920
   27TMC2    O5  432   0.038   2.355  11.451  0.0915  0.2212  0.1258
   27TMC2    H5  433   4.709   2.284  11.447  2.7515 -2.2079 -2.1131
   28MPD2     C  434   4.288   1.605  11.549  0.5218  0.9324 -0.4109
   28MPD2    C1  435   4.312   1.670  11.666  0.1095 -0.0245 -0.2093
   28MPD2    C2  436   4.407   1.766  11.664  0.0919 -0.5423  0.8243
   28MPD2    C3  437   4.503   1.770  11.568 -0.2264 -0.4640  0.5984
   28MPD2    C4  438   4.483   1.697  11.453  0.0444 -0.4539  0.6562
   28MPD2    C5  439   4.371   1.616  11.439  0.4770  0.3049  0.3503
   28MPD2     H  440   4.415   1.842  11.741  2.4196 -1.0778  1.1197
   28MPD2    H1  441   4.546   1.684  11.366  0.5304 -0.0853  0.9490
   28MPD2    H2  442   4.205   1.536  11.539  0.1454  1.1546  1.2120
   28MPD2    H3  443   4.340   1.572  11.345  1.1245  0.1350  0.2184
   28MPD2     N  444   4.615   1.851  11.591 -0.2636  0.4310  0.0037
   28MPD2    H5  445   4.614   1.894  11.683  1.3119 -0.4044  0.3987
   28MPD2    N1  446   4.226   1.641  11.773  0.3205  0.3314 -0.6801
   28MPD2    H7  447   4.145   1.584  11.746  1.2447 -0.2575 -2.2033
   29TMC2    C1  448   3.832   4.206  14.524 -0.7136  1.0127 -0.2990
   29TMC2    C2  449   3.863   4.184  14.654  0.7024 -0.4937  0.3023
   29TMC2    C3  450   3.873   4.302  14.724 -0.9010  0.2891  0.1930
   29TMC2    C4  451   3.804   4.324  14.462 -0.5149  0.1539  0.7870
   29TMC2    C5  452   3.812   4.433  14.544  0.1703  0.0519  0.5126
   29TMC2    C6  453   3.854   4.432  14.676  0.9153  0.1967  0.4778
   29TMC2     C  454   3.875   4.099  14.436 -0.9124 -0.0878 -0.2716
   29TMC2     O  455   3.955   4.018  14.477 -0.1134  0.2012  0.5057
   29TMC2     H  456   3.912   4.098  14.699  1.3339 -0.3680 -0.1636
   29TMC2    H1  457   3.774   4.334  14.359  0.2513  0.1093  0.5550
   29TMC2    H2  458   3.847   4.521  14.738  1.6963 -0.6276  1.7352
   29TMC2    C7  459   3.827   4.555  14.474 -0.4398 -0.0878 -0.1239
   29TMC2    C8  460   3.901   4.281  14.864 -0.6996 -0.2397 -0.0021
   29TMC2    O1  461   3.759   4.579  14.379  0.5805 -0.8244  0.2285
   29TMC2    O2  462   3.832   4.196  14.925 -0.2195 -0.0954 -0.3983
   29TMC2    O5  463   3.937   4.402  14.920  0.1295  0.3130 -0.1344
   29TMC2    H5  464   4.006   4.445  14.866  0.3458  1.2514  0.8933
   30MPD2     C  465   3.756   3.815  14.023 -0.0636  0.2032  0.1964
   30MPD2    C1  466   3.853   3.800  14.113 -0.1989 -0.1253  0.0685
   30MPD2    C2  467   3.873   3.902  14.213  0.2030 -0.3917  0.3662
   30MPD2    C3  468   3.783   4.004  14.222  0.0209  0.5249 -0.5505
   30MPD2    C4  469   3.683   4.015  14.133 -0.6789 -0.9841 -0.2196
   30MPD2    C5  470   3.678   3.931  14.025  0.7113 -0.3880 -0.4591
   30MPD2     H  471   3.964   3.896  14.272  0.4337  1.9485  0.2481
   30MPD2    H1  472   3.602   4.086  14.144 -0.4387 -0.9243  1.2016
   30MPD2    H2  473   3.726   3.751  13.940 -0.6660  0.9988 -0.1998
   30MPD2    H3  474   3.590   3.948  13.963  0.4333  1.3313  0.4100
   30MPD2     N  475   3.792   4.103  14.323 -0.6834 -0.1938  0.1361
   30MPD2    H5  476   3.718   4.172  14.319  0.2697  0.7465 -1.5716
   30MPD2    N1  477   3.932   3.687  14.113 -0.0446 -0.2184 -0.1468
   30MPD2    H7  478   3.986   3.666  14.196  0.3921 -0.3933 -0.4706
   31TMC2    C1  479   1.787   2.662  15.520 -0.2901 -0.8509 -0.0633
   31TMC2    C2  480   1.706   2.759  15.568  0.1211 -0.7440 -0.0029
   31TMC2    C3  481   1.676   2.751  15.701  0.2676  0.4573 -0.7864
   31TMC2    C4  482   1.831   2.556  15.604 -0.4674  0.6085 -0.1963
   31TMC2    C5  483   1.798   2.558  15.738  0.2116  0.4300  0.2406
   31TMC2    C6  484   1.713   2.654  15.781 -0.0378  0.0193 -0.6132
   31TMC2     C  485   1.831   2.671  15.385 -0.4382 -0.5608 -0.2298
   31TMC2     O  486   1.774   2.754  15.316  0.2174 -0.4118  0.3000
   31TMC2     H  487   1.705   2.855  15.517  1.7066 -1.2300 -0.9627
   31TMC2    H1  488   1.888   2.469  15.572 -1.7790 -0.9786  1.7668
   31TMC2    H2  489   1.668   2.653  15.880  0.3635  0.1842 -0.4279
   31TMC2    C7  490   1.821   2.444  15.822 -0.4050 -0.2691 -0.3514
   31TMC2    C8  491   1.558   2.827  15.746  0.1824 -0.2714 -0.4085
   31TMC2    O1  492   1.875   2.341  15.775 -0.0056  0.3696  0.0005
   31TMC2    O2  493   1.511   2.812  15.855  0.4807 -0.3780  0.2862
   31TMC2    O5  494   1.482   2.840  15.636  0.1013  0.0865  0.0363
   31TMC2    H5  495   1.529   2.824  15.552 -1.2959  1.7212 -1.0632
   32MPD2     C  496   2.194   2.645  15.031 -0.1072  0.1293  0.7429
   32MPD2    C1  497   2.068   2.701  15.017  0.1722 -0.0656  0.2341
   32MPD2    C2  498   1.983   2.683  15.126 -0.3238 -0.1358  0.6766
   32MPD2    C3  499   2.022   2.613  15.242 -0.0849 -0.0908  0.0685
   32MPD2    C4  500   2.148   2.570  15.247 -0.3155 -0.9952  0.1256
   32MPD2    C5  501   2.231   2.575  15.140  0.0715  0.6026 -0.0353
   32MPD2     H  502   1.880   2.714  15.120  0.0928  1.2007  0.4200
   32MPD2    H1  503   2.178   2.527  15.342  0.6490 -0.2015  0.1731
   32MPD2    H2  504   2.273   2.653  14.958 -2.2617 -3.5039 -1.9606
   32MPD2    H3  505   2.330   2.530  15.144 -0.6682 -0.9978 -0.0442
   32MPD2     N  506   1.943   2.592  15.359  0.3020  0.3402 -0.0875
   32MPD2    H5  507   1.988   2.550  15.439 -1.0276 -3.4990 -1.3696
   32MPD2    N1  508   2.044   2.771  14.901  0.1295  0.2255 -0.5270
   32MPD2    H7  509   2.129   2.775  14.846  1.7992  0.1215  2.0059
   33TMC2    C1  510   1.741   0.854  10.073 -0.1875  0.2609 -0.0850
   33TMC2    C2  511   1.761   0.789   9.957  0.3846 -0.0257  0.0190
   33TMC2    C3  512   1.814   0.848   9.853  0.6602  0.2285 -0.6332
   33TMC2    C4  513   1.768   0.985  10.083 -0.0139  0.3172  0.2195
   33TMC2    C5  514   1.824   1.046   9.975  0.0644  0.5194 -0.2517
   33TMC2    C6  515   1.852   0.981   9.859  0.4170 -0.2221 -0.8609
   33TMC2     C  516   1.725   0.773  10.196  0.5980  0.3180 -0.6747
   33TMC2     O  517   1.712   0.651  10.179  0.1870 -0.2410 -0.6906
   33TMC2     H  518   1.747   0.683   9.938 -0.7664 -0.0384  0.9465
   33TMC2    H1  519   1.766   1.041  10.176  1.4665  1.7295 -0.6029
   33TMC2    H2  520   1.898   1.030   9.774  1.9015 -1.0919 -0.5401
   33TMC2    C7  521   1.858   1.187   9.985 -0.3051 -0.2893 -0.1757
   33TMC2    C8  522   1.839   0.774   9.734  0.1243  0.4797  0.2422
   33TMC2    O1  523   1.940   1.236   9.908 -0.2744 -0.2127  0.3773
   33TMC2    O2  524   1.780   0.673   9.694  0.2037 -0.0921  0.0401
   33TMC2    O5  525   1.966   0.797   9.700  0.3302 -0.2662  0.1710
   33TMC2    H5  526   2.013   0.854   9.764  1.0973 -1.3496  0.5650
   34MPD2     C  527   1.750   0.730  10.712  1.1304  0.4781  0.4395
   34MPD2    C1  528   1.811   0.659  10.608 -0.5853 -0.3506 -0.4052
   34MPD2    C2  529   1.786   0.696  10.472  0.1043 -0.2896  0.3238
   34MPD2    C3  530   1.705   0.802  10.441  0.0173  0.1421 -0.3558
   34MPD2    C4  531   1.662   0.879  10.542 -0.7526 -0.3893  0.8493
   34MPD2    C5  532   1.669   0.838  10.673  0.7878 -0.0429 -0.1895
   34MPD2     H  533   1.837   0.649  10.389 -0.5591  1.2075 -0.9207
   34MPD2    H1  534   1.609   0.973  10.535 -0.1676 -0.1125  0.1025
   34MPD2    H2  535   1.759   0.711  10.818 -1.0393 -0.2514  0.4996
   34MPD2    H3  536   1.628   0.895  10.756  1.2692  0.6245 -0.4129
   34MPD2     N  537   1.693   0.847  10.305  0.4986 -0.6375  0.0475
   34MPD2    H5  538   1.667   0.944  10.289 -0.9742 -0.7702  1.5056
   34MPD2    N1  539   1.875   0.546  10.649  0.3419  0.0945  0.0393
   34MPD2    H7  540   1.875   0.520  10.747  0.0613 -1.2840 -0.3184
   35TMC2    C1  541   2.534   1.690  11.325 -0.1057 -0.0024  0.4266
   35TMC2    C2  542   2.442   1.792  11.304 -0.3964 -0.2047 -0.2155
   35TMC2    C3  543   2.332   1.786  11.384  0.3415  0.3015  0.2800
   35TMC2    C4  544   2.526   1.587  11.420 -0.2549  0.0323  0.0589
   35TMC2    C5  545   2.402   1.575  11.477 -0.5063 -0.5996  0.0297
   35TMC2    C6  546   2.309   1.673  11.466 -0.7411  1.2663 -0.2196
   35TMC2     C  547   2.645   1.691  11.229 -0.5816 -0.2623  0.2146
   35TMC2     O  548   2.639   1.760  11.129 -0.1155 -0.5200 -0.0680
   35TMC2     H  549   2.467   1.878  11.243 -2.1297  1.6831  1.7309
   35TMC2    H1  550   2.593   1.502  11.412  1.8527  1.6132  0.8696
   35TMC2    H2  551   2.216   1.667  11.522 -0.1888 -1.2700  0.4208
   35TMC2    C7  552   2.389   1.497  11.602 -0.5207  0.8218  0.1035
   35TMC2    C8  553   2.233   1.887  11.356 -0.1968  0.3035  0.0473
   35TMC2    O1  554   2.288   1.514  11.666  0.2605  0.0064 -0.5475
   35TMC2    O2  555   2.258   1.992  11.300  0.2648  0.3227 -0.1871
   35TMC2    O5  556   2.114   1.821  11.342  0.4314  0.0624 -0.5150
   35TMC2    H5  557   2.110   1.726  11.365 -1.8428  0.1756 -0.5227
   36MPD2     C  558   3.141   1.575  11.116  0.4508 -0.5450  0.1764
   36MPD2    C1  559   3.128   1.552  11.252  0.1859 -0.1548  0.1353
   36MPD2    C2  560   3.001   1.570  11.309  0.3386 -0.5063 -0.0156
   36MPD2    C3  561   2.892   1.617  11.234 -0.8122  0.0274 -0.4885
   36MPD2    C4  562   2.910   1.640  11.098 -0.0011 -0.6460 -0.3033
   36MPD2    C5  563   3.034   1.617  11.046 -0.0878 -0.9200  0.8478
   36MPD2     H  564   2.993   1.568  11.417  3.2969 -0.2363  0.2019
   36MPD2    H1  565   2.835   1.675  11.028 -0.5794  0.5862  0.9347
   36MPD2    H2  566   3.235   1.564  11.063 -0.7719  0.0056 -2.0988
   36MPD2    H3  567   3.051   1.636  10.940 -2.6672  1.4571  0.8389
   36MPD2     N  568   2.763   1.643  11.293 -0.1325 -0.1380 -0.0080
   36MPD2    H5  569   2.759   1.617  11.392 -1.0924  1.2252  0.3167
   36MPD2    N1  570   3.242   1.521  11.327  0.2155 -0.8366 -0.5896
   36MPD2    H7  571   3.331   1.535  11.279 -1.9780  0.8734 -4.1621
   37TMC2    C1  572   0.656   2.176  11.686 -0.5730  0.5557 -0.3570
   37TMC2    C2  573   0.565   2.124  11.601 -0.0571 -0.3643 -0.4689
   37TMC2    C3  574   0.599   2.086  11.475 -0.2446  0.5362  0.5548
   37TMC2    C4  575   0.778   2.218  11.643  0.2272  0.5339  0.0219
   37TMC2    C5  576   0.813   2.178  11.516  0.0214 -0.1176 -0.1961
   37TMC2    C6  577   0.725   2.113  11.431 -0.5746  0.2536  0.6812
   37TMC2     C  578   0.620   2.185  11.821  0.0614 -0.3438  0.3794
   37TMC2     O  579   0.499   2.193  11.846  0.3166  0.2350 -0.6262
   37TMC2     H  580   0.465   2.090  11.628  0.0894  0.2368  0.8442
   37TMC2    H1  581   0.853   2.264  11.705  0.4759 -1.4793  1.2226
   37TMC2    H2  582   0.753   2.089  11.330  0.5766 -1.8703  1.5063
   37TMC2    C7  583   0.951   2.187  11.481  0.8914  0.2491 -0.2535
   37TMC2    C8  584   0.503   2.031  11.387 -0.2237  0.8222  0.1586
   37TMC2    O1  585   1.018   2.262  11.551 -0.4695 -0.4070  0.3427
   37TMC2    O2  586   0.382   2.064  11.376 -0.4316 -0.0913 -0.5578
   37TMC2    O5  587   0.567   1.925  11.337  0.6226 -0.3347 -0.1105
   37TMC2    H5  588   0.658   1.924  11.373  0.2473 -0.1373  0.8436
   38MPD2     C  589   0.754   2.164  12.321 -0.2901  0.6449 -0.4582
   38MPD2    C1  590   0.865   2.129  12.242 -0.1523 -0.0116 -0.2790
   38MPD2    C2  591   0.850   2.126  12.102 -0.6437  0.4256  0.0066
   38MPD2    C3  592   0.727   2.163  12.048 -0.0619 -0.0042 -0.0107
   38MPD2    C4  593   0.627   2.206  12.135 -0.2412 -0.5231  0.4244
   38MPD2    C5  594   0.638   2.208  12.268 -0.3453 -0.5363  0.2208
   38MPD2     H  595   0.925   2.083  12.036 -0.1161  1.0661  0.1860
   38MPD2    H1  596   0.529   2.231  12.097 -0.5632 -1.1520  0.8351
   38MPD2    H2  597   0.754   2.150  12.428 -1.4987 -1.1441 -0.6973
   38MPD2    H3  598   0.554   2.236  12.330  0.2725 -0.5218  1.0571
   38MPD2     N  599   0.727   2.154  11.904 -0.1470  0.0751  0.8870
   38MPD2    H5  600   0.819   2.124  11.873 -1.0481 -0.6295 -1.1082
   38MPD2    N1  601   0.988   2.094  12.302  0.0878  0.1590  0.0954
   38MPD2    H7  602   1.064   2.063  12.242 -1.2470 -0.4516 -1.2815
   39TMC2    C1  603   4.368   0.169   1.358 -0.1941  0.3069  0.1111
   39TMC2    C2  604   4.312   0.295   1.390  0.1028  0.1219  0.3021
   39TMC2    C3  605   4.384   0.409   1.391  0.3061  0.7088  0.3841
   39TMC2    C4  606   4.500   0.157   1.324  0.1530 -0.6001 -0.0503
   39TMC2    C5  607   4.568   0.275   1.318  0.7463  0.0048 -0.2574
   39TMC2    C6  608   4.515   0.399   1.347 -0.1649 -0.1810  0.0750
   39TMC2     C  609   4.279   0.059   1.375 -0.1681 -0.0297 -0.3828
   39TMC2     O  610   4.155   0.085   1.367 -0.5198  0.6097 -0.4619
   39TMC2     H  611   4.208   0.309   1.419 -0.2684  1.0877 -1.4893
   39TMC2    H1  612   4.546   0.060   1.304 -1.3713 -0.6505 -3.2670
   39TMC2    H2  613   4.572   0.487   1.320  0.4129 -0.1014  1.5407
   39TMC2    C7  614   4.715   0.274   1.295 -0.1698 -0.2035  0.4853
   39TMC2    C8  615   4.323   0.534   1.339 -0.0423 -0.0457  0.5853
   39TMC2    O1  616   0.031   0.370   1.343 -0.0071  0.5365 -0.2177
   39TMC2    O2  617   4.377   0.611   1.259 -0.5979  0.0869  0.3563
   39TMC2    O5  618   4.221   0.581   1.418  0.1038  0.0260  0.2220
   39TMC2    H5  619   4.192   0.507   1.475 -1.8324 -0.3123 -1.2196
   40MPD2     C  620   4.345   4.446   1.447  0.3697 -0.7157 -0.5891
   40MPD2    C1  621   4.275   4.559   1.404 -0.3423  0.0202  0.5148
   40MPD2    C2  622   4.147   4.533   1.353  1.0346 -0.1649 -0.0473
   40MPD2    C3  623   4.097   4.407   1.346 -0.6741 -1.2415  0.4224
   40MPD2    C4  624   4.168   4.299   1.398  0.7244 -0.8457  0.3477
   40MPD2    C5  625   4.288   4.324   1.459 -0.2820 -0.3394  0.8825
   40MPD2     H  626   4.086   4.616   1.320 -0.4079 -0.5833  1.5591
   40MPD2    H1  627   4.120   4.202   1.390  0.1656 -0.2818 -3.3506
   40MPD2    H2  628   4.440   4.466   1.494 -0.8895  0.6792  1.3204
   40MPD2    H3  629   4.358   4.246   1.484 -0.9937 -1.3179 -0.1879
   40MPD2     N  630   3.974   4.369   1.284  0.0622 -0.0790 -0.2311
   40MPD2    H5  631   3.965   4.268   1.285  0.7324 -0.1596 -1.8905
   40MPD2    N1  632   4.344   4.684   1.402 -0.3686  0.2982  0.1279
   40MPD2    H7  633   4.445   4.682   1.412 -0.2801 -2.0384 -1.2371
   41TMC2    C1  634   2.694   2.431  13.545  0.2475  1.2269  0.0454
   41TMC2    C2  635   2.574   2.488  13.505 -0.3904 -0.0708 -0.3176
   41TMC2    C3  636   2.559   2.529  13.380  0.3271  0.0379 -0.9005
   41TMC2    C4  637   2.794   2.416  13.454  0.1623 -0.2420  0.0602
   41TMC2    C5  638   2.767   2.456  13.324  0.1812  0.0492 -0.7253
   41TMC2    C6  639   2.648   2.509  13.281 -0.6834  0.6210 -0.1639
   41TMC2     C  640   2.730   2.376  13.678 -0.2623  0.3497 -0.4109
   41TMC2     O  641   2.823   2.296  13.671 -0.1919 -0.0079 -0.0338
   41TMC2     H  642   2.494   2.483  13.577 -0.5606 -2.5886 -0.6809
   41TMC2    H1  643   2.895   2.387  13.480 -0.6363 -2.6591  0.3965
   41TMC2    H2  644   2.632   2.554  13.184 -0.2682  3.2184  0.9636
   41TMC2    C7  645   2.880   2.445  13.234  0.1678 -1.0872  0.5713
   41TMC2    C8  646   2.438   2.599  13.346  0.1047  0.1723 -0.1447
   41TMC2    O1  647   2.988   2.478  13.278 -0.1284 -0.1199  0.0309
   41TMC2    O2  648   2.392   2.589  13.231  0.3898  0.2457 -0.3488
   41TMC2    O5  649   2.371   2.646  13.449 -0.1436 -0.1820 -0.8651
   41TMC2    H5  650   2.413   2.646  13.538  0.5703  0.2249 -1.1999
   42MPD2     C  651   2.769   2.305  13.970  0.2795 -0.2851 -0.0341
   42MPD2    C1  652   2.667   2.386  13.913  0.4447 -0.1809  0.6330
   42MPD2    C2  653   2.574   2.440  13.993 -0.1772 -0.4498 -0.2276
   42MPD2    C3  654   2.584   2.423  14.136  0.4242  0.1805  0.4724
   42MPD2    C4  655   2.682   2.348  14.189 -0.2313 -0.2622 -0.0340
   42MPD2    C5  656   2.769   2.278  14.105  0.4587  0.3037  0.3176
   42MPD2     H  657   2.493   2.496  13.948 -0.5929 -0.1235  0.9285
   42MPD2    H1  658   2.679   2.320  14.294 -1.3139  1.6645  0.4418
   42MPD2    H2  659   2.842   2.257  13.906  2.4537 -0.0880  2.2898
   42MPD2    H3  660   2.853   2.219  14.140  0.5879  0.8698  0.9750
   42MPD2     N  661   2.490   2.469  14.228 -0.3277 -0.1589  0.1487
   42MPD2    H5  662   2.519   2.466  14.326  0.9051  1.8411 -0.1478
   42MPD2    N1  663   2.647   2.419  13.778  0.3195  0.0302 -0.4652
   42MPD2    H7  664   2.567   2.480  13.763 -0.2913 -0.2216  1.6954
   43TMC2    C1  665   3.896   4.724   0.736  0.0546 -0.8602 -0.0396
   43TMC2    C2  666   3.803   4.695   0.832  0.2968  0.1378 -0.1539
   43TMC2    C3  667   3.756   0.064   0.906 -0.7892 -0.2158  0.1118
   43TMC2    C4  668   3.930   0.119   0.708  0.1937 -0.3481  0.4372
   43TMC2    C5  669   3.861   0.217   0.774 -0.4397  0.5745  0.2441
   43TMC2    C6  670   3.782   0.197   0.883  0.0638 -0.4731  0.2708
   43TMC2     C  671   3.967   4.614   0.668  0.4273 -0.3463  0.1108
   43TMC2     O  672   4.067   4.643   0.602 -0.0165  0.4523  0.6052
   43TMC2     H  673   3.800   4.593   0.870  3.3202 -0.8419 -2.5440
   43TMC2    H1  674   3.997   0.136   0.624 -0.8831  1.3032 -0.0906
   43TMC2    H2  675   3.710   0.270   0.919 -0.8980 -1.5118  0.4916
   43TMC2    C7  676   3.905   0.355   0.743  0.6494 -0.4055 -0.9229
   43TMC2    C8  677   3.666   0.031   1.010 -0.2824 -0.4692 -0.6463
   43TMC2    O1  678   3.962   0.361   0.634  0.2950  0.2500 -1.0557
   43TMC2    O2  679   3.649   0.109   1.101  0.7019  0.1763  0.0878
   43TMC2    O5  680   3.621   4.643   1.004 -0.5278  0.2040 -0.5739
   43TMC2    H5  681   3.648   4.596   0.922 -0.8174  0.4501 -0.8084
   44MPD2     C  682   3.931   4.182   0.398  0.3739 -0.1749  0.0344
   44MPD2    C1  683   4.035   4.275   0.405  0.0454  0.6196  0.1605
   44MPD2    C2  684   4.020   4.387   0.481 -0.1657 -1.0139  0.3048
   44MPD2    C3  685   3.915   4.396   0.571  0.5760  0.3519 -0.5193
   44MPD2    C4  686   3.821   4.298   0.576  0.5897 -0.2562 -0.3909
   44MPD2    C5  687   3.818   4.203   0.476  0.1236  0.0075 -0.4137
   44MPD2     H  688   4.099   4.460   0.468  1.2413 -2.3226  1.5592
   44MPD2    H1  689   3.731   4.306   0.637  0.4337  1.6583 -0.8800
   44MPD2    H2  690   3.936   4.095   0.333 -0.5175  0.7932 -1.3177
   44MPD2    H3  691   3.739   4.129   0.467 -1.4584  1.4676  1.6034
   44MPD2     N  692   3.890   4.506   0.657  0.1949 -0.1784  0.0512
   44MPD2    H5  693   3.805   4.504   0.713  0.7481  2.2806  0.9951
   44MPD2    N1  694   4.142   4.261   0.312 -0.1983  1.0095 -0.3197
   44MPD2    H7  695   4.192   4.348   0.299  0.3166  0.9836  1.4895
   45TMC2    C1  696   0.208   2.272   9.272  0.0432  0.6187 -0.0208
   45TMC2    C2  697   0.310   2.238   9.187  0.5554 -0.0343 -0.5215
   45TMC2    C3  698   0.427   2.304   9.196 -0.2115 -0.2795 -0.2047
   45TMC2    C4  699   0.214   2.369   9.368  0.1386 -0.6936  1.3657
   45TMC2    C5  700   0.330   2.438   9.357 -0.1169  0.7580  0.2538
   45TMC2    C6  701   0.439   2.408   9.276  0.1130  0.2323 -0.4813
   45TMC2     C  702   0.080   2.214   9.246 -0.0843 -0.4797  0.3139
   45TMC2     O  703   0.074   2.129   9.161  0.3187  0.0265  0.0131
   45TMC2     H  704   0.301   2.157   9.115 -1.2914 -0.7635  0.5219
   45TMC2    H1  705   0.144   2.386   9.449 -1.4211  1.7629 -0.5167
   45TMC2    H2  706   0.535   2.456   9.287 -0.1617  0.6356  0.1642
   45TMC2    C7  707   0.336   2.564   9.441 -0.4673  0.2855 -0.2963
   45TMC2    C8  708   0.534   2.268   9.107  0.2302 -0.0109  0.0084
   45TMC2    O1  709   0.236   2.582   9.510  0.3880  0.2288  0.1190
   45TMC2    O2  710   0.634   2.334   9.079  0.7038 -0.5664  0.3346
   45TMC2    O5  711   0.540   2.140   9.136  0.5821 -0.4252  0.2027
   45TMC2    H5  712   0.467   2.088   9.175  0.1820  0.0595  0.1002
   46MPD2     C  713   4.546   2.116   9.283  0.0974 -0.2255  0.2973
   46MPD2    C1  714   4.578   2.250   9.311 -0.3778 -0.1123 -0.6059
   46MPD2    C2  715   4.478   2.344   9.342 -0.2212 -0.5676 -0.0944
   46MPD2    C3  716   4.346   2.298   9.364 -0.1678  0.4369 -0.5486
   46MPD2    C4  717   4.318   2.165   9.331  0.3344  0.7809 -0.8731
   46MPD2    C5  718   4.418   2.074   9.303 -0.8442 -0.2016  0.2103
   46MPD2     H  719   4.507   2.446   9.364 -1.9482  0.3840 -2.1494
   46MPD2    H1  720   4.226   2.110   9.345 -0.5215  2.6357  0.9401
   46MPD2    H2  721   4.620   2.047   9.244 -1.1318 -0.8955 -0.8334
   46MPD2    H3  722   4.404   1.967   9.293 -2.5980  0.0346  0.1685
   46MPD2     N  723   4.248   2.386   9.417  0.5668  0.5959  0.1850
   46MPD2    H5  724   4.264   2.485   9.428 -0.1747  0.9264 -1.8334
   46MPD2    N1  725   4.709   2.294   9.305  0.4886 -0.0633  0.2461
   46MPD2    H7  726   4.734   2.388   9.334 -1.1425  0.9004 -1.4295
   47TMC2    C1  727   1.896   2.967   8.543  0.7896  0.1706 -0.1670
   47TMC2    C2  728   1.811   3.007   8.442  0.5308 -0.2610 -0.0779
   47TMC2    C3  729   1.681   2.975   8.459  0.5765  0.3090 -0.3716
   47TMC2    C4  730   1.844   2.884   8.643 -0.7570 -0.0184  0.0028
   47TMC2    C5  731   1.713   2.861   8.654  0.3142  0.0215  0.1253
   47TMC2    C6  732   1.626   2.903   8.557 -0.5861  0.4428 -0.5176
   47TMC2     C  733   2.040   2.972   8.516  0.8287 -0.2871 -0.1266
   47TMC2     O  734   2.081   3.045   8.428  0.3826  0.1260  0.3568
   47TMC2     H  735   1.858   3.069   8.366 -0.2554 -0.2230 -0.5286
   47TMC2    H1  736   1.902   2.852   8.729 -0.6066 -0.1269 -0.1388
   47TMC2    H2  737   1.521   2.876   8.552 -0.9320  1.8789 -0.7966
   47TMC2    C7  738   1.662   2.771   8.758  0.5539 -0.3532 -0.1332
   47TMC2    C8  739   1.582   3.045   8.382 -0.3348 -0.2315  0.3308
   47TMC2    O1  740   1.734   2.688   8.806 -0.2913 -0.2287 -0.1111
   47TMC2    O2  741   1.469   3.004   8.351  0.4782 -0.5194 -0.0125
   47TMC2    O5  742   1.632   3.173   8.363 -0.1405  0.0616  0.0377
   47TMC2    H5  743   1.701   3.183   8.432 -1.1852 -0.3251  1.1186
   48MPD2     C  744   2.333   2.881   8.523  0.6929 -0.1027  0.2926
   48MPD2    C1  745   2.236   2.839   8.611  0.2775  0.9736 -0.9889
   48MPD2    C2  746   2.275   2.766   8.728 -0.1096  0.1503  0.5507
   48MPD2    C3  747   2.408   2.728   8.736 -0.1367  0.1135  0.2499
   48MPD2    C4  748   2.503   2.754   8.635 -1.0726 -0.1908  0.2448
   48MPD2    C5  749   2.460   2.829   8.533  0.4989  0.5592 -0.6823
   48MPD2     H  750   2.201   2.751   8.806  1.7601 -0.9287  2.0773
   48MPD2    H1  751   2.606   2.721   8.638 -0.7907  0.8378  1.3767
   48MPD2    H2  752   2.308   2.936   8.433  1.7399 -0.2173 -0.0790
   48MPD2    H3  753   2.533   2.852   8.455  0.7939  2.3318  0.1113
   48MPD2     N  754   2.444   2.657   8.846 -0.3833  0.3048  0.1074
   48MPD2    H5  755   2.363   2.634   8.903  1.3231 -0.6761  2.1087
   48MPD2    N1  756   2.098   2.873   8.596 -0.3644 -0.9119  0.2015
   48MPD2    H7  757   2.037   2.832   8.666  0.2001 -1.2519  0.4908
   49TMC2    C1  758   1.329   0.757  10.243  0.3566  0.8016 -0.3057
   49TMC2    C2  759   1.361   0.808  10.121 -0.5006 -0.3247  0.0552
   49TMC2    C3  760   1.399   0.718  10.029 -1.1029 -0.2251 -0.2954
   49TMC2    C4  761   1.360   0.627  10.271  0.3127 -0.1321  0.0530
   49TMC2    C5  762   1.407   0.543  10.177  0.0860 -0.6124  0.4507
   49TMC2    C6  763   1.425   0.583  10.051  0.3110  0.1389  0.0757
   49TMC2     C  764   1.311   0.841  10.365 -0.1601  0.6000 -0.0404
   49TMC2     O  765   1.354   0.954  10.364  0.3855  0.3345 -0.5754
   49TMC2     H  766   1.347   0.915  10.108  0.3425 -0.1597  0.4870
   49TMC2    H1  767   1.362   0.590  10.373  0.2539 -1.4992 -0.4358
   49TMC2    H2  768   1.445   0.506   9.977  0.3630  1.0171 -0.8297
   49TMC2    C7  769   1.392   0.406  10.219  0.3169  0.1430  1.0503
   49TMC2    C8  770   1.424   0.766   9.888  0.6565 -0.1621 -0.0044
   49TMC2    O1  771   1.319   0.372  10.310 -0.6543  0.3867 -0.2095
   49TMC2    O2  772   1.475   0.875   9.861 -0.0262 -0.0548 -0.4975
   49TMC2    O5  773   1.403   0.662   9.801 -0.5501  0.2005 -0.1067
   49TMC2    H5  774   1.354   0.592   9.849  1.4329 -1.3285 -0.3263
   50MPD2     C  775   1.231   0.960  10.624  0.0419 -0.2112 -0.1896
   50MPD2    C1  776   1.186   0.836  10.576  0.3090  0.0582 -0.1188
   50MPD2    C2  777   1.097   0.769  10.655  0.2845 -0.1643  0.1400
   50MPD2    C3  778   1.044   0.828  10.768  0.5357 -0.3340  0.1920
   50MPD2    C4  779   1.074   0.962  10.801 -0.7158  0.0019  1.1845
   50MPD2    C5  780   1.174   1.024  10.730  0.2925 -0.2557 -0.3755
   50MPD2     H  781   1.057   0.674  10.624  0.9781 -0.3410 -0.2163
   50MPD2    H1  782   1.030   1.013  10.886 -1.0087  0.4303  0.7782
   50MPD2    H2  783   1.304   1.025  10.577 -0.1608  0.1604  0.0099
   50MPD2    H3  784   1.205   1.124  10.758  0.4166  0.0569 -1.6315
   50MPD2     N  785   0.955   0.773  10.854  0.2324 -0.2655  0.2831
   50MPD2    H5  786   0.922   0.834  10.927 -3.3671 -0.6082 -1.0815
   50MPD2    N1  787   1.227   0.780  10.455 -0.1549  0.0212 -0.4984
   50MPD2    H7  788   1.198   0.685  10.432 -0.1010  0.1000 -0.8960
   51TMC2    C1  789   0.781   4.545   1.628  0.2062  0.8120  1.0656
   51TMC2    C2  790   0.689   4.638   1.658  0.3014 -0.2927  0.0560
   51TMC2    C3  791   0.723   0.039   1.655  0.0935  0.7621  0.2589
   51TMC2    C4  792   0.903   4.583   1.584 -0.3261 -0.0355  0.6947
   51TMC2    C5  793   0.935   4.716   1.582 -1.0919  0.3229 -0.1845
   51TMC2    C6  794   0.844   0.079   1.616  0.7271 -0.0858  0.3087
   51TMC2     C  795   0.739   4.406   1.608 -0.0167  0.3024  0.6125
   51TMC2     O  796   0.809   4.343   1.531 -0.1268 -0.3145  0.3334
   51TMC2     H  797   0.586   4.605   1.654  0.4556 -1.0495  2.4672
   51TMC2    H1  798   0.980   4.512   1.558 -1.3799 -1.1395  0.5912
   51TMC2    H2  799   0.861   0.186   1.617 -0.7297  0.1478 -0.9051
   51TMC2    C7  800   1.046   0.009   1.499  0.1760 -0.4854 -0.4405
   51TMC2    C8  801   0.630   0.137   1.691 -0.1414  0.3203  0.6042
   51TMC2    O1  802   1.078   4.669   1.413 -0.3719 -0.2681  0.1460
   51TMC2    O2  803   0.535   0.109   1.759 -0.4387 -0.1864 -0.4560
   51TMC2    O5  804   0.634   0.216   1.582 -0.0207 -0.2185  0.6700
   51TMC2    H5  805   0.708   0.207   1.519  0.7859 -0.0634  1.6117
   52MPD2     C  806   0.503   3.981   1.749 -0.0747  0.2067  0.5150
   52MPD2    C1  807   0.592   4.002   1.647 -0.4435  0.2163 -0.4463
   52MPD2    C2  808   0.629   4.130   1.619 -0.7219 -0.0073 -0.4938
   52MPD2    C3  809   0.580   4.240   1.694 -0.4458  0.0767  0.4427
   52MPD2    C4  810   0.484   4.214   1.784 -0.4515  0.1327  0.0232
   52MPD2    C5  811   0.441   4.088   1.810 -0.1688  0.2825 -0.2906
   52MPD2     H  812   0.699   4.147   1.538 -1.1924 -1.8778 -1.3013
   52MPD2    H1  813   0.446   4.293   1.847  0.6292  0.8807 -0.2612
   52MPD2    H2  814   0.457   3.884   1.759 -0.6856  0.4624  0.2191
   52MPD2    H3  815   0.369   4.079   1.890 -1.7779  0.3504 -1.7311
   52MPD2     N  816   0.635   4.365   1.696 -0.3779 -0.9055  0.3880
   52MPD2    H5  817   0.597   4.424   1.769 -0.7514  0.7971 -1.1911
   52MPD2    N1  818   0.644   3.894   1.570 -0.8182 -0.3610  0.3557
   52MPD2    H7  819   0.703   3.920   1.491 -0.7928 -3.0472 -0.5220
   53TMC2    C1  820   1.625   2.380  11.453 -0.1541 -0.3858 -0.2203
   53TMC2    C2  821   1.758   2.373  11.466  0.1686 -0.4442 -0.0836
   53TMC2    C3  822   1.823   2.391  11.592  0.6772 -0.3625  0.2915
   53TMC2    C4  823   1.552   2.413  11.569 -0.2268  0.4297  0.1594
   53TMC2    C5  824   1.614   2.440  11.688 -0.2046  0.5513  0.4902
   53TMC2    C6  825   1.752   2.415  11.699 -0.4432 -0.3427 -0.1617
   53TMC2     C  826   1.562   2.282  11.367  0.7180 -0.2542  0.4691
   53TMC2     O  827   1.635   2.190  11.330 -0.0127  0.2416 -0.0459
   53TMC2     H  828   1.825   2.338  11.387 -1.4168  0.0794 -1.6609
   53TMC2    H1  829   1.445   2.428  11.562  0.0001  1.7545 -0.3816
   53TMC2    H2  830   1.807   2.409  11.793 -2.1757 -2.5087  0.7091
   53TMC2    C7  831   1.534   2.428  11.803 -0.3616  0.2978  0.0689
   53TMC2    C8  832   1.969   2.374  11.614  0.0353 -0.0040 -0.6815
   53TMC2    O1  833   1.414   2.422  11.784 -0.0325  0.5344  0.5197
   53TMC2    O2  834   2.027   2.346  11.718 -0.3547  0.3720 -0.3834
   53TMC2    O5  835   2.036   2.419  11.499  0.2169 -0.1234 -0.1465
   53TMC2    H5  836   1.974   2.465  11.438  0.2710  0.6540  0.3882
   54MPD2     C  837   1.390   2.047  11.304 -0.3386  0.1380  0.7885
   54MPD2    C1  838   1.344   2.175  11.336 -0.0825 -1.0421 -0.4724
   54MPD2    C2  839   1.210   2.191  11.369  0.6781  0.0043  0.3023
   54MPD2    C3  840   1.123   2.086  11.354 -0.4032 -0.0274  0.0812
   54MPD2    C4  841   1.164   1.966  11.305 -0.2110 -0.5056  0.4338
   54MPD2    C5  842   1.298   1.946  11.276  0.2342 -0.5642 -0.2738
   54MPD2     H  843   1.181   2.291  11.398  0.7497 -0.2528  1.2315
   54MPD2    H1  844   1.098   1.882  11.285 -2.2176  0.7255  1.9380
   54MPD2    H2  845   1.496   2.024  11.298 -0.9547 -1.7162 -2.6129
   54MPD2    H3  846   1.337   1.854  11.233 -1.9464 -1.5572 -0.1143
   54MPD2     N  847   0.995   2.085  11.406  1.1994  0.4317  0.6651
   54MPD2    H5  848   0.933   2.007  11.385 -0.7558  2.0820  0.3840
   54MPD2    N1  849   1.426   2.288  11.369  0.0429 -0.2535 -0.2269
   54MPD2    H7  850   1.385   2.378  11.395 -0.1955  0.6801 -3.7027
   55TMC2    C1  851   2.065   0.040  17.219  0.0168  0.2194  0.9771
   55TMC2    C2  852   2.109   4.715  17.105 -0.4786  0.1206 -0.3806
   55TMC2    C3  853   2.147   4.588  17.121 -0.2954  0.0097  0.1268
   55TMC2    C4  854   2.076   4.716  17.340  0.2798 -0.2913 -0.6172
   55TMC2    C5  855   2.129   4.592  17.346  0.3399  0.8749  0.3726
   55TMC2    C6  856   2.155   4.516  17.237  0.2487  0.3227 -0.1861
   55TMC2     C  857   2.033   0.180  17.228 -0.6856  0.4163 -0.3696
   55TMC2     O  858   1.976   0.219  17.328 -0.3550 -0.3665  0.7940
   55TMC2     H  859   2.097   0.010  17.002  0.4700 -1.4231 -0.9832
   55TMC2    H1  860   2.046   0.027  17.431  1.7314  0.3960 -0.5151
   55TMC2    H2  861   2.192   4.415  17.247  1.2238  0.9271  2.3439
   55TMC2    C7  862   2.101   4.522  17.470  0.0109  0.2894  0.0953
   55TMC2    C8  863   2.177   4.529  16.996  0.3811  0.3760  0.7131
   55TMC2    O1  864   2.085   4.399  17.455 -0.3681  0.0507 -0.0949
   55TMC2    O2  865   2.157   4.408  16.978  0.4044 -0.1427 -0.0152
   55TMC2    O5  866   2.298   4.587  16.993 -0.1986  0.1732  0.3293
   55TMC2    H5  867   2.302   4.679  17.024  1.7309  0.9032 -2.0956
   56MPD2     C  868   2.017   0.396  16.930  0.2018 -0.4009 -0.2106
   56MPD2    C1  869   2.008   0.365  17.066 -0.0420 -0.4964  0.0980
   56MPD2    C2  870   1.971   0.459  17.156  1.3614  0.3604 -0.3824
   56MPD2    C3  871   1.933   0.579  17.120  0.1352 -0.5190  0.1618
   56MPD2    C4  872   1.955   0.621  16.994  0.4572  0.0640 -0.4975
   56MPD2    C5  873   1.989   0.526  16.897 -0.7353  0.0023 -0.2255
   56MPD2     H  874   1.970   0.428  17.260  0.0230 -1.5867 -0.9753
   56MPD2    H1  875   1.953   0.723  16.958  0.7271  0.8309  1.6709
   56MPD2    H2  876   2.050   0.332  16.849  0.1603  1.1308 -1.4480
   56MPD2    H3  877   1.993   0.549  16.791  0.5674 -0.7421 -0.3381
   56MPD2     N  878   1.882   0.672  17.217  0.2937 -0.1548  0.3640
   56MPD2    H5  879   1.856   0.625  17.303  1.1315 -2.2630 -0.5197
   56MPD2    N1  880   2.053   0.236  17.107  0.5446  0.6903 -0.1234
   56MPD2    H7  881   2.103   0.182  17.037 -0.3405 -0.8450  0.4250
   57TMC2    C1  882   1.609   1.206  13.294  0.2539 -0.3516 -0.0615
   57TMC2    C2  883   1.545   1.325  13.292  1.2128  0.4100  0.8478
   57TMC2    C3  884   1.564   1.413  13.191  1.1148  0.2712 -0.5583
   57TMC2    C4  885   1.691   1.169  13.187  0.2055  0.1881 -0.1939
   57TMC2    C5  886   1.714   1.265  13.090  0.1982  0.4576  0.3420
   57TMC2    C6  887   1.653   1.386  13.085 -0.1314  0.3823  0.2901
   57TMC2     C  888   1.561   1.094  13.379  0.3009 -0.1932 -0.6971
   57TMC2     O  889   1.634   0.999  13.395 -0.1238 -0.7991 -0.1162
   57TMC2     H  890   1.486   1.368  13.372  2.1505 -1.3632  2.4952
   57TMC2    H1  891   1.750   1.080  13.206 -1.0571 -0.8263 -0.9978
   57TMC2    H2  892   1.667   1.451  12.999  1.1295 -2.9607 -2.0479
   57TMC2    C7  893   1.782   1.227  12.964 -0.5341  0.3366  0.6829
   57TMC2    C8  894   1.480   1.534  13.188  0.3372  0.1923  0.2953
   57TMC2    O1  895   1.754   1.290  12.861 -0.2206 -0.2348  0.1160
   57TMC2    O2  896   1.368   1.542  13.236  0.1591  0.2577 -0.1942
   57TMC2    O5  897   1.544   1.627  13.126  0.5384  0.3165 -0.0341
   57TMC2    H5  898   1.641   1.617  13.121  0.6809  0.6048  1.9639
   58MPD2     C  899   1.216   0.978  13.748 -0.4844 -0.4117 -0.2320
   58MPD2    C1  900   1.156   1.066  13.661 -0.2058 -1.2410  0.6704
   58MPD2    C2  901   1.234   1.108  13.552 -0.5152 -0.4442  0.1938
   58MPD2    C3  902   1.365   1.068  13.535  0.2063  0.5233 -0.6005
   58MPD2    C4  903   1.429   0.980  13.626  0.0552 -0.0224 -0.0242
   58MPD2    C5  904   1.347   0.931  13.732  0.3245  0.3668  0.4833
   58MPD2     H  905   1.200   1.181  13.480  0.4981  0.5561  0.7275
   58MPD2    H1  906   1.531   0.945  13.611 -0.4459 -0.2435 -2.8626
   58MPD2    H2  907   1.159   0.945  13.834 -0.0043 -1.9673 -0.5001
   58MPD2    H3  908   1.383   0.865  13.810  0.6455 -0.1286 -0.0789
   58MPD2     N  909   1.433   1.125  13.425 -0.1929  0.8732 -0.0512
   58MPD2    H5  910   1.390   1.202  13.376  0.9716  0.8471 -1.1477
   58MPD2    N1  911   1.032   1.121  13.683 -0.6372 -0.6368 -0.2978
   58MPD2    H7  912   1.003   1.190  13.614  2.0318  1.4905  0.7187
   59TMC2    C1  913   3.632   0.882  12.687 -0.1495 -0.1200 -0.4026
   59TMC2    C2  914   3.527   0.800  12.648  0.6691  0.3400 -0.3983
   59TMC2    C3  915   3.486   0.797  12.525 -0.4440 -1.3504  0.2088
   59TMC2    C4  916   3.692   0.963  12.603 -0.1334 -0.6998  0.0784
   59TMC2    C5  917   3.640   0.970  12.479 -0.1272  0.0961  0.5837
   59TMC2    C6  918   3.545   0.883  12.435 -0.3285 -0.0565 -0.4930
   59TMC2     C  919   3.655   0.887  12.832  0.7261 -0.4517  0.3858
   59TMC2     O  920   3.562   0.837  12.894  0.0215 -0.1639 -0.0243
   59TMC2     H  921   3.472   0.739  12.718  0.5837  1.7598  0.7773
   59TMC2    H1  922   3.775   1.024  12.635 -1.7967  0.6550  1.8329
   59TMC2    H2  923   3.498   0.894  12.338 -0.0219  2.3396 -0.3775
   59TMC2    C7  924   3.730   1.045  12.391 -0.5419  0.5326 -0.6762
   59TMC2    C8  925   3.361   0.731  12.496 -0.7643 -0.6589 -0.0117
   59TMC2    O1  926   3.834   1.089  12.446 -0.5724  0.1233  0.2625
   59TMC2    O2  927   3.277   0.701  12.577  0.4097  0.0256  0.2882
   59TMC2    O5  928   3.370   0.688  12.373 -0.1001 -0.3902  0.0968
   59TMC2    H5  929   3.459   0.707  12.335 -1.2534  0.6033 -2.1537
   60MPD2     C  930   3.738   0.943  13.114 -0.7698  0.0038  0.1945
   60MPD2    C1  931   3.812   0.961  13.005 -0.4120 -0.2668 -0.1735
   60MPD2    C2  932   3.939   1.008  13.017 -0.3769 -0.5910 -0.3959
   60MPD2    C3  933   3.992   1.033  13.143  0.1454  0.1622  0.0435
   60MPD2    C4  934   3.909   1.013  13.253 -0.0268  0.5029  0.0668
   60MPD2    C5  935   3.777   0.976  13.239  0.0936 -0.1250 -0.3835
   60MPD2     H  936   4.004   1.027  12.932  0.2804  0.4655  0.3452
   60MPD2    H1  937   3.945   1.032  13.353 -0.9062 -1.0979  0.6895
   60MPD2    H2  938   3.640   0.901  13.098 -0.0488 -1.5045 -0.2010
   60MPD2    H3  939   3.709   0.971  13.323 -0.7576 -0.0600 -1.0761
   60MPD2     N  940   4.133   1.067  13.171 -0.3398  0.0724 -0.4286
   60MPD2    H5  941   4.156   1.099  13.265 -1.4993 -1.7418  0.4668
   60MPD2    N1  942   3.775   0.935  12.875  0.3988  0.2127  0.1105
   60MPD2    H7  943   3.846   0.946  12.804  0.0528 -1.3515 -0.4901
   61TMC2    C1  944   3.139   2.239  15.725 -0.2373 -0.8636  0.2722
   61TMC2    C2  945   3.082   2.169  15.831  0.0073 -0.8086  0.5638
   61TMC2    C3  946   3.112   2.210  15.961  0.0967 -0.6487 -0.1140
   61TMC2    C4  947   3.220   2.351  15.749 -0.5266 -0.0890 -0.9791
   61TMC2    C5  948   3.236   2.393  15.879  0.3517  0.4476  0.0179
   61TMC2    C6  949   3.181   2.328  15.984 -0.0265  0.3892 -0.3894
   61TMC2     C  950   3.090   2.213  15.595  0.2448  0.6069 -0.6993
   61TMC2     O  951   2.995   2.133  15.592  0.1454  0.3054  0.5006
   61TMC2     H  952   3.020   2.081  15.816  0.4737 -0.7637 -1.6080
   61TMC2    H1  953   3.268   2.403  15.667  0.4544 -0.8779 -0.9002
   61TMC2    H2  954   3.198   2.369  16.083 -1.1156  1.7958 -0.7834
   61TMC2    C7  955   3.295   2.531  15.903 -0.4512 -0.2537 -0.6204
   61TMC2    C8  956   3.057   2.134  16.069 -0.7354 -0.4645 -0.4678
   61TMC2    O1  957   3.347   2.551  16.012  0.4659 -0.5574 -0.0797
   61TMC2    O2  958   2.962   2.058  16.068  0.0476  0.1122 -0.3427
   61TMC2    O5  959   3.145   2.138  16.172  0.4892 -0.0736  0.0501
   61TMC2    H5  960   3.233   2.171  16.147  0.1454  0.6155 -0.2595
   62MPD2     C  961   3.040   2.155  15.308  0.5184  0.3335  0.4524
   62MPD2    C1  962   3.119   2.261  15.356 -0.5566  0.1145  0.0838
   62MPD2    C2  963   3.170   2.356  15.269  0.4625 -0.1586 -0.1797
   62MPD2    C3  964   3.139   2.355  15.132  0.3739  1.0816 -0.0321
   62MPD2    C4  965   3.062   2.255  15.087 -0.8999  0.6528  0.1253
   62MPD2    C5  966   3.007   2.162  15.175  0.3169 -0.2686  0.2576
   62MPD2     H  967   3.231   2.433  15.315  0.6515 -1.9627  2.5893
   62MPD2    H1  968   3.050   2.246  14.979  1.4922  0.9034 -0.1656
   62MPD2    H2  969   3.001   2.080  15.375 -0.5514  1.1599  0.7712
   62MPD2    H3  970   2.947   2.081  15.138 -1.1214  0.2189  1.5206
   62MPD2     N  971   3.169   2.471  15.053  1.1114  0.7551 -0.1171
   62MPD2    H5  972   3.133   2.478  14.959 -0.6735 -0.5685  0.4567
   62MPD2    N1  973   3.156   2.274  15.496 -0.1284  0.0398 -0.0089
   62MPD2    H7  974   3.233   2.337  15.511  0.1756 -0.9841  2.7911
   63TMC2    C1  975   3.209   2.735  10.771  0.3918 -0.0126 -0.3750
   63TMC2    C2  976   3.296   2.808  10.839 -0.3212  0.1358  0.0815
   63TMC2    C3  977   3.320   2.936  10.795 -0.2799 -0.6112 -0.5476
   63TMC2    C4  978   3.141   2.783  10.666 -0.2086 -0.9871 -0.0820
   63TMC2    C5  979   3.154   2.912  10.634 -0.0722  0.3319 -0.5031
   63TMC2    C6  980   3.245   2.992  10.698 -0.5686  0.1067 -0.4354
   63TMC2     C  981   3.174   2.610  10.836 -0.4027  0.2013 -0.8254
   63TMC2     O  982   3.217   2.604  10.949 -0.1756 -0.0768  0.4415
   63TMC2     H  983   3.334   2.777  10.936 -2.8284  2.3667  1.7936
   63TMC2    H1  984   3.071   2.723  10.609 -0.9683  2.1502 -2.4543
   63TMC2    H2  985   3.251   3.097  10.673  0.0565 -0.1868 -1.4998
   63TMC2    C7  986   3.073   2.964  10.521  0.2917  0.0671 -0.6198
   63TMC2    C8  987   3.373   3.029  10.889  0.0907 -0.3008  0.0421
   63TMC2    O1  988   2.976   2.895  10.498  0.0323  0.2144 -0.1201
   63TMC2    O2  989   3.318   3.141  10.902  0.1851 -0.5956  0.1400
   63TMC2    O5  990   3.505   3.008  10.871  0.6329  0.2714 -0.4338
   63TMC2    H5  991   3.533   2.921  10.836  0.6840 -0.4872  1.4372
   64MPD2     C  992   2.842   2.234  10.908  0.5938 -0.2054  0.0937
   64MPD2    C1  993   2.827   2.282  10.776 -0.3772 -0.2229 -0.7262
   64MPD2    C2  994   2.911   2.388  10.740 -0.0887  0.0827  0.0168
   64MPD2    C3  995   2.988   2.455  10.826  0.0128 -0.4526  0.3629
   64MPD2    C4  996   2.988   2.421  10.960 -0.0893  0.3593  0.3609
   64MPD2    C5  997   2.913   2.309  10.995 -0.1719 -0.3453  0.1300
   64MPD2     H  998   2.916   2.416  10.636 -0.3963  0.0566 -0.0032
   64MPD2    H1  999   3.045   2.470  11.038 -0.9035  0.9979  0.5528
   64MPD2    H2 1000   2.781   2.149  10.938 -0.2487  1.0158  1.7841
   64MPD2    H3 1001   2.891   2.282  11.097 -2.0299 -1.6648 -0.6261
   64MPD2     N 1002   3.078   2.537  10.767  0.3224  0.0011 -0.5128
   64MPD2    H5 1003   3.062   2.551  10.668  1.0333  0.3156 -0.5837
   64MPD2    N1 1004   2.751   2.218  10.674  0.8700 -0.2567  0.0441
   64MPD2    H7 1005   2.765   2.247  10.577  0.2111 -0.7802 -0.2146
   65TMC2    C1 1006   4.005   2.357  15.570 -0.4265  0.9841 -0.4289
   65TMC2    C2 1007   3.991   2.351  15.432  0.2712 -0.4433 -0.5837
   65TMC2    C3 1008   4.015   2.464  15.355 -0.1426  0.0099 -0.0426
   65TMC2    C4 1009   4.043   2.470  15.634 -0.6212 -0.4370  0.1922
   65TMC2    C5 1010   4.059   2.585  15.555  0.0229  0.0241  0.2998
   65TMC2    C6 1011   4.054   2.578  15.413 -0.4242  0.0311 -0.1793
   65TMC2     C 1012   3.938   2.262  15.652 -0.5280  0.3829  0.1388
   65TMC2     O 1013   3.921   2.274  15.773  0.0140  0.1948  0.1531
   65TMC2     H 1014   3.977   2.258  15.377  1.4677 -0.5151 -0.7722
   65TMC2    H1 1015   4.046   2.470  15.742  0.3203 -2.2093  0.1767
   65TMC2    H2 1016   4.079   2.663  15.351  1.7390 -0.0765  0.5411
   65TMC2    C7 1017   4.066   2.711  15.621  0.5886 -0.4231  0.3068
   65TMC2    C8 1018   4.047   2.454  15.210 -0.3048 -0.7227  0.4779
   65TMC2    O1 1019   4.131   2.796  15.563  0.2752  0.9910  0.0212
   65TMC2    O2 1020   4.121   2.529  15.148  0.1281  0.1604 -0.3464
   65TMC2    O5 1021   3.977   2.350  15.161 -0.1076 -0.3934 -0.6631
   65TMC2    H5 1022   3.909   2.312  15.221 -0.8011  0.3899 -0.9474
   66MPD2     C 1023   3.876   1.986  15.746  0.1669  0.7131 -0.0454
   66MPD2    C1 1024   3.856   2.033  15.615  0.0053  0.1822  0.3036
   66MPD2    C2 1025   3.791   1.950  15.529  0.0879  0.1425 -0.2782
   66MPD2    C3 1026   3.753   1.821  15.565  0.8640  0.1410  0.2530
   66MPD2    C4 1027   3.770   1.776  15.694 -0.7324  0.2493 -0.2130
   66MPD2    C5 1028   3.828   1.861  15.787  0.9985  0.5520 -0.0228
   66MPD2     H 1029   3.779   1.984  15.427 -2.0587 -0.8429 -0.3366
   66MPD2    H1 1030   3.742   1.674  15.716  1.1616  0.1151  1.4804
   66MPD2    H2 1031   3.928   2.039  15.825 -0.1958 -0.4780  0.9752
   66MPD2    H3 1032   3.852   1.826  15.887 -1.5530 -0.7744  0.1454
   66MPD2     N 1033   3.697   1.733  15.467  0.3544  0.6556 -0.1837
   66MPD2    H5 1034   3.659   1.647  15.505 -1.4731  0.2281 -2.9633
   66MPD2    N1 1035   3.891   2.159  15.570 -0.0779 -0.3617  0.2602
   66MPD2    H7 1036   3.879   2.162  15.469 -0.7722 -0.7533  0.3265
   67TMC2    C1 1037   3.987   1.393  14.067  0.1527  0.0265  0.4914
   67TMC2    C2 1038   3.925   1.509  14.068  0.0209 -0.2844 -0.4063
   67TMC2    C3 1039   3.928   1.575  14.187  0.3139  0.8238  0.7509
   67TMC2    C4 1040   4.058   1.345  14.173  0.2219 -0.1793 -0.2713
   67TMC2    C5 1041   4.051   1.417  14.292  0.3994  0.2921  0.0356
   67TMC2    C6 1042   3.983   1.536  14.305  0.3674 -0.0763  0.1963
   67TMC2     C 1043   3.964   1.305  13.956  0.0306  0.2960 -0.5983
   67TMC2     O 1044   4.012   1.196  13.951 -0.5699 -0.2157  0.5040
   67TMC2     H 1045   3.905   1.555  13.971 -0.7770  0.0269 -0.0919
   67TMC2    H1 1046   4.101   1.246  14.168 -1.2051 -0.8694  1.1313
   67TMC2    H2 1047   3.953   1.572  14.402 -0.4196  0.4413 -0.2423
   67TMC2    C7 1048   4.140   1.376  14.393  0.1613  0.3145 -0.5706
   67TMC2    C8 1049   3.871   1.710  14.181  0.2466  0.7210 -0.4643
   67TMC2    O1 1050   4.225   1.299  14.359 -0.0896 -0.5080  0.0721
   67TMC2    O2 1051   3.798   1.748  14.089 -0.0071  0.4716 -0.0109
   67TMC2    O5 1052   3.958   1.790  14.245 -0.4522 -0.0373 -0.3257
   67TMC2    H5 1053   4.027   1.745  14.298 -0.9490 -0.8368 -0.3627
   68MPD2     C 1054   3.885   1.217  13.697 -0.0292 -0.5833  0.2323
   68MPD2    C1 1055   3.808   1.293  13.780 -0.6107 -0.8239  0.4942
   68MPD2    C2 1056   3.678   1.336  13.744 -0.5959  0.4829 -0.5948
   68MPD2    C3 1057   3.629   1.309  13.617  0.7379  0.0674 -0.0008
   68MPD2    C4 1058   3.708   1.232  13.530  0.2281 -0.1164  0.4699
   68MPD2    C5 1059   3.831   1.189  13.576  0.2270 -0.3423  0.2135
   68MPD2     H 1060   3.619   1.389  13.818 -0.7736  0.3884 -0.6671
   68MPD2    H1 1061   3.673   1.226  13.427 -0.0286 -0.2017  0.5628
   68MPD2    H2 1062   3.984   1.188  13.729  0.1864  1.1827  1.1449
   68MPD2    H3 1063   3.901   1.144  13.506  0.0886 -1.2426  0.6412
   68MPD2     N 1064   3.502   1.347  13.572  0.4782  0.3641 -0.0829
   68MPD2    H5 1065   3.482   1.328  13.474  0.4647 -0.8884  0.1563
   68MPD2    N1 1066   3.850   1.345  13.895 -0.2077 -0.3987  0.0933
   68MPD2    H7 1067   3.797   1.424  13.932 -3.3624 -1.9896 -1.0848
   69TMC2    C1 1068   1.397   2.757  12.336 -0.4805  0.1184 -0.7646
   69TMC2    C2 1069   1.269   2.798  12.303  0.1128 -0.3042 -0.1511
   69TMC2    C3 1070   1.246   2.845  12.176  0.1110  0.1359  0.1256
   69TMC2    C4 1071   1.502   2.757  12.253 -0.2974  0.1602 -0.3824
   69TMC2    C5 1072   1.475   2.798  12.127  0.3750 -0.4196 -0.4604
   69TMC2    C6 1073   1.348   2.837  12.084  0.4226 -0.3268 -0.8822
   69TMC2     C 1074   1.413   2.693  12.471  0.0699 -0.3153 -0.1057
   69TMC2     O 1075   1.311   2.642  12.518  0.1156 -0.6096 -0.0519
   69TMC2     H 1076   1.194   2.817  12.378 -1.6768  2.0526 -2.5428
   69TMC2    H1 1077   1.594   2.709  12.285 -1.0334 -1.0210 -0.0696
   69TMC2    H2 1078   1.331   2.866  11.981  1.8964  0.9621 -0.7734
   69TMC2    C7 1079   1.589   2.784  12.037  0.0944  0.7550 -0.2865
   69TMC2    C8 1080   1.100   2.856  12.142  0.4988 -0.2065 -0.1950
   69TMC2    O1 1081   1.707   2.774  12.076 -0.0800  0.0327  0.2273
   69TMC2    O2 1082   1.025   2.773  12.190 -0.0480 -0.0197 -0.0978
   69TMC2    O5 1083   1.090   2.912  12.022 -0.1216 -0.1815  0.0390
   69TMC2    H5 1084   1.142   2.995  12.022 -1.5076  0.6787 -1.3129
   70MPD2     C 1085   1.699   2.694  12.681  0.5538 -0.6024 -0.1466
   70MPD2    C1 1086   1.576   2.647  12.643 -0.3382 -0.7201  0.0795
   70MPD2    C2 1087   1.497   2.578  12.731 -0.0887 -0.1763 -0.1489
   70MPD2    C3 1088   1.548   2.548  12.858 -0.0630  0.5492  0.0006
   70MPD2    C4 1089   1.681   2.579  12.890  0.2577 -0.0557  0.1463
   70MPD2    C5 1090   1.756   2.656  12.804  0.1144  0.1310 -0.1183
   70MPD2     H 1091   1.397   2.545  12.706  0.7584 -1.9519 -1.2130
   70MPD2    H1 1092   1.722   2.562  12.989  1.4610 -0.3052 -0.4031
   70MPD2    H2 1093   1.766   2.754  12.619  1.4386 -1.5527 -0.1074
   70MPD2    H3 1094   1.855   2.689  12.831  0.4980 -0.9865 -0.1705
   70MPD2     N 1095   1.474   2.477  12.960 -0.4258  0.3800 -0.0881
   70MPD2    H5 1096   1.521   2.457  13.048 -1.0345  2.7635  0.8058
   70MPD2    N1 1097   1.541   2.696  12.520  0.0834 -0.0892  0.3769
   70MPD2    H7 1098   1.614   2.753  12.480 -0.9265 -0.7254 -2.3511
   71TMC2    C1 1099   3.478   4.182   1.427 -0.4524  0.4008 -0.4777
   71TMC2    C2 1100   3.599   4.218   1.466 -0.4362  0.4621 -0.2106
   71TMC2    C3 1101   3.605   4.303   1.576  0.1676 -0.0569 -0.5776
   71TMC2    C4 1102   3.365   4.257   1.461  0.2507 -0.0212  0.6984
   71TMC2    C5 1103   3.372   4.351   1.559  0.5315  0.3608 -0.0387
   71TMC2    C6 1104   3.493   4.369   1.626 -0.0416  0.1983  0.2881
   71TMC2     C 1105   3.473   4.065   1.346  0.2613 -0.0934  0.8581
   71TMC2     O 1106   3.570   4.033   1.278  0.1024 -0.3120 -0.0935
   71TMC2     H 1107   3.686   4.197   1.405  0.5427  2.3202  0.5455
   71TMC2    H1 1108   3.268   4.225   1.426  0.1613  0.7184  0.2749
   71TMC2    H2 1109   3.506   4.448   1.700 -1.7280  0.0796  0.7089
   71TMC2    C7 1110   3.258   4.422   1.620  0.0091  0.2300 -0.1157
   71TMC2    C8 1111   3.739   4.349   1.604 -0.4687 -0.3851 -0.3760
   71TMC2    O1 1112   3.270   4.475   1.732  0.5399  0.1605 -0.6574
   71TMC2    O2 1113   3.771   4.457   1.659  0.2436  0.1931 -0.1302
   71TMC2    O5 1114   3.827   4.242   1.588  0.2118 -0.3553 -0.8973
   71TMC2    H5 1115   3.773   4.160   1.590 -1.1179  0.5080 -1.6282
   72MPD2     C 1116   3.193   3.726   1.072 -0.2100  0.0181 -0.2095
   72MPD2    C1 1117   3.330   3.759   1.070  0.6590 -0.5143 -0.3769
   72MPD2    C2 1118   3.376   3.840   1.170  0.3596  0.1666  0.0751
   72MPD2    C3 1119   3.295   3.905   1.258  0.2484  0.9004 -0.5967
   72MPD2    C4 1120   3.163   3.879   1.246 -0.0078  0.0330  0.0036
   72MPD2    C5 1121   3.111   3.778   1.168  0.0703 -0.3115 -0.9207
   72MPD2     H 1122   3.480   3.863   1.156 -0.1123  0.7041 -2.6200
   72MPD2    H1 1123   3.095   3.929   1.314 -0.8645 -1.8828  0.5822
   72MPD2    H2 1124   3.152   3.650   1.007  0.7486 -1.4228  0.8683
   72MPD2    H3 1125   3.004   3.759   1.165  0.3674 -1.9399 -1.2654
   72MPD2     N 1126   3.344   4.014   1.341 -0.4275 -0.4862  0.5448
   72MPD2    H5 1127   3.271   4.053   1.400  1.6948  0.7070  2.3816
   72MPD2    N1 1128   3.425   3.699   0.987 -0.2872  0.1011 -0.3367
   72MPD2    H7 1129   3.519   3.736   0.991 -0.5223  0.7850 -1.1288
   73TMC2    C1 1130   2.451   0.220  13.987 -0.8604  0.4998 -0.1291
   73TMC2    C2 1131   2.409   0.283  14.095  0.4280  0.2677 -0.5888
   73TMC2    C3 1132   2.421   0.229  14.219  0.2498 -0.6439 -0.1563
   73TMC2    C4 1133   2.488   0.089  14.004  0.1327  0.2747 -0.2091
   73TMC2    C5 1134   2.501   0.032  14.127  0.4301 -0.3539  0.3337
   73TMC2    C6 1135   2.467   0.104  14.236  0.0141  0.5876  0.3919
   73TMC2     C 1136   2.557   0.278  13.911  0.2832 -0.5402  0.2571
   73TMC2     O 1137   2.656   0.210  13.897  0.1473 -0.1132  0.5015
   73TMC2     H 1138   2.384   0.388  14.100 -2.3138 -0.4792  1.4218
   73TMC2    H1 1139   2.510   0.037  13.911  0.0413 -0.5536  0.2345
   73TMC2    H2 1140   2.490   0.062  14.333  0.5132  0.1593  0.0893
   73TMC2    C7 1141   2.604   4.666  14.133 -0.5074  0.0646  0.2275
   73TMC2    C8 1142   2.348   0.277  14.331  0.3669 -0.1349  0.7292
   73TMC2    O1 1143   2.598   4.569  14.203 -0.1429  0.6464  0.2943
   73TMC2    O2 1144   2.382   0.371  14.406  0.1496  0.5832  0.0563
   73TMC2    O5 1145   2.262   0.174  14.359  0.2485  0.5545 -0.1530
   73TMC2    H5 1146   2.251   0.112  14.285  0.9156 -0.0896  0.2902
   74MPD2     C 1147   2.722   0.570  13.522 -0.5199  0.3254 -0.3205
   74MPD2    C1 1148   2.784   0.460  13.589 -0.1219 -0.3160 -0.1299
   74MPD2    C2 1149   2.721   0.399  13.697 -0.1687  0.5913  0.1232
   74MPD2    C3 1150   2.597   0.455  13.749 -0.0044 -0.3122 -0.1065
   74MPD2    C4 1151   2.554   0.573  13.695 -0.4239 -0.1345 -0.1593
   74MPD2    C5 1152   2.613   0.624  13.577 -0.1386  0.4172 -0.4789
   74MPD2     H 1153   2.761   0.312  13.749 -0.0207  2.2855  2.8632
   74MPD2    H1 1154   2.479   0.635  13.743 -0.7453 -0.1760 -0.6143
   74MPD2    H2 1155   2.765   0.612  13.432  0.0677  1.9651  0.7161
   74MPD2    H3 1156   2.577   0.719  13.541 -1.9847  0.7188  2.1185
   74MPD2     N 1157   2.514   0.385  13.840 -0.2120  0.4319  0.1067
   74MPD2    H5 1158   2.421   0.421  13.854  0.1255  0.7472  1.5627
   74MPD2    N1 1159   2.905   0.416  13.534  0.9759 -0.6614 -0.1812
   74MPD2    H7 1160   2.947   0.478  13.465 -0.5400  1.1865  0.5543
   75TMC2    C1 1161   3.275   1.418  13.583  0.8521 -0.6221  0.4675
   75TMC2    C2 1162   3.162   1.425  13.664  0.0112  0.7399  0.3179
   75TMC2    C3 1163   3.060   1.504  13.615 -0.8818 -0.5397  0.1029
   75TMC2    C4 1164   3.284   1.475  13.466  0.3574 -0.1072 -0.3266
   75TMC2    C5 1165   3.177   1.543  13.423 -0.1430  0.1410  1.2054
   75TMC2    C6 1166   3.070   1.573  13.499  0.5495 -0.1411  0.1840
   75TMC2     C 1167   3.400   1.390  13.654  0.0784 -0.0757 -0.5014
   75TMC2     O 1168   3.388   1.383  13.776  0.2582 -0.0393 -0.3624
   75TMC2     H 1169   3.151   1.369  13.756  0.2400 -2.3262 -1.5483
   75TMC2    H1 1170   3.369   1.472  13.398 -0.5057 -1.5549 -1.3537
   75TMC2    H2 1171   2.987   1.636  13.467  0.5570 -0.1784  0.0904
   75TMC2    C7 1172   3.183   1.596  13.288 -0.5696 -0.4774 -0.1158
   75TMC2    C8 1173   2.943   1.503  13.697 -0.2060 -0.6179 -0.0762
   75TMC2    O1 1174   3.260   1.542  13.209 -0.6967 -0.6346 -0.0311
   75TMC2    O2 1175   2.833   1.508  13.660 -0.4502 -0.1780 -0.3092
   75TMC2    O5 1176   2.996   1.552  13.807  0.5938 -0.2935 -0.1702
   75TMC2    H5 1177   3.087   1.582  13.784  0.2100 -0.5018 -1.9356
   76TMC2    C1 1178   1.990   1.835  11.795 -0.0773 -0.9947 -0.1714
   76TMC2    C2 1179   1.867   1.797  11.746 -0.2005  0.0846  0.2676
   76TMC2    C3 1180   1.774   1.747  11.830  0.6394 -1.0266  0.2376
   76TMC2    C4 1181   2.011   1.833  11.926 -0.3306 -0.3377  0.3151
   76TMC2    C5 1182   1.921   1.777  12.008  0.1054 -0.7113  0.3711
   76TMC2    C6 1183   1.801   1.728  11.961 -0.8838  0.6026  0.0653
   76TMC2     C 1184   2.056   1.924  11.712 -0.3610  0.0755 -0.2094
   76TMC2     O 1185   1.989   1.997  11.641 -0.0056  0.6037 -0.2974
   76TMC2     H 1186   1.849   1.810  11.640  0.1059 -2.5895 -0.1044
   76TMC2    H1 1187   2.108   1.866  11.962 -0.7615  1.2787 -0.0145
   76TMC2    H2 1188   1.732   1.676  12.027 -0.5455 -0.7966 -0.6914
   76TMC2    C7 1189   1.946   1.757  12.150 -0.1316  0.4600 -0.9542
   76TMC2    C8 1190   1.675   1.668  11.768 -0.2732  0.0290  0.1922
   76TMC2    O1 1191   1.862   1.710  12.226  0.5256  0.5839  0.3377
   76TMC2    O2 1192   1.603   1.697  11.671 -0.1077  0.2189  0.0082
   76TMC2    O5 1193   1.660   1.557  11.842 -0.4824 -0.5352  0.0653
   76TMC2    H5 1194   1.741   1.527  11.888 -0.5567  2.0700  1.8710
   77MPD2     C 1195   2.484   2.182  11.567  0.1027 -0.4493 -0.3193
   77MPD2    C1 1196   2.355   2.222  11.596 -0.4448  0.7759 -0.3651
   77MPD2    C2 1197   2.259   2.132  11.641  0.2574 -0.6564  0.0043
   77MPD2    C3 1198   2.295   2.001  11.671  0.3759  0.7606 -0.0032
   77MPD2    C4 1199   2.426   1.963  11.648  0.8061  0.5110 -0.0880
   77MPD2    C5 1200   2.519   2.058  11.603 -0.0207 -0.1514  0.8331
   77MPD2     H 1201   2.153   2.155  11.652  0.0535 -0.5136 -2.2995
   77MPD2    H1 1202   2.452   1.862  11.680 -0.5361  0.5975  1.2677
   77MPD2    H2 1203   2.563   2.243  11.524 -1.4025  0.6510 -1.5113
   77MPD2    H3 1204   2.624   2.032  11.596 -0.0503  0.4859 -2.1156
   77MPD2     N 1205   2.194   1.914  11.727 -0.0188  0.5592 -0.1572
   77MPD2    H5 1206   2.229   1.833  11.778 -0.6105  0.8284  0.6671
   77MPD2    N1 1207   2.313   2.361  11.586  0.1569  0.4667  0.1511
   77MPD2    H7 1208   2.216   2.383  11.605  0.0665 -0.3242  0.6056
   78TMC2    C1 1209   0.028   0.260   1.688 -0.5736  0.0027  0.6070
   78TMC2    C2 1210   0.118   0.361   1.672 -0.0791  0.3163 -0.3704
   78TMC2    C3 1211   0.232   0.334   1.608 -0.0182 -0.4828 -0.8320
   78TMC2    C4 1212   0.061   0.130   1.664 -0.5164 -0.4629 -0.2944
   78TMC2    C5 1213   0.180   0.105   1.609 -0.2698 -0.1152  0.3989
   78TMC2    C6 1214   0.273   0.206   1.578 -0.1001  0.0892  0.0205
   78TMC2     C 1215   4.624   0.282   1.718 -0.2441 -0.0763  0.2921
   78TMC2     O 1216   4.556   0.187   1.745 -0.2828 -0.3112 -0.1138
   78TMC2     H 1217   0.112   0.461   1.714  0.9314  0.9092 -1.6664
   78TMC2    H1 1218   4.729   0.047   1.658 -0.2901 -0.5145 -2.5285
   78TMC2    H2 1219   0.372   0.191   1.538 -0.7553 -0.5417 -1.3709
   78TMC2    C7 1220   0.206   4.709   1.554  0.6360 -0.1564 -0.6124
   78TMC2    C8 1221   0.312   0.448   1.570  0.0608 -0.3085  0.3115
   78TMC2    O1 1222   0.122   4.621   1.580  0.0316 -0.6162  0.2279
   78TMC2    O2 1223   0.346   0.473   1.454 -0.4937  0.0825 -0.5491
   78TMC2    O5 1224   0.355   0.509   1.683 -0.2576 -0.3685 -0.4419
   78TMC2    H5 1225   0.354   0.451   1.762  2.9708  2.0651  1.4027
   79MPD1     C 1226   4.261   0.604   1.845  0.5387  0.2586 -0.4048
   79MPD1    C1 1227   4.253   0.470   1.820  0.4648  0.4608  0.2304
   79MPD1    C2 1228   4.369   0.408   1.780  0.0373  0.0818 -0.3670
   79MPD1    C3 1229   4.484   0.478   1.762 -0.1746 -0.1912  0.1876
   79MPD1    C4 1230   4.481   0.612   1.775  0.0291 -0.1900 -0.1863
   79MPD1    C5 1231   4.367   0.682   1.813 -0.7123  0.3750 -0.2282
   79MPD1     H 1232   4.369   0.302   1.756 -1.6687 -0.1110  0.4688
   79MPD1    H1 1233   4.565   0.676   1.747 -1.0511  2.1433  1.9528
   79MPD1    H2 1234   4.169   0.640   1.890 -0.3763 -2.5934  0.0281
   79MPD1    H3 1235   4.370   0.790   1.828  0.9083  0.1735  0.9241
   79MPD1     N 1236   4.605   0.420   1.711  0.3017  0.3493 -0.3406
   79MPD1    H5 1237   4.675   0.480   1.669  1.6785 -1.6587 -0.8715
   79MPD1    N1 1238   4.143   0.390   1.864 -0.6964 -0.1321 -0.6192
   79MPD1    H6 1239   4.135   0.300   1.816 -2.9793 -0.2761  0.0453
   79MPD1    H7 1240   4.057   0.443   1.848  0.1581  1.8757  1.4309
   80TMC2    C1 1241   1.072   1.607  11.627 -0.1121  0.5941  0.5879
   80TMC2    C2 1242   1.008   1.688  11.535  0.3112 -0.3452 -0.4572
   80TMC2    C3 1243   0.887   1.639  11.499 -0.4271  0.2108  0.5243
   80TMC2    C4 1244   1.033   1.483  11.667  0.1263  0.2734 -0.7388
   80TMC2    C5 1245   0.912   1.433  11.621  0.0098 -0.1162 -0.6905
   80TMC2    C6 1246   0.841   1.509  11.531  0.0453  0.2533 -0.3701
   80TMC2     C 1247   1.171   1.674  11.713  0.0374  0.2646 -0.3274
   80TMC2     O 1248   1.198   1.613  11.821 -0.0641 -0.0555  0.0822
   80TMC2     H 1249   1.028   1.794  11.523 -0.3971 -0.6365 -4.1898
   80TMC2    H1 1250   1.104   1.422  11.722 -0.2345  0.8399  0.3631
   80TMC2    H2 1251   0.746   1.474  11.494 -0.2043 -1.1653  1.6094
   80TMC2    C7 1252   0.846   1.315  11.679 -0.5827 -0.7730 -0.7483
   80TMC2    C8 1253   0.790   1.750  11.487  0.1690  0.1128 -0.0835
   80TMC2    O1 1254   0.754   1.275  11.612  0.0128 -0.0581 -0.5300
   80TMC2    O2 1255   0.810   1.842  11.410 -0.5903 -0.1896  0.4569
   80TMC2    O5 1256   0.675   1.703  11.525  0.3595 -0.1910  0.2538
   80TMC2    H5 1257   0.678   1.637  11.598  2.6244 -0.9247 -0.5110
   81MPD2     C 1258   1.306   2.005  11.689  0.9814  0.5274  0.1937
   81MPD2    C1 1259   1.279   1.888  11.758  0.5002 -0.0291  0.8695
   81MPD2    C2 1260   1.315   1.871  11.892  0.9417  0.3143  0.6787
   81MPD2    C3 1261   1.364   1.982  11.957 -0.4223  0.4825 -0.7769
   81MPD2    C4 1262   1.379   2.101  11.889  0.4814  0.3919 -0.0299
   81MPD2    C5 1263   1.359   2.109  11.753  0.1713 -0.5164  0.3531
   81MPD2     H 1264   1.296   1.775  11.938  2.4353 -0.4444 -0.2800
   81MPD2    H1 1265   1.436   2.182  11.934  0.8142  0.4410 -0.5349
   81MPD2    H2 1266   1.275   2.019  11.586  1.2361  0.5363  0.1168
   81MPD2    H3 1267   1.380   2.201  11.700  0.4569 -1.5226 -1.2935
   81MPD2     N 1268   1.389   1.987  12.095 -0.1344  0.5858 -0.0719
   81MPD2    H5 1269   1.423   2.075  12.132  0.3402 -1.0610  3.4105
   81MPD2    N1 1270   1.216   1.795  11.669 -0.0645 -0.3516 -0.0526
   81MPD2    H7 1271   1.178   1.833  11.584 -0.2591 -1.5312 -0.4888
   82TMC2    C1 1272   4.391   0.404  11.297  0.2696  0.2486 -0.0081
   82TMC2    C2 1273   4.495   0.419  11.384 -0.0344  0.2932  0.0892
   82TMC2    C3 1274   4.475   0.363  11.506  0.0289  0.6577 -0.1021
   82TMC2    C4 1275   4.277   0.339  11.324 -0.2395  0.6461  0.0570
   82TMC2    C5 1276   4.268   0.266  11.437 -0.2177 -0.5586 -0.8883
   82TMC2    C6 1277   4.358   0.286  11.537  0.3039 -0.0343 -0.5492
   82TMC2     C 1278   4.392   0.484  11.178  0.0069  0.2517  0.2668
   82TMC2     O 1279   4.302   0.466  11.102 -0.0739 -0.0373 -0.5697
   82TMC2     H 1280   4.591   0.457  11.352 -0.5076  0.8663 -0.6453
   82TMC2    H1 1281   4.207   0.324  11.243  0.9897  0.4543 -0.9701
   82TMC2    H2 1282   4.337   0.248  11.636  1.5630 -2.9936 -1.4121
   82TMC2    C7 1283   4.129   0.243  11.481 -0.7028 -0.2119 -0.1160
   82TMC2    C8 1284   4.590   0.344  11.598  0.5217  0.0417  0.0884
   82TMC2    O1 1285   4.120   0.240  11.605 -0.0970  0.2670  0.0230
   82TMC2    O2 1286   4.708   0.345  11.565 -0.0753  0.3817 -0.0431
   82TMC2    O5 1287   4.547   0.292  11.713 -0.2223 -0.0868  0.1439
   82TMC2    H5 1288   4.457   0.325  11.732 -0.4279 -1.1705  1.0079
   83MPD2     C 1289   4.564   0.864  10.887  0.0122 -0.2421  0.6031
   83MPD2    C1 1290   4.443   0.802  10.896 -0.1033 -0.0709 -0.7281
   83MPD2    C2 1291   4.424   0.691  10.972  0.3497  0.5096  0.8901
   83MPD2    C3 1292   4.527   0.646  11.047 -0.6761  0.2800 -0.2178
   83MPD2    C4 1293   4.650   0.699  11.030  0.3536 -0.4277 -0.4619
   83MPD2    C5 1294   4.674   0.804  10.944 -0.2635  0.8171 -0.1823
   83MPD2     H 1295   4.325   0.647  10.980  0.8113 -0.5649  0.7462
   83MPD2    H1 1296   4.735   0.660  11.084  0.1317  0.3891  0.4763
   83MPD2    H2 1297   4.575   0.950  10.822  1.2919 -1.8632 -1.3411
   83MPD2    H3 1298   0.038   0.839  10.930 -0.1576  0.2844 -0.7240
   83MPD2     N 1299   4.511   0.549  11.145  0.1405  0.0647 -0.1578
   83MPD2    H5 1300   4.599   0.509  11.175 -0.5658 -2.3887 -1.2891
   83MPD2    N1 1301   4.334   0.873  10.836  0.2189 -0.9830 -0.0869
   83MPD2    H7 1302   4.353   0.962  10.791 -0.4304  0.1494  1.8869
   84TMC2    C1 1303   0.603   0.675  11.048  0.8964  0.3270 -0.4458
   84TMC2    C2 1304   0.594   0.552  11.106 -0.0464  0.2205  0.2629
   84TMC2    C3 1305   0.686   0.460  11.072 -0.1430 -0.1659  0.1432
   84TMC2    C4 1306   0.708   0.710  10.971 -0.2212 -0.0990  0.3162
   84TMC2    C5 1307   0.798   0.613  10.944  0.4395  0.0180 -0.3846
   84TMC2    C6 1308   0.789   0.484  10.988  0.0370  0.2099 -0.6434
   84TMC2     C 1309   0.489   0.764  11.058  0.2692  0.4995 -0.2177
   84TMC2     O 1310   0.400   0.710  11.121 -0.7061  0.5019  0.6275
   84TMC2     H 1311   0.510   0.515  11.163  1.2501 -1.3555  1.1596
   84TMC2    H1 1312   0.696   0.800  10.912 -0.5342 -0.0324  0.4835
   84TMC2    H2 1313   0.844   0.416  10.924 -0.0094  0.9809 -1.5172
   84TMC2    C7 1314   0.919   0.640  10.849  0.0240 -0.1410 -0.2604
   84TMC2    C8 1315   0.690   0.344  11.149 -0.0411 -0.2612  0.5058
   84TMC2    O1 1316   0.938   0.550  10.772  0.1077  0.0298 -0.0950
   84TMC2    O2 1317   0.591   0.290  11.203  0.8233  0.2550 -0.3301
   84TMC2    O5 1318   0.814   0.293  11.151 -0.0356  0.5386  0.3312
   84TMC2    H5 1319   0.870   0.371  11.131  0.9704 -0.4485 -0.6982
   85TMC2    C1 1320   1.435   3.533  15.695  0.2899  0.1593  0.1397
   85TMC2    C2 1321   1.414   3.663  15.734 -1.1949 -0.2993 -0.5277
   85TMC2    C3 1322   1.453   3.761  15.656 -0.6924 -0.2978  0.3015
   85TMC2    C4 1323   1.506   3.507  15.581 -0.1500  0.1455  1.0626
   85TMC2    C5 1324   1.532   3.609  15.494  0.0009  0.6297  0.2485
   85TMC2    C6 1325   1.505   3.738  15.528  0.2136 -0.3838 -0.2951
   85TMC2     C 1326   1.403   3.425  15.790 -0.2368  0.0337  0.0242
   85TMC2     O 1327   1.396   3.310  15.753 -0.3493 -0.1665  0.5276
   85TMC2     H 1328   1.361   3.683  15.826 -0.2357 -1.9441  0.3911
   85TMC2    H1 1329   1.533   3.405  15.559  1.2635  0.3409  1.8984
   85TMC2    H2 1330   1.510   3.820  15.458 -4.1187 -1.2916 -1.6542
   85TMC2    C7 1331   1.596   3.570  15.372 -0.2085 -0.5773  0.2409
   85TMC2    C8 1332   1.470   3.890  15.721 -0.1522  0.2117 -0.1645
   85TMC2    O1 1333   1.657   3.464  15.376 -0.0255 -0.4149 -0.2894
   85TMC2    O2 1334   1.394   3.932  15.813  0.7091 -0.1702 -0.0544
   85TMC2    O5 1335   1.557   3.959  15.651 -0.3878 -0.0646 -0.5005
   85TMC2    H5 1336   1.623   3.924  15.587 -0.4298 -2.5614  0.8307
   86MPD2     C 1337   1.355   3.251  16.263  0.0629 -0.6441 -0.2666
   86MPD2    C1 1338   1.288   3.218  16.151  0.2699  0.3315  1.4560
   86MPD2    C2 1339   1.311   3.289  16.037  0.4282  0.2118  0.5481
   86MPD2    C3 1340   1.404   3.394  16.030  0.1524  0.2490  0.0873
   86MPD2    C4 1341   1.457   3.438  16.148 -0.4474 -0.1082 -0.0561
   86MPD2    C5 1342   1.429   3.368  16.261 -0.1504  0.4074  0.1985
   86MPD2     H 1343   1.261   3.255  15.947  1.6930  0.6458 -0.3268
   86MPD2    H1 1344   1.536   3.512  16.139 -1.2635  0.5148 -1.9125
   86MPD2    H2 1345   1.354   3.209  16.363  0.4487  2.1353  0.9167
   86MPD2    H3 1346   1.475   3.396  16.355  1.1187 -0.7956 -0.0578
   86MPD2     N 1347   1.427   3.470  15.914  0.8154  0.3063  0.1423
   86MPD2    H5 1348   1.462   3.564  15.927  0.7630  0.1148  1.6490
   86MPD2    N1 1349   1.193   3.112  16.153  0.4005  0.4052 -0.3673
   86MPD2    H7 1350   1.150   3.104  16.062 -0.1296 -2.1114  0.0833
   87TMC2    C1 1351   3.445   1.698   1.041  0.4367  0.5215 -0.3977
   87TMC2    C2 1352   3.491   1.636   1.156  0.1383  0.1019  0.3254
   87TMC2    C3 1353   3.428   1.662   1.272 -0.2653  0.4116  0.0706
   87TMC2    C4 1354   3.351   1.796   1.051  0.3559 -0.2488  0.5242
   87TMC2    C5 1355   3.315   1.834   1.176 -0.1355  0.7468 -0.0384
   87TMC2    C6 1356   3.343   1.769   1.289 -0.4113  0.2576  0.2152
   87TMC2     C 1357   3.494   1.655   0.908  0.7203 -0.0321 -0.3714
   87TMC2     O 1358   3.428   1.689   0.812  0.1579  0.4448  0.2215
   87TMC2     H 1359   3.544   1.542   1.144 -0.3725 -0.1426 -0.0100
   87TMC2    H1 1360   3.319   1.846   0.961 -0.5996 -1.7305  0.0458
   87TMC2    H2 1361   3.314   1.802   1.388 -0.1220  1.8214 -0.2119
   87TMC2    C7 1362   3.256   1.961   1.190  0.1705 -0.1788  0.0510
   87TMC2    C8 1363   3.455   1.590   1.397  0.9255 -0.1384  0.1170
   87TMC2    O1 1364   3.172   1.997   1.106  1.0465 -0.1192  0.3090
   87TMC2    O2 1365   3.392   1.602   1.499  0.3250  0.7423 -0.1558
   87TMC2    O5 1366   3.567   1.513   1.386  0.1669 -0.3273 -0.3071
   87TMC2    H5 1367   3.616   1.506   1.302  0.3554 -0.0696 -0.2183
   88MPD2     C 1368   3.432   2.230   1.374  0.1831 -0.3431 -0.2582
   88MPD2    C1 1369   3.340   2.176   1.290 -0.4471  0.5485 -0.1989
   88MPD2    C2 1370   3.248   2.261   1.228  0.2701 -1.3146  0.6990
   88MPD2    C3 1371   3.249   2.400   1.248  0.3709 -0.5563 -0.7696
   88MPD2    C4 1372   3.351   2.448   1.327 -0.6672  0.2672 -0.0732
   88MPD2    C5 1373   3.440   2.371   1.393 -0.1352  0.4430  0.1251
   88MPD2     H 1374   3.173   2.216   1.164  2.0539  0.3367 -2.5661
   88MPD2    H1 1375   3.362   2.555   1.335  0.1507  0.1046  0.8762
   88MPD2    H2 1376   3.509   2.172   1.424 -0.8571 -0.4581  1.1782
   88MPD2    H3 1377   3.508   2.420   1.461  0.6378 -1.9194  1.0698
   88MPD2     N 1378   3.172   2.491   1.177  0.3962 -0.8242 -0.5734
   88MPD2    H5 1379   3.178   2.592   1.188 -2.0511 -1.0450  2.8598
   88MPD2    N1 1380   3.338   2.035   1.275 -0.2001  0.1045  0.4401
   88MPD2    H7 1381   3.416   1.985   1.316  0.3500  1.0185  0.4878
   89TMC2    C1 1382   0.462   4.528   0.821 -0.5573 -0.1214  0.1700
   89TMC2    C2 1383   0.557   4.425   0.800 -0.3638  0.3015  0.2194
   89TMC2    C3 1384   0.524   4.332   0.708  0.1733 -0.5431 -0.2460
   89TMC2    C4 1385   0.341   4.536   0.754 -0.2159 -0.0962  0.0451
   89TMC2    C5 1386   0.322   4.432   0.655 -0.6793 -0.2883  0.2104
   89TMC2    C6 1387   0.413   4.331   0.635 -0.7155  0.0870 -0.4296
   89TMC2     C 1388   0.479   4.623   0.932  0.3259 -0.1178 -0.0244
   89TMC2     O 1389   0.593   4.654   0.965 -0.1391  0.7004  0.3767
   89TMC2     H 1390   0.644   4.422   0.866 -0.1456  0.1957 -0.0762
   89TMC2    H1 1391   0.252   4.592   0.781 -1.5910 -2.3081  0.1910
   89TMC2    H2 1392   0.392   4.246   0.571 -1.1469  0.0916 -0.2942
   89TMC2    C7 1393   0.199   4.430   0.581  0.0428  0.0605  0.6152
   89TMC2    C8 1394   0.625   4.261   0.633 -0.8529 -0.4545  0.0219
   89TMC2    O1 1395   0.167   4.322   0.539  0.1407 -0.5446 -0.0159
   89TMC2    O2 1396   0.615   4.236   0.509 -0.0875  0.2975 -0.2316
   89TMC2    O5 1397   0.725   4.231   0.716  0.3152  0.4102  0.0239
   89TMC2    H5 1398   0.717   4.265   0.808  1.5950 -1.7269  0.9143
   90MPD2     C 1399   0.257   0.246   1.231  0.2594  0.1334 -0.3221
   90MPD2    C1 1400   0.166   0.156   1.192 -0.7593 -0.0713 -0.0862
   90MPD2    C2 1401   0.202   0.048   1.113  0.3111  0.1645 -0.4277
   90MPD2    C3 1402   0.331   0.030   1.066 -0.5106  0.6456  0.1248
   90MPD2    C4 1403   0.424   0.111   1.116  0.7859 -0.2446  0.5761
   90MPD2    C5 1404   0.389   0.220   1.194  0.1394 -0.4449  0.4040
   90MPD2     H 1405   0.121   4.723   1.080  0.8667 -0.1592 -1.2014
   90MPD2    H1 1406   0.528   0.109   1.085  0.7743  1.8748  0.3671
   90MPD2    H2 1407   0.236   0.338   1.284  1.8636  0.8906 -0.9967
   90MPD2    H3 1408   0.475   0.280   1.223  1.6038 -1.3247 -2.1326
   90MPD2     N 1409   0.356   4.660   0.984 -0.1047  0.2640 -0.2719
   90MPD2    H5 1410   0.279   4.601   0.953 -0.4564 -1.8315  4.5971
   90MPD2    N1 1411   0.029   0.167   1.217  0.1381  0.7847 -0.2454
   90MPD2    H7 1412   4.709   0.089   1.189  1.0839 -0.1097  0.2873
   91TMC2    C1 1413   1.039   4.090  16.018 -0.0786  0.6102  0.0014
   91TMC2    C2 1414   1.093   4.033  15.908 -0.1045  0.3581 -0.5162
   91TMC2    C3 1415   1.004   4.001  15.805 -0.5077 -0.5901 -0.1560
   91TMC2    C4 1416   0.904   4.104  16.032 -0.2850 -0.4279 -0.0604
   91TMC2    C5 1417   0.823   4.061  15.928 -0.2028  0.2998  0.1550
   91TMC2    C6 1418   0.870   4.018  15.812  0.2423 -0.1715  0.5905
   91TMC2     C 1419   1.121   4.126  16.131 -0.4716 -0.1431  0.0920
   91TMC2     O 1420   1.064   4.160  16.233 -0.0953 -0.1623  0.0001
   91TMC2     H 1421   1.199   4.018  15.890 -0.1512 -0.7481  0.1451
   91TMC2    H1 1422   0.857   4.124  16.128 -1.6552 -1.5174 -0.5069
   91TMC2    H2 1423   0.810   3.969  15.736 -2.0605 -0.5719  2.6598
   91TMC2    C7 1424   0.691   4.024  15.973 -0.7173  0.2218 -0.1763
   91TMC2    C8 1425   1.059   3.964  15.672 -0.1050  0.9351 -0.3125
   91TMC2    O1 1426   0.654   3.995  16.088  0.7928  0.2078  0.0684
   91TMC2    O2 1427   0.992   3.971  15.569  0.2263  0.2833  0.2490
   91TMC2    O5 1428   1.132   3.860  15.709  0.3263  0.0206 -0.2265
   91TMC2    H5 1429   1.136   3.840  15.805  2.4010  1.7601  0.0449
   92MPD2     C 1430   1.341   4.140  16.336  0.2784 -0.8563  0.1757
   92MPD2    C1 1431   1.361   4.123  16.204 -0.2450 -1.1070 -0.0196
   92MPD2    C2 1432   1.491   4.130  16.148  0.3567 -0.4341 -0.4407
   92MPD2    C3 1433   1.593   4.147  16.234 -0.0271  0.0737  0.8478
   92MPD2    C4 1434   1.571   4.147  16.372  0.3260  0.1849 -0.4947
   92MPD2    C5 1435   1.445   4.145  16.424  0.4178  0.3197 -0.3645
   92MPD2     H 1436   1.517   4.135  16.043 -0.8470 -1.2483 -0.7795
   92MPD2    H1 1437   1.652   4.153  16.443  0.2445  1.0614 -0.4836
   92MPD2    H2 1438   1.243   4.128  16.380 -0.1445  0.9214 -0.2566
   92MPD2    H3 1439   1.426   4.149  16.531 -1.6337 -0.3786 -0.7029
   92MPD2     N 1440   1.725   4.164  16.187  0.0553 -0.1164 -0.3970
   92MPD2    H5 1441   1.725   4.185  16.088 -1.0794  2.2149  0.1003
   92MPD2    N1 1442   1.257   4.105  16.107  0.4129  0.6584  0.0037
   92MPD2    H7 1443   1.295   4.086  16.015  1.1488  1.5273  0.1267
   93TMC2    C1 1444   3.288   4.140  13.970  0.0872 -0.1274 -0.6298
   93TMC2    C2 1445   3.290   4.176  14.103 -0.3357  0.1289  0.0084
   93TMC2    C3 1446   3.391   4.258  14.135  0.5779  0.5269  0.5194
   93TMC2    C4 1447   3.375   4.184  13.870  0.6170 -0.3320  1.0844
   93TMC2    C5 1448   3.474   4.258  13.918  0.0246 -0.5813  0.3030
   93TMC2    C6 1449   3.479   4.302  14.045 -1.0067  0.0296 -0.5855
   93TMC2     C 1450   3.226   4.016  13.937 -0.4816 -0.3514  0.1561
   93TMC2     O 1451   3.257   3.974  13.829  0.6670 -0.4169 -0.2924
   93TMC2     H 1452   3.227   4.135  14.181  0.7817 -1.3465  0.1433
   93TMC2    H1 1453   3.374   4.141  13.771 -1.6839  1.8127  0.1691
   93TMC2    H2 1454   3.565   4.357  14.084 -0.6838  0.1390 -1.4598
   93TMC2    C7 1455   3.595   4.256  13.849 -0.2896 -0.1459 -0.5136
   93TMC2    C8 1456   3.439   4.276  14.277  0.6067  0.7488 -0.0664
   93TMC2    O1 1457   3.702   4.271  13.914  0.1858  0.3022 -0.7677
   93TMC2    O2 1458   3.557   4.248  14.307  0.4216 -0.2678 -0.0360
   93TMC2    O5 1459   3.333   4.235  14.354  0.1513 -0.0696  0.5651
   93TMC2    H5 1460   3.251   4.279  14.324 -1.1101 -2.0538  1.1471
   94MPD2     C 1461   2.979   3.876  13.824  0.2329 -0.2208  0.5218
   94MPD2    C1 1462   2.984   3.945  13.944  0.7310 -0.5738 -0.4387
   94MPD2    C2 1463   2.870   3.974  14.011 -0.2191  0.5220  0.0776
   94MPD2    C3 1464   2.746   3.937  13.955  0.5765 -0.4800  0.6705
   94MPD2    C4 1465   2.741   3.875  13.832 -0.3075 -0.0007 -0.1658
   94MPD2    C5 1466   2.856   3.847  13.767 -0.4492 -0.5616 -0.6335
   94MPD2     H 1467   2.883   4.001  14.115 -2.3590 -0.7073  0.6601
   94MPD2    H1 1468   2.648   3.850  13.782  1.4076 -1.5412 -2.5512
   94MPD2    H2 1469   3.071   3.851  13.771  1.1598  2.7877  0.7280
   94MPD2    H3 1470   2.846   3.804  13.668  1.2798 -1.1457 -0.5640
   94MPD2     N 1471   2.618   3.982  14.006  0.2527  0.5738 -0.3377
   94MPD2    H5 1472   2.536   3.976  13.946 -0.3117  0.8008  0.4096
   94MPD2    N1 1473   3.102   4.005  14.000  0.5464 -0.1352  1.2218
   94MPD2    H7 1474   3.079   4.067  14.076  0.1568 -0.2269  1.1765
   95TMC2    C1 1475   2.814   1.557  15.729 -0.1616 -0.3418 -0.3282
   95TMC2    C2 1476   2.821   1.615  15.851 -0.1226  0.1783  0.3335
   95TMC2    C3 1477   2.720   1.705  15.885 -0.1622  0.0031  0.2049
   95TMC2    C4 1478   2.718   1.592  15.642 -0.0599 -0.5541  0.4732
   95TMC2    C5 1479   2.618   1.677  15.676  0.1391 -0.1216 -0.0630
   95TMC2    C6 1480   2.621   1.735  15.803 -0.4397 -0.0700  0.6001
   95TMC2     C 1481   2.933   1.499  15.675 -0.1911  0.2928  0.7536
   95TMC2     O 1482   3.042   1.530  15.724 -0.3465 -0.2297  0.0030
   95TMC2     H 1483   2.917   1.629  15.900  0.3036  2.5009 -1.1459
   95TMC2    H1 1484   2.726   1.554  15.541  1.5371  4.3013 -1.2183
   95TMC2    H2 1485   2.541   1.805  15.826 -0.4913  0.0358  0.0984
   95TMC2    C7 1486   2.523   1.713  15.570 -0.8707 -0.0212  0.0950
   95TMC2    C8 1487   2.748   1.806  15.981  0.0272 -0.3424 -0.0021
   95TMC2    O1 1488   2.532   1.646  15.467 -0.3565  0.0913 -0.3588
   95TMC2    O2 1489   2.697   1.914  15.965 -0.5357 -0.1928  0.1269
   95TMC2    O5 1490   2.770   1.745  16.102  0.4089 -0.2966  0.0031
   95TMC2    H5 1491   2.812   1.656  16.096 -0.1512 -0.3134 -3.6572
   96MPD2     C 1492   3.127   1.155  15.320  0.3032  0.4080 -0.2882
   96MPD2    C1 1493   3.173   1.286  15.357  0.4376 -0.6066 -0.6216
   96MPD2    C2 1494   3.101   1.358  15.453 -0.5800  0.5337 -0.3004
   96MPD2    C3 1495   2.976   1.313  15.500 -0.3534  0.0251  0.0685
   96MPD2    C4 1496   2.924   1.196  15.449  0.4872  0.6213 -0.7958
   96MPD2    C5 1497   3.001   1.113  15.369  0.8115  0.4708  0.7995
   96MPD2     H 1498   3.132   1.458  15.481 -0.9085  0.2672  0.9973
   96MPD2    H1 1499   2.821   1.173  15.475  1.0204  0.4909  1.2188
   96MPD2    H2 1500   3.178   1.090  15.250 -0.3626 -0.4408  0.0242
   96MPD2    H3 1501   2.949   1.024  15.338  0.0040  0.9325  0.8243
   96MPD2     N 1502   2.897   1.387  15.595  0.0508 -0.3131 -0.0648
   96MPD2    H5 1503   2.802   1.356  15.615  0.4990 -2.9948 -2.0618
   96MPD2    N1 1504   3.283   1.339  15.282  0.7579 -0.4223  0.6020
   96MPD2    H7 1505   3.314   1.285  15.202 -0.8728  0.9799 -0.9489
   97TMC2    C1 1506   0.384   4.140   0.243 -0.5329 -0.5637 -0.2409
   97TMC2    C2 1507   0.252   4.122   0.201  0.4846  0.2114  0.3904
   97TMC2    C3 1508   0.162   4.219   0.206  0.6605  0.1493  0.3699
   97TMC2    C4 1509   0.435   4.266   0.271  0.2064 -0.3768  0.0405
   97TMC2    C5 1510   0.340   4.366   0.267 -0.6409  0.3015  0.2190
   97TMC2    C6 1511   0.206   4.342   0.244  0.8812  0.0048  0.0974
   97TMC2     C 1512   0.470   4.025   0.221  0.2023 -0.2128  0.9854
   97TMC2     O 1513   0.428   3.930   0.153  0.6763 -0.4526  0.0933
   97TMC2     H 1514   0.217   4.020   0.189  3.2220 -0.7424  0.5496
   97TMC2    H1 1515   0.539   4.283   0.297 -0.7131  0.5365  3.1762
   97TMC2    H2 1516   0.138   4.426   0.235 -2.2112 -2.6889 -1.3888
   97TMC2    C7 1517   0.389   4.508   0.281  0.1275 -0.6607 -0.3620
   97TMC2    C8 1518   0.057   4.216   0.101  0.2628  0.4854 -0.2026
   97TMC2    O1 1519   0.506   4.518   0.305 -0.2074 -0.3971  0.0731
   97TMC2    O2 1520   4.733   4.322   0.092 -0.3723 -0.7640  0.3353
   97TMC2    O5 1521   0.121   4.163  17.747  0.2342  0.3095 -0.0770
   97TMC2    H5 1522   0.188   4.095   0.019 -2.5838 -2.3203  0.4717
   98MPD2     C 1523   0.907   3.770   0.279 -0.8031 -0.1435  0.3563
   98MPD2    C1 1524   0.781   3.723   0.253  0.4270 -0.5428 -0.9038
   98MPD2    C2 1525   0.676   3.815   0.243  0.1173 -0.3705  0.6546
   98MPD2    C3 1526   0.698   3.949   0.268 -0.0385 -0.7541  0.6099
   98MPD2    C4 1527   0.825   3.989   0.303 -0.1363 -0.2453  0.5094
   98MPD2    C5 1528   0.929   3.902   0.304 -0.0304 -0.3917 -0.6553
   98MPD2     H 1529   0.573   3.783   0.233  0.4970 -1.7863  1.2830
   98MPD2    H1 1530   0.838   4.095   0.323 -0.0226 -0.1573 -0.0266
   98MPD2    H2 1531   0.992   3.702   0.273  0.4025  1.5627 -1.6074
   98MPD2    H3 1532   1.028   3.938   0.327 -1.5653  2.2083  1.9087
   98MPD2     N 1533   0.594   4.050   0.268 -0.0882 -0.4246  0.7014
   98MPD2    H5 1534   0.607   4.141   0.312  0.2426 -0.3255  0.3996
   98MPD2    N1 1535   0.769   3.583   0.254 -0.6294  0.2844 -0.1488
   98MPD2    H7 1536   0.859   3.536   0.257 -0.4902  0.6384  1.1869
   99TMC2    C1 1537   4.195   0.925   1.290 -0.1762 -0.2834  0.5605
   99TMC2    C2 1538   4.326   0.928   1.322  0.1474  0.0122  0.3278
   99TMC2    C3 1539   4.357   0.877   1.452 -0.1178 -0.5652  0.0983
   99TMC2    C4 1540   4.090   0.897   1.381  0.3388 -0.1587 -0.6223
   99TMC2    C5 1541   4.127   0.870   1.507 -0.1131  0.1608 -0.1565
   99TMC2    C6 1542   4.261   0.857   1.550 -0.3158  0.1543 -1.0883
   99TMC2     C 1543   4.169   0.908   1.152  1.0604  0.1906  0.9607
   99TMC2     O 1544   4.238   0.976   1.071 -0.2658  0.1442  0.4241
   99TMC2     H 1545   4.404   0.947   1.249  1.3651  2.7603  2.3312
   99TMC2    H1 1546   3.988   0.923   1.358  0.9276  1.8823 -0.9771
   99TMC2    H2 1547   4.283   0.837   1.654  2.0120  0.7488 -1.4715
   99TMC2    C7 1548   4.023   0.855   1.605  1.2492 -0.6028 -0.0987
   99TMC2    C8 1549   4.495   0.853   1.484  0.1582 -0.1445 -0.5656
   99TMC2    O1 1550   4.045   0.905   1.715  0.3046 -1.2161  0.0141
   99TMC2    O2 1551   4.533   0.875   1.603 -0.0688 -0.7157 -0.2158
   99TMC2    O5 1552   4.554   0.780   1.386 -0.6558  0.4887  0.0174
   99TMC2    H5 1553   4.489   0.760   1.315  0.4213 -1.3300 -0.4526
  100MPD2     C 1554   4.099   0.813   0.889  0.0314  0.3165  0.1220
  100MPD2    C1 1555   4.062   0.743   1.002  0.6286  0.1690 -0.3187
  100MPD2    C2 1556   3.990   0.621   0.983  0.1377 -0.5417 -0.1890
  100MPD2    C3 1557   3.976   0.565   0.858  0.1113  0.7352  0.8248
  100MPD2    C4 1558   4.036   0.633   0.749 -0.5457  0.1304 -0.1258
  100MPD2    C5 1559   4.093   0.759   0.762 -0.2776  0.3465 -0.0825
  100MPD2     H 1560   3.940   0.580   1.070  1.7618  0.4622  1.2455
  100MPD2    H1 1561   4.014   0.601   0.648  0.1761 -0.3414 -0.1318
  100MPD2    H2 1562   4.134   0.915   0.886 -1.6345  0.8881 -0.1406
  100MPD2    H3 1563   4.133   0.812   0.676  0.0045 -0.3737 -0.3950
  100MPD2     N 1564   3.907   0.440   0.852  0.1795 -0.7166 -0.8864
  100MPD2    H5 1565   3.864   0.406   0.937  1.5080 -0.8989 -0.2836
  100MPD2    N1 1566   4.092   0.797   1.133  0.1998  0.0902 -0.0640
  100MPD2    H7 1567   4.050   0.738   1.205 -0.6290 -0.8824 -1.3517
  101TMC2    C1 1568   0.240   2.051  13.146 -0.1416  0.6069 -1.0264
  101TMC2    C2 1569   0.252   2.062  13.281 -0.0992 -0.1477 -0.1024
  101TMC2    C3 1570   0.350   2.152  13.328  0.4736  0.8287 -0.1826
  101TMC2    C4 1571   0.317   2.130  13.062 -0.3761  0.3366  0.3710
  101TMC2    C5 1572   0.422   2.199  13.112 -0.4674  0.5653 -0.1816
  101TMC2    C6 1573   0.449   2.206  13.248 -0.1817 -0.2742 -0.1124
  101TMC2     C 1574   0.162   1.940  13.098 -0.7843 -0.2339  0.6447
  101TMC2     O 1575   0.093   1.893  13.185  0.0207  0.1201  0.1002
  101TMC2     H 1576   0.194   2.002  13.350 -0.3125 -0.4524 -0.5472
  101TMC2    H1 1577   0.302   2.138  12.955  1.4808  2.5934  0.2849
  101TMC2    H2 1578   0.529   2.267  13.289  0.2534 -0.9134 -0.0061
  101TMC2    C7 1579   0.519   2.252  13.012 -0.4101  0.3961  0.8612
  101TMC2    C8 1580   0.375   2.148  13.471 -0.0990  0.6595  0.5760
  101TMC2    O1 1581   0.499   2.234  12.890 -0.2066  0.2046  0.2639
  101TMC2    O2 1582   0.475   2.085  13.506  0.4101  0.1457 -0.1520
  101TMC2    O5 1583   0.255   2.143  13.528 -0.2669 -0.3694  0.5117
  101TMC2    H5 1584   0.197   2.206  13.480  1.1239  1.6148  1.4970
  102MPD2     C 1585   0.083   1.840  12.757 -0.0168 -0.4568 -0.1435
  102MPD2    C1 1586   0.087   1.830  12.893 -0.1878 -0.6527 -0.1609
  102MPD2    C2 1587   0.021   1.726  12.956  0.2034 -0.0240 -0.7868
  102MPD2    C3 1588   4.690   1.632  12.891 -0.3954  0.7316 -0.2633
  102MPD2    C4 1589   4.681   1.643  12.751 -0.2422  0.3447  0.2523
  102MPD2    C5 1590   0.007   1.748  12.687 -0.7151  0.4509 -0.4146
  102MPD2     H 1591   0.031   1.710  13.063 -4.0302  0.6746 -0.3018
  102MPD2    H1 1592   4.628   1.572  12.689  0.1288 -1.3043  1.8105
  102MPD2    H2 1593   0.122   1.925  12.702 -0.4248 -0.5130 -0.5210
  102MPD2    H3 1594   0.004   1.749  12.579  1.4959  0.3319 -0.4770
  102MPD2     N 1595   4.621   1.533  12.975  0.3756  0.0732  0.2743
  102MPD2    H5 1596   4.622   1.539  13.076 -2.8804  2.3524  0.1729
  102MPD2    N1 1597   0.163   1.924  12.961 -0.3705 -0.3311 -0.4083
  102MPD2    H7 1598   0.240   1.965  12.908 -0.4199  0.5464  0.1887
  103TMC2    C1 1599   2.651   2.014  12.361  0.0095  0.2769  0.4723
  103TMC2    C2 1600   2.756   1.999  12.273 -0.8679  0.0683  0.4460
  103TMC2    C3 1601   2.880   2.048  12.314  0.4867  0.2827 -0.0731
  103TMC2    C4 1602   2.667   2.070  12.485  0.1365 -0.5898  0.4183
  103TMC2    C5 1603   2.787   2.130  12.512 -0.9075  0.8123  0.1879
  103TMC2    C6 1604   2.902   2.099  12.440 -0.9331  0.7609 -0.3739
  103TMC2     C 1605   2.537   1.929  12.329  0.2739  0.3980  0.0221
  103TMC2     O 1606   2.534   1.868  12.222 -0.2574  0.7708  0.3171
  103TMC2     H 1607   2.743   1.944  12.180 -0.0077  0.1359  0.2834
  103TMC2    H1 1608   2.576   2.090  12.541 -0.5266 -1.5262 -0.3128
  103TMC2    H2 1609   3.003   2.125  12.470 -0.6600  0.5809 -1.1249
  103TMC2    C7 1610   2.805   2.171  12.651 -0.6314  0.1982 -0.4535
  103TMC2    C8 1611   2.994   2.024  12.228 -0.3189 -0.4892 -0.2562
  103TMC2    O1 1612   2.703   2.176  12.721 -0.2515 -0.1414 -0.5492
  103TMC2    O2 1613   3.107   2.035  12.271  0.1944  0.2522  0.1565
  103TMC2    O5 1614   2.953   2.047  12.101  0.3156 -0.1737 -0.1062
  103TMC2    H5 1615   2.863   2.077  12.079  0.3763 -0.1706 -0.3495
  104MPD2     C 1616   2.260   1.816  12.542 -0.2748 -0.3568  0.2920
  104MPD2    C1 1617   2.331   1.846  12.429 -0.1206  0.3292 -0.3664
  104MPD2    C2 1618   2.264   1.834  12.306 -0.0242  0.1300  0.0221
  104MPD2    C3 1619   2.130   1.797  12.301  0.7850  0.6400 -0.4261
  104MPD2    C4 1620   2.058   1.760  12.414 -0.1344 -1.0990 -0.0577
  104MPD2    C5 1621   2.128   1.781  12.535 -0.0675 -0.1669  0.3456
  104MPD2     H 1622   2.310   1.848  12.209  3.0182 -2.2839  1.0876
  104MPD2    H1 1623   1.955   1.728  12.423 -0.3723 -0.8314 -1.7444
  104MPD2    H2 1624   2.301   1.824  12.642 -0.8664  0.1451  0.4896
  104MPD2    H3 1625   2.079   1.763  12.630  2.8907  0.5239  2.0144
  104MPD2     N 1626   2.075   1.784  12.173 -0.2892 -0.2934 -0.5353
  104MPD2    H5 1627   2.135   1.822  12.100 -2.0949  1.0311 -1.3217
  104MPD2    N1 1628   2.465   1.897  12.439 -0.3014  0.0833 -0.4383
  104MPD2    H7 1629   2.510   1.908  12.529  0.2067  0.0328 -0.6917
  105TMC2    C1 1630   3.598   1.227   0.022  0.3887 -0.1904 -0.3409
  105TMC2    C2 1631   3.586   1.349  17.720  0.5873  0.7411 -0.2417
  105TMC2    C3 1632   3.591   1.446   0.068  0.1602 -0.7000  0.3241
  105TMC2    C4 1633   3.594   1.197   0.155 -0.1764 -0.4442 -0.2479
  105TMC2    C5 1634   3.583   1.302   0.248 -0.3315  0.3095  0.0802
  105TMC2    C6 1635   3.584   1.433   0.205 -0.2887 -0.0575 -0.1376
  105TMC2     C 1636   3.612   1.114  17.683  0.0178  0.6507 -0.4998
  105TMC2     O 1637   3.607   1.007  17.739  0.2834 -0.2323 -0.0556
  105TMC2     H 1638   3.545   1.368  17.621 -2.1125 -0.4380  0.6407
  105TMC2    H1 1639   3.615   1.097   0.190 -0.2863  0.5556  2.6818
  105TMC2    H2 1640   3.604   1.519   0.268 -1.0450  0.0385 -0.0198
  105TMC2    C7 1641   3.610   1.270   0.391 -0.6890  0.1457  0.4810
  105TMC2    C8 1642   3.572   1.588   0.023 -0.2567  0.7519 -0.1482
  105TMC2    O1 1643   3.656   1.159   0.406  0.8090  0.0513  0.2235
  105TMC2    O2 1644   3.569   1.684   0.098  0.5778 -0.1072 -0.2054
  105TMC2    O5 1645   3.629   1.602  17.652 -0.1404 -0.0950  0.2751
  105TMC2    H5 1646   3.669   1.517  17.623 -0.8844  0.1720 -1.5078
  106MPD2     C 1647   3.906   0.887  17.337 -0.0316 -0.1802  0.6294
  106MPD2    C1 1648   3.919   1.023  17.330  0.0591  0.1615 -0.5860
  106MPD2    C2 1649   3.839   1.103  17.407 -0.7370 -0.4086 -0.1604
  106MPD2    C3 1650   3.746   1.053  17.489  0.1817  0.7913  0.0039
  106MPD2    C4 1651   3.741   0.919  17.494 -0.2733 -0.4767 -0.2149
  106MPD2    C5 1652   3.817   0.831  17.421  0.5339 -0.1538 -0.2412
  106MPD2     H 1653   3.859   1.210  17.412 -1.0348 -0.5334  3.7947
  106MPD2    H1 1654   3.676   0.872  17.568 -0.9751 -0.6657 -0.9507
  106MPD2    H2 1655   3.964   0.825  17.269 -0.2231  0.2540  0.0673
  106MPD2    H3 1656   3.804   0.724  17.426 -1.6846  0.0743 -1.1042
  106MPD2     N 1657   3.685   1.146  17.572 -0.4405  0.1742 -0.1379
  106MPD2    H5 1658   3.706   1.245  17.565 -1.3978  0.4362  0.7445
  106MPD2    N1 1659   4.019   1.079  17.250 -0.2922  0.8453 -0.0817
  106MPD2    H7 1660   4.017   1.180  17.263  3.5675  0.7392  1.4130
  107TMC2    C1 1661   4.489   0.876  11.385 -0.4613  0.6208 -0.2271
  107TMC2    C2 1662   4.381   0.856  11.308  0.1795 -0.2488 -0.4051
  107TMC2    C3 1663   4.361   0.937  11.197 -0.8777 -0.3461  0.2056
  107TMC2    C4 1664   4.584   0.965  11.349 -0.4123 -0.7090 -0.1941
  107TMC2    C5 1665   4.572   1.030  11.232 -0.3172 -0.0758  0.0866
  107TMC2    C6 1666   4.463   1.018  11.157  0.0437 -0.1334 -0.0803
  107TMC2     C 1667   4.490   0.803  11.512 -0.4280  0.1490 -0.6927
  107TMC2     O 1668   4.384   0.783  11.567 -0.0208  0.4686 -0.5651
  107TMC2     H 1669   4.303   0.792  11.346  0.3397 -0.4884 -0.4750
  107TMC2    H1 1670   4.665   0.994  11.413  0.5952 -1.0893 -1.2895
  107TMC2    H2 1671   4.456   1.078  11.067  2.0354 -1.1883 -0.9399
  107TMC2    C7 1672   4.686   1.097  11.170  0.0039 -0.0112 -0.5185
  107TMC2    C8 1673   4.223   0.965  11.149  0.0734  0.1334 -0.5571
  107TMC2    O1 1674   4.664   1.189  11.095  0.0978  0.1091 -0.0650
  107TMC2    O2 1675   4.195   1.057  11.077  0.4633  0.1043 -0.3642
  107TMC2    O5 1676   4.138   0.928  11.247  0.2363 -0.4104 -0.0992
  107TMC2    H5 1677   4.049   0.965  11.227  0.8396  1.8015  1.4040
  108MPD2     C 1678   0.054   0.635  11.639 -0.7212 -0.0330  0.0161
  108MPD2    C1 1679   4.665   0.687  11.648 -0.6534  0.2836  0.7784
  108MPD2    C2 1680   4.586   0.664  11.756 -0.3452 -0.0319  0.6929
  108MPD2    C3 1681   4.633   0.597  11.868  0.3169  0.6073 -0.2636
  108MPD2    C4 1682   0.022   0.540  11.857 -0.2243 -0.1227  0.2788
  108MPD2    C5 1683   0.102   0.562  11.746 -0.0053  0.5143 -0.5753
  108MPD2     H 1684   4.488   0.711  11.756  1.1014  3.0028 -0.4506
  108MPD2    H1 1685   0.074   0.491  11.939  0.3726 -0.5182 -0.3382
  108MPD2    H2 1686   0.114   0.651  11.550 -0.5202  4.2940  0.9220
  108MPD2    H3 1687   0.196   0.508  11.742 -0.2135  0.1961 -1.2209
  108MPD2     N 1688   4.553   0.584  11.990 -0.0549 -0.3409  0.3671
  108MPD2    H5 1689   4.596   0.530  12.064 -0.4800  0.2255  1.0208
  108MPD2    N1 1690   4.615   0.762  11.538  0.1151 -0.3095 -0.3241
  108MPD2    H7 1691   4.688   0.774  11.469 -1.4479  0.9068 -1.7406
  109TMC2    C1 1692   4.332   3.323   0.855  0.1203 -0.5591 -0.2648
  109TMC2    C2 1693   4.240   3.224   0.821 -0.3371 -0.5431  0.5953
  109TMC2    C3 1694   4.292   3.143   0.727  0.4455 -0.4440  0.1609
  109TMC2    C4 1695   4.462   3.335   0.821  0.6087  0.0835 -0.3937
  109TMC2    C5 1696   4.513   3.234   0.736 -0.8877  0.5015 -0.2720
  109TMC2    C6 1697   4.427   3.138   0.691  0.1376  1.1251 -0.6033
  109TMC2     C 1698   4.275   3.427   0.941  0.0757  0.0864  0.0347
  109TMC2     O 1699   4.154   3.415   0.955 -0.0648 -0.2489 -0.0524
  109TMC2     H 1700   4.135   3.224   0.848 -0.7605 -2.0423 -1.0654
  109TMC2    H1 1701   4.511   3.428   0.846  1.5750 -0.7344  0.7554
  109TMC2    H2 1702   4.456   3.044   0.646 -1.5789  0.0496  0.5092
  109TMC2    C7 1703   4.660   3.218   0.729 -0.6294 -0.1050  0.2153
  109TMC2    C8 1704   4.205   3.059   0.647 -0.6354  0.5126 -0.3107
  109TMC2    O1 1705   4.704   3.125   0.662 -0.0228 -0.5675  0.4886
  109TMC2    O2 1706   4.100   3.008   0.677  0.1433 -0.7389 -0.1658
  109TMC2    O5 1707   4.243   3.076   0.520  0.7819 -0.6451  0.0335
  109TMC2    H5 1708   4.308   3.148   0.511 -0.1276  0.0726 -0.7426
  110MPD2     C 1709   4.333   3.826   1.257  0.5249  0.0944  0.4283
  110MPD2    C1 1710   4.450   3.795   1.203 -0.1293 -0.0837 -0.4265
  110MPD2    C2 1711   4.460   3.687   1.121  0.3570  0.1353  0.8797
  110MPD2    C3 1712   4.346   3.611   1.093  0.4332  0.6664 -0.2037
  110MPD2    C4 1713   4.221   3.659   1.130  0.1274 -0.0889  0.2959
  110MPD2    C5 1714   4.219   3.758   1.222  0.5832  0.3873  0.0275
  110MPD2     H 1715   4.561   3.651   1.103  0.6393  0.8645  1.0234
  110MPD2    H1 1716   4.131   3.619   1.084  0.4443 -3.4063  2.6314
  110MPD2    H2 1717   4.335   3.907   1.329  0.1770 -0.8699  1.5208
  110MPD2    H3 1718   4.124   3.789   1.262  0.0922  1.5513 -2.0221
  110MPD2     N 1719   4.365   3.493   1.021  0.7571 -0.2072  0.9177
  110MPD2    H5 1720   4.463   3.468   1.014  1.0174  1.0167  0.1275
  110MPD2    N1 1721   4.570   3.857   1.253  0.3557 -0.5683  0.4510
  110MPD2    H7 1722   4.565   3.902   1.344  1.7529 -1.2321  0.8515
  111TMC2    C1 1723   4.694   2.688  11.660  0.7739  0.0325 -0.0158
  111TMC2    C2 1724   4.621   2.755  11.761  0.4577  0.4383 -0.1308
  111TMC2    C3 1725   4.696   2.785  11.873 -0.2715  0.0326 -0.0804
  111TMC2    C4 1726   0.087   2.660  11.672  0.1518 -0.0104  0.3920
  111TMC2    C5 1727   0.156   2.700  11.781  0.0343  0.1917 -0.0656
  111TMC2    C6 1728   0.091   2.761  11.887 -0.0010 -0.1455  0.0038
  111TMC2     C 1729   4.623   2.676  11.536 -0.0390  0.2550 -0.2372
  111TMC2     O 1730   4.691   2.685  11.433  0.4860 -0.1336 -0.0232
  111TMC2     H 1731   4.520   2.791  11.750  0.0528 -1.4570 -2.6105
  111TMC2    H1 1732   0.143   2.619  11.588 -0.7822  0.8393 -0.6522
  111TMC2    H2 1733   0.139   2.796  11.977  1.9020 -2.7832  0.0248
  111TMC2    C7 1734   0.287   2.645  11.808  0.8539  0.3126  0.4818
  111TMC2    C8 1735   4.628   2.835  11.992 -0.3208  0.0307 -0.0597
  111TMC2    O1 1736   0.298   2.617  11.927 -0.4697 -0.1891  0.4546
  111TMC2    O2 1737   4.686   2.897  12.078 -0.1936 -0.3693  0.3909
  111TMC2    O5 1738   4.522   2.754  12.020  0.1703  0.4237  0.0124
  111TMC2    H5 1739   4.484   2.697  11.950  0.7336  0.2528 -0.1556
  112MPD2     C 1740   4.193   2.797  11.282 -0.8359 -0.5857  0.1672
  112MPD2    C1 1741   4.320   2.770  11.234 -0.0943 -0.2295  0.1779
  112MPD2    C2 1742   4.421   2.733  11.317 -0.2376 -0.1405  0.0203
  112MPD2    C3 1743   4.388   2.714  11.453 -0.0390 -0.3272  0.0683
  112MPD2    C4 1744   4.261   2.737  11.496  0.3195 -0.2289  0.7209
  112MPD2    C5 1745   4.163   2.779  11.415  0.2297  0.1159  0.3883
  112MPD2     H 1746   4.520   2.716  11.275 -0.8212 -0.9654 -1.0358
  112MPD2    H1 1747   4.239   2.719  11.601  1.0196  1.8862  1.2255
  112MPD2    H2 1748   4.111   2.833  11.221 -0.4170 -1.0713 -0.6828
  112MPD2    H3 1749   4.066   2.798  11.459 -1.1638  0.2668 -2.7803
  112MPD2     N 1750   4.485   2.679  11.552  0.5620  0.0606 -0.1099
  112MPD2    H5 1751   4.446   2.665  11.645 -1.3233 -2.7184 -1.3119
  112MPD2    N1 1752   4.337   2.784  11.093 -0.3896 -0.1368  0.7986
  112MPD2    H7 1753   4.254   2.807  11.040  1.3661  0.8115 -1.5470
  113TMC2    C1 1754   2.909   0.929   0.555  0.1323  1.2082 -0.2951
  113TMC2    C2 1755   2.881   1.044   0.491 -0.1345 -0.1483 -0.0654
  113TMC2    C3 1756   2.783   1.039   0.398  0.6613  0.5378 -0.2304
  113TMC2    C4 1757   2.835   0.816   0.537 -0.2902  0.6821  0.4836
  113TMC2    C5 1758   2.740   0.813   0.436  0.3232  0.4267  0.1092
  113TMC2    C6 1759   2.709   0.928   0.373 -0.2072  0.1486 -0.1421
  113TMC2     C 1760   2.993   0.942   0.671  0.1794 -0.3564 -0.1953
  113TMC2     O 1761   2.987   1.047   0.737 -0.2720 -0.2169  0.1651
  113TMC2     H 1762   2.941   1.134   0.503 -0.1650 -0.1482  0.0798
  113TMC2    H1 1763   2.870   0.729   0.592  3.1143  1.3646 -0.5634
  113TMC2    H2 1764   2.626   0.926   0.303  0.4738  1.0123 -0.9620
  113TMC2    C7 1765   2.636   0.713   0.435  0.0757 -0.2321  0.0615
  113TMC2    C8 1766   2.776   1.134   0.298  0.0478  0.0438  0.0671
  113TMC2    O1 1767   2.564   0.721   0.339  0.0350  0.1244 -0.0062
  113TMC2    O2 1768   2.742   1.112   0.183  0.2139  0.5107 -0.2642
  113TMC2    O5 1769   2.816   1.251   0.348 -0.4761  0.0198 -0.1176
  113TMC2    H5 1770   2.807   1.253   0.446 -0.0901 -0.0414 -0.0791
  114MPD2     C 1771   3.283   0.735   1.032 -0.7585 -0.2255 -0.2210
  114MPD2    C1 1772   3.226   0.860   1.032 -0.2394 -0.3121 -0.4060
  114MPD2    C2 1773   3.142   0.884   0.920  0.2714 -0.0697  0.1090
  114MPD2    C3 1774   3.126   0.798   0.816 -0.5976  0.4861  0.0987
  114MPD2    C4 1775   3.188   0.671   0.822 -0.5355 -0.3102  0.0691
  114MPD2    C5 1776   3.258   0.642   0.932  0.4218  0.0919 -0.7515
  114MPD2     H 1777   3.106   0.987   0.917  0.7146  0.0801  0.0000
  114MPD2    H1 1778   3.173   0.590   0.751 -2.2148  0.7514 -0.8017
  114MPD2    H2 1779   3.344   0.695   1.112 -0.5447 -0.6019 -0.5717
  114MPD2    H3 1780   3.295   0.541   0.944 -0.4198  0.0830  1.8747
  114MPD2     N 1781   3.054   0.824   0.701 -0.0000  0.0670  0.2588
  114MPD2    H5 1782   3.064   0.760   0.623  1.0934  0.3843  0.1306
  114MPD2    N1 1783   3.258   0.955   1.129  0.3390  0.7553  0.4261
  114MPD2    H7 1784   3.209   1.044   1.133 -0.0093  0.6573 -2.0771
  115TMC2    C1 1785   3.434   3.524  17.282  0.9774  0.1249  0.3456
  115TMC2    C2 1786   3.489   3.484  17.158  0.4657  0.6020 -0.1285
  115TMC2    C3 1787   3.542   3.580  17.079  0.1483 -0.0356 -0.3792
  115TMC2    C4 1788   3.454   3.645  17.330  0.8418  0.2115 -0.3333
  115TMC2    C5 1789   3.527   3.733  17.262  0.3280 -0.1353  0.2731
  115TMC2    C6 1790   3.565   3.704  17.134 -0.5838  0.1578 -0.0253
  115TMC2     C 1791   3.346   3.429  17.356  0.3459 -0.3895  0.2888
  115TMC2     O 1792   3.313   3.467  17.468  0.0081  0.3407 -0.6023
  115TMC2     H 1793   3.496   3.381  17.124 -0.2173  0.6160 -0.3085
  115TMC2    H1 1794   3.408   3.678  17.423 -3.1129 -1.8281 -1.5657
  115TMC2    H2 1795   3.600   3.778  17.063 -4.3884  1.6975 -0.3065
  115TMC2    C7 1796   3.532   3.866  17.314 -0.1665  0.2106  0.3005
  115TMC2    C8 1797   3.616   3.533  16.961 -0.1012 -0.8197  0.0921
  115TMC2    O1 1798   3.449   3.901  17.396 -0.5521  0.6909  0.0568
  115TMC2    O2 1799   3.723   3.580  16.923 -0.4324 -0.6014  0.1994
  115TMC2    O5 1800   3.529   3.451  16.888 -0.0597 -0.2930 -0.1330
  115TMC2    H5 1801   3.448   3.431  16.940  0.7765 -2.2960  0.3747
  116MPD2     C 1802   3.100   2.966  17.401  1.1921  0.2014  0.1731
  116MPD2    C1 1803   3.166   2.978  17.281  0.2291  0.4197  0.7555
  116MPD2    C2 1804   3.249   3.089  17.256 -0.4817  0.4003 -0.2596
  116MPD2    C3 1805   3.241   3.206  17.329 -0.5846 -0.4759 -0.3991
  116MPD2    C4 1806   3.173   3.197  17.449 -0.8544 -0.8930  0.4588
  116MPD2    C5 1807   3.108   3.074  17.486  0.1264 -0.6824  0.1451
  116MPD2     H 1808   3.309   3.086  17.167 -1.4544 -1.3206 -0.8552
  116MPD2    H1 1809   3.170   3.282  17.516  2.7523 -1.3003  1.1344
  116MPD2    H2 1810   3.060   2.869  17.428  0.2412  1.6072  3.7523
  116MPD2    H3 1811   3.053   3.068  17.579  1.9666  0.5396  1.3008
  116MPD2     N 1812   3.316   3.315  17.284 -0.6645  0.5207  0.4090
  116MPD2    H5 1813   3.363   3.302  17.194  0.2812 -2.2050  1.3095
  116MPD2    N1 1814   3.169   2.881  17.183  0.3438 -0.7142  0.0592
  116MPD2    H7 1815   3.216   2.914  17.100  0.3836 -1.3273 -0.1593
  117TMC2    C1 1816   2.671   4.352  14.468  0.0326 -0.3693  0.5844
  117TMC2    C2 1817   2.776   4.287  14.405 -0.3299  0.5617 -0.2039
  117TMC2    C3 1818   2.883   4.366  14.365  0.2687  0.6293 -0.5844
  117TMC2    C4 1819   2.674   4.483  14.497 -0.7696 -0.0429  0.4018
  117TMC2    C5 1820   2.781   4.555  14.462 -0.0519 -0.3119  0.5680
  117TMC2    C6 1821   2.890   4.496  14.400  0.4979  0.4200 -0.1818
  117TMC2     C 1822   2.546   4.294  14.439  0.1083 -1.1400  0.1644
  117TMC2     O 1823   2.542   4.171  14.438  0.4162  0.6073  0.1031
  117TMC2     H 1824   2.786   4.181  14.385  1.4229  1.3301 -3.3255
  117TMC2    H1 1825   2.587   4.539  14.531  1.0700  1.8355  2.0199
  117TMC2    H2 1826   2.980   4.554  14.383  0.0562  1.8777  2.4076
  117TMC2    C7 1827   2.765   4.699  14.475  0.5317  0.0361  0.1870
  117TMC2    C8 1828   2.989   4.305  14.300  0.7361  0.1478 -0.1196
  117TMC2    O1 1829   2.689   4.732  14.561 -0.2030 -0.0928 -0.6644
  117TMC2    O2 1830   3.103   4.354  14.305  0.2308 -0.3161 -0.2250
  117TMC2    O5 1831   2.940   4.208  14.219  0.2812  0.3410  0.6630
  117TMC2    H5 1832   2.847   4.181  14.230  0.1911  0.8479  1.1477
  118MPD2     C 1833   2.716   0.248  14.433  0.2733 -0.0468 -0.2843
  118MPD2    C1 1834   2.790   0.170  14.346 -0.2565 -0.0997 -0.4135
  118MPD2    C2 1835   2.849   0.230  14.233  0.0882 -0.2692 -0.6073
  118MPD2    C3 1836   2.831   0.366  14.212 -0.8901  0.1760 -0.6025
  118MPD2    C4 1837   2.746   0.441  14.295  0.5107  0.4605 -0.4398
  118MPD2    C5 1838   2.700   0.381  14.405  0.1568  0.0292 -0.6437
  118MPD2     H 1839   2.906   0.163  14.170 -2.4678 -0.0419 -3.1654
  118MPD2    H1 1840   2.726   0.545  14.273  0.3547  1.0627  2.5037
  118MPD2    H2 1841   2.676   0.204  14.524 -0.3182  0.3529 -0.3520
  118MPD2    H3 1842   2.653   0.442  14.482 -0.2472  0.5729 -1.3271
  118MPD2     N 1843   2.890   0.435  14.099  0.2769 -0.0182 -0.1449
  118MPD2    H5 1844   2.863   0.531  14.086 -0.6001 -0.3623 -0.7979
  118MPD2    N1 1845   2.820   0.031  14.368 -0.0827  0.1658 -0.3498
  118MPD2    H7 1846   2.891   4.729  14.308  0.6535  0.3689  0.3854
  119TMC2    C1 1847   0.416   1.448  13.080  0.0117  0.4042  0.3221
  119TMC2    C2 1848   0.395   1.548  12.992  0.0961  0.4943 -0.2332
  119TMC2    C3 1849   0.309   1.529  12.887 -0.1323 -0.4435 -0.3493
  119TMC2    C4 1850   0.342   1.337  13.077  0.6842  0.1615 -0.3896
  119TMC2    C5 1851   0.237   1.322  12.995  0.3812  0.2564  0.3012
  119TMC2    C6 1852   0.230   1.413  12.887 -0.4450  0.0551  0.3141
  119TMC2     C 1853   0.537   1.442  13.162 -0.4191  0.3528  0.3968
  119TMC2     O 1854   0.528   1.365  13.261 -0.2717  0.1007 -0.6276
  119TMC2     H 1855   0.443   1.645  12.984  0.4030  0.3370 -0.2932
  119TMC2    H1 1856   0.374   1.265  13.152 -0.7474  0.3067  0.3768
  119TMC2    H2 1857   0.155   1.410  12.808 -0.2102 -1.1181  0.1321
  119TMC2    C7 1858   0.143   1.211  13.006 -0.3192  0.3853 -0.3810
  119TMC2    C8 1859   0.316   1.618  12.774 -0.3722 -1.2812  0.0371
  119TMC2    O1 1860   0.076   1.181  12.909  0.4798  0.3330  0.2604
  119TMC2    O2 1861   0.361   1.728  12.776 -0.7548  0.3021 -0.8097
  119TMC2    O5 1862   0.330   1.533  12.669 -0.4227  0.3421  0.0255
  119TMC2    H5 1863   0.321   1.440  12.699  1.3256  0.1384 -0.1247
  120MPD2     C 1864   0.942   1.652  13.419  0.4934  0.2675 -0.3223
  120MPD2    C1 1865   0.829   1.589  13.465  0.0642 -0.1503  0.0131
  120MPD2    C2 1866   0.730   1.541  13.371  0.3165 -0.4769  0.1940
  120MPD2    C3 1867   0.747   1.559  13.235 -0.0850  0.4406  0.0790
  120MPD2    C4 1868   0.858   1.634  13.195  0.2570 -0.3364  0.6226
  120MPD2    C5 1869   0.957   1.669  13.281 -0.2009 -0.5052 -0.1781
  120MPD2     H 1870   0.634   1.502  13.402  0.1506 -0.3892 -0.2128
  120MPD2    H1 1871   0.861   1.662  13.090  1.4860  0.8482  0.9796
  120MPD2    H2 1872   1.017   1.679  13.492 -0.8646 -0.6928  1.4247
  120MPD2    H3 1873   1.050   1.715  13.250  0.1475 -0.5686  0.7945
  120MPD2     N 1874   0.649   1.520  13.136  0.9619  0.5973 -0.2718
  120MPD2    H5 1875   0.666   1.566  13.047  0.8710  2.6717  0.7950
  120MPD2    N1 1876   0.822   1.552  13.599 -0.0935 -0.8319  0.3658
  120MPD2    H7 1877   0.897   1.579  13.663  0.8307 -0.6796 -0.7887
  121TMC2    C1 1878   2.510   3.024  14.125 -0.2794  0.6650 -0.0888
  121TMC2    C2 1879   2.492   3.161  14.111 -0.4751  0.4342  0.3995
  121TMC2    C3 1880   2.372   3.208  14.145 -0.6973  0.0224 -0.1775
  121TMC2    C4 1881   2.409   2.942  14.173 -0.1179 -0.2016  0.2572
  121TMC2    C5 1882   2.294   3.005  14.206  0.1470  0.4426  0.3768
  121TMC2    C6 1883   2.262   3.135  14.176 -0.7783  0.4169 -0.0998
  121TMC2     C 1884   2.640   2.982  14.083 -0.4733  0.8111 -1.1102
  121TMC2     O 1885   2.691   2.891  14.148  0.1187 -0.5743 -0.1630
  121TMC2     H 1886   2.566   3.229  14.069  0.2384 -0.3315  0.4260
  121TMC2    H1 1887   2.416   2.834  14.179 -0.6737 -0.0770  3.0101
  121TMC2    H2 1888   2.174   3.183  14.216 -1.7626 -0.7768 -0.8406
  121TMC2    C7 1889   2.188   2.933  14.280 -0.3481 -0.1282 -0.3261
  121TMC2    C8 1890   2.354   3.346  14.174 -0.1269 -0.1470 -0.3904
  121TMC2    O1 1891   2.239   2.853  14.360  0.0644  0.1705 -0.1528
  121TMC2    O2 1892   2.251   3.395  14.211  0.1234 -0.7930 -0.1806
  121TMC2    O5 1893   2.472   3.402  14.199 -0.4580  0.3489  0.1089
  121TMC2    H5 1894   2.550   3.343  14.186  0.1024  0.5892  2.3568
  122MPD2     C 1895   2.905   2.944  13.962  0.3743 -0.1066 -0.3833
  122MPD2    C1 1896   2.823   3.042  13.920  0.2266  0.2979 -0.2104
  122MPD2    C2 1897   2.865   3.126  13.823  0.4796 -0.1429  0.3310
  122MPD2    C3 1898   2.987   3.108  13.766 -0.0051 -0.0136  0.3007
  122MPD2    C4 1899   3.066   2.998  13.809 -0.1224  0.8736  0.0302
  122MPD2    C5 1900   3.030   2.931  13.920  0.1821 -0.6667  0.1400
  122MPD2     H 1901   2.799   3.203  13.784 -0.4038 -0.2920  1.5299
  122MPD2    H1 1902   3.169   2.991  13.778 -0.7914  0.8022 -2.1942
  122MPD2    H2 1903   2.880   2.876  14.043  0.9191 -2.0876 -1.8836
  122MPD2    H3 1904   3.103   2.863  13.963 -0.2225 -0.1465  1.6533
  122MPD2     N 1905   3.026   3.174  13.647 -0.7895  0.3423  0.3901
  122MPD2    H5 1906   3.102   3.134  13.593 -1.0123 -0.0846  0.3964
  122MPD2    N1 1907   2.692   3.058  13.970  0.4675 -0.1039 -0.0908
  122MPD2    H7 1908   2.638   3.136  13.935 -1.9841 -2.2827 -1.1776
  123TMC2    C1 1909   0.913   2.053   9.889 -0.0581  0.7463  0.1946
  123TMC2    C2 1910   0.935   2.186   9.870  0.4636 -0.4395 -0.2666
  123TMC2    C3 1911   1.044   2.225   9.798 -0.3035  0.2610  0.6943
  123TMC2    C4 1912   0.991   1.953   9.836 -0.1231 -0.5572  0.4485
  123TMC2    C5 1913   1.099   1.993   9.773  0.0344  0.5256 -0.3061
  123TMC2    C6 1914   1.131   2.125   9.748 -0.0269  0.8255 -0.3054
  123TMC2     C 1915   0.801   2.015   9.974  0.0880 -0.7617 -0.2336
  123TMC2     O 1916   0.729   2.104  10.009 -0.4109 -0.6392 -0.4298
  123TMC2     H 1917   0.867   2.260   9.911 -1.1697 -0.3216 -3.1643
  123TMC2    H1 1918   0.984   1.848   9.859 -1.9209  0.0063  2.5005
  123TMC2    H2 1919   1.205   2.150   9.672  0.6565  1.8355  0.6896
  123TMC2    C7 1920   1.190   1.889   9.720 -0.1521  0.7350 -0.3123
  123TMC2    C8 1921   1.057   2.370   9.782  0.0915 -0.4730 -0.6076
  123TMC2    O1 1922   1.115   1.797   9.690 -0.2510  0.1465  0.4006
  123TMC2    O2 1923   1.047   2.464   9.859  1.1392 -0.0504 -0.5145
  123TMC2    O5 1924   1.096   2.381   9.656 -0.1593  0.7154 -0.1169
  123TMC2    H5 1925   1.075   2.301   9.603 -0.5005  0.5295  0.2952
  124MPD2     C 1926   0.562   1.636  10.249 -0.2837 -0.0093 -1.0126
  124MPD2    C1 1927   0.656   1.586  10.160 -0.1602  0.5001  0.5796
  124MPD2    C2 1928   0.735   1.672  10.087  0.3829 -0.1167 -0.6968
  124MPD2    C3 1929   0.713   1.807  10.082 -0.2702 -0.3015  0.1185
  124MPD2    C4 1930   0.608   1.858  10.155 -0.2627 -0.8648  0.7035
  124MPD2    C5 1931   0.543   1.774  10.243 -0.1908  0.2128  0.2472
  124MPD2     H 1932   0.813   1.620  10.033  0.1559 -0.9529 -0.2060
  124MPD2    H1 1933   0.581   1.962  10.166 -0.0405 -0.6483 -0.9070
  124MPD2    H2 1934   0.484   1.577  10.296 -1.2412  1.8599 -0.2655
  124MPD2    H3 1935   0.455   1.820  10.288 -0.7920 -1.6515  0.9634
  124MPD2     N 1936   0.803   1.883  10.005 -0.1840 -0.4451 -0.1713
  124MPD2    H5 1937   0.867   1.823   9.953  1.1288  0.5825  0.2727
  124MPD2    N1 1938   0.681   1.448  10.144 -0.3587  0.3523  0.3417
  124MPD2    H7 1939   0.753   1.421  10.077 -0.7634 -3.2951  1.4242
  125TMC2    C1 1940   1.515   2.139   9.358  0.7117 -0.5690  0.0649
  125TMC2    C2 1941   1.506   2.130   9.496 -0.7809  0.3569 -0.6155
  125TMC2    C3 1942   1.458   2.238   9.552  0.0848  0.1114 -0.4165
  125TMC2    C4 1943   1.477   2.250   9.284 -0.2957 -0.5928  0.1889
  125TMC2    C5 1944   1.444   2.357   9.354  0.2522  0.2259  0.3086
  125TMC2    C6 1945   1.422   2.354   9.489  1.6305 -0.5214  0.0542
  125TMC2     C 1946   1.597   2.045   9.298 -0.0522  0.4204 -0.1284
  125TMC2     O 1947   1.666   2.071   9.202 -0.1449  0.7328 -0.3206
  125TMC2     H 1948   1.533   2.045   9.559 -3.7148  1.3231  1.9729
  125TMC2    H1 1949   1.490   2.255   9.176  1.1296  0.7922  0.4225
  125TMC2    H2 1950   1.388   2.440   9.545  2.2136  1.8615 -3.3037
  125TMC2    C7 1951   1.412   2.484   9.292  0.2382 -0.1678  0.0383
  125TMC2    C8 1952   1.468   2.242   9.699  0.1460 -0.1934 -0.3992
  125TMC2    O1 1953   1.354   2.569   9.366 -0.6589 -0.2070 -0.1321
  125TMC2    O2 1954   1.446   2.154   9.778  0.2292 -0.2595 -0.2203
  125TMC2    O5 1955   1.502   2.367   9.729 -0.6862  0.7767  0.1241
  125TMC2    H5 1956   1.560   2.409   9.662  1.9474  0.4844  2.2454
  126MPD1     C 1957   1.868   1.607   9.315 -0.3066 -0.1473 -0.0066
  126MPD1    C1 1958   1.756   1.590   9.396 -0.3853  0.2914  0.1758
  126MPD1    C2 1959   1.666   1.700   9.395  0.0203 -0.5633 -0.2211
  126MPD1    C3 1960   1.691   1.824   9.332  0.2099 -0.1657 -0.8642
  126MPD1    C4 1961   1.804   1.830   9.252 -0.0474  0.7880  0.2986
  126MPD1    C5 1962   1.888   1.724   9.250 -0.7066 -0.2010  0.5054
  126MPD1     H 1963   1.570   1.687   9.443 -0.1607  0.1766 -0.3856
  126MPD1    H1 1964   1.828   1.924   9.204  2.9532  0.4001  1.0363
  126MPD1    H2 1965   1.942   1.529   9.306  0.0949 -0.4569  5.6399
  126MPD1    H3 1966   1.973   1.732   9.183 -1.9966 -0.9858 -1.2358
  126MPD1     N 1967   1.593   1.925   9.356 -0.2637  0.2134  0.2921
  126MPD1    H5 1968   1.512   1.905   9.414  0.6454 -1.4306  1.0086
  126MPD1    N1 1969   1.717   1.458   9.449 -0.6668  0.0772 -0.7478
  126MPD1    H6 1970   1.798   1.410   9.487  0.4758  2.1648 -0.5266
  126MPD1    H7 1971   1.642   1.465   9.517 -0.2123  1.2151 -0.3685
  127TMC2    C1 1972   2.227   2.055   9.922 -0.8599  0.3304 -0.3921
  127TMC2    C2 1973   2.350   1.990   9.951  0.4719  0.7867  0.6851
  127TMC2    C3 1974   2.327   1.869  10.004  0.0718 -0.8814  0.7538
  127TMC2    C4 1975   2.100   2.004   9.938  0.2855  0.7011 -0.0882
  127TMC2    C5 1976   2.090   1.877   9.977  0.4295 -0.0612 -0.2705
  127TMC2    C6 1977   2.204   1.814  10.021  0.8023 -0.3634  0.4400
  127TMC2     C 1978   2.250   2.173   9.841 -0.4999 -1.1241  0.6078
  127TMC2     O 1979   2.367   2.192   9.814 -0.0579  0.2262  0.2894
  127TMC2     H 1980   2.447   2.035   9.934  0.5672 -0.4707 -2.0449
  127TMC2    H1 1981   2.015   2.071   9.934  0.8271  1.2597 -2.1128
  127TMC2    H2 1982   2.205   1.707  10.041 -2.6649 -0.5657 -0.4315
  127TMC2    C7 1983   1.963   1.827  10.016  0.4262 -0.5444  0.2152
  127TMC2    C8 1984   2.447   1.782  10.008 -0.1052 -0.5201  0.0355
  127TMC2    O1 1985   1.866   1.899  10.012 -0.0638  0.1440  0.0875
  127TMC2    O2 1986   2.550   1.819   9.949 -0.2588 -0.0450 -0.2691
  127TMC2    O5 1987   2.441   1.695  10.111  0.3742 -0.2771  0.0750
  127TMC2    H5 1988   2.350   1.666  10.133 -0.0842  0.7329 -0.4861
  128MPD2     C 1989   2.041   2.453   9.706  0.4206  1.3201  0.0493
  128MPD2    C1 1990   2.145   2.360   9.710 -0.3495 -0.0974  0.0715
  128MPD2    C2 1991   2.252   2.373   9.619  0.3391  0.1036  0.1332
  128MPD2    C3 1992   2.250   2.479   9.526  0.0416 -0.8562 -0.2172
  128MPD2    C4 1993   2.155   2.581   9.538 -0.6977 -0.0130  0.4804
  128MPD2    C5 1994   2.049   2.562   9.622  1.2043  0.4545 -0.0932
  128MPD2     H 1995   2.334   2.303   9.612  0.4115  0.4593 -2.4592
  128MPD2    H1 1996   2.165   2.672   9.480 -0.1263  0.0375  0.6574
  128MPD2    H2 1997   1.954   2.438   9.770  0.6038 -2.8131 -0.7156
  128MPD2    H3 1998   1.975   2.642   9.619  0.6817  0.0019  0.7675
  128MPD2     N 1999   2.350   2.489   9.429 -0.3105  0.2968 -0.2597
  128MPD2    H5 2000   2.435   2.437   9.447 -0.2786  0.4610  0.0675
  128MPD2    N1 2001   2.140   2.246   9.797 -0.1347 -0.0078  0.0770
  128MPD2    H7 2002   2.049   2.219   9.832  0.2247 -0.0917  0.9438
  129TMC2    C1 2003   0.967   2.604   1.043 -0.8721 -0.1735 -0.4782
  129TMC2    C2 2004   1.080   2.642   1.120  0.3386 -0.3181 -0.1499
  129TMC2    C3 2005   1.177   2.542   1.149  0.0904 -0.3901 -0.1956
  129TMC2    C4 2006   0.949   2.477   1.003 -0.1792 -0.0530  0.6339
  129TMC2    C5 2007   1.050   2.387   1.021  0.1663 -0.3167  0.4177
  129TMC2    C6 2008   1.165   2.416   1.097 -0.3019  0.1154 -0.4011
  129TMC2     C 2009   0.849   2.683   1.057 -0.1459  0.0018 -0.2627
  129TMC2     O 2010   0.743   2.633   1.019 -0.3530  0.2943 -0.2133
  129TMC2     H 2011   1.102   2.747   1.137  1.0194 -1.2119  4.3674
  129TMC2    H1 2012   0.863   2.450   0.943  0.6276  2.1025 -1.4936
  129TMC2    H2 2013   1.237   2.345   1.138 -0.7005  0.1467  0.3513
  129TMC2    C7 2014   1.018   2.249   0.983 -0.7751 -0.2766 -0.4304
  129TMC2    C8 2015   1.305   2.587   1.199 -0.0831 -0.1985  0.3842
  129TMC2    O1 2016   0.904   2.217   0.977  0.5191  0.3623 -0.1421
  129TMC2    O2 2017   1.325   2.670   1.280 -0.2227  0.3736  0.7940
  129TMC2    O5 2018   1.396   2.531   1.114  0.0337 -0.2955  0.3369
  129TMC2    H5 2019   1.368   2.459   1.053 -3.3319 -1.5479  3.3071
  130MPD2     C 2020   0.625   2.874   1.116  0.3923 -0.3447 -0.3905
  130MPD2    C1 2021   0.761   2.905   1.136  0.0104 -0.2083  0.3102
  130MPD2    C2 2022   0.803   3.028   1.187  1.2532 -0.3963  0.3998
  130MPD2    C3 2023   0.711   3.122   1.232 -0.0577 -0.4329  0.1809
  130MPD2    C4 2024   0.574   3.095   1.208 -0.2657 -0.3450 -0.6313
  130MPD2    C5 2025   0.532   2.972   1.155 -0.3341  0.7613 -0.1720
  130MPD2     H 2026   0.910   3.043   1.194  1.0130  1.0548  0.9723
  130MPD2    H1 2027   0.499   3.169   1.231  0.2794  0.1791 -0.5300
  130MPD2    H2 2028   0.584   2.782   1.079  0.8176 -0.1205 -1.4141
  130MPD2    H3 2029   0.426   2.949   1.159 -0.1542 -0.0777 -0.1303
  130MPD2     N 2030   0.754   3.254   1.280 -0.7301 -0.4550 -0.7310
  130MPD2    H5 2031   0.854   3.268   1.287 -0.8336 -0.2627  0.2975
  130MPD2    N1 2032   0.864   2.813   1.107 -0.1098  0.2550  0.6494
  130MPD2    H7 2033   0.954   2.850   1.134  1.1529 -1.6646 -0.9114
  131TMC2    C1 2034   0.988   1.620   9.392 -0.5631 -0.2547 -0.5740
  131TMC2    C2 2035   1.110   1.675   9.399  0.5078 -0.2177  0.1815
  131TMC2    C3 2036   1.129   1.802   9.358  0.1007 -0.1002  0.4244
  131TMC2    C4 2037   0.880   1.696   9.356 -0.5594 -0.0294  0.8604
  131TMC2    C5 2038   0.899   1.818   9.311 -0.6139  0.3019 -0.0088
  131TMC2    C6 2039   1.022   1.876   9.318  0.6824 -0.2070  0.1201
  131TMC2     C 2040   0.954   1.508   9.479 -0.3464  0.1603 -0.0415
  131TMC2     O 2041   0.871   1.540   9.565 -0.6384 -0.5030 -0.0826
  131TMC2     H 2042   1.191   1.616   9.440 -0.9009 -0.3348  2.8800
  131TMC2    H1 2043   0.782   1.655   9.379 -1.3232  1.8977  1.0060
  131TMC2    H2 2044   1.037   1.976   9.280  0.4622 -0.3355 -0.3009
  131TMC2    C7 2045   0.780   1.903   9.326  0.7014 -1.2433  0.4133
  131TMC2    C8 2046   1.254   1.876   9.401 -0.0165  0.1700  0.6185
  131TMC2    O1 2047   0.673   1.845   9.310 -1.1108  0.6337  0.1736
  131TMC2    O2 2048   1.253   1.999   9.431 -0.4695  0.0126 -0.0457
  131TMC2    O5 2049   1.347   1.790   9.432 -0.0857 -0.1202  0.4351
  131TMC2    H5 2050   1.332   1.702   9.392  2.1753 -0.7267  0.8890
  132MPD2     C 2051   0.986   1.162   9.424  0.2558 -0.1071  0.2443
  132MPD2    C1 2052   0.964   1.274   9.499 -0.4266  0.3373 -0.5443
  132MPD2    C2 2053   0.916   1.269   9.626 -0.0530  0.9292 -0.4608
  132MPD2    C3 2054   0.884   1.147   9.684 -0.4439 -0.0463  0.2090
  132MPD2    C4 2055   0.897   1.033   9.606  0.3429 -0.2379 -0.1049
  132MPD2    C5 2056   0.942   1.042   9.476 -0.1002  0.5378 -0.3571
  132MPD2     H 2057   0.906   1.354   9.693 -0.3005  1.3770 -1.0588
  132MPD2    H1 2058   0.852   0.939   9.636 -0.8569  0.3650 -0.0057
  132MPD2    H2 2059   1.021   1.164   9.321  0.5323 -1.4715  0.3104
  132MPD2    H3 2060   0.949   0.958   9.408  0.0099  0.6142 -0.4394
  132MPD2     N 2061   0.824   1.150   9.816 -0.5145  0.0044 -0.1806
  132MPD2    H5 2062   0.841   1.236   9.867  0.4226  0.2155 -0.8529
  132MPD2    N1 2063   1.000   1.394   9.435  0.0441  0.2384 -0.1413
  132MPD2    H7 2064   1.056   1.393   9.351 -0.3199  0.2554 -0.3883
  133TMC2    C1 2065   0.044   2.976   9.452  0.7441  0.3482  0.8635
  133TMC2    C2 2066   0.086   3.106   9.468  0.6860 -0.3477  0.8664
  133TMC2    C3 2067   0.179   3.147   9.377 -0.0237  0.2126 -0.5425
  133TMC2    C4 2068   0.092   2.883   9.363  0.7257 -0.6270  0.4791
  133TMC2    C5 2069   0.187   2.933   9.281 -0.0217  0.0557  0.3024
  133TMC2    C6 2070   0.234   3.060   9.285 -0.6150 -0.3815  0.3843
  133TMC2     C 2071   4.679   2.929   9.546  0.5647 -0.1102  0.0256
  133TMC2     O 2072   4.636   2.815   9.526 -0.6225  0.3200  0.1068
  133TMC2     H 2073   0.048   3.170   9.547  0.8532  0.9768 -0.1403
  133TMC2    H1 2074   0.053   2.782   9.353 -0.7636 -0.0069  0.0846
  133TMC2    H2 2075   0.316   3.085   9.218 -0.8996  2.9566  1.2921
  133TMC2    C7 2076   0.235   2.846   9.171  0.0519  0.0536  0.2124
  133TMC2    C8 2077   0.248   3.268   9.418  0.0200  0.4374 -0.1598
  133TMC2    O1 2078   0.333   2.883   9.102  0.2456 -0.2823 -0.2618
  133TMC2    O2 2079   0.260   3.294   9.535 -0.0087 -0.1649 -0.0774
  133TMC2    O5 2080   0.261   3.357   9.317 -0.0845  0.4614 -0.1327
  133TMC2    H5 2081   0.230   3.317   9.233  1.2453  0.1929 -0.5008
  134MPD2     C 2082   4.473   3.111   9.784  0.5127 -0.4812 -0.0394
  134MPD2    C1 2083   4.496   3.020   9.688 -0.7050 -0.2994 -0.2480
  134MPD2    C2 2084   4.408   2.920   9.666 -0.0245  0.6796  0.2474
  134MPD2    C3 2085   4.296   2.912   9.749  0.6955  0.0963  0.0334
  134MPD2    C4 2086   4.275   3.005   9.847  0.8550  0.6664  0.1123
  134MPD2    C5 2087   4.365   3.111   9.864  0.3513 -0.2956  0.8232
  134MPD2     H 2088   4.419   2.855   9.580 -3.2523  1.5129 -0.7783
  134MPD2    H1 2089   4.184   3.014   9.905  0.8462  1.2785  0.0032
  134MPD2    H2 2090   4.535   3.200   9.791  1.0768 -0.8412 -0.4084
  134MPD2    H3 2091   4.342   3.187   9.938 -0.0980  1.3619 -1.0238
  134MPD2     N 2092   4.190   2.819   9.718  0.0370 -0.0718  0.0635
  134MPD2    H5 2093   4.100   2.840   9.759 -0.2107  0.2310 -0.6309
  134MPD2    N1 2094   4.615   3.031   9.615 -0.2021 -0.0123 -0.0782
  134MPD2    H7 2095   4.677   3.110   9.625 -0.3740  0.2139 -0.8423
  135TMC2    C1 2096   1.758   3.228  10.150  0.1532 -0.0482  0.0146
  135TMC2    C2 2097   1.847   3.130  10.162  0.1841 -0.3517 -0.2205
  135TMC2    C3 2098   1.859   3.080  10.292 -0.0284 -0.6376  0.0154
  135TMC2    C4 2099   1.681   3.279  10.257  0.4845 -0.1762  0.1285
  135TMC2    C5 2100   1.704   3.225  10.378  0.2744 -0.0423  0.1586
  135TMC2    C6 2101   1.776   3.118  10.397 -0.5579 -0.0936  0.1085
  135TMC2     C 2102   1.695   3.269  10.022  0.6578  0.5256  0.1725
  135TMC2     O 2103   1.607   3.357  10.027 -0.0335 -0.5693 -0.2683
  135TMC2     H 2104   1.909   3.086  10.085 -1.0902 -1.2227 -0.7591
  135TMC2    H1 2105   1.620   3.368  10.243 -1.1963 -1.6220 -1.8741
  135TMC2    H2 2106   1.784   3.090  10.501 -0.0950 -0.6731 -0.0789
  135TMC2    C7 2107   1.591   3.246  10.467 -0.2625 -0.4743  0.6654
  135TMC2    C8 2108   1.936   2.958  10.302 -0.3314  0.1118  0.6331
  135TMC2    O1 2109   1.534   3.353  10.455 -0.0032  0.3046 -0.4975
  135TMC2    O2 2110   1.950   2.876  10.213  0.4172 -0.1430 -0.4014
  135TMC2    O5 2111   1.975   2.947  10.428  0.2429  0.4322  0.0848
  135TMC2    H5 2112   1.974   3.032  10.478 -1.3679 -0.8778  2.2398
  136MPD2     C 2113   1.617   3.318   9.735  0.3333  0.3812  0.8198
  136MPD2    C1 2114   1.723   3.243   9.774 -0.0752 -0.5391  0.5873
  136MPD2    C2 2115   1.820   3.199   9.683 -0.3188  0.1231  0.6554
  136MPD2    C3 2116   1.792   3.212   9.548  0.5826  0.5846  0.5502
  136MPD2    C4 2117   1.670   3.279   9.514  0.3608  0.1616 -0.6415
  136MPD2    C5 2118   1.594   3.346   9.601 -0.2861 -0.0842 -0.3626
  136MPD2     H 2119   1.903   3.138   9.717 -0.2852 -0.8906 -1.2117
  136MPD2    H1 2120   1.642   3.297   9.411 -3.0009  2.6319  0.6850
  136MPD2    H2 2121   1.539   3.348   9.805  1.4527 -1.3485  2.7860
  136MPD2    H3 2122   1.511   3.411   9.575 -0.1788  0.1265 -0.1771
  136MPD2     N 2123   1.866   3.147   9.446 -0.1006 -0.1693  0.1195
  136MPD2    H5 2124   1.838   3.162   9.350 -3.1195 -0.7027  0.8987
  136MPD2    N1 2125   1.750   3.209   9.911 -0.4879 -0.2575  0.3608
  136MPD2    H7 2126   1.828   3.144   9.915 -0.0795  0.0409 -2.6174
  137TMC2    C1 2127   1.776   2.545   9.373 -0.3792 -0.0481  0.3022
  137TMC2    C2 2128   1.873   2.531   9.282 -0.5600  0.3067 -0.2128
  137TMC2    C3 2129   1.882   2.619   9.175  0.1116  0.3841  0.5378
  137TMC2    C4 2130   1.692   2.653   9.372 -0.4938  0.1273 -0.8083
  137TMC2    C5 2131   1.702   2.737   9.262 -0.3432 -0.3967 -0.2313
  137TMC2    C6 2132   1.790   2.720   9.159 -0.6487 -0.2349 -0.2007
  137TMC2     C 2133   1.753   2.447   9.473 -0.3686 -0.5745  0.9794
  137TMC2     O 2134   1.674   2.468   9.561 -0.3786 -0.6234  0.2547
  137TMC2     H 2135   1.955   2.462   9.297 -0.7962  0.1557  0.3909
  137TMC2    H1 2136   1.631   2.681   9.457  0.6603  0.2529 -0.0104
  137TMC2    H2 2137   1.792   2.781   9.068 -0.7719 -2.6239 -1.7948
  137TMC2    C7 2138   1.629   2.857   9.264  0.6217  0.7645  0.2324
  137TMC2    C8 2139   1.979   2.594   9.074  0.4508 -0.0866 -0.7048
  137TMC2    O1 2140   1.680   2.948   9.196  0.0377 -0.4794  0.1379
  137TMC2    O2 2141   2.021   2.678   8.997 -1.0819  0.1154 -0.6627
  137TMC2    O5 2142   1.968   2.465   9.033 -0.7183 -0.0582 -0.5614
  137TMC2    H5 2143   1.911   2.411   9.092  0.3156 -0.7867 -0.2429
  138MPD2     C 2144   1.877   2.104   9.482 -0.5400  0.4271  0.4692
  138MPD2    C1 2145   1.829   2.222   9.529  0.7070  0.1946 -0.0672
  138MPD2    C2 2146   1.796   2.237   9.665 -0.3496  0.4727  1.1362
  138MPD2    C3 2147   1.797   2.123   9.748 -0.3055  0.2412 -0.6657
  138MPD2    C4 2148   1.834   2.002   9.694  0.2569  0.1246 -0.0715
  138MPD2    C5 2149   1.872   1.995   9.564  0.4551 -0.6645 -0.0640
  138MPD2     H 2150   1.781   2.338   9.703  1.8841  1.2726 -0.1416
  138MPD2    H1 2151   1.820   1.908   9.746 -0.7768  0.7592  0.8043
  138MPD2    H2 2152   1.904   2.084   9.379 -0.2837  2.5301  0.1392
  138MPD2    H3 2153   1.908   1.899   9.528  0.6188 -1.1732  1.4315
  138MPD2     N 2154   1.778   2.127   9.890  0.2589 -0.0672  0.2269
  138MPD2    H5 2155   1.791   2.042   9.944  0.2798 -1.0013 -1.2655
  138MPD2    N1 2156   1.824   2.332   9.446  0.5676  0.1710 -0.4129
  138MPD2    H7 2157   1.872   2.327   9.357  1.0724  0.2601 -0.1426
  139TMC2    C1 2158   2.242   0.986  13.120 -0.4619 -1.1786 -0.0822
  139TMC2    C2 2159   2.331   1.048  13.045 -0.4905 -0.2392  0.1637
  139TMC2    C3 2160   2.317   1.180  13.011 -0.9224  0.2006 -0.2107
  139TMC2    C4 2161   2.142   1.060  13.180  1.3478  0.2030  0.0473
  139TMC2    C5 2162   2.125   1.195  13.145 -0.5311  0.7018 -0.1523
  139TMC2    C6 2163   2.207   1.256  13.047  1.0266  0.8442  0.2373
  139TMC2     C 2164   2.271   0.850  13.148 -0.4278 -0.2696 -0.6080
  139TMC2     O 2165   2.351   0.792  13.075 -0.1842  0.1236  0.4707
  139TMC2     H 2166   2.403   0.987  12.992 -3.4378 -2.4198 -1.3210
  139TMC2    H1 2167   2.067   1.009  13.240  0.7655 -0.4289 -1.2148
  139TMC2    H2 2168   2.200   1.360  13.019  1.7986  1.1638  1.2132
  139TMC2    C7 2169   2.036   1.281  13.217 -0.5323 -0.0958  1.1733
  139TMC2    C8 2170   2.421   1.239  12.928  0.2051 -0.4687  0.8481
  139TMC2    O1 2171   2.006   1.385  13.164  0.1616 -0.0092 -0.0607
  139TMC2    O2 2172   2.451   1.179  12.828 -0.2153 -0.6700 -0.6360
  139TMC2    O5 2173   2.510   1.268  13.025 -0.5047 -0.2863 -0.2513
  139TMC2    H5 2174   2.469   1.297  13.109  2.2241  0.9246  0.6677
  140MPD2     C 2175   2.157   0.648  13.431  0.0826  0.2234  0.4656
  140MPD2    C1 2176   2.238   0.691  13.333 -1.0042  0.2666  0.1904
  140MPD2    C2 2177   2.355   0.614  13.314 -0.1254 -0.0148  0.0596
  140MPD2    C3 2178   2.386   0.496  13.375 -0.1099  0.1238 -0.7393
  140MPD2    C4 2179   2.297   0.461  13.469  0.3325  0.3136  0.2705
  140MPD2    C5 2180   2.182   0.532  13.501  0.1074 -0.5563  0.5941
  140MPD2     H 2181   2.427   0.641  13.238 -0.5186 -0.2307 -0.3873
  140MPD2    H1 2182   2.311   0.371  13.528 -0.5774  0.5541  0.8615
  140MPD2    H2 2183   2.067   0.701  13.458  0.9548  1.2373  1.3824
  140MPD2    H3 2184   2.118   0.496  13.581  2.5103 -1.4146  2.1156
  140MPD2     N 2185   2.505   0.422  13.343  0.1001 -0.4060 -0.2362
  140MPD2    H5 2186   2.568   0.460  13.273 -0.7880  0.6414 -0.4587
  140MPD2    N1 2187   2.210   0.807  13.258  0.5254 -0.1773  0.4448
  140MPD2    H7 2188   2.148   0.873  13.303  1.6147 -0.0750  1.7805
  141TMC2    C1 2189   2.283   2.536  14.306  0.6496  0.5305 -1.2413
  141TMC2    C2 2190   2.150   2.498  14.312 -0.0857  0.2936  0.2041
  141TMC2    C3 2191   2.078   2.508  14.426 -0.3368  0.6338  0.7069
  141TMC2    C4 2192   2.351   2.584  14.418 -0.4505  0.1123 -0.7615
  141TMC2    C5 2193   2.271   2.600  14.528  0.1537  0.3936  0.7270
  141TMC2    C6 2194   2.140   2.560  14.534  0.6404  0.1452 -0.3115
  141TMC2     C 2195   2.365   2.510  14.195 -0.2292  0.0321 -0.4106
  141TMC2     O 2196   2.302   2.501  14.088 -0.0454 -0.3252  0.7701
  141TMC2     H 2197   2.108   2.458  14.221 -2.4012 -1.1119  1.8793
  141TMC2    H1 2198   2.450   2.627  14.408 -0.2408 -0.4662 -1.1805
  141TMC2    H2 2199   2.085   2.551  14.627  2.0993 -0.4228  0.4856
  141TMC2    C7 2200   2.326   2.677  14.638 -0.4928  0.1504 -0.5693
  141TMC2    C8 2201   1.963   2.425  14.445  0.0791  0.5054 -0.1514
  141TMC2    O1 2202   2.248   2.753  14.694 -0.4835  0.2818 -0.0051
  141TMC2    O2 2203   1.918   2.395  14.554  0.2017 -0.1393 -0.1835
  141TMC2    O5 2204   1.901   2.412  14.325  0.3208 -0.3746  0.5167
  141TMC2    H5 2205   1.931   2.464  14.248  0.8625 -0.7773  0.4537
  142TMC2    C1 2206   1.194   1.032   9.755 -0.2272  0.4397  0.1524
  142TMC2    C2 2207   1.257   0.961   9.659  0.2682  0.0422 -0.3937
  142TMC2    C3 2208   1.355   1.031   9.596 -1.2058  0.1540  0.2221
  142TMC2    C4 2209   1.182   1.171   9.760  0.4272 -0.4612  0.2314
  142TMC2    C5 2210   1.273   1.236   9.676 -0.7089  0.1450  0.5543
  142TMC2    C6 2211   1.363   1.166   9.598 -0.3895  0.8777 -0.4283
  142TMC2     C 2212   1.118   0.951   9.850 -0.0658  0.0737 -0.3057
  142TMC2     O 2213   1.108   0.833   9.823  0.4443  0.3017 -0.2524
  142TMC2     H 2214   1.251   0.854   9.643  0.7824  0.0289 -0.4825
  142TMC2    H1 2215   1.133   1.226   9.840  1.1913  1.0338 -0.3207
  142TMC2    H2 2216   1.439   1.220   9.543 -0.4588  3.7547  2.3616
  142TMC2    C7 2217   1.284   1.375   9.698  0.0422  0.1086  0.2820
  142TMC2    C8 2218   1.439   0.953   9.508  0.1416 -0.7432  0.4639
  142TMC2    O1 2219   1.182   1.438   9.725  0.3439 -0.3584 -0.0106
  142TMC2    O2 2220   1.465   0.999   9.396 -0.1665 -0.2488 -0.0805
  142TMC2    O5 2221   1.527   0.905   9.592 -0.1550 -0.0072  0.4769
  142TMC2    H5 2222   1.498   0.893   9.685  1.3601  1.6519  1.1929
  143MPD2     C 2223   0.921   0.849  10.328 -0.0122  0.6562 -0.4835
  143MPD2    C1 2224   0.941   0.765  10.222 -0.3998  0.2683  0.6327
  143MPD2    C2 2225   0.995   0.819  10.097  0.1894  0.0065 -0.2809
  143MPD2    C3 2226   1.048   0.944  10.097 -0.1533  0.1706 -0.2628
  143MPD2    C4 2227   1.037   1.025  10.210 -0.1273 -0.3954 -0.4816
  143MPD2    C5 2228   0.975   0.980  10.323  0.1737 -0.2955 -0.2938
  143MPD2     H 2229   0.997   0.758  10.007  0.6869  1.3563 -1.1929
  143MPD2    H1 2230   1.078   1.124  10.218  0.4680 -0.7810  1.2692
  143MPD2    H2 2231   0.886   0.815  10.425  0.4338  1.3844 -0.0662
  143MPD2    H3 2232   0.958   1.040  10.412  2.3002  1.0532 -0.8080
  143MPD2     N 2233   1.101   1.006   9.980 -0.1368  0.0909 -0.1369
  143MPD2    H5 2234   1.124   1.101  10.006  0.2091 -0.1917  0.5966
  143MPD2    N1 2235   0.915   0.628  10.240 -0.4806  0.3448 -0.1902
  143MPD2    H7 2236   0.886   0.601  10.333 -2.5337 -0.1536 -0.9645
  144TMC2    C1 2237   2.859   4.329   0.793 -0.4533  0.4856 -0.2416
  144TMC2    C2 2238   2.872   4.199   0.744 -0.0887  0.6514 -0.3237
  144TMC2    C3 2239   3.002   4.162   0.728  0.1129  0.1647  0.6703
  144TMC2    C4 2240   2.962   4.426   0.805 -0.2210 -0.2695  0.3395
  144TMC2    C5 2241   3.092   4.379   0.792 -0.7228 -0.5421 -0.2255
  144TMC2    C6 2242   3.112   4.245   0.756  0.0880 -0.1350 -0.5878
  144TMC2     C 2243   2.726   4.388   0.784  0.6092  0.0161  0.3453
  144TMC2     O 2244   2.710   4.509   0.777 -0.3488 -0.3354 -0.3561
  144TMC2     H 2245   2.792   4.128   0.731 -0.4064  0.8392  0.6185
  144TMC2    H1 2246   2.935   4.531   0.813  2.8493  0.5681 -0.1101
  144TMC2    H2 2247   3.206   4.191   0.758 -1.3795 -2.8018 -2.8294
  144TMC2    C7 2248   3.201   4.472   0.778 -1.4522  0.1543 -0.1394
  144TMC2    C8 2249   3.031   4.031   0.675 -0.1554  1.1406 -0.3714
  144TMC2    O1 2250   3.306   4.430   0.730  0.2058 -0.0206  0.4502
  144TMC2    O2 2251   3.141   3.986   0.699 -0.3244 -0.7123  0.9795
  144TMC2    O5 2252   2.960   4.014   0.561  0.1057 -0.0583  0.1668
  144TMC2    H5 2253   2.873   4.059   0.558 -0.3502 -0.8474  1.8710
  145MPD2     C 2254   2.256   4.329   0.610  0.0561  0.4087  0.1099
  145MPD2    C1 2255   2.361   4.403   0.561  0.0325 -0.0333 -0.0133
  145MPD2    C2 2256   2.486   4.384   0.614  0.0544 -0.0208  0.4142
  145MPD2    C3 2257   2.505   4.296   0.716  0.0738 -0.2352  0.5060
  145MPD2    C4 2258   2.398   4.214   0.762  0.1315 -0.4426 -0.0195
  145MPD2    C5 2259   2.276   4.237   0.714 -0.1604 -0.1577 -1.4018
  145MPD2     H 2260   2.566   4.450   0.582  1.7400 -1.3007  1.9587
  145MPD2    H1 2261   2.419   4.153   0.850 -2.6680 -0.2526  0.7682
  145MPD2    H2 2262   2.155   4.335   0.571  1.0769 -1.6177 -2.7841
  145MPD2    H3 2263   2.195   4.179   0.755  1.2416 -1.3296 -0.3000
  145MPD2     N 2264   2.632   4.286   0.780  0.2297 -0.3600 -0.5186
  145MPD2    H5 2265   2.649   4.202   0.836  0.7914  0.2713  0.2513
  145MPD2    N1 2266   2.355   4.494   0.459 -0.7696  0.0783 -0.4084
  145MPD2    H7 2267   2.439   4.537   0.423 -0.6401 -0.6176 -0.9454
  146TMC2    C1 2268   4.718   3.230  12.007  0.1459 -0.1385 -0.1857
  146TMC2    C2 2269   4.633   3.216  11.902 -0.5065 -1.0763 -0.7161
  146TMC2    C3 2270   4.688   3.167  11.783  0.0729 -0.0555 -0.2314
  146TMC2    C4 2271   0.115   3.205  11.998 -0.0303  0.1887  0.2077
  146TMC2    C5 2272   0.166   3.168  11.877 -0.6751  0.2872  0.4832
  146TMC2    C6 2273   0.085   3.136  11.773  0.1492 -0.0885 -0.4221
  146TMC2     C 2274   4.654   3.292  12.123  0.1178  0.6536  0.1045
  146TMC2     O 2275   4.548   3.347  12.100  0.1596 -0.3336 -0.2710
  146TMC2     H 2276   4.530   3.246  11.911  0.0431  0.0388  1.9818
  146TMC2    H1 2277   0.183   3.222  12.081  2.1808  0.0634 -1.5540
  146TMC2    H2 2278   0.139   3.115  11.681  1.5710 -3.1832  1.1354
  146TMC2    C7 2279   0.293   3.101  11.884 -0.0861 -0.3166  0.5596
  146TMC2    C8 2280   4.616   3.164  11.664 -0.4437  0.4194  0.7497
  146TMC2    O1 2281   0.343   3.092  11.771 -0.7903 -0.2877  0.2841
  146TMC2    O2 2282   4.606   3.072  11.585  0.4934 -0.0563  0.1530
  146TMC2    O5 2283   4.548   3.280  11.662 -0.4089 -0.3101 -0.2275
  146TMC2    H5 2284   4.583   3.336  11.735 -2.3925  0.8205 -0.1482
  147MPD2     C 2285   0.694   2.928  12.156 -0.1925  0.5908  0.0535
  147MPD2    C1 2286   0.590   2.936  12.241  0.2351  0.3788 -0.0743
  147MPD2    C2 2287   0.474   2.980  12.186 -0.2434  0.3654 -1.0715
  147MPD2    C3 2288   0.457   3.011  12.050  0.3089  0.0681 -0.7533
  147MPD2    C4 2289   0.557   2.980  11.963  0.5925  0.0852 -0.2661
  147MPD2    C5 2290   0.677   2.943  12.019  0.0114  0.7336  0.1208
  147MPD2     H 2291   0.385   3.000  12.244 -0.0104  3.5490 -1.8073
  147MPD2    H1 2292   0.547   2.995  11.856 -0.3642 -1.0301 -0.3435
  147MPD2    H2 2293   0.796   2.905  12.184 -0.1312 -1.9100 -2.2073
  147MPD2    H3 2294   0.760   2.946  11.949 -0.8373  2.4851 -0.7968
  147MPD2     N 2295   0.329   3.058  12.012 -0.8153  0.5021  0.0461
  147MPD2    H5 2296   0.256   3.075  12.080  2.0150  3.9734  2.1954
  147MPD2    N1 2297   0.616   2.927  12.377 -0.1834 -0.0418 -0.3693
  147MPD2    H7 2298   0.708   2.891  12.401 -0.6751 -1.8175 -1.1909
  148TMC2    C1 2299   0.197   2.059  10.035  0.0611 -0.5728 -0.0726
  148TMC2    C2 2300   0.256   2.186  10.020 -0.3202 -0.2419 -0.1486
  148TMC2    C3 2301   0.367   2.187   9.947 -0.5570  0.0956  0.0893
  148TMC2    C4 2302   0.250   1.942   9.982  0.2736 -0.4080 -0.3140
  148TMC2    C5 2303   0.366   1.951   9.911  0.3762  0.1681  0.0667
  148TMC2    C6 2304   0.417   2.073   9.883 -0.1032  0.1562 -0.3591
  148TMC2     C 2305   0.058   2.074  10.070 -0.0616 -0.1949  0.3916
  148TMC2     O 2306   0.024   2.180  10.126  0.2573 -0.1321 -0.1856
  148TMC2     H 2307   0.215   2.285  10.037  2.4249  0.6798  1.2177
  148TMC2    H1 2308   0.202   1.846   9.999 -0.4554 -0.6612 -3.8105
  148TMC2    H2 2309   0.510   2.075   9.828 -0.3700 -1.3535 -0.8842
  148TMC2    C7 2310   0.413   1.839   9.838  0.5470  0.2928 -0.0823
  148TMC2    C8 2311   0.466   2.295   9.971 -0.2194 -0.5750  0.7786
  148TMC2    O1 2312   0.476   1.864   9.738  0.4122  0.0004  0.1203
  148TMC2    O2 2313   0.540   2.339   9.885 -0.7850 -0.1478  0.3088
  148TMC2    O5 2314   0.458   2.334  10.103 -0.3418 -0.0852 -0.0535
  148TMC2    H5 2315   0.392   2.283  10.155  1.4487 -0.4961  1.7842
  149MPD2     C 2316   4.493   2.081  10.031 -0.1992 -0.0726  0.2937
  149MPD2    C1 2317   4.571   1.965  10.039 -0.6250  0.0101 -0.1396
  149MPD2    C2 2318   4.515   1.840  10.034  0.2193 -0.0746  0.3302
  149MPD2    C3 2319   4.378   1.826  10.044 -0.4610  0.1450  0.2178
  149MPD2    C4 2320   4.304   1.937  10.059 -0.1660 -1.2308 -0.7240
  149MPD2    C5 2321   4.363   2.064  10.044 -0.3439  0.7354 -0.2067
  149MPD2     H 2322   4.571   1.753  10.004 -1.5286 -0.5546 -1.5158
  149MPD2    H1 2323   4.196   1.940  10.067  0.0850 -0.1870  2.1184
  149MPD2    H2 2324   4.532   2.182  10.030 -1.7411  0.5316  0.9653
  149MPD2    H3 2325   4.300   2.151  10.056  1.2117  1.4296  3.1017
  149MPD2     N 2326   4.322   1.695  10.063 -0.4398 -0.4093  0.4264
  149MPD2    H5 2327   4.222   1.689  10.047 -0.3349  0.5840 -0.5957
  149MPD2    N1 2328   4.715   1.973  10.039 -0.4309 -0.6585  0.3320
  149MPD2    H7 2329   0.025   1.886  10.020  0.1689 -0.1131 -0.6656
  150TMC2    C1 2330   2.281   1.023  11.962  0.0775  0.3883 -0.9163
  150TMC2    C2 2331   2.307   1.016  11.831  0.1383  0.0885 -0.4390
  150TMC2    C3 2332   2.426   0.950  11.794  0.3541  0.2367  0.1530
  150TMC2    C4 2333   2.362   0.967  12.051  0.1735 -0.1257 -0.3780
  150TMC2    C5 2334   2.474   0.893  12.014  0.1184 -0.4182  0.2379
  150TMC2    C6 2335   2.507   0.884  11.886  0.3838  0.1387  0.4811
  150TMC2     C 2336   2.154   1.053  12.014  0.9367  0.3930  0.6342
  150TMC2     O 2337   2.140   1.052  12.135 -0.4023 -0.6965 -0.0221
  150TMC2     H 2338   2.249   1.065  11.753  0.2389  2.4641  0.9862
  150TMC2    H1 2339   2.353   0.993  12.155 -0.0900 -4.4386  0.6496
  150TMC2    H2 2340   2.602   0.842  11.855 -0.4693  0.9227 -3.2419
  150TMC2    C7 2341   2.587   0.886  12.092  0.0809  0.0365 -0.5316
  150TMC2    C8 2342   2.463   0.954  11.648  0.1021 -0.1068 -0.3640
  150TMC2    O1 2343   2.690   0.922  12.044 -0.3869  0.0962  0.1705
  150TMC2    O2 2344   2.399   1.007  11.559 -0.1216  0.5719 -0.2869
  150TMC2    O5 2345   2.557   0.856  11.621  0.5380  0.4629 -0.1386
  150TMC2    H5 2346   2.569   0.846  11.524  0.6709 -1.5015  0.0757
  151MPD2     C 2347   1.639   1.057  11.977 -0.0025  0.3537 -0.6410
  151MPD2    C1 2348   1.694   1.130  11.868 -0.1359  0.3699  0.3320
  151MPD2    C2 2349   1.829   1.147  11.862 -0.0279  0.1868  0.4974
  151MPD2    C3 2350   1.915   1.089  11.954 -0.0149 -0.0597 -0.1327
  151MPD2    C4 2351   1.862   1.006  12.052 -0.7913  0.7778 -0.3193
  151MPD2    C5 2352   1.723   0.989  12.064  0.0372 -0.1465  0.0568
  151MPD2     H 2353   1.868   1.213  11.786 -0.7395  0.6236  0.5119
  151MPD2    H1 2354   1.920   0.963  12.132 -1.7469 -2.2306 -1.2378
  151MPD2    H2 2355   1.531   1.051  11.984  0.0391  2.2654  1.5657
  151MPD2    H3 2356   1.681   0.944  12.153 -1.0333 -0.5885 -0.6636
  151MPD2     N 2357   2.055   1.102  11.927 -0.2087 -0.1264  0.0759
  151MPD2    H5 2358   2.081   1.145  11.839 -2.4826 -1.4830 -1.2462
  151MPD2    N1 2359   1.598   1.177  11.778 -0.0603 -0.4352  0.2978
  151MPD2    H7 2360   1.503   1.183  11.815 -0.8772 -5.3652 -0.9786
  152TMC2    C1 2361   1.808   1.250  12.349  0.2387  0.0985 -0.3008
  152TMC2    C2 2362   1.814   1.307  12.225  0.8367 -0.2208  0.0860
  152TMC2    C3 2363   1.921   1.385  12.210 -0.2045 -0.4768 -0.1877
  152TMC2    C4 2364   1.879   1.278  12.461  0.7649 -0.1404 -0.7344
  152TMC2    C5 2365   1.985   1.364  12.437  0.2465  0.3095  0.7182
  152TMC2    C6 2366   2.009   1.425  12.310  0.2832  0.1302 -0.6815
  152TMC2     C 2367   1.708   1.142  12.367 -0.2646  0.0411 -0.3568
  152TMC2     O 2368   1.596   1.148  12.307 -0.5595 -0.1119 -0.3460
  152TMC2     H 2369   1.763   1.263  12.140  1.4932 -1.8593  0.5465
  152TMC2    H1 2370   1.875   1.228  12.557  0.9262  0.5856 -0.3496
  152TMC2    H2 2371   2.083   1.504  12.299 -0.9274  1.4578  0.6844
  152TMC2    C7 2372   2.056   1.412  12.551 -0.1836 -0.0940 -0.0223
  152TMC2    C8 2373   1.948   1.420  12.069  0.3865 -0.0520  0.2621
  152TMC2    O1 2374   1.998   1.398  12.656 -0.4404 -0.3957 -0.2721
  152TMC2    O2 2375   1.862   1.441  11.988  0.1149  0.5652 -0.7876
  152TMC2    O5 2376   2.083   1.438  12.053 -0.2500  0.1292 -0.1604
  152TMC2    H5 2377   2.142   1.406  12.125  0.9605  0.2299 -1.1114
  153MPD2     C 2378   1.768   0.821  12.542  0.1928 -0.1621 -0.3501
  153MPD2    C1 2379   1.695   0.916  12.474  0.0322  0.5320  0.0864
  153MPD2    C2 2380   1.567   0.892  12.447 -0.4192 -0.3331  0.2201
  153MPD2    C3 2381   1.503   0.782  12.504  0.8163  0.6064  0.3204
  153MPD2    C4 2382   1.579   0.690  12.578  0.7624 -0.6796  0.5493
  153MPD2    C5 2383   1.711   0.710  12.602 -0.4170 -0.0285  0.5068
  153MPD2     H 2384   1.508   0.962  12.389 -1.2872 -0.8012  0.5524
  153MPD2    H1 2385   1.535   0.601  12.621  3.2718 -0.9704  2.4883
  153MPD2    H2 2386   1.876   0.836  12.544 -0.1922  2.4357  0.8767
  153MPD2    H3 2387   1.773   0.634  12.647 -0.1958 -0.0068  0.2399
  153MPD2     N 2388   1.363   0.765  12.472  0.1030  0.1852 -0.2939
  153MPD2    H5 2389   1.313   0.839  12.423 -0.0446 -1.1055 -2.1039
  153MPD2    N1 2390   1.761   1.036  12.431 -0.1558 -0.4495  0.8870
  153MPD2    H7 2391   1.859   1.038  12.456  0.1395 -3.5003 -0.0139
  154TMC2    C1 2392   3.460   0.832   0.505  0.2556  0.1015  0.2848
  154TMC2    C2 2393   3.477   0.800   0.643  0.0715 -0.7880  0.0251
  154TMC2    C3 2394   3.582   0.715   0.665 -0.9832  0.3803  0.0408
  154TMC2    C4 2395   3.555   0.793   0.404 -0.9038  0.3905  0.4483
  154TMC2    C5 2396   3.655   0.717   0.443  0.7286 -0.1054  0.6214
  154TMC2    C6 2397   3.664   0.668   0.566 -0.1091  0.1097  1.0065
  154TMC2     C 2398   3.368   0.946   0.482  0.3637  0.8363  0.5320
  154TMC2     O 2399   3.351   1.016   0.579 -0.3278 -0.2041 -0.0602
  154TMC2     H 2400   3.410   0.839   0.719 -0.2171  0.9918 -1.1238
  154TMC2    H1 2401   3.559   0.854   0.314  0.8461 -1.1886 -0.5449
  154TMC2    H2 2402   3.746   0.601   0.590 -0.1432 -0.5723 -0.7715
  154TMC2    C7 2403   3.732   0.655   0.339  0.3895  0.4159 -0.3348
  154TMC2    C8 2404   3.585   0.658   0.795  0.1347 -0.0411 -0.3857
  154TMC2    O1 2405   3.839   0.605   0.376  0.3133 -0.0438 -0.1184
  154TMC2    O2 2406   3.568   0.717   0.901 -0.1984  0.3464  0.0073
  154TMC2    O5 2407   3.561   0.530   0.772  0.3935  0.2351 -0.2535
  154TMC2    H5 2408   3.548   0.516   0.676  0.0026  0.6344 -0.2592
  155MPD2     C 2409   3.287   1.116   0.162 -0.5330 -0.4993  0.6406
  155MPD2    C1 2410   3.281   1.096   0.301 -0.9837  0.7002  0.3140
  155MPD2    C2 2411   3.218   1.186   0.379 -0.2101 -0.8312  0.0186
  155MPD2    C3 2412   3.178   1.307   0.329  0.1817 -0.4511  0.0166
  155MPD2    C4 2413   3.204   1.338   0.193  0.0935  0.5586 -0.0806
  155MPD2    C5 2414   3.246   1.238   0.111  1.0338  0.7340  0.6674
  155MPD2     H 2415   3.208   1.158   0.483  2.6086  1.1978  0.8364
  155MPD2    H1 2416   3.178   1.436   0.154 -0.6471  0.9259  1.3550
  155MPD2    H2 2417   3.327   1.038   0.098 -2.1529  3.0064 -4.5955
  155MPD2    H3 2418   3.259   1.247   0.004  3.1996 -0.4054  0.8282
  155MPD2     N 2419   3.130   1.404   0.427  0.0961  0.4188 -0.1262
  155MPD2    H5 2420   3.133   1.377   0.525 -2.4619  0.7065  0.0481
  155MPD2    N1 2421   3.330   0.972   0.348 -0.3097 -0.0567  0.0202
  155MPD2    H7 2422   3.374   0.911   0.281 -0.5503 -1.0028  0.7217
  156TMC2    C1 2423   1.809   3.195  11.515  0.9007  0.7711  0.2268
  156TMC2    C2 2424   1.884   3.133  11.418  0.0655  0.3812  0.2023
  156TMC2    C3 2425   1.941   3.214  11.322  0.4411 -0.1396  0.2266
  156TMC2    C4 2426   1.811   3.330  11.534  0.3775  0.0714 -0.1330
  156TMC2    C5 2427   1.867   3.402  11.434  0.5174 -0.1057  0.1986
  156TMC2    C6 2428   1.940   3.351  11.331 -0.3724  0.7069 -0.9211
  156TMC2     C 2429   1.838   3.124  11.636  0.4511  0.4049 -0.3270
  156TMC2     O 2430   1.953   3.080  11.662  0.0928  0.4556 -0.4324
  156TMC2     H 2431   1.904   3.027  11.426 -0.0749  0.5733  3.3101
  156TMC2    H1 2432   1.764   3.372  11.622 -0.0377  1.6016 -1.0855
  156TMC2    H2 2433   1.966   3.415  11.248 -1.3439  0.9619 -1.0273
  156TMC2    C7 2434   1.869   3.546  11.447 -0.0889  0.1774 -0.4696
  156TMC2    C8 2435   1.951   3.165  11.188  0.0706 -0.5521  0.5828
  156TMC2    O1 2436   1.883   3.604  11.338  0.0607  0.8204 -0.6142
  156TMC2    O2 2437   1.853   3.107  11.142 -0.7326  0.3668 -0.1486
  156TMC2    O5 2438   2.068   3.195  11.125  0.1476 -0.4025  0.1887
  156TMC2    H5 2439   2.144   3.229  11.177 -0.7314 -1.3333  2.0862
  157MPD2     C 2440   1.599   3.100  11.921  0.4930 -0.0819 -0.2027
  157MPD2    C1 2441   1.720   3.116  11.854  0.3886 -0.7611  0.5061
  157MPD2    C2 2442   1.838   3.134  11.926  0.1033  0.1386 -0.2041
  157MPD2    C3 2443   1.830   3.152  12.066  0.1547  0.2788 -0.1061
  157MPD2    C4 2444   1.712   3.122  12.133  0.2154 -0.1071 -1.0748
  157MPD2    C5 2445   1.598   3.097  12.057  0.4582 -0.1912 -0.0610
  157MPD2     H 2446   1.933   3.161  11.881 -0.4587  1.0968 -0.8246
  157MPD2    H1 2447   1.688   3.143  12.237 -1.8436 -1.2162 -1.3305
  157MPD2    H2 2448   1.502   3.091  11.875  0.1920  1.2484  0.1742
  157MPD2    H3 2449   1.505   3.083  12.110  0.4548  1.4816  0.3598
  157MPD2     N 2450   1.954   3.193  12.136  0.1911  0.9668  0.2867
  157MPD2    H5 2451   2.037   3.214  12.081 -1.1232  0.8699 -1.7592
  157MPD2    N1 2452   1.724   3.132  11.716  0.4759 -0.8061 -0.0418
  157MPD2    H7 2453   1.637   3.135  11.664 -0.1194 -0.3211  0.9810
  158TMC2    C1 2454   2.737   1.942  13.315  0.6306 -0.3789  0.1275
  158TMC2    C2 2455   2.766   1.853  13.215  0.8818  0.8142  0.3603
  158TMC2    C3 2456   2.752   1.899  13.082 -0.5356 -0.3555 -0.6941
  158TMC2    C4 2457   2.683   2.066  13.291 -0.7640  0.2562 -0.6468
  158TMC2    C5 2458   2.659   2.102  13.162  0.7403 -0.5667 -0.6187
  158TMC2    C6 2459   2.697   2.016  13.057  0.6647 -0.0948  0.6581
  158TMC2     C 2460   2.787   1.913  13.446  0.0210 -0.2089 -0.2880
  158TMC2     O 2461   2.888   1.842  13.446 -0.4254 -0.7016 -0.4141
  158TMC2     H 2462   2.824   1.763  13.235 -1.0907 -1.2071 -3.0778
  158TMC2    H1 2463   2.662   2.135  13.372  1.8974  1.3020 -0.8353
  158TMC2    H2 2464   2.684   2.052  12.955  1.6018  0.7750  0.8429
  158TMC2    C7 2465   2.549   2.184  13.139 -0.1177 -0.1508 -0.6401
  158TMC2    C8 2466   2.754   1.807  12.969  0.5732  0.3746  0.0635
  158TMC2    O1 2467   2.567   2.280  13.070 -0.2009 -0.3393 -0.2448
  158TMC2    O2 2468   2.717   1.832  12.852 -0.4894  0.1565  0.2404
  158TMC2    O5 2469   2.742   1.681  13.020  0.2979  0.4097 -0.7812
  158TMC2    H5 2470   2.743   1.687  13.118 -1.9801 -1.7310 -0.6147
  159MPD2     C 2471   2.700   1.873  13.945 -0.3479  0.4678  0.1651
  159MPD2    C1 2472   2.624   1.974  13.894 -0.1285 -0.0175  0.0739
  159MPD2    C2 2473   2.624   2.004  13.761  0.3544  0.7515 -0.0495
  159MPD2    C3 2474   2.714   1.943  13.678 -0.4823 -0.3078 -0.2143
  159MPD2    C4 2475   2.798   1.852  13.732  0.0244 -0.3816  0.2578
  159MPD2    C5 2476   2.790   1.822  13.862  0.4596 -0.1074 -0.2958
  159MPD2     H 2477   2.556   2.077  13.719 -1.0316  0.3118  1.4519
  159MPD2    H1 2478   2.870   1.799  13.670  0.3082  0.2816  0.0230
  159MPD2    H2 2479   2.696   1.844  14.049  0.1335 -2.1329 -0.5324
  159MPD2    H3 2480   2.862   1.752  13.903  1.4385  1.1905  0.2349
  159MPD2     N 2481   2.701   1.962  13.539  0.7001 -0.2361  0.3935
  159MPD2    H5 2482   2.624   2.022  13.510 -1.0091 -3.4760 -1.7035
  159MPD2    N1 2483   2.530   2.031  13.987 -0.7203  0.2577  0.4320
  159MPD2    H7 2484   2.541   1.995  14.082  1.6817 -1.1765 -0.3840
  160TMC2    C1 2485   2.036   0.468   0.862 -0.6497 -0.2695  0.1604
  160TMC2    C2 2486   2.112   0.422   0.962  0.5418  0.6469 -0.9642
  160TMC2    C3 2487   2.251   0.449   0.952  0.6433 -0.1488  0.8207
  160TMC2    C4 2488   2.091   0.523   0.751 -0.4672 -0.9401  0.3253
  160TMC2    C5 2489   2.224   0.551   0.746 -0.4040  1.1803 -0.7319
  160TMC2    C6 2490   2.309   0.509   0.845  0.2542 -0.1586 -0.0577
  160TMC2     C 2491   1.893   0.436   0.858  0.0862 -0.4126  0.4189
  160TMC2     O 2492   1.856   0.339   0.921 -0.6841  0.1280  0.2616
  160TMC2     H 2493   2.070   0.369   1.047 -2.2535  0.6598 -2.3127
  160TMC2    H1 2494   2.037   0.577   0.674 -0.9885 -1.0587  0.6079
  160TMC2    H2 2495   2.416   0.504   0.833  0.2822  0.3378 -0.0215
  160TMC2    C7 2496   2.264   0.660   0.670 -0.7524  0.1199  0.2550
  160TMC2    C8 2497   2.346   0.391   1.040  0.3447  0.4301 -0.1554
  160TMC2    O1 2498   2.191   0.688   0.578 -0.1190  0.4690  0.2260
  160TMC2    O2 2499   2.463   0.368   1.014 -0.1712 -0.1965 -0.6801
  160TMC2    O5 2500   2.315   0.451   1.157 -0.1876  0.3069  0.0141
  160TMC2    H5 2501   2.220   0.460   1.181 -0.5400 -0.3361 -1.1250
  161MPD2     C 2502   1.598   0.432   0.770 -0.0291 -0.3982  0.0154
  161MPD2    C1 2503   1.693   0.533   0.739 -0.1516 -0.7272 -0.3281
  161MPD2    C2 2504   1.648   0.652   0.680 -0.4282  0.5388 -0.2572
  161MPD2    C3 2505   1.506   0.668   0.658 -0.4831 -0.6776  0.3216
  161MPD2    C4 2506   1.417   0.558   0.686 -0.0549  0.2381  0.2504
  161MPD2    C5 2507   1.468   0.444   0.743 -1.0008  0.1155 -0.0040
  161MPD2     H 2508   1.723   0.722   0.647  1.0131 -1.5614 -1.4349
  161MPD2    H1 2509   1.310   0.574   0.677  0.2148  0.8768 -1.7488
  161MPD2    H2 2510   1.631   0.338   0.812 -2.2096 -1.1611  0.0425
  161MPD2    H3 2511   1.398   0.365   0.768 -0.3696 -0.8509 -1.3031
  161MPD2     N 2512   1.448   0.785   0.608  0.2580 -0.3034 -0.3292
  161MPD2    H5 2513   1.348   0.790   0.592  0.7488  0.2777 -3.1800
  161MPD2    N1 2514   1.828   0.534   0.789 -0.4127  0.4551 -0.3213
  161MPD2    H7 2515   1.877   0.620   0.765  0.7676  0.2104  1.2346
  162TMC2    C1 2516   4.673   2.439   1.325 -0.0919 -1.2928  0.5917
  162TMC2    C2 2517   4.603   2.513   1.418 -0.3627 -0.6313 -0.2328
  162TMC2    C3 2518   4.554   2.449   1.526 -0.3705 -0.0088  0.0474
  162TMC2    C4 2519   4.696   2.307   1.341  0.6182  0.4852  0.1418
  162TMC2    C5 2520   4.646   2.250   1.456 -0.3305 -0.5872  0.4734
  162TMC2    C6 2521   4.571   2.316   1.551  0.2083 -0.6860 -1.4747
  162TMC2     C 2522   4.693   2.501   1.198 -0.2568  0.5736  0.9334
  162TMC2     O 2523   4.675   2.426   1.101 -0.4128  0.0665 -0.2464
  162TMC2     H 2524   4.563   2.612   1.397 -3.9102 -1.6640  1.6570
  162TMC2    H1 2525   0.001   2.244   1.264 -2.7711  0.0051 -1.3828
  162TMC2    H2 2526   4.523   2.270   1.637 -0.5175  0.9982 -0.9931
  162TMC2    C7 2527   4.669   2.112   1.475  0.5209 -0.4787 -0.0461
  162TMC2    C8 2528   4.479   2.538   1.615  0.1119  0.0097 -0.1970
  162TMC2    O1 2529   4.593   2.060   1.548  0.0283  0.1013 -0.0812
  162TMC2    O2 2530   4.401   2.619   1.573  0.0092 -0.5359 -0.1296
  162TMC2    O5 2531   4.486   2.484   1.738 -0.0107 -0.1133  0.6076
  162TMC2    H5 2532   4.565   2.426   1.748 -0.3392 -0.7794 -0.6482
  163MPD2     C 2533   0.098   2.879   0.868  0.2870 -0.6222 -0.6731
  163MPD2    C1 2534   0.039   2.757   0.845 -0.4322  0.1453  0.0638
  163MPD2    C2 2535   0.020   2.675   0.952 -0.5151 -0.0358  0.3932
  163MPD2    C3 2536   0.044   2.710   1.082 -0.5507  0.3648 -0.1959
  163MPD2    C4 2537   0.091   2.835   1.106  0.1266  0.4861 -0.4025
  163MPD2    C5 2538   0.127   2.917   0.998 -0.4690 -0.3471  0.9366
  163MPD2     H 2539   4.718   2.575   0.942  2.3546 -1.1911  0.3554
  163MPD2    H1 2540   0.104   2.881   1.204  1.2342 -0.5361 -0.0641
  163MPD2    H2 2541   0.123   2.949   0.789 -0.8209 -0.5490 -0.9655
  163MPD2    H3 2542   0.177   3.011   1.018  1.7857 -0.9316 -1.9368
  163MPD2     N 2543   4.732   2.637   1.201 -0.0854  0.0143  0.5112
  163MPD2    H5 2544   0.014   2.676   1.292 -0.6344 -0.1087  0.6837
  163MPD2    N1 2545   0.011   2.723   0.713  0.3702  0.3852  0.5321
  163MPD2    H7 2546   0.056   2.776   0.640  0.2969  1.2439  1.1092
  164TMC2    C1 2547   0.947   1.811  10.387  0.2251 -0.9492 -0.1300
  164TMC2    C2 2548   0.977   1.697  10.452  0.0716  0.3207 -0.2666
  164TMC2    C3 2549   0.885   1.660  10.549  0.9776 -0.0018 -0.1968
  164TMC2    C4 2550   0.849   1.890  10.424 -0.0516 -0.8174  0.3733
  164TMC2    C5 2551   0.765   1.852  10.523 -0.1143 -0.0950 -0.2728
  164TMC2    C6 2552   0.769   1.731  10.579 -0.4084 -0.0359 -0.6713
  164TMC2     C 2553   1.037   1.850  10.279  0.2904  0.8433  0.3749
  164TMC2     O 2554   1.098   1.756  10.232 -0.3754  0.1754  0.0816
  164TMC2     H 2555   1.055   1.629  10.419 -0.0791 -1.1381  2.3863
  164TMC2    H1 2556   0.828   1.983  10.371  2.0157 -1.2763 -1.2364
  164TMC2    H2 2557   0.709   1.703  10.666  1.0424  2.6043  1.1757
  164TMC2    C7 2558   0.655   1.937  10.564 -0.0184  0.6763 -0.2906
  164TMC2    C8 2559   0.903   1.551  10.641 -0.9973 -0.0529 -0.0407
  164TMC2    O1 2560   0.582   1.900  10.654  0.5301  0.3390 -0.6101
  164TMC2    O2 2561   0.819   1.504  10.717  0.6883  0.1030  0.1184
  164TMC2    O5 2562   1.032   1.507  10.644 -0.0582  0.0155  0.5026
  164TMC2    H5 2563   1.092   1.544  10.577  0.4625 -0.4287  0.7199
  165TMC2    C1 2564   1.470   0.036   0.973 -0.3456  0.2298  0.6987
  165TMC2    C2 2565   1.436   4.689   0.869 -0.3726 -0.5584  0.0046
  165TMC2    C3 2566   1.533   4.617   0.812  0.1352 -0.1685 -0.0987
  165TMC2    C4 2567   1.602   0.039   1.013 -0.1975 -0.1288  0.0322
  165TMC2    C5 2568   1.691   4.695   0.959  0.5017 -0.5006 -0.3271
  165TMC2    C6 2569   1.660   4.616   0.850  0.1038  0.5797 -0.2113
  165TMC2     C 2570   1.363   0.097   1.051 -0.3010  0.3121 -0.4619
  165TMC2     O 2571   1.248   0.055   1.036  0.2148  0.4972  0.0637
  165TMC2     H 2572   1.332   4.664   0.850 -0.1334 -0.5238 -1.4070
  165TMC2    H1 2573   1.632   0.112   1.087 -0.1495  0.8789 -0.9748
  165TMC2    H2 2574   1.733   4.548   0.807  1.6628  0.5116  2.5047
  165TMC2    C7 2575   1.828   4.707   0.995  0.9671 -0.2357  0.4959
  165TMC2    C8 2576   1.478   4.501   0.744  0.3206  0.3293 -0.0755
  165TMC2    O1 2577   1.904   4.647   0.919  0.4253 -0.1183  0.5579
  165TMC2    O2 2578   1.520   4.386   0.736  0.7425 -0.4786 -0.0240
  165TMC2    O5 2579   1.402   4.561   0.644 -0.2041  0.0427 -0.6362
  165TMC2    H5 2580   1.388   4.658   0.650 -1.3137 -0.3068  2.3677
  166MPD2     C 2581   1.242   0.318   1.506  0.8502  0.1942 -0.3865
  166MPD2    C1 2582   1.195   0.202   1.452  0.3699  0.5196  0.3641
  166MPD2    C2 2583   1.239   0.162   1.322 -0.4616  0.2538 -0.4747
  166MPD2    C3 2584   1.342   0.230   1.264 -1.0168  0.7790 -0.7226
  166MPD2    C4 2585   1.395   0.343   1.320  0.1777 -0.3265  0.1819
  166MPD2    C5 2586   1.342   0.390   1.440  0.4891  0.2627  0.3505
  166MPD2     H 2587   1.202   0.070   1.277 -0.1696 -0.0904 -0.0077
  166MPD2    H1 2588   1.477   0.397   1.273  1.4083 -2.4833 -0.1245
  166MPD2    H2 2589   1.209   0.352   1.604  1.1804  0.9798 -0.5487
  166MPD2    H3 2590   1.376   0.474   1.500  1.3341 -0.2697  0.6010
  166MPD2     N 2591   1.408   0.188   1.145  0.1736 -0.2238 -0.0768
  166MPD2    H5 2592   1.499   0.231   1.134 -0.2465  0.0620 -2.4110
  166MPD2    N1 2593   1.095   0.130   1.529  0.3600 -0.4111 -0.6483
  166MPD2    H7 2594   1.067   0.174   1.616 -1.0799 -0.2939 -1.1730
  167TMC2    C1 2595   4.610   2.072  12.495 -0.6250 -0.6225 -0.0156
  167TMC2    C2 2596   4.633   2.124  12.622 -0.5120  0.6173  0.5104
  167TMC2    C3 2597   4.565   2.076  12.726  0.0749 -0.3056 -0.2400
  167TMC2    C4 2598   4.512   1.983  12.475 -0.1881 -0.0052  0.5332
  167TMC2    C5 2599   4.450   1.930  12.584 -0.5133  0.1183 -0.4406
  167TMC2    C6 2600   4.477   1.971  12.710 -0.3776 -0.3180 -0.4313
  167TMC2     C 2601   4.682   2.107  12.375  0.0696  0.2287  0.4073
  167TMC2     O 2602   4.626   2.089  12.269 -0.0007 -0.6228 -1.3013
  167TMC2     H 2603   4.691   2.216  12.626  0.6950 -0.1180 -0.0144
  167TMC2    H1 2604   4.499   1.940  12.377 -2.5299 -1.1094  1.3391
  167TMC2    H2 2605   4.440   1.923  12.800 -1.7667  2.6209  0.5806
  167TMC2    C7 2606   4.370   1.811  12.572 -0.6535  1.2217 -0.5712
  167TMC2    C8 2607   4.591   2.125  12.864 -0.9399 -0.1109  0.5244
  167TMC2    O1 2608   4.284   1.792  12.651 -0.3355 -0.5033  0.3794
  167TMC2    O2 2609   4.518   2.100  12.960 -0.0308  0.8912  0.2838
  167TMC2    O5 2610   4.712   2.185  12.875  0.2304  0.0495  0.5884
  167TMC2    H5 2611   0.037   2.188  12.800 -1.0371 -3.0376 -0.6004
  168MPD2     C 2612   0.240   2.316  12.334  0.5550  0.1277 -0.1304
  168MPD2    C1 2613   0.144   2.226  12.300 -0.6835  0.1695  0.1219
  168MPD2    C2 2614   0.138   2.182  12.167  0.2924  0.4614  0.3785
  168MPD2    C3 2615   0.221   2.234  12.069  0.3343 -1.0963  0.3403
  168MPD2    C4 2616   0.302   2.341  12.100  0.4232  0.0092  0.1535
  168MPD2    C5 2617   0.315   2.365  12.232 -0.6039  0.1324  0.3452
  168MPD2     H 2618   0.079   2.095  12.139  0.6951  0.3501 -0.1280
  168MPD2    H1 2619   0.369   2.395  12.035 -2.9960  0.8606 -2.6438
  168MPD2    H2 2620   0.245   2.360  12.433 -0.6119 -1.4318  0.6155
  168MPD2    H3 2621   0.385   2.441  12.266 -2.4957  2.4233 -0.9027
  168MPD2     N 2622   0.211   2.192  11.927  0.2256 -0.3660  0.3218
  168MPD2    H5 2623   0.276   2.247  11.872 -0.8543 -1.7928 -2.3589
  168MPD2    N1 2624   0.054   2.178  12.401  0.4029  0.1564  0.2045
  168MPD2    H7 2625   0.079   2.203  12.496 -0.8720 -0.9180  0.8125
  169MPD1     C 2626   2.409   2.326   8.806 -0.0719  0.5276  0.1627
  169MPD1    C1 2627   2.306   2.310   8.893 -0.0421 -0.5490 -0.6823
  169MPD1    C2 2628   2.325   2.244   9.017  0.0621 -0.4146  0.8494
  169MPD1    C3 2629   2.450   2.203   9.051  0.1506 -0.3301 -0.5151
  169MPD1    C4 2630   2.546   2.210   8.961 -0.7335  0.2588  0.2401
  169MPD1    C5 2631   2.534   2.266   8.836  0.2284 -0.0465  0.4184
  169MPD1     H 2632   2.243   2.252   9.088  0.7270 -0.0778  1.5799
  169MPD1    H1 2633   2.644   2.168   8.981 -0.6556  0.4220  0.1941
  169MPD1    H2 2634   2.389   2.371   8.710 -0.4434  2.3438  1.0923
  169MPD1    H3 2635   2.614   2.279   8.765 -0.1360 -1.0787 -0.1939
  169MPD1     N 2636   2.473   2.166   9.184  0.1882  0.0569 -0.0944
  169MPD1    H5 2637   2.391   2.156   9.242  0.2722 -1.5788 -0.2661
  169MPD1    N1 2638   2.175   2.347   8.862  0.1373  0.1253  0.0028
  169MPD1    H6 2639   2.121   2.368   8.946  0.0201 -0.3463  0.0451
  169MPD1    H7 2640   2.186   2.433   8.809 -0.8224 -0.4556 -1.1402
  170MPD1     C 2641   1.082   3.740  12.969  0.0421  0.5445 -0.1978
  170MPD1    C1 2642   1.014   3.726  13.088 -0.4449  0.5407  0.1735
  170MPD1    C2 2643   0.961   3.835  13.150 -0.7806  0.3099  0.1630
  170MPD1    C3 2644   0.972   3.960  13.098  0.3418  0.1775  0.0630
  170MPD1    C4 2645   1.028   3.974  12.972 -0.0589 -0.5819 -0.2184
  170MPD1    C5 2646   1.092   3.868  12.912 -0.4445 -0.1099  0.4488
  170MPD1     H 2647   0.923   3.838  13.251  0.2393 -0.2494  0.5705
  170MPD1    H1 2648   1.044   4.066  12.916  0.9842  1.1402  2.8881
  170MPD1    H2 2649   1.118   3.656  12.910  0.0256  0.6552 -0.3669
  170MPD1    H3 2650   1.130   3.892  12.813 -1.9575  2.0470  0.3832
  170MPD1     N 2651   0.918   4.067  13.171  0.4116 -0.6539 -0.1489
  170MPD1    H5 2652   0.875   4.029  13.254 -1.4303 -1.0159 -1.2742
  170MPD1    N1 2653   1.034   3.608  13.159 -0.1446 -0.3324 -0.3524
  170MPD1    H6 2654   1.061   3.525  13.107 -0.2533 -1.0905  0.7900
  170MPD1    H7 2655   0.953   3.596  13.220  0.0412 -3.3165 -0.6800
  171MPD1     C 2656   3.986   0.529  15.259  0.4892  0.1419 -0.2531
  171MPD1    C1 2657   3.964   0.395  15.240  0.5341  0.3306  0.2966
  171MPD1    C2 2658   4.046   0.306  15.305 -0.7698  0.1660 -0.3397
  171MPD1    C3 2659   4.155   0.340  15.380  0.1509  0.1221  0.3625
  171MPD1    C4 2660   4.165   0.473  15.416 -0.1427  0.1765 -0.1432
  171MPD1    C5 2661   4.081   0.566  15.349  0.7100 -0.4047  0.2123
  171MPD1     H 2662   4.016   0.202  15.304 -0.6350  0.1043  1.9843
  171MPD1    H1 2663   4.246   0.505  15.480 -0.8829  0.3337  0.7029
  171MPD1    H2 2664   3.919   0.602  15.213  0.5987  0.0093 -0.6201
  171MPD1    H3 2665   4.087   0.667  15.386 -0.0583 -0.6795  1.0745
  171MPD1     N 2666   4.239   0.249  15.445 -0.0610  0.4938 -0.1568
  171MPD1    H5 2667   4.316   0.281  15.504  0.0809  0.4901 -0.3389
  171MPD1    N1 2668   3.848   0.353  15.178 -1.2170  0.5014 -0.0357
  171MPD1    H6 2669   3.817   0.412  15.101  1.3785  0.1621 -1.3193
  171MPD1    H7 2670   3.856   0.256  15.147  1.2575  0.4899  0.7000
  172MPD1     C 2671   3.000   4.304   0.400  0.6478  0.2973  0.9379
  172MPD1    C1 2672   2.906   4.397   0.417 -0.1533  0.1704 -0.0464
  172MPD1    C2 2673   2.939   4.528   0.427  0.1250 -0.6980  0.2935
  172MPD1    C3 2674   3.074   4.566   0.441  0.9380  0.8883  0.3746
  172MPD1    C4 2675   3.164   4.467   0.461 -0.3639 -0.0428 -0.8499
  172MPD1    C5 2676   3.127   4.337   0.432  0.0790 -0.0311 -0.0274
  172MPD1     H 2677   2.870   4.611   0.424 -1.4832 -2.1591 -2.8712
  172MPD1    H1 2678   3.268   4.483   0.484 -0.6504  1.0640 -0.3374
  172MPD1    H2 2679   2.975   4.200   0.381 -0.3641  0.8970 -0.9977
  172MPD1    H3 2680   3.195   4.254   0.445 -2.8234 -2.2440  1.1101
  172MPD1     N 2681   3.125   4.699   0.459 -0.8631 -0.1468  0.1392
  172MPD1    H5 2682   3.222   4.721   0.479 -1.2721 -0.2587  2.2078
  172MPD1    N1 2683   2.773   4.354   0.404 -0.1582 -0.0348  0.5838
  172MPD1    H6 2684   2.756   4.267   0.453  0.0763 -0.8615 -0.7931
  172MPD1    H7 2685   2.709   4.425   0.438  0.3537  0.6422  0.1427
  173MPD1     C 2686   0.382   0.023  14.095 -0.1223 -0.6470 -0.2471
  173MPD1    C1 2687   0.249   0.048  14.134 -0.0842 -0.0362  0.2697
  173MPD1    C2 2688   0.181   4.672  14.174  0.0615  0.5771 -0.3853
  173MPD1    C3 2689   0.237   4.550  14.192  0.0660  0.1368 -0.0669
  173MPD1    C4 2690   0.374   4.536  14.171  0.7023 -0.0131 -0.0196
  173MPD1    C5 2691   0.444   4.642  14.122 -1.0054 -0.3238  0.0365
  173MPD1     H 2692   0.080   4.681  14.212  0.9084  1.3076  1.7074
  173MPD1    H1 2693   0.426   4.443  14.190  0.0078 -0.5953 -1.0003
  173MPD1    H2 2694   0.444   0.104  14.057 -0.6209  0.8704  2.1813
  173MPD1    H3 2695   0.552   4.641  14.109 -0.9829 -2.0276  0.4240
  173MPD1     N 2696   0.152   4.451  14.247  0.4045 -0.6882 -0.4114
  173MPD1    H5 2697   0.059   4.482  14.271 -0.3087 -3.2049  0.0029
  173MPD1    N1 2698   0.182   0.170  14.112  0.6192  0.5113  0.0225
  173MPD1    H6 2699   0.100   0.176  14.171  0.7332  2.9838 -0.0757
  173MPD1    H7 2700   0.235   0.256  14.120  0.7232  0.5055 -0.5975
  174MPD1     C 2701   0.174   3.625  14.700  0.1611 -0.2634  0.4481
  174MPD1    C1 2702   0.089   3.585  14.601 -0.2138  0.5391  0.1229
  174MPD1    C2 2703   0.064   3.668  14.492 -0.1862  0.0540 -0.6955
  174MPD1    C3 2704   0.132   3.790  14.480  0.4004 -0.2615 -0.4487
  174MPD1    C4 2705   0.224   3.815  14.574  0.3149  0.7162 -0.8382
  174MPD1    C5 2706   0.243   3.743  14.691  0.1091 -0.1069 -0.4164
  174MPD1     H 2707   4.736   3.634  14.414 -0.3780 -1.2513  0.0277
  174MPD1    H1 2708   0.276   3.909  14.559  0.9435  0.3564 -0.8734
  174MPD1    H2 2709   0.174   3.577  14.797 -1.6605 -1.0592  0.0525
  174MPD1    H3 2710   0.304   3.778  14.773 -1.5030  3.0400 -0.5661
  174MPD1     N 2711   0.112   3.884  14.378 -0.1295 -0.2353  0.5955
  174MPD1    H5 2712   0.169   3.967  14.392 -0.0654 -0.5244  2.1099
  174MPD1    N1 2713   0.009   3.475  14.618 -0.3150  0.1010 -0.2138
  174MPD1    H6 2714   0.045   3.398  14.675 -0.3242 -1.6202 -2.5253
  174MPD1    H7 2715   4.712   3.439  14.529 -0.9347 -1.3569  0.6133
  175MPD1     C 2716   3.196   0.806  15.161  0.1399  0.0156  0.2256
  175MPD1    C1 2717   3.073   0.757  15.135 -0.1414 -0.4019  0.4697
  175MPD1    C2 2718   2.993   0.720  15.235 -0.4270  0.0798 -0.4116
  175MPD1    C3 2719   3.037   0.731  15.363  0.2123  0.4705  0.2835
  175MPD1    C4 2720   3.166   0.769  15.387  0.4807 -0.3873  0.0009
  175MPD1    C5 2721   3.246   0.805  15.288 -0.3300 -0.4918  0.1958
  175MPD1     H 2722   2.897   0.675  15.210 -0.3510  0.2761 -1.0666
  175MPD1    H1 2723   3.197   0.772  15.491  1.2197  3.4180 -0.3308
  175MPD1    H2 2724   3.264   0.835  15.083  0.4284 -1.7032 -0.1409
  175MPD1    H3 2725   3.343   0.846  15.313 -0.9270  1.3782 -0.5442
  175MPD1     N 2726   2.955   0.687  15.469 -0.4096  0.0187 -0.3672
  175MPD1    H5 2727   3.002   0.660  15.555  2.4398 -1.0703 -2.2728
  175MPD1    N1 2728   3.046   0.725  15.002  1.0811 -0.0359 -0.0771
  175MPD1    H6 2729   3.091   0.787  14.936  2.9721  0.0027  1.2584
  175MPD1    H7 2730   2.949   0.716  14.972  0.7012 -1.3681  1.5432
  176MPD1     C 2731   4.302   2.568   0.412 -0.9317 -0.2054  0.1411
  176MPD1    C1 2732   4.348   2.667   0.499 -0.1098 -0.9432 -0.4079
  176MPD1    C2 2733   4.408   2.774   0.442 -0.6960  0.3988 -0.0257
  176MPD1    C3 2734   4.449   2.768   0.310 -0.5573 -0.0493  0.6382
  176MPD1    C4 2735   4.420   2.657   0.230 -1.1427 -0.1063 -0.0900
  176MPD1    C5 2736   4.339   2.563   0.283  0.6324 -0.1923 -0.2721
  176MPD1     H 2737   4.429   2.860   0.504  0.3146  1.5019 -1.8975
  176MPD1    H1 2738   4.451   2.639   0.127 -0.0758 -2.0611  0.5710
  176MPD1    H2 2739   4.245   2.488   0.457 -0.2707 -0.7025  0.0916
  176MPD1    H3 2740   4.308   2.485   0.213  0.4683 -0.4476  0.0873
  176MPD1     N 2741   4.524   2.874   0.250 -0.4863  0.1038 -0.1787
  176MPD1    H5 2742   4.570   2.937   0.315 -1.7249 -1.3379  2.0685
  176MPD1    N1 2743   4.303   2.677   0.631 -0.0099  0.0326 -0.5541
  176MPD1    H6 2744   4.344   2.753   0.685 -1.6167  0.5032  0.0196
  176MPD1    H7 2745   4.279   2.597   0.689  0.5501  0.8226  0.7719
  177MPD1     C 2746   3.311   2.303   9.275  0.6871  0.3140  0.5070
  177MPD1    C1 2747   3.259   2.295   9.142 -0.1243 -0.1943  0.4502
  177MPD1    C2 2748   3.126   2.331   9.122  0.5503 -0.1396  0.1494
  177MPD1    C3 2749   3.043   2.391   9.212 -0.7625  0.7027 -1.0257
  177MPD1    C4 2750   3.103   2.424   9.330 -0.3533  0.4137  0.0719
  177MPD1    C5 2751   3.233   2.380   9.362  0.4373  0.0371  0.7504
  177MPD1     H 2752   3.087   2.299   9.026 -2.4370  0.7077  1.0667
  177MPD1    H1 2753   3.036   2.471   9.401 -0.8396  0.0662 -0.1599
  177MPD1    H2 2754   3.410   2.269   9.302  1.5423  1.8489 -0.6662
  177MPD1    H3 2755   3.271   2.406   9.460 -0.7520  3.6652  0.2476
  177MPD1     N 2756   2.909   2.420   9.183 -0.1374 -0.4342 -0.1658
  177MPD1    H5 2757   2.883   2.409   9.086 -0.0910 -3.0734  0.1181
  177MPD1    N1 2758   3.334   2.221   9.046  0.5375  0.4742 -0.3545
  177MPD1    H6 2759   3.435   2.231   9.052  0.4079  0.9957  0.9497
  177MPD1    H7 2760   3.306   2.250   8.953  1.4700  0.5209 -0.6142
  178MPD1     C 2761   0.881   2.359  17.593  0.6446  0.1610  0.2871
  178MPD1    C1 2762   0.965   2.367  17.485  0.6842  0.0671  0.6882
  178MPD1    C2 2763   1.037   2.486  17.466 -0.3600 -0.3358 -0.5332
  178MPD1    C3 2764   1.032   2.590  17.553  0.3928  0.5167  0.2274
  178MPD1    C4 2765   0.943   2.579  17.656 -0.3998 -0.2449  0.3437
  178MPD1    C5 2766   0.871   2.467  17.675 -0.4932  0.4617 -0.1574
  178MPD1     H 2767   1.112   2.501  17.389 -0.1917 -2.6703 -0.8348
  178MPD1    H1 2768   0.928   2.662  17.725  0.3254  2.2568 -2.4971
  178MPD1    H2 2769   0.830   2.269  17.626  1.3980  0.1854  1.5444
  178MPD1    H3 2770   0.812   2.462   0.016 -1.4917  0.2123 -0.8252
  178MPD1     N 2771   1.109   2.702  17.526  0.8862  0.7284  0.4684
  178MPD1    H5 2772   1.188   2.696  17.463  0.7000  0.0462  0.2997
  178MPD1    N1 2773   0.994   2.255  17.415  0.0071 -0.0293  0.1407
  178MPD1    H6 2774   1.011   2.278  17.317  1.9296  1.6247  0.8623
  178MPD1    H7 2775   0.908   2.200  17.416  0.0106 -0.0765 -2.0158
  179MPD1     C 2776   0.810   0.921  15.369  0.0970  0.0847  0.8300
  179MPD1    C1 2777   0.701   0.973  15.297  0.5603  0.3433 -0.8406
  179MPD1    C2 2778   0.604   1.031  15.368 -0.7255  0.0456  0.3568
  179MPD1    C3 2779   0.623   1.063  15.502  0.2092 -0.3686 -0.0095
  179MPD1    C4 2780   0.734   1.019  15.568 -0.4802  0.2764 -0.2252
  179MPD1    C5 2781   0.829   0.950  15.496  0.3008  0.1468  0.3136
  179MPD1     H 2782   0.509   1.049  15.318 -1.4962 -1.8841  1.1265
  179MPD1    H1 2783   0.737   1.028  15.676  1.6322  0.4384 -0.2938
  179MPD1    H2 2784   0.874   0.846  15.323 -0.8146  0.1319 -0.5361
  179MPD1    H3 2785   0.915   0.898  15.536 -0.4126  0.2920  2.0462
  179MPD1     N 2786   0.526   1.127  15.585 -0.2683 -0.3147  0.1692
  179MPD1    H5 2787   0.558   1.175  15.669  1.8712  0.6205 -1.1714
  179MPD1    N1 2788   0.681   0.928  15.167  0.2353  0.1163  0.2037
  179MPD1    H6 2789   0.773   0.931  15.122 -0.9072  1.7107 -2.0394
  179MPD1    H7 2790   0.632   1.002  15.118 -0.7018 -1.1965 -0.8346
  180MPD1     C 2791   0.427   2.927  14.520 -0.1822 -0.1595 -0.1128
  180MPD1    C1 2792   0.444   2.935  14.386 -0.2561 -0.0356  0.2991
  180MPD1    C2 2793   0.341   2.945  14.299 -0.1504 -0.1787  0.1008
  180MPD1    C3 2794   0.211   2.934  14.344 -0.3978  0.3165  0.1526
  180MPD1    C4 2795   0.192   2.929  14.480 -0.5084  0.1678 -0.3514
  180MPD1    C5 2796   0.301   2.926  14.571 -0.9722 -0.2305  0.4628
  180MPD1     H 2797   0.351   2.951  14.191  0.2415  1.0585  0.1981
  180MPD1    H1 2798   0.096   2.920  14.529 -0.2412 -0.2547  0.0993
  180MPD1    H2 2799   0.509   2.917  14.590  0.5871  1.6907 -0.7498
  180MPD1    H3 2800   0.284   2.908  14.676 -1.4362 -3.8575 -0.2440
  180MPD1     N 2801   0.106   2.945  14.253  0.0212 -0.1298 -0.4307
  180MPD1    H5 2802   0.128   2.983  14.162  1.0533  0.2856 -0.0050
  180MPD1    N1 2803   0.576   2.907  14.341 -0.3870  0.9775 -0.0329
  180MPD1    H6 2804   0.588   2.908  14.240 -0.5036  0.6276 -0.0511
  180MPD1    H7 2805   0.657   2.920  14.402 -0.3687 -1.4136  0.4714
  181MPD1     C 2806   1.578   4.619   9.403  0.9083  0.7507  0.2032
  181MPD1    C1 2807   1.669   4.515   9.383 -0.1163 -0.0898 -0.5128
  181MPD1    C2 2808   1.748   4.472   9.487 -0.0344  0.1003  0.1030
  181MPD1    C3 2809   1.751   4.554   9.600 -0.0128  0.1188 -0.6460
  181MPD1    C4 2810   1.668   4.657   9.615 -0.2722 -0.4893  0.0535
  181MPD1    C5 2811   1.574   4.692   9.517  0.3127  0.4098  0.0161
  181MPD1     H 2812   1.802   4.379   9.479 -0.8516 -0.5992  2.8361
  181MPD1    H1 2813   1.674   4.717   9.705 -0.1467  0.7011 -0.7513
  181MPD1    H2 2814   1.503   4.634   9.327  0.4837 -0.3359  0.4018
  181MPD1    H3 2815   1.499   0.031   9.530  0.2608  0.1127  1.4837
  181MPD1     N 2816   1.844   4.527   9.701  0.3271  0.5581 -0.2934
  181MPD1    H5 2817   1.837   4.585   9.784  1.2298  0.9501 -0.4896
  181MPD1    N1 2818   1.652   4.430   9.273 -0.3082  0.2556 -0.0611
  181MPD1    H6 2819   1.745   4.399   9.247  0.2563 -0.8244  3.3084
  181MPD1    H7 2820   1.622   4.478   9.188 -2.2406 -1.3654 -0.3120
  182MPD1     C 2821   2.933   3.761   0.116 -0.1568 -0.0903 -0.0365
  182MPD1    C1 2822   2.930   3.806   0.242  0.2068 -0.4858 -0.2296
  182MPD1    C2 2823   2.824   3.779   0.325  0.5137 -0.0903  0.3954
  182MPD1    C3 2824   2.720   3.699   0.283  0.5894 -0.1750 -0.0392
  182MPD1    C4 2825   2.721   3.645   0.157 -0.1533  0.5715 -0.4053
  182MPD1    C5 2826   2.827   3.683   0.075  0.3504 -0.5719  0.3576
  182MPD1     H 2827   2.822   3.843   0.412  1.8119  0.7063 -0.1668
  182MPD1    H1 2828   2.636   3.583   0.128  0.5845 -0.7022  0.1378
  182MPD1    H2 2829   3.010   3.788   0.044  0.1424  1.3151  0.8002
  182MPD1    H3 2830   2.809   3.657  17.722  0.4477 -0.2108  0.2491
  182MPD1     N 2831   2.605   3.680   0.361 -0.6186 -0.3218 -0.5574
  182MPD1    H5 2832   2.539   3.612   0.326 -1.6549  0.5654 -0.3337
  182MPD1    N1 2833   3.027   3.898   0.280  0.6926  1.3258 -0.5747
  182MPD1    H6 2834   3.041   3.897   0.381  1.7350 -2.3066 -0.7651
  182MPD1    H7 2835   3.111   3.886   0.224  1.5894  0.6690  0.9046
  183MPD1     C 2836   2.336   3.628   9.203  0.6271  0.2212 -0.1290
  183MPD1    C1 2837   2.264   3.721   9.262  0.5230 -0.3037 -0.4722
  183MPD1    C2 2838   2.331   3.798   9.359 -0.9102 -0.1647  0.3595
  183MPD1    C3 2839   2.466   3.773   9.392 -1.0389  0.2701 -0.0697
  183MPD1    C4 2840   2.538   3.682   9.316 -0.0205 -0.9451 -0.2563
  183MPD1    C5 2841   2.473   3.609   9.218  0.6152 -0.8292  0.2290
  183MPD1     H 2842   2.276   3.878   9.408 -2.0179 -1.0299  0.5101
  183MPD1    H1 2843   2.645   3.668   9.322  0.1857  0.7707  0.1552
  183MPD1    H2 2844   2.291   3.560   9.132 -0.2021 -2.2435  2.7671
  183MPD1    H3 2845   2.521   3.542   9.148  0.4947  1.7096 -2.3123
  183MPD1     N 2846   2.522   3.841   9.501 -0.1259 -0.3830  0.1088
  183MPD1    H5 2847   2.475   3.922   9.541 -2.5522 -0.4676 -2.6288
  183MPD1    N1 2848   2.141   3.762   9.215  0.4590 -0.2203  0.0878
  183MPD1    H6 2849   2.079   3.779   9.294  0.9676 -1.3708  0.7495
  183MPD1    H7 2850   2.099   3.688   9.159  1.7865 -0.8694 -0.0430
  184MPD1     C 2851   2.380   2.061  10.274  0.4831  0.9557 -0.2182
  184MPD1    C1 2852   2.246   2.103  10.276  0.4198  0.2132 -0.1617
  184MPD1    C2 2853   2.219   2.213  10.208  0.1336 -0.3756 -0.1037
  184MPD1    C3 2854   2.323   2.305  10.178 -0.5677 -0.2713  0.2646
  184MPD1    C4 2855   2.455   2.270  10.204 -0.1197  0.2378 -0.0268
  184MPD1    C5 2856   2.479   2.147  10.252  0.7930  0.8953  0.0382
  184MPD1     H 2857   2.115   2.236  10.188  1.2413  2.4786 -2.7442
  184MPD1    H1 2858   2.537   2.329  10.165  2.1884 -1.1636  2.6976
  184MPD1    H2 2859   2.416   1.965  10.309  0.9472  1.0009 -0.5739
  184MPD1    H3 2860   2.580   2.109  10.261  0.1511 -0.9026 -0.1956
  184MPD1     N 2861   2.302   2.435  10.119 -0.0371 -0.6320  0.1458
  184MPD1    H5 2862   2.381   2.498  10.108  0.1079 -0.9230 -0.5123
  184MPD1    N1 2863   2.140   2.020  10.316 -0.2968 -0.2971  0.2735
  184MPD1    H6 2864   2.158   1.951  10.389 -0.2300 -1.7350 -1.1006
  184MPD1    H7 2865   2.066   2.085  10.340 -0.0522 -0.2609  0.9403
  185MPD1     C 2866   1.417   2.792   9.740  0.0510 -0.3416  0.2846
  185MPD1    C1 2867   1.503   2.904   9.740 -0.2258  0.4394  0.5844
  185MPD1    C2 2868   1.629   2.891   9.805 -0.1177  0.0427 -0.9472
  185MPD1    C3 2869   1.678   2.768   9.836  0.2835 -0.0215 -0.8328
  185MPD1    C4 2870   1.593   2.658   9.829  0.8226  0.2965  0.3963
  185MPD1    C5 2871   1.464   2.675   9.784  0.2607  0.0691 -0.3127
  185MPD1     H 2872   1.691   2.979   9.800 -0.7550  0.4875 -1.0363
  185MPD1    H1 2873   1.615   2.566   9.882 -0.9211  1.6615  3.4812
  185MPD1    H2 2874   1.317   2.794   9.698  1.2654  1.2510 -2.5430
  185MPD1    H3 2875   1.396   2.590   9.785 -0.7118  0.8322 -0.7986
  185MPD1     N 2876   1.812   2.739   9.870  0.2856 -0.7482 -0.0806
  185MPD1    H5 2877   1.839   2.642   9.886  0.9002 -0.6503 -0.5440
  185MPD1    N1 2878   1.453   3.031   9.696  0.1273 -0.2726  0.1746
  185MPD1    H6 2879   1.526   3.100   9.678  1.1811 -0.9018  2.0134
  185MPD1    H7 2880   1.375   3.026   9.630  0.5110  2.2622 -0.4913
  186MPD1     C 2881   0.525   1.555  15.968  0.2455 -0.2261  0.1703
  186MPD1    C1 2882   0.427   1.603  16.058  0.2439  0.1277  1.1664
  186MPD1    C2 2883   0.444   1.738  16.098  0.0712  0.6674 -0.0601
  186MPD1    C3 2884   0.567   1.794  16.089 -0.6588 -0.6445  0.3041
  186MPD1    C4 2885   0.655   1.753  15.993 -0.5977 -0.3485 -0.4376
  186MPD1    C5 2886   0.631   1.636  15.924  0.1145 -0.0109 -0.0967
  186MPD1     H 2887   0.363   1.782  16.155 -0.0102  0.8621 -0.3226
  186MPD1    H1 2888   0.743   1.811  15.968 -0.5863 -0.2469 -0.1513
  186MPD1    H2 2889   0.511   1.460  15.918  1.5175  0.6495 -1.8458
  186MPD1    H3 2890   0.700   1.604  15.846 -0.8293 -0.6031 -0.6850
  186MPD1     N 2891   0.595   1.918  16.150  0.7385 -0.4088  0.0507
  186MPD1    H5 2892   0.674   1.972  16.115 -0.0750  0.8788  0.1650
  186MPD1    N1 2893   0.307   1.542  16.079  0.0993 -0.3067 -0.1563
  186MPD1    H6 2894   0.252   1.569  16.160 -0.4269  3.1152 -1.6681
  186MPD1    H7 2895   0.309   1.440  16.070  0.2357 -0.2849 -0.3790
  187MPD1     C 2896   0.609   3.668  17.592 -0.8228 -0.5494 -0.6691
  187MPD1    C1 2897   0.479   3.629  17.626  0.3036  0.2519 -0.3376
  187MPD1    C2 2898   0.374   3.662  17.539 -0.7195  0.5322 -0.2171
  187MPD1    C3 2899   0.393   3.763  17.449  0.6746  1.1816 -0.4237
  187MPD1    C4 2900   0.516   3.813  17.430 -0.2741  0.2883  0.5601
  187MPD1    C5 2901   0.624   3.762  17.499  0.4261  0.2467 -0.5786
  187MPD1     H 2902   0.278   3.615  17.556 -2.0849  2.5505 -2.4447
  187MPD1    H1 2903   0.531   3.884  17.350 -1.0740  0.8023  0.8560
  187MPD1    H2 2904   0.697   3.631  17.644 -0.8267  1.2722  0.6465
  187MPD1    H3 2905   0.728   3.780  17.476  0.5501 -0.1203 -0.3026
  187MPD1     N 2906   0.284   3.805  17.365  0.5490 -0.2089  0.4726
  187MPD1    H5 2907   0.301   3.868  17.287 -0.6948 -0.3341  0.0903
  187MPD1    N1 2908   0.469   3.526  17.720 -0.8201  0.1353  0.0385
  187MPD1    H6 2909   0.373   3.525   0.002 -0.6141  0.7575  0.6674
  187MPD1    H7 2910   0.527   3.530   0.053  0.4833 -3.2547 -0.6954
  188MPD1     C 2911   0.014   3.444   9.955  0.0195 -0.0667 -1.3337
  188MPD1    C1 2912   0.062   3.371   9.845  0.1214 -0.2026  0.3501
  188MPD1    C2 2913   0.061   3.232   9.845 -0.2413  0.1132 -0.1973
  188MPD1    C3 2914   0.001   3.174   9.959  0.3467 -0.4683 -0.2181
  188MPD1    C4 2915   4.694   3.248  10.063 -0.2116 -0.1867  0.1534
  188MPD1    C5 2916   4.703   3.386  10.063  0.5242 -0.1953  0.2480
  188MPD1     H 2917   0.117   3.181   9.767 -0.4463 -1.0503  0.4310
  188MPD1    H1 2918   4.666   3.206  10.158 -3.0158  0.7007 -0.2980
  188MPD1    H2 2919   4.733   3.551   9.948  0.2606  0.1128  0.7830
  188MPD1    H3 2920   4.657   3.443  10.143  1.6467  2.2478 -0.8796
  188MPD1     N 2921   4.725   3.031   9.972  0.1412  0.4950 -0.0045
  188MPD1    H5 2922   4.657   3.010  10.043  0.5117 -1.4894 -0.2076
  188MPD1    N1 2923   0.100   3.434   9.727  0.3550  0.4031  0.1203
  188MPD1    H6 2924   0.173   3.386   9.675 -1.1581 -1.2030 -0.5230
  188MPD1    H7 2925   0.136   3.527   9.750 -0.2642  1.0878 -1.6909
  189MPD1     C 2926   1.543   4.564   0.196 -0.7829 -0.5115  0.1718
  189MPD1    C1 2927   1.444   4.546   0.295 -0.5289 -0.2151  0.0342
  189MPD1    C2 2928   1.342   4.637   0.286  0.1283  0.0419 -0.1765
  189MPD1    C3 2929   1.343   0.009   0.204 -0.1100 -0.0621 -0.2589
  189MPD1    C4 2930   1.443   0.026   0.122 -0.0096  0.8488  0.3979
  189MPD1    C5 2931   1.541   4.668   0.115  0.8248  0.2234  0.1818
  189MPD1     H 2932   1.253   4.632   0.348 -1.5843  1.0938 -2.5385
  189MPD1    H1 2933   1.436   0.107   0.050  3.5690  0.7310 -0.0691
  189MPD1    H2 2934   1.634   4.505   0.184 -0.0750  0.4909  0.6253
  189MPD1    H3 2935   1.629   4.685   0.054 -0.4067 -0.5001 -1.7864
  189MPD1     N 2936   1.222   0.089   0.201  0.1303 -0.5167  0.1625
  189MPD1    H5 2937   1.143   0.046   0.247  0.7556 -0.9748  0.8064
  189MPD1    N1 2938   1.443   4.442   0.388 -0.2186 -0.2267 -0.1215
  189MPD1    H6 2939   1.539   4.410   0.403 -0.2344 -0.2225 -0.0096
  189MPD1    H7 2940   1.410   4.469   0.481 -1.5136  0.1760 -0.7100
  190MPD1     C 2941   0.556   2.310  15.986 -0.4763 -0.3529  0.3828
  190MPD1    C1 2942   0.568   2.322  15.847  1.7260 -0.2281 -0.6128
  190MPD1    C2 2943   0.584   2.451  15.799  0.2161  1.0057  0.3691
  190MPD1    C3 2944   0.613   2.562  15.881  0.1977 -0.1395  0.4523
  190MPD1    C4 2945   0.604   2.541  16.019  0.5842  0.1273  0.3504
  190MPD1    C5 2946   0.567   2.420  16.066  0.4417 -0.3915  0.4349
  190MPD1     H 2947   0.583   2.464  15.692 -1.4561  1.2277  0.4051
  190MPD1    H1 2948   0.613   2.628  16.084  0.3112  0.1790  0.3176
  190MPD1    H2 2949   0.540   2.215  16.035 -0.5410 -0.9102 -0.7195
  190MPD1    H3 2950   0.549   2.399  16.171  0.8446 -0.0399  0.5773
  190MPD1     N 2951   0.622   2.692  15.824 -0.3350 -0.4491  1.0595
  190MPD1    H5 2952   0.614   2.698  15.723  1.0240 -1.0203  0.9112
  190MPD1    N1 2953   0.536   2.215  15.762  0.3314  0.1807 -0.4297
  190MPD1    H6 2954   0.589   2.132  15.788  0.2379 -0.0251 -0.8836
  190MPD1    H7 2955   0.573   2.223  15.667  0.1413 -1.5880 -0.6586
  191MPD1     C 2956   0.334   0.002  13.038 -0.3916 -0.1400 -1.3524
  191MPD1    C1 2957   0.380   0.072  12.934  0.7549  0.1065 -0.1323
  191MPD1    C2 2958   0.294   0.081  12.824 -0.1023  1.2816 -0.6768
  191MPD1    C3 2959   0.176   0.011  12.815  1.1223  0.3927 -0.3318
  191MPD1    C4 2960   0.130   4.679  12.924 -0.0036  0.2397 -0.3685
  191MPD1    C5 2961   0.219   4.671  13.033  0.2749  0.8869  0.4848
  191MPD1     H 2962   0.324   0.144  12.740 -1.3271 -0.5408 -2.4747
  191MPD1    H1 2963   0.036   4.625  12.924 -0.9737  1.9380 -1.6678
  191MPD1    H2 2964   0.388   4.734  13.132 -2.3118  4.3712 -0.0069
  191MPD1    H3 2965   0.197   4.616  13.123  0.0272  0.3942  0.1244
  191MPD1     N 2966   0.090   0.040  12.702 -0.6150 -0.1992  0.0102
  191MPD1    H5 2967   0.136   0.092  12.628 -1.9494  1.1485  0.1239
  191MPD1    N1 2968   0.487   0.160  12.948 -0.1563 -0.1206  0.1049
  191MPD1    H6 2969   0.548   0.125  13.022 -1.4937 -3.5079 -0.4091
  191MPD1    H7 2970   0.543   0.152  12.863 -1.5058  1.7198 -0.9698
  192MPD1     C 2971   3.821   0.052  12.454  0.0187 -0.4441  0.0170
  192MPD1    C1 2972   3.898   4.679  12.446 -0.3292  0.1503  0.5338
  192MPD1    C2 2973   4.030   4.690  12.456  0.0267 -0.0520 -0.0224
  192MPD1    C3 2974   4.088   0.076  12.481 -0.1964  0.3368  0.2277
  192MPD1    C4 2975   4.014   0.189  12.489  0.2244 -0.7699  0.4209
  192MPD1    C5 2976   3.877   0.175  12.493  0.3503 -0.4003 -0.4295
  192MPD1     H 2977   4.102   4.610  12.445 -1.0564 -0.9888 -0.2181
  192MPD1    H1 2978   4.045   0.287  12.523 -0.6784  0.7246 -3.1281
  192MPD1    H2 2979   3.716   0.049  12.424  0.1926  2.6990 -0.9221
  192MPD1    H3 2980   3.806   0.252  12.517  0.8301 -1.2433  3.7455
  192MPD1     N 2981   4.231   0.079  12.495  0.4165 -0.0074 -0.2432
  192MPD1    H5 2982   4.274   4.726  12.503 -0.8776 -0.3775  2.2618
  192MPD1    N1 2983   3.842   4.567  12.372 -0.2810 -0.1766  0.0767
  192MPD1    H6 2984   3.897   4.482  12.385  0.3962  0.1864 -0.4697
  192MPD1    H7 2985   3.744   4.547  12.395  0.0662 -0.1198  1.5904
  193MPD1     C 2986   4.285   4.730  17.311 -0.2641  0.3744 -0.4074
  193MPD1    C1 2987   4.293   0.121  17.355  0.6018  0.0678 -0.1036
  193MPD1    C2 2988   4.325   0.222  17.262  0.3070 -0.2826  0.6558
  193MPD1    C3 2989   4.362   0.196  17.126 -0.0360  0.1611  0.2124
  193MPD1    C4 2990   4.356   0.062  17.092  0.4620 -0.3780 -0.0193
  193MPD1    C5 2991   4.324   4.702  17.184 -0.3270 -0.0648  0.6601
  193MPD1     H 2992   4.318   0.326  17.294  0.0995 -0.0636 -0.1164
  193MPD1    H1 2993   4.376   0.024  16.992  0.4607 -2.3811  0.7479
  193MPD1    H2 2994   4.243   4.649  17.370 -2.5079  0.7189 -1.5567
  193MPD1    H3 2995   4.321   4.598  17.154 -1.5230  0.5225 -1.2582
  193MPD1     N 2996   4.402   0.288  17.029  0.7709 -0.1568  0.8570
  193MPD1    H5 2997   4.422   0.257  16.934 -2.0596 -0.8133  0.4525
  193MPD1    N1 2998   4.252   0.156  17.485 -0.0645 -0.2187 -0.8113
  193MPD1    H6 2999   4.277   0.078  17.546  0.4083  0.2997 -0.3377
  193MPD1    H7 3000   4.311   0.232  17.518  0.5698 -0.7322 -0.7587
  194MPD1     C 3001   2.003   2.288  17.208 -0.1001  0.2133  0.0162
  194MPD1    C1 3002   2.000   2.211  17.314  0.0687  0.0506  0.2318
  194MPD1    C2 3003   1.931   2.088  17.308 -0.7905 -0.2652  0.1784
  194MPD1    C3 3004   1.852   2.055  17.200  0.2826  0.4301  0.5136
  194MPD1    C4 3005   1.853   2.147  17.093 -0.4089  0.0532 -0.3788
  194MPD1    C5 3006   1.932   2.260  17.093  0.5265 -0.0393  0.1713
  194MPD1     H 3007   1.949   2.015  17.386  1.6659 -0.5730 -0.6558
  194MPD1    H1 3008   1.782   2.140  17.011 -1.3388  0.0935  0.4207
  194MPD1    H2 3009   2.073   2.370  17.215 -1.7263  1.6693 -0.8032
  194MPD1    H3 3010   1.921   2.332  17.013 -0.0801  0.7684  0.9768
  194MPD1     N 3011   1.793   1.932  17.181 -0.1286  0.0295  0.4032
  194MPD1    H5 3012   1.745   1.922  17.092  2.8258  1.5177 -1.3626
  194MPD1    N1 3013   2.082   2.240  17.429 -0.0118  0.3744  0.1188
  194MPD1    H6 3014   2.038   2.202  17.512 -0.7759  0.1716 -0.3762
  194MPD1    H7 3015   2.112   2.336  17.440 -0.7041  0.6849 -0.6757
  195MPD1     C 3016   4.019   4.581   0.002  0.1073  0.7129 -0.4711
  195MPD1    C1 3017   3.935   4.517   0.093 -0.1632 -0.6746  0.0700
  195MPD1    C2 3018   3.919   4.380   0.083  0.0873  0.3885  0.0241
  195MPD1    C3 3019   3.966   4.316  17.722  0.4833 -0.4950 -0.2114
  195MPD1    C4 3020   4.042   4.381  17.633  0.4949  0.1506 -0.3463
  195MPD1    C5 3021   4.078   4.513  17.652  0.5261  0.0216 -0.2983
  195MPD1     H 3022   3.873   4.317   0.158 -0.2020 -1.5805 -1.7858
  195MPD1    H1 3023   4.078   4.328  17.546 -1.2170  0.2553 -1.1217
  195MPD1    H2 3024   4.030   4.688   0.014  0.2853  0.8840 -2.1682
  195MPD1    H3 3025   4.126   4.558  17.566  1.2999  1.5338  0.9306
  195MPD1     N 3026   3.967   4.175  17.700  0.6889 -0.5140 -0.1406
  195MPD1    H5 3027   4.033   4.138  17.631  1.4453 -1.6162  1.1756
  195MPD1    N1 3028   3.910   4.576   0.216  0.1488  0.0041  0.9302
  195MPD1    H6 3029   3.897   4.677   0.218 -0.5212 -0.0721  0.6402
  195MPD1    H7 3030   3.821   4.542   0.253 -0.1413  1.2879  1.3980
  196MPD1     C 3031   3.291   3.288   0.091  0.0167 -0.1485  0.2253
  196MPD1    C1 3032   3.396   3.381   0.088  0.0949  0.4977  0.3297
  196MPD1    C2 3033   3.460   3.405   0.206  0.1897  0.3261 -0.3288
  196MPD1    C3 3034   3.415   3.346   0.330  0.4208  0.1631 -0.1188
  196MPD1    C4 3035   3.310   3.254   0.329 -0.2827  0.6890 -0.3475
  196MPD1    C5 3036   3.247   3.232   0.209  0.5913 -0.1331 -0.0285
  196MPD1     H 3037   3.544   3.473   0.213  1.9990 -1.9237 -0.0702
  196MPD1    H1 3038   3.273   3.206   0.419  1.6402  1.3049  0.7812
  196MPD1    H2 3039   3.219   3.291   0.010 -0.9392  1.4184  1.1415
  196MPD1    H3 3040   3.159   3.169   0.215  0.7174 -0.3729 -0.7237
  196MPD1     N 3041   3.476   3.369   0.453  0.6912 -0.0585  0.0939
  196MPD1    H5 3042   3.436   3.314   0.528  0.5368  1.7619  1.3472
  196MPD1    N1 3043   3.439   3.437  17.718  0.2257  0.0299 -0.2208
  196MPD1    H6 3044   3.376   3.432  17.638  0.6537  3.0574 -0.7701
  196MPD1    H7 3045   3.494   3.523  17.723  2.2616 -1.3187  0.4071
  197MPD1     C 3046   2.503   0.352  17.329 -0.4193 -0.1649  0.2927
  197MPD1    C1 3047   2.469   0.386  17.202  0.1354  0.1156  0.8249
  197MPD1    C2 3048   2.564   0.420  17.107 -0.4377  0.0066  0.3987
  197MPD1    C3 3049   2.697   0.414  17.134  1.2490  0.7790  0.3599
  197MPD1    C4 3050   2.733   0.365  17.261  0.0984  0.4821 -0.7026
  197MPD1    C5 3051   2.638   0.329  17.353 -0.1407 -0.6932 -0.0007
  197MPD1     H 3052   2.524   0.460  17.015  1.5298  0.7763 -0.1250
  197MPD1    H1 3053   2.839   0.352  17.283  0.3208  0.3561 -1.8396
  197MPD1    H2 3054   2.433   0.328  17.408 -1.0173  2.1700  0.4985
  197MPD1    H3 3055   2.673   0.299  17.451  0.2097  0.5212  0.2502
  197MPD1     N 3056   2.793   0.454  17.037  0.3761 -0.3305  0.0986
  197MPD1    H5 3057   2.890   0.462  17.064  0.2365  0.0885  0.4843
  197MPD1    N1 3058   2.332   0.384  17.175  0.0207  0.3784 -0.1267
  197MPD1    H6 3059   2.303   0.442  17.097  2.0960  1.5858  0.0075
  197MPD1    H7 3060   2.283   0.425  17.255 -3.1945 -2.0372 -0.8585
  198MPD1     C 3061   4.467   3.030  15.028 -0.7343  0.0708 -0.0505
  198MPD1    C1 3062   4.515   3.125  14.947  0.6998  0.1553  0.7908
  198MPD1    C2 3063   4.582   3.236  14.996  0.0118  0.8415 -0.0026
  198MPD1    C3 3064   4.583   3.260  15.130 -0.6845 -0.3408 -0.4736
  198MPD1    C4 3065   4.529   3.165  15.222 -0.3974 -0.6718  0.0261
  198MPD1    C5 3066   4.471   3.054  15.168  0.0369 -0.5732  1.0816
  198MPD1     H 3067   4.624   3.312  14.931 -1.4570  1.4021 -0.2903
  198MPD1    H1 3068   4.541   3.182  15.328  0.4874  1.9581 -0.5053
  198MPD1    H2 3069   4.410   2.948  14.987  0.0484 -0.5348  0.0543
  198MPD1    H3 3070   4.422   2.977  15.226  0.7458 -2.3985 -0.7434
  198MPD1     N 3071   4.643   3.382  15.165 -0.0605  0.0251  0.1423
  198MPD1    H5 3072   4.696   3.420  15.087 -0.9517 -2.8208 -1.8327
  198MPD1    N1 3073   4.526   3.108  14.806  0.0276 -0.0966  0.4790
  198MPD1    H6 3074   4.449   3.052  14.771  1.0784 -1.2642  0.0515
  198MPD1    H7 3075   4.521   3.196  14.754  0.1766 -1.0280 -1.0996
  199MPD1     C 3076   3.029   0.935  10.281 -0.2625  0.4018  0.0688
  199MPD1    C1 3077   2.923   0.869  10.331 -0.1357 -0.3861 -0.0860
  199MPD1    C2 3078   2.796   0.914  10.297  0.2643 -0.3413  0.2764
  199MPD1    C3 3079   2.777   1.029  10.224 -0.4305  0.4466  0.6354
  199MPD1    C4 3080   2.885   1.091  10.169 -0.2147 -0.6438 -0.4455
  199MPD1    C5 3081   3.007   1.040  10.195  0.2268 -0.1915 -0.3766
  199MPD1     H 3082   2.719   0.849  10.338  0.1140 -0.1975  0.2246
  199MPD1    H1 3083   2.879   1.188  10.122  2.1941 -1.1678 -1.8258
  199MPD1    H2 3084   3.128   0.912  10.317 -0.9190 -1.2722  0.8537
  199MPD1    H3 3085   3.093   1.094  10.159  2.0514 -3.3419 -0.7130
  199MPD1     N 3086   2.649   1.092  10.211 -0.4536  0.0978 -0.1913
  199MPD1    H5 3087   2.645   1.176  10.154 -2.5272 -0.3783 -0.7319
  199MPD1    N1 3088   2.956   0.776  10.430 -0.0233  0.3248  0.1000
  199MPD1    H6 3089   2.895   0.696  10.416 -0.1081  0.1326  1.5942
  199MPD1    H7 3090   3.048   0.736  10.444 -1.9216 -4.0094  0.2069
  200MPD1     C 3091   1.008   0.379  14.818  0.3881  0.3626 -0.2033
  200MPD1    C1 3092   1.005   0.322  14.697 -0.1724 -0.0047  0.3886
  200MPD1    C2 3093   1.122   0.275  14.642  0.4023  0.1698 -0.5436
  200MPD1    C3 3094   1.243   0.302  14.704 -0.0435 -0.1786 -0.2235
  200MPD1    C4 3095   1.246   0.367  14.827 -0.0181 -0.4560 -0.7612
  200MPD1    C5 3096   1.125   0.391  14.888 -0.1313  0.9543 -0.1207
  200MPD1     H 3097   1.125   0.232  14.543 -0.2961 -2.4221  0.5483
  200MPD1    H1 3098   1.337   0.380  14.884 -0.5927 -0.5644  0.1938
  200MPD1    H2 3099   0.914   0.414  14.860  0.5037  0.3056  0.1015
  200MPD1    H3 3100   1.116   0.440  14.984  0.2937 -0.7796  0.8222
  200MPD1     N 3101   1.353   0.253  14.633  0.3302  0.4104 -0.0935
  200MPD1    H5 3102   1.330   0.211  14.543  0.4701  1.1747 -0.4924
  200MPD1    N1 3103   0.879   0.292  14.642 -0.4427  0.5522 -0.1651
  200MPD1    H6 3104   0.882   0.266  14.544  0.9353 -2.2428  0.6297
  200MPD1    H7 3105   0.814   0.369  14.658 -1.6685 -0.7049  0.8840
  201MPD1     C 3106   3.571   3.784  13.632  0.4077  0.0274  0.4327
  201MPD1    C1 3107   3.654   3.745  13.533  0.0802 -0.3417 -0.0340
  201MPD1    C2 3108   3.668   3.609  13.520 -0.5765  0.4650  0.0158
  201MPD1    C3 3109   3.621   3.523  13.620  0.1574 -0.3156 -0.5166
  201MPD1    C4 3110   3.548   3.572  13.726 -0.5164 -0.5025  1.0243
  201MPD1    C5 3111   3.522   3.709  13.731  0.2442 -0.5677  0.9777
  201MPD1     H 3112   3.717   3.562  13.435 -2.0054 -1.1296  0.0629
  201MPD1    H1 3113   3.517   3.514  13.812 -1.7964  2.2117  2.4205
  201MPD1    H2 3114   3.562   3.891  13.646 -3.2647 -0.1651 -0.7098
  201MPD1    H3 3115   3.479   3.753  13.820 -0.1044  1.1212 -0.0207
  201MPD1     N 3116   3.655   3.386  13.604 -0.5419  0.7036  0.6706
  201MPD1    H5 3117   3.707   3.355  13.523 -1.8913 -0.2919  0.1716
  201MPD1    N1 3118   3.702   3.834  13.433  0.1909  0.4605  0.0542
  201MPD1    H6 3119   3.778   3.797  13.376 -1.1531 -0.8846 -0.8494
  201MPD1    H7 3120   3.732   3.918  13.481 -0.2500 -0.3890  1.7969
  202MPD1     C 3121   3.073   3.196   9.043  0.2375  0.0534  0.7587
  202MPD1    C1 3122   3.173   3.104   9.065 -0.1212 -1.3509  0.0560
  202MPD1    C2 3123   3.244   3.128   9.189  0.1134  0.8598 -0.1603
  202MPD1    C3 3124   3.238   3.251   9.255 -0.1035  0.7360  0.4823
  202MPD1    C4 3125   3.132   3.337   9.220 -0.1077  0.0431 -0.2642
  202MPD1    C5 3126   3.057   3.313   9.112  0.2107 -0.1834  0.2271
  202MPD1     H 3127   3.337   3.072   9.184 -1.9694 -2.7191  1.9012
  202MPD1    H1 3128   3.113   3.415   9.293 -0.4255  2.7096 -3.2085
  202MPD1    H2 3129   3.008   3.186   8.956 -0.8921  0.0826  1.6086
  202MPD1    H3 3130   2.976   3.382   9.093  2.0397  1.7889 -0.5100
  202MPD1     N 3131   3.323   3.293   9.357 -0.0609  0.7105  0.2649
  202MPD1    H5 3132   3.308   3.381   9.405 -2.3953 -0.0282  0.8835
  202MPD1    N1 3133   3.152   2.977   9.011 -0.3131  0.4588 -0.2938
  202MPD1    H6 3134   3.116   2.980   8.916 -0.2194  1.4894 -0.3006
  202MPD1    H7 3135   3.242   2.931   9.006 -0.6866 -0.2920 -0.0654
  203MPD1     C 3136   2.740   4.700  12.553  0.2987  0.3703  0.5717
  203MPD1    C1 3137   2.820   4.610  12.618 -0.2898  0.1234 -0.7770
  203MPD1    C2 3138   2.781   4.474  12.617  0.4990  0.1407 -0.2840
  203MPD1    C3 3139   2.663   4.431  12.558  0.0734 -0.8670 -0.6372
  203MPD1    C4 3140   2.588   4.526  12.492  0.0410  0.4267 -0.4671
  203MPD1    C5 3141   2.632   4.653  12.479 -0.4946 -0.1030 -0.1202
  203MPD1     H 3142   2.833   4.402  12.679 -0.4050 -0.4628 -0.2255
  203MPD1    H1 3143   2.496   4.493  12.446  1.2842 -2.0570 -1.2200
  203MPD1    H2 3144   2.762   0.068  12.555 -0.3548  0.5485 -2.2153
  203MPD1    H3 3145   2.565   4.722  12.429 -0.2855 -0.1959 -0.5278
  203MPD1     N 3146   2.620   4.299  12.594  0.7690 -0.1023  0.0784
  203MPD1    H5 3147   2.680   4.246  12.657  2.4244 -1.7451 -2.8911
  203MPD1    N1 3148   2.931   4.648  12.697  0.1781  0.1805 -0.5201
  203MPD1    H6 3149   2.985   4.568  12.729  0.4610  0.8427  0.6348
  203MPD1    H7 3150   2.994   4.716  12.655  0.1507  0.5739  0.0767
  204MPD1     C 3151   1.441   1.156  16.935  0.9028 -0.0862 -0.5505
  204MPD1    C1 3152   1.514   1.115  16.828  0.7079  0.1901  0.1381
  204MPD1    C2 3153   1.556   0.985  16.815  0.4427  0.4529 -1.0000
  204MPD1    C3 3154   1.535   0.896  16.922  0.9075  0.3792  0.7441
  204MPD1    C4 3155   1.458   0.935  17.027  0.4465 -0.0091 -0.6367
  204MPD1    C5 3156   1.417   1.065  17.039  0.3162 -0.6378  0.2392
  204MPD1     H 3157   1.608   0.944  16.729  0.4374 -2.9884  0.6471
  204MPD1    H1 3158   1.439   0.869  17.111 -1.3417 -1.6165 -2.3044
  204MPD1    H2 3159   1.412   1.259  16.951  0.3735 -0.5559  1.4753
  204MPD1    H3 3160   1.354   1.089  17.123  0.3907 -2.6228  0.8480
  204MPD1     N 3161   1.581   0.766  16.904 -0.1392 -0.8743 -0.5818
  204MPD1    H5 3162   1.632   0.754  16.817  2.3491 -0.4038  0.8078
  204MPD1    N1 3163   1.534   1.195  16.717 -0.1086  0.2635  0.1697
  204MPD1    H6 3164   1.618   1.172  16.663  0.3191  1.7623  0.2120
  204MPD1    H7 3165   1.552   1.292  16.742 -0.5998  0.8460 -1.7972
  205MPD1     C 3166   2.056   3.921  16.670  0.1362 -0.4495 -0.0526
  205MPD1    C1 3167   2.070   3.842  16.780  0.3044  0.0229 -0.3390
  205MPD1    C2 3168   2.026   3.885  16.905  0.1876  0.5289 -0.9271
  205MPD1    C3 3169   1.949   3.996  16.908  0.3280  0.1182 -0.1686
  205MPD1    C4 3170   1.912   4.067  16.794  0.7389 -0.0209  0.1722
  205MPD1    C5 3171   1.974   4.033  16.677 -0.1218  0.2478  0.5526
  205MPD1     H 3172   2.051   3.828  16.994  0.7949 -0.9145 -2.0208
  205MPD1    H1 3173   1.848   4.154  16.799  2.7934  1.4260  1.1155
  205MPD1    H2 3174   2.094   3.891  16.573  0.6903  0.9043 -0.2626
  205MPD1    H3 3175   1.956   4.101  16.595 -4.7117 -2.3872 -0.6405
  205MPD1     N 3176   1.909   4.052  17.029 -0.1720 -0.0116 -0.5020
  205MPD1    H5 3177   1.842   4.128  17.033 -1.1817 -0.9499  0.2124
  205MPD1    N1 3178   2.160   3.735  16.769 -0.3932  0.3452  0.7749
  205MPD1    H6 3179   2.139   3.659  16.834 -0.9353 -0.7430 -0.6596
  205MPD1    H7 3180   2.163   3.691  16.677  0.3536  3.6678 -0.7972
  206MPD1     C 3181   2.061   1.494  17.012 -0.5485  0.1601 -0.1279
  206MPD1    C1 3182   2.063   1.405  16.908 -0.0140  0.3751 -0.1617
  206MPD1    C2 3183   2.068   1.456  16.780 -0.3144  0.2365 -0.7993
  206MPD1    C3 3184   2.069   1.593  16.756 -0.2785 -0.2544 -0.3093
  206MPD1    C4 3185   2.083   1.674  16.864 -0.1397  0.6895  0.3893
  206MPD1    C5 3186   2.075   1.629  16.995 -0.2888 -1.1219  0.5591
  206MPD1     H 3187   2.061   1.390  16.694 -2.4324 -1.7991  0.9421
  206MPD1    H1 3188   2.102   1.781  16.858  1.3344  0.4317  0.4993
  206MPD1    H2 3189   2.063   1.463  17.116 -1.4819  2.0540  0.4481
  206MPD1    H3 3190   2.089   1.693  17.081 -0.8123  0.7094 -0.7167
  206MPD1     N 3191   2.082   1.659  16.629  0.6951 -0.0122 -0.3430
  206MPD1    H5 3192   2.089   1.760  16.630 -1.9459  0.1793  0.1418
  206MPD1    N1 3193   2.095   1.272  16.930 -0.4417  0.6807 -0.0165
  206MPD1    H6 3194   2.044   1.221  16.859 -0.2423  0.1875  0.1978
  206MPD1    H7 3195   2.075   1.239  17.024  0.7175  1.6233  0.5724
  207MPD1     C 3196   1.168   4.325  10.046  0.0730 -0.1289 -0.5331
  207MPD1    C1 3197   1.117   4.406   9.950 -0.9047  0.1180 -0.9618
  207MPD1    C2 3198   1.078   4.534   9.990  0.0027  1.3221 -0.1064
  207MPD1    C3 3199   1.072   4.560  10.129 -0.3898 -0.0056  0.1514
  207MPD1    C4 3200   1.124   4.467  10.219 -0.0205 -0.1559 -0.2206
  207MPD1    C5 3201   1.170   4.350  10.175  1.0319  0.6691  0.3859
  207MPD1     H 3202   1.055   4.606   9.912  0.9822  2.9898  1.1447
  207MPD1    H1 3203   1.113   4.473  10.327  0.0433 -2.7415 -0.0587
  207MPD1    H2 3204   1.222   4.238  10.011 -0.2260  0.2281 -1.8910
  207MPD1    H3 3205   1.209   4.275  10.243 -2.0754 -1.2937  0.0112
  207MPD1     N 3206   1.024   4.683  10.175 -0.4854 -0.2277 -0.4758
  207MPD1    H5 3207   1.026   4.693  10.276  0.4744 -0.1924 -0.4967
  207MPD1    N1 3208   1.136   4.377   9.817 -0.3541 -0.1561  0.0025
  207MPD1    H6 3209   1.137   4.278   9.794  0.8941  0.7505 -3.7180
  207MPD1    H7 3210   1.067   4.423   9.759  0.9591 -0.3803 -1.7489
  208MPD1     C 3211   1.406   2.611  17.746  0.6562  0.4698 -0.3883
  208MPD1    C1 3212   1.532   2.657  17.742  1.1365  0.4921  0.2329
  208MPD1    C2 3213   1.565   2.780   0.034  0.5857  0.0095  0.6823
  208MPD1    C3 3214   1.473   2.866   0.085 -0.0036  0.2996 -0.0113
  208MPD1    C4 3215   1.345   2.819   0.096  0.7000  0.1555  0.3158
  208MPD1    C5 3216   1.310   2.692   0.049 -0.4139  0.2114 -1.0584
  208MPD1     H 3217   1.666   2.820   0.030  2.0073 -3.6643 -0.3203
  208MPD1    H1 3218   1.262   2.883   0.125  2.0156  1.1932  1.8140
  208MPD1    H2 3219   1.389   2.511  17.707 -1.9224  0.4790  0.6940
  208MPD1    H3 3220   1.209   2.652   0.052 -0.5790  0.7733  0.6459
  208MPD1     N 3221   1.512   2.987   0.141 -0.3623 -0.5489 -0.6829
  208MPD1    H5 3222   1.608   3.015   0.126 -1.1589  1.6964 -1.6632
  208MPD1    N1 3223   1.632   2.568  17.700 -0.0324 -0.0723  0.6754
  208MPD1    H6 3224   1.677   2.523   0.029  0.2545  0.8342  1.0308
  208MPD1    H7 3225   1.707   2.622  17.658  0.1326 -0.6418  0.2420
  209MPD1     C 3226   0.080   3.949  10.810  0.3016 -0.3406 -0.4401
  209MPD1    C1 3227   0.131   4.029  10.718 -0.0543  0.0379 -0.0820
  209MPD1    C2 3228   0.213   4.134  10.766  0.4087  0.2186  0.0941
  209MPD1    C3 3229   0.232   4.153  10.903 -0.9984 -0.1347  0.2057
  209MPD1    C4 3230   0.176   4.066  10.997  0.8542  0.0517 -0.3981
  209MPD1    C5 3231   0.109   3.958  10.941  0.5245  0.0757 -0.4775
  209MPD1     H 3232   0.265   4.200  10.698  0.1115 -1.8241 -2.1007
  209MPD1    H1 3233   0.195   4.063  11.104 -2.4829 -0.3488  0.1589
  209MPD1    H2 3234   0.032   3.859  10.774  0.1616 -0.8148  0.9427
  209MPD1    H3 3235   0.087   3.875  11.007 -1.4758 -0.0664 -1.3212
  209MPD1     N 3236   0.302   4.279  10.938 -0.1584  0.8608 -0.2731
  209MPD1    H5 3237   0.332   4.338  10.861 -0.9206  2.5111  0.6809
  209MPD1    N1 3238   0.128   3.995  10.579  0.5037  0.4508 -0.4971
  209MPD1    H6 3239   0.161   4.066  10.515  1.1825  0.2747 -0.3432
  209MPD1    H7 3240   0.048   3.946  10.539 -0.7704  2.8528 -0.8282
  210MPD1     C 3241   1.068   4.412  11.404 -0.4873  0.7378  0.4085
  210MPD1    C1 3242   1.006   4.530  11.441  0.2543 -0.5339  0.3786
  210MPD1    C2 3243   0.881   4.554  11.385  0.2697 -0.5651 -0.0544
  210MPD1    C3 3244   0.820   4.467  11.305  0.1820 -0.3123 -0.0984
  210MPD1    C4 3245   0.876   4.347  11.273 -0.0568 -0.1611 -0.3979
  210MPD1    C5 3246   1.002   4.326  11.324 -0.6840 -0.2428 -0.0611
  210MPD1     H 3247   0.826   4.640  11.421  0.7675 -0.5353  0.6261
  210MPD1    H1 3248   0.831   4.276  11.204  0.3955  1.3137 -2.2172
  210MPD1    H2 3249   1.159   4.378  11.452  0.2242  1.1054 -0.6739
  210MPD1    H3 3250   1.062   4.237  11.307 -0.1780  0.2375 -0.7494
  210MPD1     N 3251   0.692   4.490  11.261 -0.0589 -0.1589  0.1663
  210MPD1    H5 3252   0.663   4.431  11.184 -0.2690 -0.5191  0.5255
  210MPD1    N1 3253   1.053   4.610  11.544 -0.0428  0.2605  0.0031
  210MPD1    H6 3254   1.155   4.606  11.544 -0.0404  0.3512  0.3154
  210MPD1    H7 3255   1.034   4.709  11.532  1.9255  0.6488 -0.0071
  211MPD1     C 3256   2.634   4.021  16.585 -0.1510  0.0108 -0.3417
  211MPD1    C1 3257   2.558   3.924  16.525  0.3837 -0.6012 -0.4707
  211MPD1    C2 3258   2.448   3.965  16.453 -0.3701 -0.2879 -0.2645
  211MPD1    C3 3259   2.443   4.091  16.404 -0.2623  0.3548 -0.4384
  211MPD1    C4 3260   2.526   4.190  16.450  0.4810  0.3222  0.2049
  211MPD1    C5 3261   2.623   4.152  16.542  0.3254  0.5609  0.1237
  211MPD1     H 3262   2.388   3.891  16.403  0.2041 -0.8297 -0.1592
  211MPD1    H1 3263   2.537   4.292  16.415  2.1725 -0.2343 -0.8875
  211MPD1    H2 3264   2.705   3.994  16.661 -0.2865  0.3770 -0.0851
  211MPD1    H3 3265   2.694   4.223  16.583  1.3962 -0.8884  0.7981
  211MPD1     N 3266   2.336   4.111  16.314 -0.3504  0.0295  0.5296
  211MPD1    H5 3267   2.261   4.043  16.310 -0.7184  0.3898  1.2519
  211MPD1    N1 3268   2.555   3.790  16.571  0.4066  0.1086 -0.1445
  211MPD1    H6 3269   2.650   3.763  16.594  0.3255 -2.6154 -2.9125
  211MPD1    H7 3270   2.523   3.726  16.498  0.1207 -1.0540  1.0058
  212MPD1     C 3271   1.910   2.613  16.582 -0.0981  0.1428 -0.4533
  212MPD1    C1 3272   1.792   2.692  16.585 -0.0349 -0.2308  0.4025
  212MPD1    C2 3273   1.675   2.645  16.655  0.7376  0.6778 -0.5661
  212MPD1    C3 3274   1.661   2.507  16.676  0.0961 -0.3217  0.6159
  212MPD1    C4 3275   1.773   2.430  16.661  0.0764  0.3876  0.6889
  212MPD1    C5 3276   1.893   2.480  16.620  0.5306  0.1732 -0.2351
  212MPD1     H 3277   1.585   2.706  16.653  0.6819  0.6668  2.1714
  212MPD1    H1 3278   1.765   2.322  16.661  0.8816  0.3236  2.7214
  212MPD1    H2 3279   2.006   2.646  16.544  0.2836 -1.5286 -0.9374
  212MPD1    H3 3280   1.976   2.414  16.599 -0.4095 -1.2656  0.5749
  212MPD1     N 3281   1.546   2.436  16.718 -0.6111  0.3924  0.0864
  212MPD1    H5 3282   1.550   2.335  16.731 -1.1801 -0.1266 -3.7924
  212MPD1    N1 3283   1.810   2.833  16.566 -0.2796 -0.3782  0.4852
  212MPD1    H6 3284   1.876   2.856  16.492 -0.4024 -1.8521 -0.0837
  212MPD1    H7 3285   1.719   2.876  16.551 -0.0812 -0.7329 -1.8088
  213MPD1     C 3286   4.365   3.620  15.886  0.3843 -0.0128  0.5906
  213MPD1    C1 3287   4.455   3.628  15.785  0.7466  0.2170  0.2845
  213MPD1    C2 3288   4.419   3.565  15.663  0.6383 -0.6986  0.2064
  213MPD1    C3 3289   4.331   3.458  15.662  0.3785  0.2825  1.1372
  213MPD1    C4 3290   4.267   3.430  15.781 -0.3112 -0.3119 -0.3812
  213MPD1    C5 3291   4.287   3.509  15.893  0.5871  0.3161  0.5440
  213MPD1     H 3292   4.466   3.592  15.569  0.6644  1.4761  0.8389
  213MPD1    H1 3293   4.203   3.345  15.801  0.9891 -0.6479  2.3348
  213MPD1    H2 3294   4.374   3.674  15.980 -1.6939 -1.2689  1.5183
  213MPD1    H3 3295   4.243   3.491  15.991 -1.8469  2.6643 -0.1396
  213MPD1     N 3296   4.309   3.381  15.546  0.1682  0.1946  0.0361
  213MPD1    H5 3297   4.364   3.407  15.465 -0.1253  2.5397  0.5892
  213MPD1    N1 3298   4.521   3.747  15.769 -0.3778 -0.0299  0.7200
  213MPD1    H6 3299   4.568   3.780  15.853  2.3574 -4.2051  0.8401
  213MPD1    H7 3300   4.587   3.732  15.693 -0.5242  4.1782 -0.2330
  214MPD1     C 3301   3.588   2.647  15.458  0.1170 -0.1087 -0.4921
  214MPD1    C1 3302   3.668   2.637  15.345  0.0058 -0.0386 -0.5462
  214MPD1    C2 3303   3.781   2.717  15.335  0.5258  0.0896  0.2289
  214MPD1    C3 3304   3.802   2.829  15.417  0.4620 -0.5231 -0.7387
  214MPD1    C4 3305   3.714   2.842  15.529  0.4903 -0.3858  0.6720
  214MPD1    C5 3306   3.612   2.753  15.544  0.5493  0.0355  0.2745
  214MPD1     H 3307   3.840   2.687  15.250  1.9192 -0.9733  1.5744
  214MPD1    H1 3308   3.724   2.922  15.601 -0.3057 -2.1285  2.6947
  214MPD1    H2 3309   3.494   2.593  15.463 -0.0338 -0.0381 -2.4060
  214MPD1    H3 3310   3.534   2.767  15.618  0.7159 -0.4323  0.5387
  214MPD1     N 3311   3.906   2.928  15.397 -0.4707  0.3013  0.2229
  214MPD1    H5 3312   3.923   2.998  15.469 -0.4314  0.1356  0.3745
  214MPD1    N1 3313   3.646   2.532  15.253 -0.0323  0.0651 -0.7828
  214MPD1    H6 3314   3.548   2.503  15.244 -0.8805  2.4867  0.7730
  214MPD1    H7 3315   3.667   2.558  15.157 -1.1574  0.4072 -0.9350
  215MPD1     C 3316   4.515   3.980  10.304 -0.0744  0.0594 -0.6120
  215MPD1    C1 3317   4.563   4.107  10.279 -0.2339 -0.1386 -0.3513
  215MPD1    C2 3318   4.587   4.191  10.387  0.0115 -0.4505  0.1801
  215MPD1    C3 3319   4.579   4.144  10.516 -0.1453  0.2260  0.1303
  215MPD1    C4 3320   4.552   4.007  10.532  1.0738  0.1007  0.6053
  215MPD1    C5 3321   4.521   3.926  10.428  0.0623 -0.2661 -0.1459
  215MPD1     H 3322   4.602   4.297  10.368  1.1783 -0.0418  3.4197
  215MPD1    H1 3323   4.559   3.966  10.632 -0.9263 -0.5183  0.4832
  215MPD1    H2 3324   4.495   3.917  10.217 -1.1453  0.1096 -0.4030
  215MPD1    H3 3325   4.498   3.821  10.444  1.6873 -0.6444 -0.3059
  215MPD1     N 3326   4.617   4.232  10.618 -1.0175  0.1723 -0.6604
  215MPD1    H5 3327   4.671   4.315  10.596  0.0427 -0.1692  0.6885
  215MPD1    N1 3328   4.537   4.156  10.156 -0.5510  0.1407  0.2010
  215MPD1    H6 3329   4.531   4.086  10.082  0.1872  0.7253 -0.4081
  215MPD1    H7 3330   4.600   4.231  10.130 -0.8215  0.1823 -0.3354
  216MPD1     C 3331   1.337   2.972  17.058  0.5018  0.0582 -0.7838
  216MPD1    C1 3332   1.454   2.916  17.012 -0.3561 -1.1506  0.4427
  216MPD1    C2 3333   1.471   2.783  17.047  0.0779 -0.5782  0.9408
  216MPD1    C3 3334   1.382   2.721  17.135 -0.1147 -0.1901 -0.3629
  216MPD1    C4 3335   1.274   2.788  17.183  0.2389  0.7448 -0.2800
  216MPD1    C5 3336   1.245   2.914  17.138  0.0543 -0.1035  0.7391
  216MPD1     H 3337   1.557   2.728  17.013 -0.0942  0.1067 -0.5756
  216MPD1    H1 3338   1.210   2.745  17.259  2.3630 -0.2124  0.9547
  216MPD1    H2 3339   1.313   3.072  17.025  1.3832  0.5345  0.0353
  216MPD1    H3 3340   1.160   2.967  17.180 -2.3755 -1.5961 -2.3015
  216MPD1     N 3341   1.423   2.590  17.186  0.0032  0.5548  0.7071
  216MPD1    H5 3342   1.502   2.544  17.143 -1.2926 -0.2661 -0.7543
  216MPD1    N1 3343   1.541   2.982  16.927 -0.1545 -0.6114 -0.1895
  216MPD1    H6 3344   1.542   3.083  16.939  2.1178 -0.6945  0.2432
  216MPD1    H7 3345   1.635   2.945  16.926  0.6965  1.5416 -0.8242
  217MPD1     C 3346   1.629   3.273   8.691 -0.3375  0.0027  0.6253
  217MPD1    C1 3347   1.765   3.256   8.679 -0.5068 -0.1755 -0.6061
  217MPD1    C2 3348   1.835   3.194   8.780  0.2985 -0.2349  0.6920
  217MPD1    C3 3349   1.771   3.136   8.890  0.0727 -0.4198  0.4609
  217MPD1    C4 3350   1.630   3.146   8.889  0.0927  0.4891 -0.5474
  217MPD1    C5 3351   1.557   3.216   8.793 -0.1615  0.3836 -0.9609
  217MPD1     H 3352   1.940   3.177   8.762  0.5459  2.6788 -0.4466
  217MPD1    H1 3353   1.575   3.097   8.969  0.1275  1.4545  0.0697
  217MPD1    H2 3354   1.577   3.320   8.608  0.4185 -3.4175 -1.7907
  217MPD1    H3 3355   1.451   3.218   8.774 -0.7672  0.1335  2.4406
  217MPD1     N 3356   1.834   3.058   8.985 -0.1353 -0.4691 -0.3037
  217MPD1    H5 3357   1.779   3.024   9.064 -0.2595 -1.7747 -0.9666
  217MPD1    N1 3358   1.830   3.295   8.559  0.2493 -0.3599  0.6684
  217MPD1    H6 3359   1.923   3.338   8.561 -0.4663  1.1738  0.6893
  217MPD1    H7 3360   1.777   3.373   8.522 -0.4019 -0.1772  2.0036
  218MPD1     C 3361   0.441   0.298  11.509 -0.2106  0.4087  0.5732
  218MPD1    C1 3362   0.303   0.296  11.517  0.0857 -0.5792  0.1641
  218MPD1    C2 3363   0.244   0.199  11.598 -0.3305  0.3705  0.1876
  218MPD1    C3 3364   0.318   0.110  11.673  0.1355 -0.3872 -0.3849
  218MPD1    C4 3365   0.456   0.113  11.666 -0.0193 -0.0299 -0.3381
  218MPD1    C5 3366   0.511   0.208  11.580  0.2050 -0.2708 -0.1455
  218MPD1     H 3367   0.136   0.191  11.598 -0.3875  1.1237 -0.5666
  218MPD1    H1 3368   0.520   0.040  11.714  0.9858 -0.0900 -1.7738
  218MPD1    H2 3369   0.496   0.364  11.443  0.0409  0.2259  0.6001
  218MPD1    H3 3370   0.618   0.210  11.568  0.3620  1.2497  1.4483
  218MPD1     N 3371   0.248   0.018  11.752 -0.1990 -0.5560 -1.1328
  218MPD1    H5 3372   0.148   0.030  11.760  0.1990  0.8089  1.8949
  218MPD1    N1 3373   0.226   0.369  11.424 -0.7162  0.7895  0.2739
  218MPD1    H6 3374   0.137   0.382  11.472 -1.3614 -0.2765 -0.6557
  218MPD1    H7 3375   0.263   0.462  11.404 -1.2323  0.4021 -2.5651
  219MPD1     C 3376   4.222   4.137  11.961 -0.7324 -0.0264 -0.1504
  219MPD1    C1 3377   4.251   4.218  11.855 -0.1921  0.5425 -0.9127
  219MPD1    C2 3378   4.373   4.290  11.859 -0.8396 -0.2215  0.5125
  219MPD1    C3 3379   4.452   4.306  11.971  0.0588  0.9081  0.2071
  219MPD1    C4 3380   4.415   4.229  12.084 -0.8588 -0.3616  0.5174
  219MPD1    C5 3381   4.302   4.151  12.072  0.0182  0.2638  0.6484
  219MPD1     H 3382   4.399   4.350  11.773 -0.9679  0.2379  0.7949
  219MPD1    H1 3383   4.473   4.221  12.175 -0.7282 -0.6236  0.4080
  219MPD1    H2 3384   4.145   4.060  11.964  0.7753 -1.4507  1.8833
  219MPD1    H3 3385   4.262   4.092  12.154  0.2228 -1.4630 -0.4791
  219MPD1     N 3386   4.566   4.389  11.985 -0.1209 -0.5744 -0.7099
  219MPD1    H5 3387   4.625   4.387  12.068 -1.5952  1.1200  0.3845
  219MPD1    N1 3388   4.179   4.191  11.739 -0.1171 -0.7125 -0.0523
  219MPD1    H6 3389   4.158   4.278  11.691 -1.5194 -1.0717 -0.0935
  219MPD1    H7 3390   4.084   4.159  11.759 -0.6142  1.4612  1.0551
  220MPD1     C 3391   4.145   0.726   9.584 -0.3206  0.2774  0.0430
  220MPD1    C1 3392   4.067   0.670   9.675 -0.3201  0.1961  0.1604
  220MPD1    C2 3393   4.124   0.576   9.762 -0.6247  0.4112 -1.2515
  220MPD1    C3 3394   4.258   0.545   9.755 -0.6799 -0.3315  0.1917
  220MPD1    C4 3395   4.338   0.624   9.679  0.4275  0.1228  0.1997
  220MPD1    C5 3396   4.281   0.713   9.595  0.1468  0.4092  0.4231
  220MPD1     H 3397   4.051   0.526   9.824 -1.3574  0.8898 -1.7357
  220MPD1    H1 3398   4.446   0.613   9.667  0.5488  0.5652  0.9292
  220MPD1    H2 3399   4.103   0.788   9.506 -1.5025  1.3211  1.4968
  220MPD1    H3 3400   4.344   0.761   9.521 -0.9100  1.2201  0.0471
  220MPD1     N 3401   4.307   0.435   9.829 -0.7405  0.4723  0.1723
  220MPD1    H5 3402   4.233   0.377   9.866  0.6324 -0.9223  0.7281
  220MPD1    N1 3403   3.927   0.679   9.675 -0.9266 -0.0618  0.4210
  220MPD1    H6 3404   3.892   0.689   9.770 -0.4138  3.6714  0.2189
  220MPD1    H7 3405   3.899   0.768   9.633 -2.7053 -0.0906  1.5385
  221MPD1     C 3406   1.661   3.150  16.630 -0.1411  0.2039 -1.0047
  221MPD1    C1 3407   1.634   3.098  16.506 -0.6429 -0.5173  0.3417
  221MPD1    C2 3408   1.718   3.128  16.398 -0.6900  0.1969 -0.6556
  221MPD1    C3 3409   1.819   3.222  16.421  0.6092  0.3758  0.5032
  221MPD1    C4 3410   1.838   3.272  16.545 -0.4518  0.7817  0.3071
  221MPD1    C5 3411   1.762   3.239  16.652  0.1081 -1.2026 -0.0852
  221MPD1     H 3412   1.707   3.078  16.302  1.7844 -0.5093 -0.5652
  221MPD1    H1 3413   1.910   3.351  16.564 -0.3757  0.6087  0.7473
  221MPD1    H2 3414   1.607   3.112  16.716  0.5204 -0.2136 -0.7705
  221MPD1    H3 3415   1.781   3.278  16.752 -1.5283  0.7189 -0.5130
  221MPD1     N 3416   1.912   3.258  16.322 -0.3865  0.5895  0.4638
  221MPD1    H5 3417   1.997   3.297  16.358 -0.1236  1.5825 -1.2204
  221MPD1    N1 3418   1.543   2.989  16.503  0.2381 -0.1815 -0.2385
  221MPD1    H6 3419   1.461   3.000  16.562  0.5787 -3.5884  0.8962
  221MPD1    H7 3420   1.518   2.969  16.406 -0.7287 -1.6250  0.3168
  222MPD1     C 3421   1.004   2.077   0.174  0.5657  0.1187  0.3008
  222MPD1    C1 3422   1.127   2.131   0.187  0.7453 -0.3865 -0.5869
  222MPD1    C2 3423   1.142   2.261   0.230 -0.0201  0.2439  0.3743
  222MPD1    C3 3424   1.033   2.341   0.262  1.0237 -0.4563 -0.6396
  222MPD1    C4 3425   0.907   2.287   0.240 -0.2119  0.9426  0.0285
  222MPD1    C5 3426   0.894   2.165   0.189 -0.4269 -0.0062 -0.8391
  222MPD1     H 3427   1.245   2.293   0.242  0.0810 -0.9554  2.5561
  222MPD1    H1 3428   0.817   2.342   0.262 -2.0234 -1.5858 -0.9865
  222MPD1    H2 3429   0.981   1.980   0.133 -1.6021 -0.6713  3.3586
  222MPD1    H3 3430   0.794   2.123   0.180 -0.5775  0.3135 -0.6689
  222MPD1     N 3431   1.045   2.475   0.304  0.2338  0.0025 -0.1040
  222MPD1    H5 3432   0.959   2.529   0.316  0.7174  0.4456  1.3469
  222MPD1    N1 3433   1.245   2.063   0.151 -0.0712  0.0169  0.0377
  222MPD1    H6 3434   1.327   2.119   0.128  0.7512 -0.9909  0.4827
  222MPD1    H7 3435   1.230   2.004   0.070  1.0389  0.1957 -0.2990
  223MPD1     C 3436   0.829   3.345  17.660 -0.0095  0.1553  0.2727
  223MPD1    C1 3437   0.960   3.358  17.702 -0.1206  0.2238 -0.5556
  223MPD1    C2 3438   1.015   3.252   0.018 -0.1343 -0.2487  0.1508
  223MPD1    C3 3439   0.937   3.156   0.062  0.0622  0.3041  0.7268
  223MPD1    C4 3440   0.805   3.146   0.029 -1.1658 -0.1361  0.6457
  223MPD1    C5 3441   0.754   3.241  17.694 -0.2255  1.0220 -0.0688
  223MPD1     H 3442   1.119   3.257   0.048 -0.1606  0.3036  0.1445
  223MPD1    H1 3443   0.735   3.067   0.057 -0.6949 -0.4717  0.8837
  223MPD1    H2 3444   0.789   3.425  17.599  0.3144  0.9361  1.0809
  223MPD1    H3 3445   0.656   3.239  17.647  0.2219 -1.6442 -0.8444
  223MPD1     N 3446   1.010   3.064   0.147  0.3596 -0.5741  0.6108
  223MPD1    H5 3447   1.107   3.081   0.173  0.4533 -1.1383  0.6362
  223MPD1    N1 3448   1.031   3.483  17.675 -0.4058  0.5793 -0.6027
  223MPD1    H6 3449   0.989   3.542  17.603 -0.1687 -1.0549 -2.0954
  223MPD1    H7 3450   1.132   3.483  17.663 -0.3560 -0.8100 -0.1326
  224MPD1     C 3451   2.048   3.353   9.111  0.2848 -0.2440  0.1744
  224MPD1    C1 3452   1.991   3.413   9.220  0.0387 -0.0714  0.4938
  224MPD1    C2 3453   2.075   3.421   9.325 -0.1011  0.2137  0.1028
  224MPD1    C3 3454   2.208   3.376   9.327 -0.3648 -0.0983 -1.5424
  224MPD1    C4 3455   2.260   3.308   9.221  0.2670 -0.0197 -0.2620
  224MPD1    C5 3456   2.181   3.309   9.104  0.4268 -0.4051 -0.2755
  224MPD1     H 3457   2.032   3.465   9.414 -2.1119  0.7236 -1.1332
  224MPD1    H1 3458   2.357   3.258   9.224 -0.3966 -1.3177 -0.4065
  224MPD1    H2 3459   1.979   3.334   9.029  0.6924  2.8564 -0.9187
  224MPD1    H3 3460   2.226   3.265   9.016  0.3564 -0.3501 -0.3389
  224MPD1     N 3461   2.294   3.385   9.445 -0.2105  0.2085  0.0829
  224MPD1    H5 3462   2.375   3.323   9.444  0.3825  0.9818 -1.6519
  224MPD1    N1 3463   1.852   3.432   9.226  0.1443 -0.2646 -0.6343
  224MPD1    H6 3464   1.820   3.500   9.296 -0.5619 -0.2688 -0.9516
  224MPD1    H7 3465   1.813   3.471   9.140 -0.1481 -2.2619 -1.3919
  225MPD1     C 3466   4.505   4.330  13.033 -0.4519 -0.3472 -0.1064
  225MPD1    C1 3467   4.501   4.425  12.937  0.2764 -0.2754  0.6026
  225MPD1    C2 3468   4.387   4.492  12.912 -0.6691  0.6038  0.1024
  225MPD1    C3 3469   4.269   4.475  12.991  0.5966 -0.0014  0.1128
  225MPD1    C4 3470   4.269   4.370  13.082 -0.3251 -0.0900 -0.3953
  225MPD1    C5 3471   4.389   4.306  13.102  0.3930 -0.1703  0.3204
  225MPD1     H 3472   4.394   4.579  12.848 -0.3523 -1.7185 -2.9850
  225MPD1    H1 3473   4.178   4.345  13.136 -0.4027 -1.0504 -0.9747
  225MPD1    H2 3474   4.588   4.265  13.058 -0.2663 -0.7774 -1.7965
  225MPD1    H3 3475   4.386   4.221  13.168  1.2478 -0.7404 -0.3623
  225MPD1     N 3476   4.144   4.532  12.966 -0.1188  0.2290 -0.6382
  225MPD1    H5 3477   4.066   4.497  13.022  1.9246 -1.8853  0.8987
  225MPD1    N1 3478   4.600   4.420  12.838  0.5491 -0.2904  0.7364
  225MPD1    H6 3479   4.692   4.383  12.862  1.4424  1.4127 -0.0748
  225MPD1    H7 3480   4.616   4.517  12.811  2.2078 -0.8202 -0.1898
  226MPD1     C 3481   2.535   1.058   9.772  0.3755 -0.6666  0.2198
  226MPD1    C1 3482   2.466   0.968   9.692 -1.0771  0.6351  0.1676
  226MPD1    C2 3483   2.462   0.836   9.731  0.6472 -0.5645 -0.5367
  226MPD1    C3 3484   2.514   0.790   9.850  0.2729  0.1096  0.4291
  226MPD1    C4 3485   2.575   0.882   9.937  0.5148 -0.3985  0.3749
  226MPD1    C5 3486   2.587   1.014   9.892  0.3240  0.3281 -0.4903
  226MPD1     H 3487   2.404   0.766   9.672 -0.4674  1.5892 -1.9763
  226MPD1    H1 3488   2.629   0.849  10.025 -0.5060 -0.6155  0.9257
  226MPD1    H2 3489   2.562   1.156   9.735  2.0885 -0.0764  2.9589
  226MPD1    H3 3490   2.649   1.086   9.943  0.5991  0.5564 -1.1548
  226MPD1     N 3491   2.499   0.655   9.881  0.0008 -0.2910 -0.2899
  226MPD1    H5 3492   2.473   0.600   9.799  1.9296  0.2697 -1.2928
  226MPD1    N1 3493   2.417   1.011   9.567  0.3224  0.1094 -0.0772
  226MPD1    H6 3494   2.329   0.961   9.553 -0.4451  1.4756 -0.1438
  226MPD1    H7 3495   2.409   1.113   9.573 -3.5472 -0.3075  1.8474
  227MPD1     C 3496   3.133   0.182  10.528  0.2790  0.0409 -0.2318
  227MPD1    C1 3497   3.100   0.312  10.522  0.3561  0.9841 -0.6755
  227MPD1    C2 3498   2.997   0.352  10.431  0.1716 -0.3913  0.7551
  227MPD1    C3 3499   2.947   0.260  10.334 -0.3025 -0.0766  0.7682
  227MPD1    C4 3500   3.008   0.136  10.336 -0.0884  0.4276 -0.2367
  227MPD1    C5 3501   3.097   0.096  10.433 -0.2278 -1.1523 -0.0668
  227MPD1     H 3502   2.958   0.453  10.421 -0.6755 -0.8167 -0.2514
  227MPD1    H1 3503   2.980   0.055  10.270  0.6122  0.0183 -0.0257
  227MPD1    H2 3504   3.198   0.151  10.609  0.2922  1.9675  0.4841
  227MPD1    H3 3505   3.136   4.734  10.442 -0.9300 -1.2199  2.5077
  227MPD1     N 3506   2.844   0.302  10.245  0.3462 -0.3443 -0.0561
  227MPD1    H5 3507   2.799   0.392  10.260 -0.7405 -0.8713 -0.2018
  227MPD1    N1 3508   3.148   0.400  10.616 -0.2387 -0.2317 -0.1017
  227MPD1    H6 3509   3.246   0.381  10.635 -0.2392  1.1604  1.3473
  227MPD1    H7 3510   3.136   0.494  10.577  2.3651  0.0234 -0.2906
  228MPD1     C 3511   1.379   2.975  12.634  0.5204 -0.1914  0.1539
  228MPD1    C1 3512   1.309   3.040  12.546 -0.3691  0.3340 -0.0558
  228MPD1    C2 3513   1.170   3.060  12.574  0.4132 -0.1683  0.2656
  228MPD1    C3 3514   1.108   2.998  12.685 -0.3810 -0.1530  0.2810
  228MPD1    C4 3515   1.187   2.920  12.768  0.1106  0.4461  0.0090
  228MPD1    C5 3516   1.319   2.917  12.740 -0.1832  0.6258 -0.1640
  228MPD1     H 3517   1.110   3.124  12.511  0.3868  0.4658  0.9413
  228MPD1    H1 3518   1.157   2.883  12.865  0.5491  2.5265  0.9321
  228MPD1    H2 3519   1.487   2.974  12.640  0.3768  1.1202  2.8159
  228MPD1    H3 3520   1.391   2.873  12.807  0.9839  1.5928 -0.7868
  228MPD1     N 3521   0.964   2.994  12.697  0.0164 -0.1484  0.0091
  228MPD1    H5 3522   0.914   3.044  12.625 -2.6235  0.4947  2.2523
  228MPD1    N1 3523   1.362   3.110  12.439  0.6126 -0.5584 -0.0487
  228MPD1    H6 3524   1.289   3.128  12.370  1.7256  2.1477 -0.5206
  228MPD1    H7 3525   1.430   3.055  12.387 -0.8440 -1.0856 -1.3800
  229MPD1     C 3526   0.372   1.607  14.079  0.4968  0.3210 -0.1744
  229MPD1    C1 3527   0.444   1.641  14.189 -0.4783  0.1745 -0.1645
  229MPD1    C2 3528   0.493   1.539  14.271 -0.2407  0.1256  0.2649
  229MPD1    C3 3529   0.470   1.407  14.252  0.1000 -0.3175 -0.3335
  229MPD1    C4 3530   0.402   1.372  14.138  0.4782  0.3073  0.3585
  229MPD1    C5 3531   0.340   1.467  14.060  0.2914  0.0983  0.3779
  229MPD1     H 3532   0.555   1.574  14.353  2.2859 -3.1849 -0.2426
  229MPD1    H1 3533   0.383   1.265  14.127 -1.0405  0.4617  1.4622
  229MPD1    H2 3534   0.322   1.689  14.028 -0.1082 -0.7079 -1.2496
  229MPD1    H3 3535   0.269   1.444  13.982  1.5232 -1.2247 -0.3671
  229MPD1     N 3536   0.505   1.303  14.343  0.1822  0.5281 -0.3400
  229MPD1    H5 3537   0.492   1.209  14.308  0.1775 -0.1829  1.5494
  229MPD1    N1 3538   0.468   1.775  14.227  0.3015 -0.0399  0.2386
  229MPD1    H6 3539   0.568   1.789  14.236  0.1003  0.9801  0.9103
  229MPD1    H7 3540   0.439   1.837  14.151 -2.4166 -0.0602  1.2523
  230MPD1     C 3541   0.465   1.523  15.337  0.3077 -0.3925 -0.1720
  230MPD1    C1 3542   0.437   1.593  15.227 -0.3455 -0.1109  0.1594
  230MPD1    C2 3543   0.459   1.541  15.105  0.0252 -0.0068 -0.0166
  230MPD1    C3 3544   0.518   1.416  15.092 -0.4898  0.2990 -0.7043
  230MPD1    C4 3545   0.548   1.346  15.204  0.1455  0.1737 -0.2651
  230MPD1    C5 3546   0.531   1.404  15.322 -1.0626 -0.6913 -0.7786
  230MPD1     H 3547   0.434   1.599  15.017  0.3573 -0.4958 -0.4351
  230MPD1    H1 3548   0.595   1.248  15.212  1.1749  0.5664 -1.5338
  230MPD1    H2 3549   0.452   1.552  15.441 -2.9421  2.2037 -1.3049
  230MPD1    H3 3550   0.563   1.348  15.409 -0.6018 -2.6666 -2.2403
  230MPD1     N 3551   0.556   1.363  14.963  0.1301  0.3534  0.4134
  230MPD1    H5 3552   0.542   1.428  14.886  0.2986  1.2020  1.1000
  230MPD1    N1 3553   0.349   1.703  15.245  0.8552  0.0102 -0.4847
  230MPD1    H6 3554   0.364   1.776  15.176  0.8911 -0.8494 -1.4023
  230MPD1    H7 3555   0.373   1.740  15.336 -0.2979  0.4516 -0.3545
  231MPD1     C 3556   3.728   3.225  15.569  0.4386 -0.2089  0.2056
  231MPD1    C1 3557   3.654   3.199  15.462 -0.3230  0.0696  0.9336
  231MPD1    C2 3558   3.705   3.267  15.348 -0.0781 -0.3061 -0.5217
  231MPD1    C3 3559   3.816   3.348  15.346  0.4998 -0.1078  0.2824
  231MPD1    C4 3560   3.886   3.368  15.462  0.2685  0.4421  0.1934
  231MPD1    C5 3561   3.841   3.302  15.571 -0.2813 -0.9579 -0.2915
  231MPD1     H 3562   3.647   3.255  15.257 -1.5485  0.3447  0.3331
  231MPD1    H1 3563   3.982   3.417  15.463  0.5076 -0.0311  0.5429
  231MPD1    H2 3564   3.697   3.181  15.663 -1.3420  3.0728  1.1517
  231MPD1    H3 3565   3.893   3.325  15.663 -0.9975 -2.8756  0.5769
  231MPD1     N 3566   3.843   3.415  15.228 -0.0413 -0.0188  0.3331
  231MPD1    H5 3567   3.776   3.405  15.152 -0.2820  2.7477  0.1930
  231MPD1    N1 3568   3.530   3.139  15.468  0.5919 -0.7648  0.2946
  231MPD1    H6 3569   3.522   3.096  15.376 -1.9786  0.0667  0.1528
  231MPD1    H7 3570   3.540   3.056  15.526 -0.1819 -1.8708 -1.1623
  232MPD1     C 3571   0.735   1.764   0.222  0.5535 -0.2303  0.2781
  232MPD1    C1 3572   0.606   1.788   0.265 -0.2760 -0.3058 -0.2356
  232MPD1    C2 3573   0.507   1.710   0.213 -0.1706  0.4098 -0.4419
  232MPD1    C3 3574   0.541   1.604   0.131  0.2082  0.2154 -0.0611
  232MPD1    C4 3575   0.671   1.570   0.105 -0.7904  0.7740  0.2578
  232MPD1    C5 3576   0.769   1.656   0.144  0.2362 -1.1493 -0.8563
  232MPD1     H 3577   0.401   1.730   0.225  0.5002  3.7028  0.0326
  232MPD1    H1 3578   0.699   1.493   0.034  1.4291  1.3449  0.5228
  232MPD1    H2 3579   0.815   1.835   0.241 -0.4984  1.0710 -0.1968
  232MPD1    H3 3580   0.874   1.649   0.115  0.4407  0.5879 -0.5496
  232MPD1     N 3581   0.432   1.549   0.069 -0.3009 -0.2664  0.7745
  232MPD1    H5 3582   0.342   1.597   0.075  0.2917  0.6897  2.0822
  232MPD1    N1 3583   0.576   1.905   0.336 -0.2518  0.3352 -0.4360
  232MPD1    H6 3584   0.652   1.931   0.399 -0.2162  0.7099 -0.6344
  232MPD1    H7 3585   0.484   1.909   0.380  0.1357  1.1802  0.3025
  233MPD1     C 3586   1.037   3.962   1.610  1.1543 -0.2597 -0.7917
  233MPD1    C1 3587   1.124   3.867   1.563  0.2695 -0.5522 -0.0208
  233MPD1    C2 3588   1.203   3.902   1.454 -0.0544 -0.1049 -0.9896
  233MPD1    C3 3589   1.202   4.028   1.393 -0.3470 -0.0508  0.2504
  233MPD1    C4 3590   1.104   4.113   1.440  1.2707 -0.0855  0.2931
  233MPD1    C5 3591   1.023   4.083   1.541 -0.1700  0.7736 -0.7582
  233MPD1     H 3592   1.274   3.830   1.414  0.4560  0.1460 -0.5329
  233MPD1    H1 3593   1.093   4.215   1.405  0.1842  0.0360  0.9941
  233MPD1    H2 3594   0.975   3.945   1.697  1.5096  0.8948 -0.3184
  233MPD1    H3 3595   0.953   4.162   1.567 -1.4889 -0.0189 -1.9597
  233MPD1     N 3596   1.295   4.070   1.293  0.1019 -0.1443  0.5910
  233MPD1    H5 3597   1.259   4.154   1.249  1.3747 -0.0539 -0.2613
  233MPD1    N1 3598   1.109   3.725   1.595  0.5613 -0.0566 -0.1784
  233MPD1    H6 3599   1.071   3.719   1.689 -1.1016  2.6489 -0.6705
  233MPD1    H7 3600   1.191   3.667   1.579  0.4276 -0.2449 -0.1791
  234MPD1     C 3601   3.653   2.504   8.877  0.1053  0.3503 -0.1230
  234MPD1    C1 3602   3.525   2.520   8.831  0.3075 -0.1687 -0.0490
  234MPD1    C2 3603   3.428   2.558   8.923  0.0377 -0.2005  0.2857
  234MPD1    C3 3604   3.455   2.589   9.053 -0.2283  0.0970  0.8373
  234MPD1    C4 3605   3.585   2.569   9.095 -0.3034 -0.0011  0.2684
  234MPD1    C5 3606   3.683   2.534   9.003  0.3657 -0.1960  0.2760
  234MPD1     H 3607   3.326   2.564   8.888 -0.6502  1.1165  2.5489
  234MPD1    H1 3608   3.612   2.600   9.195 -1.2996  1.5990  0.0622
  234MPD1    H2 3609   3.743   2.488   8.819 -0.1305 -0.1017 -0.3605
  234MPD1    H3 3610   3.785   2.526   9.037 -0.0046 -0.5172  1.3035
  234MPD1     N 3611   3.349   2.643   9.133  0.3595  0.0068  0.3390
  234MPD1    H5 3612   3.257   2.656   9.094  1.9726  0.5690 -3.3517
  234MPD1    N1 3613   3.492   2.484   8.697  0.5301 -0.5327  1.1972
  234MPD1    H6 3614   3.574   2.500   8.640  1.3864  0.3855  2.6682
  234MPD1    H7 3615   3.406   2.522   8.657  0.7701 -0.3694  0.8399
  235MPD1     C 3616   0.394   0.399  10.357 -0.4176 -0.3045 -1.1354
  235MPD1    C1 3617   0.467   0.397  10.245  0.1327 -0.4396  0.5959
  235MPD1    C2 3618   0.519   0.515  10.194  0.3152 -0.2631 -0.0141
  235MPD1    C3 3619   0.512   0.635  10.258 -1.0061  0.3428 -0.0664
  235MPD1    C4 3620   0.437   0.638  10.372 -0.1554  0.2661 -0.1951
  235MPD1    C5 3621   0.381   0.519  10.417 -0.0277  0.0948 -0.4789
  235MPD1     H 3622   0.577   0.513  10.102  2.0712  0.1626  1.0824
  235MPD1    H1 3623   0.418   0.725  10.434  1.2092  1.2236 -1.1111
  235MPD1    H2 3624   0.345   0.308  10.388 -0.7972 -0.3202 -1.7690
  235MPD1    H3 3625   0.325   0.519  10.510 -0.8355  0.7017 -0.9699
  235MPD1     N 3626   0.573   0.757  10.213 -0.8274  0.0126 -0.2249
  235MPD1    H5 3627   0.617   0.738  10.123 -0.3442 -2.7077  0.5646
  235MPD1    N1 3628   0.462   0.282  10.160 -0.5614 -0.3236  0.7503
  235MPD1    H6 3629   0.541   0.273  10.097 -0.6269 -0.3609  0.6724
  235MPD1    H7 3630   0.444   0.198  10.214  2.8940 -1.1975  0.5355
  236MPD1     C 3631   3.546   1.456   9.892 -0.0151  0.2685 -1.0545
  236MPD1    C1 3632   3.576   1.341   9.959 -0.0795  0.4798  0.2134
  236MPD1    C2 3633   3.712   1.314   9.969  0.0016 -0.3618 -0.8300
  236MPD1    C3 3634   3.809   1.399   9.908 -0.5485  0.3492  0.1678
  236MPD1    C4 3635   3.768   1.508   9.833 -0.5756 -0.3451 -0.9741
  236MPD1    C5 3636   3.634   1.528   9.819 -0.1384 -0.2475 -0.2230
  236MPD1     H 3637   3.738   1.225  10.024 -0.3365  0.6417  0.9730
  236MPD1    H1 3638   3.830   1.578   9.778 -2.3208  0.6953 -1.6160
  236MPD1    H2 3639   3.444   1.488   9.876 -0.6579 -1.2860 -0.0473
  236MPD1    H3 3640   3.597   1.616   9.769 -0.8518  0.7770  2.1319
  236MPD1     N 3641   3.950   1.392   9.930 -0.3792 -0.4013 -0.0803
  236MPD1    H5 3642   4.011   1.454   9.879 -1.4738 -0.7929 -1.8359
  236MPD1    N1 3643   3.473   1.264  10.016 -0.1420  0.4080  0.1513
  236MPD1    H6 3644   3.399   1.324  10.053 -1.1118 -0.5712 -0.1998
  236MPD1    H7 3645   3.511   1.208  10.093 -0.1145 -0.6626 -0.6493
  237MPD1     C 3646   4.213   4.141  15.329 -0.4677  0.1524  0.0229
  237MPD1    C1 3647   4.140   4.100  15.435 -0.1078 -0.3629  0.3365
  237MPD1    C2 3648   4.004   4.135  15.437  0.4603 -0.7046  0.2124
  237MPD1    C3 3649   3.945   4.200  15.331 -0.5231 -0.3216  0.7161
  237MPD1    C4 3650   4.017   4.226  15.214  0.4219 -0.5472 -0.2662
  237MPD1    C5 3651   4.153   4.199  15.221  0.2008  0.1631  0.2581
  237MPD1     H 3652   3.948   4.107  15.525  1.3381  0.2341  1.0661
  237MPD1    H1 3653   3.973   4.263  15.122  1.1183 -3.6159 -1.8254
  237MPD1    H2 3654   4.320   4.124  15.335 -0.4204  1.0402  1.9217
  237MPD1    H3 3655   4.223   4.228  15.143 -1.5992 -0.4764 -1.6017
  237MPD1     N 3656   3.806   4.218  15.321  0.3222  0.4830  0.3067
  237MPD1    H5 3657   3.778   4.268  15.238  1.1231  1.0130  0.3593
  237MPD1    N1 3658   4.206   4.052  15.547  0.2498 -0.5155  0.6994
  237MPD1    H6 3659   4.155   3.987  15.607 -1.4145  0.5581  0.4479
  237MPD1    H7 3660   4.295   4.009  15.523  0.5927  0.2919  0.5298
  238MPD1     C 3661   1.217   3.468  14.670  0.6486 -0.4928  0.0488
  238MPD1    C1 3662   1.145   3.389  14.757 -0.0834  0.7409  0.1257
  238MPD1    C2 3663   1.019   3.352  14.730 -0.0526  0.0686  0.1046
  238MPD1    C3 3664   0.949   3.382  14.614 -0.1257  0.9267  0.9847
  238MPD1    C4 3665   1.023   3.448  14.523  0.1156  1.0293  0.0101
  238MPD1    C5 3666   1.152   3.491  14.549  0.0854  0.0420 -0.1016
  238MPD1     H 3667   0.985   3.272  14.795  0.4800  0.1561  0.4903
  238MPD1    H1 3668   0.989   3.466  14.422 -0.8295 -1.2416 -0.0780
  238MPD1    H2 3669   1.321   3.495  14.681  0.7661 -0.8577 -0.1781
  238MPD1    H3 3670   1.204   3.537  14.465 -0.0740  0.4206  0.0049
  238MPD1     N 3671   0.822   3.329  14.582  0.6573  0.5326  0.3240
  238MPD1    H5 3672   0.804   3.329  14.482 -0.6774  3.9954  0.5503
  238MPD1    N1 3673   1.214   3.333  14.871 -0.1727 -0.2649 -0.2679
  238MPD1    H6 3674   1.150   3.344  14.950 -1.9243 -0.2399 -1.7015
  238MPD1    H7 3675   1.304   3.377  14.890 -0.9882  1.3396 -0.1266
  239MPD1     C 3676   0.919   3.689  14.898  0.9032  0.2436 -0.0218
  239MPD1    C1 3677   1.038   3.729  14.841  0.1129 -0.2681 -0.2153
  239MPD1    C2 3678   1.044   3.827  14.751 -0.1152  0.3151 -0.9520
  239MPD1    C3 3679   0.924   3.893  14.709  0.0736 -0.3139 -0.1358
  239MPD1    C4 3680   0.813   3.863  14.777 -0.1528 -0.9485 -0.4573
  239MPD1    C5 3681   0.812   3.773  14.880  0.2763  1.4024 -0.3582
  239MPD1     H 3682   1.138   3.844  14.701  0.7932  0.3339  0.7390
  239MPD1    H1 3683   0.719   3.914  14.755  0.5790  0.1169 -1.1216
  239MPD1    H2 3684   0.914   3.621  14.982  0.3583  0.3002 -0.0094
  239MPD1    H3 3685   0.726   3.771  14.946 -0.7677  0.7214 -1.7355
  239MPD1     N 3686   0.913   3.982  14.604  0.0052 -0.3267 -0.0504
  239MPD1    H5 3687   0.817   4.015  14.594  0.1999  0.4881  0.7403
  239MPD1    N1 3688   1.159   3.687  14.897 -0.0063  0.1455  0.5000
  239MPD1    H6 3689   1.239   3.683  14.834  0.8716  0.9954  1.5633
  239MPD1    H7 3690   1.159   3.599  14.948 -0.2565  0.4577  1.0389
  240MPD1     C 3691   4.454   4.246  13.988 -0.2140 -0.9029  0.1971
  240MPD1    C1 3692   4.395   4.126  13.956  0.0033  0.4446  0.4278
  240MPD1    C2 3693   4.466   4.010  13.935 -0.2337  0.1123  0.3267
  240MPD1    C3 3694   4.604   4.018  13.925  0.0842 -0.0682  0.0951
  240MPD1    C4 3695   4.665   4.140  13.944  0.3177  0.1082 -1.2942
  240MPD1    C5 3696   4.587   4.250  13.979 -0.1781  0.1784 -0.5378
  240MPD1     H 3697   4.421   3.917  13.902 -3.4700  2.5458 -2.0778
  240MPD1    H1 3698   0.035   4.147  13.941  0.3747  0.1421  0.8705
  240MPD1    H2 3699   4.395   4.333  14.014 -0.9515 -0.3520 -3.3516
  240MPD1    H3 3700   4.638   4.339  14.012  2.2994 -1.4973  0.1940
  240MPD1     N 3701   4.675   3.896  13.900  0.1472 -0.2306 -0.1232
  240MPD1    H5 3702   4.624   3.809  13.908 -1.0337  0.5631  0.8336
  240MPD1    N1 3703   4.255   4.129  13.916  0.1829  0.6309  0.2509
  240MPD1    H6 3704   4.201   4.179  13.987  3.0170  0.3460  2.6343
  240MPD1    H7 3705   4.229   4.032  13.904  0.7815  0.8234 -2.5731
  241MPD1     C 3706   0.741   3.655  14.541  0.0772 -0.1017 -0.5532
  241MPD1    C1 3707   0.764   3.703  14.417  0.0439 -0.3223  0.2734
  241MPD1    C2 3708   0.657   3.718  14.336  0.3961  0.2623 -0.8160
  241MPD1    C3 3709   0.527   3.673  14.373 -0.1332 -0.1577  0.1617
  241MPD1    C4 3710   0.514   3.631  14.500  0.7294  0.0530  0.6759
  241MPD1    C5 3711   0.619   3.626  14.593  0.4039 -0.0080 -0.0573
  241MPD1     H 3712   0.675   3.757  14.237  3.9691  0.3644 -0.1272
  241MPD1    H1 3713   0.419   3.598  14.541  1.0110 -0.6997  0.7179
  241MPD1    H2 3714   0.827   3.647  14.606 -0.7034 -1.9251  0.2761
  241MPD1    H3 3715   0.613   3.581  14.692  0.4881  0.7071  0.2701
  241MPD1     N 3716   0.414   3.682  14.291  0.1538 -0.4926 -0.5304
  241MPD1    H5 3717   0.322   3.668  14.330  0.7362 -0.6476  0.7897
  241MPD1    N1 3718   0.898   3.716  14.372 -0.1571 -0.4830 -0.2488
  241MPD1    H6 3719   0.960   3.754  14.444  0.2726  0.1792 -0.9590
  241MPD1    H7 3720   0.913   3.765  14.283  1.7710 -0.4990  0.0573
  242MPD1     C 3721   0.553   2.907  15.200  0.6781  0.8676  0.3212
  242MPD1    C1 3722   0.622   2.792  15.242 -0.9173 -0.1393 -1.0160
  242MPD1    C2 3723   0.571   2.669  15.203 -0.0417 -0.6996  0.0894
  242MPD1    C3 3724   0.459   2.655  15.119 -0.7373 -0.5417  0.1416
  242MPD1    C4 3725   0.398   2.773  15.075 -0.2787  0.1511  0.5557
  242MPD1    C5 3726   0.450   2.894  15.117  0.9781  0.0904 -0.5831
  242MPD1     H 3727   0.616   2.583  15.252 -1.0948 -0.8297  0.8332
  242MPD1    H1 3728   0.309   2.763  15.013  0.0873  0.5993 -0.0384
  242MPD1    H2 3729   0.585   3.006  15.227 -1.4306  1.5369  0.3154
  242MPD1    H3 3730   0.388   2.980  15.096 -0.4669 -0.4324  1.5563
  242MPD1     N 3731   0.416   2.527  15.091 -0.0217 -1.0552  0.3719
  242MPD1    H5 3732   0.467   2.456  15.143  0.7192 -1.7240 -1.2702
  242MPD1    N1 3733   0.714   2.798  15.344 -0.0015 -0.5448 -0.1562
  242MPD1    H6 3734   0.762   2.887  15.334 -0.3118 -0.5001 -1.2970
  242MPD1    H7 3735   0.772   2.716  15.361  1.0014 -0.0821 -1.3360
  243MPD1     C 3736   0.370   0.990  17.260 -0.1787 -0.5098  0.3230
  243MPD1    C1 3737   0.445   1.047  17.164 -0.4502  0.5679  0.0535
  243MPD1    C2 3738   0.572   0.998  17.137 -0.1344 -1.1031 -0.2708
  243MPD1    C3 3739   0.624   0.888  17.211 -0.5242 -0.0541 -0.0955
  243MPD1    C4 3740   0.543   0.831  17.307 -0.5486  0.5946 -0.1032
  243MPD1    C5 3741   0.419   0.889  17.336  0.3856  0.2489  0.8150
  243MPD1     H 3742   0.638   1.047  17.066  1.4811 -2.0803  0.5748
  243MPD1    H1 3743   0.582   0.760  17.380  1.0701  2.1761  0.5700
  243MPD1    H2 3744   0.275   1.024  17.301 -0.6047 -0.4294 -0.7509
  243MPD1    H3 3745   0.363   0.849  17.420  0.1078  1.6151  1.2795
  243MPD1     N 3746   0.758   0.850  17.191  0.7835  0.0928  0.4206
  243MPD1    H5 3747   0.812   0.914  17.134  1.1835 -0.4804  0.1513
  243MPD1    N1 3748   0.401   1.166  17.115 -0.4825  0.1056  0.6800
  243MPD1    H6 3749   0.300   1.153  17.106 -0.4787  0.0176  0.7610
  243MPD1    H7 3750   0.436   1.184  17.021 -0.4139  1.8668  1.0406
  244MPD1     C 3751   1.654   0.423  17.600  0.2268  0.1820 -0.5881
  244MPD1    C1 3752   1.691   0.479  17.483 -0.3401  0.2711  0.4923
  244MPD1    C2 3753   1.597   0.517  17.394 -0.8181  0.4509  0.1001
  244MPD1    C3 3754   1.463   0.507  17.421 -0.5825  0.5384 -0.3226
  244MPD1    C4 3755   1.423   0.454  17.548  0.2129  0.6065  0.4142
  244MPD1    C5 3756   1.521   0.404  17.627 -0.2825  0.1127  0.1266
  244MPD1     H 3757   1.622   0.554  17.296 -1.8281  0.8346 -0.0111
  244MPD1    H1 3758   1.325   0.412  17.570 -0.2896  1.3925 -0.3118
  244MPD1    H2 3759   1.718   0.377  17.674  0.4523 -1.5154 -1.8272
  244MPD1    H3 3760   1.490   0.330  17.699 -1.5966  0.5043 -0.0502
  244MPD1     N 3761   1.372   0.545  17.316  0.0004 -0.0298 -0.4468
  244MPD1    H5 3762   1.404   0.605  17.240  1.7353 -1.5082 -0.8734
  244MPD1    N1 3763   1.823   0.455  17.441  0.2770  0.0187 -0.7423
  244MPD1    H6 3764   1.881   0.455  17.524 -0.4586  0.5670 -0.2328
  244MPD1    H7 3765   1.829   0.363  17.399 -0.1926 -1.7042  3.0199
  245MPD1     C 3766   3.865   1.296  12.730  0.1267  0.8345 -0.3289
  245MPD1    C1 3767   3.755   1.359  12.778 -0.0558 -0.4291  0.0439
  245MPD1    C2 3768   3.756   1.394  12.914  0.0582  0.1750  0.3459
  245MPD1    C3 3769   3.873   1.378  12.993 -0.3192 -0.0816  0.4289
  245MPD1    C4 3770   3.987   1.321  12.930 -0.1816 -0.3947  0.3149
  245MPD1    C5 3771   3.978   1.281  12.799  0.7751 -0.1382  0.5677
  245MPD1     H 3772   3.673   1.449  12.958 -1.0049 -0.4973 -0.8007
  245MPD1    H1 3773   4.072   1.281  12.984 -1.0897 -2.4061  0.2423
  245MPD1    H2 3774   3.863   1.248  12.632 -0.7764  0.4493 -0.1271
  245MPD1    H3 3775   4.053   1.216  12.756 -0.1531 -0.0761 -1.1313
  245MPD1     N 3776   3.859   1.407  13.131  0.4042  0.2492 -0.1670
  245MPD1    H5 3777   3.767   1.422  13.170  2.2097  1.8545  3.5801
  245MPD1    N1 3778   3.639   1.350  12.703 -0.0473 -0.9785 -0.0983
  245MPD1    H6 3779   3.575   1.428  12.709 -0.2164 -0.9418 -2.2243
  245MPD1    H7 3780   3.662   1.352  12.604 -2.4593  0.1716 -0.6446
  246MPD1     C 3781   0.210   2.417   8.899  0.2233 -0.0843 -0.1442
  246MPD1    C1 3782   0.085   2.434   8.951  0.5440 -0.2445  0.9431
  246MPD1    C2 3783   0.065   2.551   9.031  0.0751 -0.0593 -0.5600
  246MPD1    C3 3784   0.172   2.634   9.059  0.7657  0.4606 -0.2019
  246MPD1    C4 3785   0.293   2.611   9.001 -0.1751  0.4918 -0.1603
  246MPD1    C5 3786   0.313   2.502   8.918  0.2212  0.5583  0.0797
  246MPD1     H 3787   4.709   2.593   9.065 -0.7670 -0.7518 -2.0033
  246MPD1    H1 3788   0.381   2.673   9.009  1.2539 -1.7710  1.4561
  246MPD1    H2 3789   0.239   2.331   8.839  2.9941 -0.4377  1.6970
  246MPD1    H3 3790   0.410   2.479   8.875  1.1243 -1.3252  3.1107
  246MPD1     N 3791   0.149   2.741   9.148 -0.9335  0.0348 -1.1666
  246MPD1    H5 3792   0.064   2.728   9.203  0.2611  2.5241  1.2546
  246MPD1    N1 3793   4.718   2.345   8.922  0.6780 -0.1397  0.2162
  246MPD1    H6 3794   4.641   2.346   8.988 -0.9377  0.2712 -1.6652
  246MPD1    H7 3795   0.013   2.249   8.928  0.5784 -0.4054 -3.4785
  247MPD1     C 3796   2.327   2.099  15.310 -0.2366  0.4665  0.0287
  247MPD1    C1 3797   2.355   1.976  15.263 -0.2561  0.3580 -0.2980
  247MPD1    C2 3798   2.409   1.887  15.354 -0.1003 -0.2751 -0.1723
  247MPD1    C3 3799   2.442   1.931  15.481 -1.0450  0.2309 -0.2041
  247MPD1    C4 3800   2.412   2.059  15.529 -0.2670 -0.8940 -0.3476
  247MPD1    C5 3801   2.354   2.139  15.438 -0.0151 -0.4689  0.1363
  247MPD1     H 3802   2.420   1.785  15.318  1.6035  0.4876 -1.7980
  247MPD1    H1 3803   2.444   2.089  15.628 -0.3396  0.7738 -0.8423
  247MPD1    H2 3804   2.276   2.173  15.248 -1.1930 -0.4008 -0.2293
  247MPD1    H3 3805   2.338   2.245  15.457  0.0345 -0.2799 -0.8465
  247MPD1     N 3806   2.484   1.843  15.588  0.3542 -0.1925 -0.1026
  247MPD1    H5 3807   2.512   1.892  15.672  0.5702  2.8647 -1.9507
  247MPD1    N1 3808   2.295   1.931  15.142  0.7206  0.3378  0.6069
  247MPD1    H6 3809   2.295   2.007  15.074  0.7573 -0.0329  0.1951
  247MPD1    H7 3810   2.337   1.849  15.099 -1.8901 -0.6068 -0.1163
  248MPD1     C 3811   3.757   0.447  17.604  0.6332  0.1983 -0.6376
  248MPD1    C1 3812   3.633   0.508  17.625 -0.3655  0.2749  0.0447
  248MPD1    C2 3813   3.600   0.553  17.749 -0.3476 -0.0967  0.8101
  248MPD1    C3 3814   3.690   0.562   0.102  0.7970 -0.2199 -0.2432
  248MPD1    C4 3815   3.817   0.509   0.079  0.1806  0.6245  0.0165
  248MPD1    C5 3816   3.845   0.465  17.702 -0.1924 -0.2782 -0.7986
  248MPD1     H 3817   3.503   0.598   0.015 -0.3393  0.8430 -1.6616
  248MPD1    H1 3818   3.888   0.486   0.157  0.6539 -2.3358 -1.2781
  248MPD1    H2 3819   3.781   0.400  17.509  0.5809  0.1725 -0.6386
  248MPD1    H3 3820   3.948   0.435  17.690  0.4986  1.4777  0.7650
  248MPD1     N 3821   3.654   0.631   0.221  0.0437  0.2971 -0.2009
  248MPD1    H5 3822   3.559   0.668   0.222 -0.6250 -1.4364  0.6912
  248MPD1    N1 3823   3.536   0.508  17.525  0.2027  0.0238  0.2859
  248MPD1    H6 3824   3.576   0.512  17.431  1.5305  2.3243  0.9407
  248MPD1    H7 3825   3.473   0.588  17.534  0.9521  0.7559 -0.8159
  249MPD1     C 3826   1.408   4.648  10.140  0.2700 -0.3301 -0.8386
  249MPD1    C1 3827   1.505   4.707  10.055  0.4781  1.0007 -0.1564
  249MPD1    C2 3828   1.533   0.102  10.069 -0.1772  0.0935 -0.3772
  249MPD1    C3 3829   1.458   0.178  10.158  0.1363 -0.3147 -0.1465
  249MPD1    C4 3830   1.370   0.114  10.245 -0.4984  0.3170  0.9691
  249MPD1    C5 3831   1.347   4.720  10.234 -0.1238 -0.2395 -0.3268
  249MPD1     H 3832   1.594   0.157   9.998  3.1505 -1.8769  0.9572
  249MPD1    H1 3833   1.310   0.166  10.318 -1.6487  2.8079 -1.7894
  249MPD1    H2 3834   1.379   4.544  10.129 -1.7694 -0.0527  2.1054
  249MPD1    H3 3835   1.275   4.665  10.294 -1.0265  0.4997 -0.7457
  249MPD1     N 3836   1.469   0.320  10.145 -0.4242  0.1225  0.1935
  249MPD1    H5 3837   1.526   0.364  10.074 -1.0348  0.6115  0.0105
  249MPD1    N1 3838   1.544   4.642   9.943  0.3693  0.2926  0.5406
  249MPD1    H6 3839   1.552   4.543   9.964 -0.0579  0.3179  0.8158
  249MPD1    H7 3840   1.637   4.678   9.922  0.4469 -1.3929 -2.0484
  250MPD2     C 3841   2.313   4.574  12.796  0.7505 -0.2964  0.0745
  250MPD2    C1 3842   2.202   4.651  12.763 -0.9916 -0.0356 -0.3695
  250MPD2    C2 3843   2.082   4.598  12.712  0.2277 -0.3279  0.2454
  250MPD2    C3 3844   2.093   4.461  12.674  0.1670 -0.0435  0.5050
  250MPD2    C4 3845   2.203   4.381  12.710 -0.3129 -0.4143  0.4189
  250MPD2    C5 3846   2.313   4.440  12.765  0.1993 -0.0109  0.3432
  250MPD2     H 3847   1.994   4.660  12.700  1.2256  0.7515 -1.5760
  250MPD2    H1 3848   2.215   4.280  12.673 -0.3843  0.3115 -1.5718
  250MPD2    H2 3849   2.405   4.610  12.841  1.9370  0.1502 -2.7173
  250MPD2    H3 3850   2.405   4.383  12.775  0.1001 -0.0079  1.2143
  250MPD2     N 3851   1.988   4.397  12.602 -0.9011  1.2586  0.2083
  250MPD2    H5 3852   2.004   4.302  12.569 -0.9546  1.7757 -1.3087
  250MPD2    N1 3853   2.197   0.042  12.812 -0.0654  0.4476 -0.0056
  250MPD2    H7 3854   2.284   0.081  12.847  1.1810 -1.4955 -0.9176
  251TMC3    C1 3855   2.142   0.252  12.886  0.1852 -0.4450  0.0856
  251TMC3    C2 3856   2.061   0.361  12.878 -0.1737 -0.2511  0.5171
  251TMC3    C3 3857   2.107   0.488  12.903  0.4612 -0.6758  0.3023
  251TMC3    C4 3858   2.273   0.269  12.924 -0.6446  0.7352  0.9187
  251TMC3    C5 3859   2.325   0.395  12.937 -0.3964 -0.2444 -0.1967
  251TMC3    C6 3860   2.240   0.504  12.921  0.2194 -0.6130  0.9895
  251TMC3     C 3861   2.094   0.127  12.831  0.7379 -0.2148 -1.1125
  251TMC3     O 3862   1.974   0.112  12.821 -0.3097  0.7641  0.2287
  251TMC3     H 3863   1.954   0.350  12.859  0.0093  0.5727 -1.0274
  251TMC3    H1 3864   2.326   0.181  12.958 -1.7154 -0.5014 -0.6459
  251TMC3    H2 3865   2.277   0.604  12.939 -1.9363  0.3594 -0.0043
  251TMC3    C7 3866   2.450   0.414  12.994  0.0114 -1.1801 -0.7575
  251TMC3    C8 3867   2.022   0.602  12.880 -0.3010 -0.1615  0.4321
  251TMC3    O1 3868   2.493   0.319  13.056  0.0701 -0.0988  0.5781
  251TMC3    O2 3869   1.903   0.590  12.875 -0.4044  0.1632  0.4830
  252TMC3    C1 3870   2.577   2.060   9.365  0.6651  0.1241 -0.7886
  252TMC3    C2 3871   2.683   2.063   9.455  1.0095  0.2966  0.0953
  252TMC3    C3 3872   2.675   1.988   9.567  0.3749 -0.2601  0.7937
  252TMC3    C4 3873   2.458   2.003   9.393 -0.3508 -0.1832 -0.5037
  252TMC3    C5 3874   2.456   1.934   9.509  0.7826 -0.3283  0.2091
  252TMC3    C6 3875   2.563   1.914   9.594  0.5229 -0.0563 -0.4507
  252TMC3     C 3876   2.592   2.135   9.242 -0.5397  1.5086 -0.1512
  252TMC3     O 3877   2.708   2.140   9.195  0.3076 -0.3143 -0.6065
  252TMC3     H 3878   2.779   2.105   9.428  2.0157 -0.9594  1.7682
  252TMC3    H1 3879   2.382   1.995   9.317 -0.7554  0.6985 -0.1920
  252TMC3    H2 3880   2.549   1.871   9.692  0.1936  1.0457 -0.0043
  252TMC3    C7 3881   2.335   1.853   9.527  0.7525 -0.8049  0.6020
  252TMC3    C8 3882   2.801   1.969   9.642  0.2514 -0.7062 -0.4054
  252TMC3    O1 3883   2.240   1.906   9.471 -0.4209 -0.0997  0.1272
  252TMC3    O2 3884   2.890   2.048   9.623 -0.4302 -0.4808  0.0800
  253MPD2     C 3885   3.456   0.145  15.008 -0.3527 -0.1140 -0.7333
  253MPD2    C1 3886   3.332   0.090  15.023  0.3618 -0.2812 -0.4595
  253MPD2    C2 3887   3.292   0.041  15.143 -0.1864  0.0622  0.0568
  253MPD2    C3 3888   3.384   0.040  15.251  0.5512  0.8277 -1.0238
  253MPD2    C4 3889   3.510   0.090  15.226 -0.4448  0.1821  0.1919
  253MPD2    C5 3890   3.548   0.144  15.106 -0.6867 -0.0437  0.7868
  253MPD2     H 3891   3.189   0.013  15.161  0.1142 -0.5038  0.9237
  253MPD2    H1 3892   3.587   0.088  15.301  0.0931  0.1380 -0.3654
  253MPD2    H2 3893   3.491   0.186  14.914 -2.3368  1.1890 -0.9006
  253MPD2    H3 3894   3.651   0.177  15.096  0.2954 -3.1800  0.8088
  253MPD2     N 3895   3.343   0.003  15.383  0.3324 -0.2955  0.1722
  253MPD2    H5 3896   3.246   4.714  15.391  0.0217  0.3705 -1.3730
  253MPD2    N1 3897   3.228   0.105  14.923  0.5694  0.8060 -0.2141
  253MPD2    H7 3898   3.137   0.063  14.939  0.9303  0.0571 -0.1240
  254TMC3    C1 3899   3.348   4.726  15.615  0.9158  0.4422  0.0315
  254TMC3    C2 3900   3.236   0.072  15.620 -0.1310 -0.2558 -0.5318
  254TMC3    C3 3901   3.165   0.067  15.734  0.4580 -0.8776 -1.1002
  254TMC3    C4 3902   3.411   4.670  15.725  0.3172  0.6270  0.2946
  254TMC3    C5 3903   3.329   4.686  15.835  0.3048 -0.1173  0.6335
  254TMC3    C6 3904   3.208   0.011  15.849 -0.7030  0.6918  0.3777
  254TMC3     C 3905   3.426   0.001  15.492  0.0810 -0.1546  0.1947
  254TMC3     O 3906   3.548   4.727  15.506 -0.2794  0.2934 -0.2312
  254TMC3     H 3907   3.201   0.133  15.538 -2.5985  1.9890  2.1991
  254TMC3    H1 3908   3.495   4.601  15.732 -0.2503 -0.0536  0.4726
  254TMC3    H2 3909   3.169   0.031  15.948  0.4378  0.1926  0.9307
  254TMC3    C7 3910   3.362   4.607  15.949 -0.5541 -0.1482  0.1200
  254TMC3    C8 3911   3.023   0.096  15.733  0.3033  0.5961 -0.1752
  254TMC3    O1 3912   3.261   4.580  16.019  0.3182 -0.5254  0.1595
  254TMC3    O2 3913   2.956   0.052  15.829  0.4571 -0.1571 -0.0066
  255MPD2     C 3914   1.144   2.033  10.587  0.0411  0.7590  0.1516
  255MPD2    C1 3915   1.188   2.157  10.546 -0.4825 -0.6238  0.4325
  255MPD2    C2 3916   1.304   2.167  10.472 -0.1292  0.1862  0.2118
  255MPD2    C3 3917   1.386   2.061  10.448  0.0116 -0.0379 -0.0732
  255MPD2    C4 3918   1.345   1.936  10.495  0.4310  0.4804 -0.3404
  255MPD2    C5 3919   1.220   1.924  10.555  0.3632 -0.0247  0.1626
  255MPD2     H 3920   1.333   2.265  10.435  0.9884  0.1334  0.9467
  255MPD2    H1 3921   1.401   1.843  10.493  1.8257  1.2476  2.4479
  255MPD2    H2 3922   1.058   2.016  10.651  0.4476  0.2771  0.5771
  255MPD2    H3 3923   1.195   1.825  10.591 -0.6916 -0.7224 -2.5097
  255MPD2     N 3924   1.505   2.089  10.366 -0.4343  0.2657 -0.3493
  255MPD2    H5 3925   1.525   2.187  10.349 -2.4128  0.5601 -0.9868
  255MPD2    N1 3926   1.105   2.269  10.573  0.1021 -0.7032  0.0267
  255MPD2    H7 3927   1.014   2.252  10.612 -0.5756  3.7621  0.4624
  256TMC3    C1 3928   1.049   2.493  10.601 -0.4298 -0.5889  0.7393
  256TMC3    C2 3929   1.102   2.599  10.659 -0.2095 -0.7869  0.3543
  256TMC3    C3 3930   1.013   2.690  10.697 -0.3889  0.5175 -0.0506
  256TMC3    C4 3931   0.921   2.489  10.558  0.3811  0.7830 -0.3382
  256TMC3    C5 3932   0.831   2.594  10.580  0.0732  0.0848  0.0386
  256TMC3    C6 3933   0.878   2.693  10.666 -0.1026 -0.0413  0.2599
  256TMC3     C 3934   1.140   2.400  10.542 -0.0883 -0.3629 -0.1430
  256TMC3     O 3935   1.245   2.443  10.488  0.2419  0.0773  0.0795
  256TMC3     H 3936   1.202   2.598  10.702 -0.6826 -0.1259  1.4801
  256TMC3    H1 3937   0.889   2.413  10.488  0.0180  0.7180 -0.0992
  256TMC3    H2 3938   0.831   2.789  10.681  1.0939  0.2504  2.0821
  256TMC3    C7 3939   0.763   2.644  10.459 -0.3415 -0.0200 -0.0909
  256TMC3    C8 3940   1.060   2.817  10.732 -0.1424 -0.3960 -0.0534
  256TMC3    O1 3941   0.784   2.578  10.353  0.0138  0.4837 -0.2702
  256TMC3    O2 3942   0.991   2.890  10.799 -0.1085 -0.3857  0.1648
  257MPD2     C 3943   0.935   0.232  12.989  0.0764 -0.0487 -0.0076
  257MPD2    C1 3944   0.879   0.139  12.912 -0.9271 -0.2528  0.2302
  257MPD2    C2 3945   0.798   0.036  12.962 -0.3043  0.4505 -0.6928
  257MPD2    C3 3946   0.789   0.025  13.099  0.7830  0.1647  0.2875
  257MPD2    C4 3947   0.861   0.111  13.183  0.5892 -0.6982  0.5034
  257MPD2    C5 3948   0.925   0.214  13.125 -0.1060  0.2434 -0.2337
  257MPD2     H 3949   0.745   4.702  12.901 -1.0637  1.2616 -1.0022
  257MPD2    H1 3950   0.866   0.098  13.291 -0.6004  1.1780  0.7889
  257MPD2    H2 3951   1.002   0.305  12.944  0.1047  0.6250  1.1299
  257MPD2    H3 3952   0.982   0.291  13.176 -1.4518  0.7904  0.4459
  257MPD2     N 3953   0.737   4.639  13.148 -0.0258 -0.6145 -0.3179
  257MPD2    H5 3954   0.724   4.568  13.077 -0.3093 -3.5833  2.7054
  257MPD2    N1 3955   0.895   0.160  12.775 -0.1645 -0.0243  0.3706
  257MPD2    H7 3956   0.963   0.226  12.740 -1.1328 -0.1070 -1.6764
  258TMC3    C1 3957   0.709   4.463  13.279 -0.2061 -1.0933 -0.0664
  258TMC3    C2 3958   0.801   4.392  13.199 -0.0515  0.0167 -0.1880
  258TMC3    C3 3959   0.842   4.270  13.235  1.7498  0.2558  0.7745
  258TMC3    C4 3960   0.668   4.413  13.397 -0.5160  0.3990 -0.5544
  258TMC3    C5 3961   0.709   4.289  13.436  0.4861 -0.0105 -0.2499
  258TMC3    C6 3962   0.793   4.218  13.355  0.0316  0.1631 -0.1596
  258TMC3     C 3963   0.723   4.610  13.280 -0.1085  0.5228 -0.4131
  258TMC3     O 3964   0.705   4.677  13.381 -0.1603 -0.2969 -0.1545
  258TMC3     H 3965   0.844   4.438  13.111  0.3958  1.3602  0.7272
  258TMC3    H1 3966   0.602   4.466  13.465 -1.9665 -0.9887 -0.8954
  258TMC3    H2 3967   0.826   4.120  13.390  0.1850  0.5693  0.8218
  258TMC3    C7 3968   0.687   4.258  13.576  0.0166  0.4055  0.3097
  258TMC3    C8 3969   0.918   4.198  13.134  0.0693 -0.0771  0.2661
  258TMC3    O1 3970   0.572   4.273  13.617  0.0308  0.5869 -0.2511
  258TMC3    O2 3971   0.969   4.254  13.037  0.5073  0.1075  0.2235
  259MPD2     C 3972   3.933   1.842   0.765 -0.1928 -0.2856  0.1395
  259MPD2    C1 3973   4.038   1.773   0.715  0.2180  0.2398  0.1445
  259MPD2    C2 3974   4.068   1.803   0.581 -0.7315 -0.1549  0.2912
  259MPD2    C3 3975   3.982   1.891   0.514  0.2114 -0.1387  0.1749
  259MPD2    C4 3976   3.892   1.978   0.572 -0.3075 -0.2380 -0.1270
  259MPD2    C5 3977   3.876   1.948   0.704  0.5200 -0.3262 -0.3267
  259MPD2     H 3978   4.126   1.738   0.516  0.9642  0.6258  1.0391
  259MPD2    H1 3979   3.834   2.053   0.520  0.4328 -0.9890 -2.0355
  259MPD2    H2 3980   3.886   1.812   0.858 -3.3617 -0.3950 -1.4975
  259MPD2    H3 3981   3.793   2.001   0.750 -0.3560 -1.8796 -0.1325
  259MPD2     N 3982   3.991   1.891   0.366 -0.4380  0.0259 -1.0123
  259MPD2    H5 3983   4.025   1.810   0.317  3.6082  1.0262  0.1834
  259MPD2    N1 3984   4.084   1.656   0.784 -0.1108  0.0978  0.4421
  259MPD2    H7 3985   4.042   1.634   0.874  1.0205  1.0338  1.2024
  260TMC3    C1 3986   3.978   1.965   0.148 -0.4164  0.8147 -0.3476
  260TMC3    C2 3987   4.093   2.012   0.086  0.1570  0.0776  0.4221
  260TMC3    C3 3988   4.126   1.938  17.725 -0.0518  0.1176 -0.9567
  260TMC3    C4 3989   3.918   1.848   0.107 -0.5648  0.1958 -0.1127
  260TMC3    C5 3990   3.966   1.782  17.747 -0.2654 -0.2795  0.1076
  260TMC3    C6 3991   4.065   1.833  17.667  0.0177  1.0107  0.1357
  260TMC3     C 3992   3.967   2.001   0.290  0.2488 -0.0787  0.7063
  260TMC3     O 3993   3.962   2.117   0.320  0.6055 -0.2384 -0.1571
  260TMC3     H 3994   4.155   2.087   0.133 -1.0672 -0.2019  2.5162
  260TMC3    H1 3995   3.836   1.809   0.167  0.7057 -0.1499  1.4125
  260TMC3    H2 3996   4.101   1.780  17.580  1.0847 -0.6876  1.6216
  260TMC3    C7 3997   3.939   1.641  17.728 -0.4337 -0.1501  0.0501
  260TMC3    C8 3998   4.257   1.984  17.671 -0.3334 -0.0856 -0.2158
  260TMC3    O1 3999   3.962   1.600  17.615 -0.1032 -0.5277 -0.4670
  260TMC3    O2 4000   4.288   2.099  17.690 -0.2668 -0.1804 -0.2955
  261MPD2     C 4001   1.183   4.393  12.224 -0.2270  0.6396 -0.2504
  261MPD2    C1 4002   1.299   4.473  12.246 -0.5591  0.4057  0.1207
  261MPD2    C2 4003   1.299   4.603  12.219 -0.3655  1.0750 -0.3532
  261MPD2    C3 4004   1.187   4.661  12.142 -0.0785 -0.0062  0.4439
  261MPD2    C4 4005   1.084   4.579  12.105 -0.4083  0.5787  0.2066
  261MPD2    C5 4006   1.083   4.450  12.149 -0.1206 -0.1042 -0.9445
  261MPD2     H 4007   1.377   4.665  12.262  1.2851 -0.8329 -0.6239
  261MPD2    H1 4008   1.010   4.605  12.030  0.0669  0.0335 -0.4596
  261MPD2    H2 4009   1.184   4.287  12.246 -0.4096  0.7138  0.1174
  261MPD2    H3 4010   1.003   4.384  12.118 -1.1387  0.2304  0.9686
  261MPD2     N 4011   1.200   0.060  12.099 -0.1255  0.0463  0.0979
  261MPD2    H5 4012   1.289   0.106  12.117  0.5902 -0.5224 -1.9445
  261MPD2    N1 4013   1.415   4.424  12.315 -0.4292 -0.3895  0.0484
  261MPD2    H7 4014   1.502   4.476  12.312  1.1491 -3.0221 -0.4977
  262TMC3    C1 4015   1.173   0.246  11.946  0.7468  0.3114 -0.2984
  262TMC3    C2 4016   1.087   0.326  11.869  0.0298  0.2026 -0.5799
  262TMC3    C3 4017   1.140   0.430  11.795  0.0587 -0.3471  0.5531
  262TMC3    C4 4018   1.308   0.267  11.947  0.1623  0.3347  0.0995
  262TMC3    C5 4019   1.353   0.367  11.862 -0.8594 -0.8814  0.3981
  262TMC3    C6 4020   1.275   0.458  11.802 -0.1580 -0.4480 -0.6639
  262TMC3     C 4021   1.110   0.123  12.012  0.6243  0.8246  0.1741
  262TMC3     O 4022   0.995   0.097  12.000 -0.3416 -0.3554 -0.1184
  262TMC3     H 4023   0.989   0.294  11.836  0.1343 -0.6814 -0.0306
  262TMC3    H1 4024   1.379   0.189  11.973 -0.1738  0.2308  0.7129
  262TMC3    H2 4025   1.322   0.518  11.724  1.4207  0.5744  1.0870
  262TMC3    C7 4026   1.493   0.380  11.832  0.5143  0.0500 -0.4090
  262TMC3    C8 4027   1.046   0.506  11.720  0.3736  0.3365  0.3333
  262TMC3    O1 4028   1.515   0.435  11.725 -0.1051  0.2777  0.1425
  262TMC3    O2 4029   0.926   0.486  11.732  0.8509  0.2589  0.2036
  263MPD2     C 4030   2.563   4.004  11.761  0.1869 -0.0859 -0.1066
  263MPD2    C1 4031   2.541   3.918  11.660  0.3827  0.0259  0.0798
  263MPD2    C2 4032   2.583   3.958  11.533 -0.7544  0.2617  0.3836
  263MPD2    C3 4033   2.656   4.074  11.517  0.8668 -0.4405  0.1086
  263MPD2    C4 4034   2.680   4.156  11.624 -0.0297 -0.2396 -0.0743
  263MPD2    C5 4035   2.635   4.123  11.749  1.0939 -1.0161 -0.7404
  263MPD2     H 4036   2.578   3.898  11.443  1.8381  1.1063 -0.3227
  263MPD2    H1 4037   2.735   4.248  11.608  0.1412 -0.1621  0.9940
  263MPD2    H2 4038   2.519   3.971  11.855 -0.0322 -1.2631 -0.6197
  263MPD2    H3 4039   2.658   4.195  11.827 -2.7098  0.4771 -1.0193
  263MPD2     N 4040   2.695   4.109  11.381 -0.2597 -0.7106  0.0408
  263MPD2    H5 4041   2.648   4.061  11.305 -0.1386  1.3363 -1.3321
  263MPD2    N1 4042   2.492   3.788  11.695 -0.2112  0.1296 -0.1465
  263MPD2    H7 4043   2.477   3.758  11.790  2.7197 -1.3337 -0.1553
  264TMC3    C1 4044   2.832   4.200  11.208 -0.4369  0.5090 -0.6487
  264TMC3    C2 4045   2.726   4.184  11.126  0.1545 -0.4048 -0.6260
  264TMC3    C3 4046   2.760   4.184  10.994  0.0366  0.1810 -0.3101
  264TMC3    C4 4047   2.964   4.201  11.172  0.3399 -0.1382  0.6462
  264TMC3    C5 4048   2.988   4.199  11.041 -0.0442 -0.5889  0.4145
  264TMC3    C6 4049   2.891   4.186  10.948  0.0093 -0.1967 -0.4304
  264TMC3     C 4050   2.807   4.186  11.357 -0.7668  0.3540 -0.2605
  264TMC3     O 4051   2.889   4.218  11.443 -0.0840 -0.1321  0.1714
  264TMC3     H 4052   2.624   4.165  11.157 -0.8412  1.8292 -2.5348
  264TMC3    H1 4053   3.050   4.213  11.237  0.5473  1.9109  0.0050
  264TMC3    H2 4054   2.902   4.173  10.841 -2.6407  0.0890 -0.7290
  264TMC3    C7 4055   3.128   4.222  11.008 -0.9979  0.2995  0.7554
  264TMC3    C8 4056   2.660   4.188  10.885 -0.7378  0.0331  0.2150
  264TMC3    O1 4057   3.173   4.160  10.913 -0.4295  0.4854 -0.0015
  264TMC3    O2 4058   2.661   4.099  10.802 -0.4802 -0.2989  0.6164
  265MPD2     C 4059   4.522   4.172  15.542  0.2563 -0.5602  0.7358
  265MPD2    C1 4060   4.518   4.284  15.462 -0.1291  0.8782 -0.3792
  265MPD2    C2 4061   4.549   4.273  15.332  0.6856  1.2021 -0.8024
  265MPD2    C3 4062   4.578   4.153  15.273 -0.4870  1.4802  0.9227
  265MPD2    C4 4063   4.593   4.040  15.354 -0.1237 -0.3411  0.1193
  265MPD2    C5 4064   4.569   4.056  15.488 -0.0756 -0.2374 -0.4216
  265MPD2     H 4065   4.538   4.360  15.268 -0.8883  1.5348 -0.1031
  265MPD2    H1 4066   4.623   3.943  15.316  0.4798  0.4348 -1.3796
  265MPD2    H2 4067   4.515   4.178  15.650 -1.3452 -1.0748  0.6617
  265MPD2    H3 4068   4.583   3.974  15.557 -0.2233 -1.0819 -1.3925
  265MPD2     N 4069   4.607   4.132  15.136  0.2768  0.8266 -0.0394
  265MPD2    H5 4070   4.619   4.037  15.104 -3.0550 -0.3138  2.1090
  265MPD2    N1 4071   4.470   4.408  15.499  0.4561 -0.4868  0.2001
  265MPD2    H7 4072   4.476   4.487  15.436  1.4481 -1.2885 -0.7111
  266TMC3    C1 4073   4.387   4.583  15.625 -0.7517  0.0837  0.1685
  266TMC3    C2 4074   4.386   4.641  15.751 -0.5920 -0.0995 -0.1642
  266TMC3    C3 4075   4.352   0.031  15.762  0.3603  0.0380 -0.5284
  266TMC3    C4 4076   4.349   4.651  15.520  0.0036  0.0851 -0.2593
  266TMC3    C5 4077   4.320   0.045  15.537  0.4793 -0.9367  0.1693
  266TMC3    C6 4078   4.323   0.109  15.656 -0.0944  0.3231 -0.1219
  266TMC3     C 4079   4.410   4.445  15.623 -0.4346  0.3311 -0.0270
  266TMC3     O 4080   4.400   4.379  15.724  0.2628  0.4186 -0.0329
  266TMC3     H 4081   4.405   4.585  15.842  3.2698  1.9646  0.3270
  266TMC3    H1 4082   4.324   4.603  15.427 -0.6945 -2.2587  1.1421
  266TMC3    H2 4083   4.302   0.215  15.661 -2.5081 -0.1675  0.1760
  266TMC3    C7 4084   4.244   0.111  15.430  0.6618 -0.1850  0.1452
  266TMC3    C8 4085   4.408   0.092  15.877  1.1510 -0.0390 -0.1058
  266TMC3    O1 4086   4.190   0.042  15.345  0.2694 -0.2280  0.4906
  266TMC3    O2 4087   4.484   0.029  15.948 -0.5009  0.9567 -0.4630
  267MPD2     C 4088   1.594   2.183   0.352 -0.7162  0.0889  0.2288
  267MPD2    C1 4089   1.639   2.096   0.267 -0.4631 -1.0086  0.2756
  267MPD2    C2 4090   1.621   2.122   0.132 -0.4667 -0.0480 -0.4686
  267MPD2    C3 4091   1.555   2.240   0.089 -0.6946 -0.0734 -0.1950
  267MPD2    C4 4092   1.503   2.325   0.183 -0.6344 -0.3842  0.3704
  267MPD2    C5 4093   1.525   2.296   0.315  0.2850  0.4105 -1.0274
  267MPD2     H 4094   1.668   2.049   0.068 -1.3033  0.0525 -1.2014
  267MPD2    H1 4095   1.453   2.419   0.162 -0.3438 -0.4414 -0.5554
  267MPD2    H2 4096   1.598   2.161   0.458  0.5708 -1.3181 -0.1273
  267MPD2    H3 4097   1.489   2.371   0.385 -0.6398 -0.2907 -0.7644
  267MPD2     N 4098   1.549   2.277  17.707 -0.0753  0.3652  0.0971
  267MPD2    H5 4099   1.498   2.365  17.693  0.0459  0.5412  0.7888
  267MPD2    N1 4100   1.706   1.982   0.307 -0.4180  0.9061  0.1279
  267MPD2    H7 4101   1.716   1.901   0.246 -1.8242  2.4328 -2.1548
  268TMC3    C1 4102   1.852   1.853   0.430 -0.3272 -0.1737 -0.5019
  268TMC3    C2 4103   1.804   1.735   0.392  0.8321 -0.1812 -0.0578
  268TMC3    C3 4104   1.878   1.622   0.419  0.0871  0.4845 -0.5253
  268TMC3    C4 4105   1.959   1.864   0.518 -0.5651  0.3117 -0.3410
  268TMC3    C5 4106   2.024   1.744   0.546  0.5692 -0.3054 -0.2545
  268TMC3    C6 4107   1.989   1.621   0.498 -0.3512  0.8107 -0.1907
  268TMC3     C 4108   1.774   1.972   0.430 -0.3797  0.0603 -0.1275
  268TMC3     O 4109   1.798   2.065   0.503 -0.3757  0.4033  0.2231
  268TMC3     H 4110   1.700   1.729   0.360  0.2373 -0.9312  2.0077
  268TMC3    H1 4111   2.000   1.956   0.558 -1.0606  0.3246  0.1383
  268TMC3    H2 4112   2.046   1.532   0.522 -1.3119  0.3716  0.4731
  268TMC3    C7 4113   2.107   1.731   0.665  0.0168 -0.9909 -0.1168
  268TMC3    C8 4114   1.846   1.499   0.347 -0.3663  1.2342 -0.1476
  268TMC3    O1 4115   2.130   1.619   0.709  0.0603  0.5447 -0.8100
  268TMC3    O2 4116   1.899   1.398   0.391 -0.4526 -0.0108 -0.3246
  269MPD2     C 4117   2.048   0.278  15.411  0.3766  0.1709 -0.0645
  269MPD2    C1 4118   1.921   0.291  15.455 -0.0729  0.2944  0.0757
  269MPD2    C2 4119   1.872   0.412  15.480  0.0309 -0.7010 -0.4202
  269MPD2    C3 4120   1.953   0.523  15.452 -0.1253 -0.2055 -0.0549
  269MPD2    C4 4121   2.080   0.504  15.401 -0.0809  0.4922  0.9950
  269MPD2    C5 4122   2.128   0.380  15.394  0.1299 -0.5613 -0.2467
  269MPD2     H 4123   1.777   0.433  15.527  1.0821  0.6336  1.1042
  269MPD2    H1 4124   2.149   0.583  15.374  1.0503 -0.4642  1.1130
  269MPD2    H2 4125   2.092   0.183  15.384 -1.5841 -0.1362 -2.0738
  269MPD2    H3 4126   2.221   0.354  15.343  1.0201 -1.3388  1.7918
  269MPD2     N 4127   1.906   0.650  15.478 -0.3905  0.6005  0.8054
  269MPD2    H5 4128   1.819   0.655  15.528 -0.0493 -0.6585  1.5262
  269MPD2    N1 4129   1.846   0.175  15.486  0.4348 -0.1601  0.5543
  269MPD2    H7 4130   1.888   0.085  15.465  1.1744  0.1863  0.5617
  270TMC3    C1 4131   1.672   0.042  15.569  0.6459  0.5162 -0.0278
  270TMC3    C2 4132   1.545   0.008  15.539  0.0441 -0.2560  0.4131
  270TMC3    C3 4133   1.513   4.611  15.545 -0.4657  0.6106  0.0316
  270TMC3    C4 4134   1.770   4.693  15.624  0.8756  0.1474  0.1018
  270TMC3    C5 4135   1.723   4.568  15.634 -0.8208 -0.7748 -0.0463
  270TMC3    C6 4136   1.605   4.523  15.598 -0.3814  0.2219  0.1110
  270TMC3     C 4137   1.711   0.177  15.536  0.7654 -0.2013 -0.3844
  270TMC3     O 4138   1.626   0.267  15.540 -0.5738  0.3255 -0.3975
  270TMC3     H 4139   1.483   0.076  15.482  1.1997  0.4809  0.0280
  270TMC3    H1 4140   1.870   4.717  15.659  0.8396  1.6568 -0.8442
  270TMC3    H2 4141   1.592   4.416  15.588  1.7165 -0.0363  0.1504
  270TMC3    C7 4142   1.820   4.467  15.683 -0.1843  0.2960  0.4307
  270TMC3    C8 4143   1.445   4.564  15.424 -0.1328  0.2853  0.0464
  270TMC3    O1 4144   1.937   4.478  15.652  0.0745 -0.2233 -0.2216
  270TMC3    O2 4145   1.328   4.602  15.415 -0.6211 -0.0640  0.2940
  271MPD2     C 4146   1.394   4.715  13.927 -0.1729 -0.2707  0.5666
  271MPD2    C1 4147   1.307   4.644  14.006 -0.7103 -0.1533 -0.2141
  271MPD2    C2 4148   1.175   4.667  13.996  0.3407  0.0250  0.9647
  271MPD2    C3 4149   1.123   0.013  13.904  0.0005 -0.0114 -0.3039
  271MPD2    C4 4150   1.209   0.099  13.837 -0.2336  0.5964 -0.0953
  271MPD2    C5 4151   1.345   0.081  13.855  0.4623  0.4977  0.2853
  271MPD2     H 4152   1.108   4.611  14.060  0.3174 -0.4584  0.5193
  271MPD2    H1 4153   1.170   0.161  13.758  1.6444  0.2961 -1.2737
  271MPD2    H2 4154   1.502   4.710  13.936 -0.1057 -1.9182 -1.1085
  271MPD2    H3 4155   1.412   0.147  13.802  0.4298 -0.3487 -0.8121
  271MPD2     N 4156   0.986   0.028  13.884 -0.8745 -0.4512 -0.2842
  271MPD2    H5 4157   0.954   0.095  13.814  1.4120  0.2034 -0.6950
  271MPD2    N1 4158   1.355   4.548  14.100 -0.0672 -0.1344 -0.6446
  271MPD2    H7 4159   1.284   4.508  14.161 -0.2945 -0.5736 -1.1989
  272TMC3    C1 4160   1.486   4.399  14.220 -0.0778  0.6806 -0.1767
  272TMC3    C2 4161   1.580   4.304  14.219 -0.1148  0.2396  0.2966
  272TMC3    C3 4162   1.610   4.242  14.337 -0.9620  0.2340 -0.9260
  272TMC3    C4 4163   1.425   4.440  14.333  0.0387 -0.0259  0.5070
  272TMC3    C5 4164   1.454   4.368  14.444 -0.5833  0.4775 -0.1414
  272TMC3    C6 4165   1.545   4.270  14.453 -0.1744 -0.2630 -0.4420
  272TMC3     C 4166   1.478   4.492  14.107  1.0336  0.0616 -0.4605
  272TMC3     O 4167   1.580   4.519  14.042  0.0682  0.0209  0.3686
  272TMC3     H 4168   1.635   4.280  14.129 -0.0886  1.8461 -0.1263
  272TMC3    H1 4169   1.360   4.527  14.333  0.6367  0.4166  0.1783
  272TMC3    H2 4170   1.566   4.206  14.538 -2.1041 -1.4238 -0.8465
  272TMC3    C7 4171   1.451   4.434  14.568  0.0535  0.2507 -0.1438
  272TMC3    C8 4172   1.735   4.165  14.339 -0.2774  0.6092 -0.4399
  272TMC3    O1 4173   1.526   4.395  14.656  0.1490 -0.0464  0.7972
  272TMC3    O2 4174   1.765   4.118  14.231  0.1658 -0.8399  0.0277
  273MPD2     C 4175   3.359   2.195  11.361 -0.3864 -0.1442  0.2185
  273MPD2    C1 4176   3.355   2.300  11.454  0.0006  0.0436  0.1800
  273MPD2    C2 4177   3.301   2.420  11.419  0.6859  0.1846  0.3165
  273MPD2    C3 4178   3.241   2.439  11.297  0.1016 -0.0746  0.0950
  273MPD2    C4 4179   3.236   2.332  11.209 -0.2329 -0.2037 -0.1423
  273MPD2    C5 4180   3.287   2.203  11.241  0.3309  0.1140 -0.1920
  273MPD2     H 4181   3.311   2.506  11.484  1.2917 -0.0234  0.4994
  273MPD2    H1 4182   3.182   2.344  11.116  0.6575 -0.8484 -0.7488
  273MPD2    H2 4183   3.414   2.104  11.382 -0.8291 -0.4142  0.2076
  273MPD2    H3 4184   3.289   2.125  11.166 -1.7937  1.7530 -1.9679
  273MPD2     N 4185   3.186   2.562  11.248 -0.2830  0.1889 -0.0421
  273MPD2    H5 4186   3.181   2.566  11.146  0.0563 -2.5116 -0.1779
  273MPD2    N1 4187   3.402   2.269  11.583 -0.5411 -0.4148 -0.4955
  273MPD2    H7 4188   3.423   2.174  11.615 -2.2493  0.1111  2.1987
  274TMC3    C1 4189   3.179   2.803  11.245  0.3020  0.3628  0.4065
  274TMC3    C2 4190   3.105   2.810  11.127 -0.4703  0.5223 -0.6208
  274TMC3    C3 4191   3.065   2.930  11.079 -0.3007 -0.3350 -0.4254
  274TMC3    C4 4192   3.217   2.912  11.312  0.0164 -0.3274  0.5568
  274TMC3    C5 4193   3.157   3.029  11.268 -0.0220 -0.0903  0.8192
  274TMC3    C6 4194   3.100   3.044  11.146  0.5384 -0.3380  0.4650
  274TMC3     C 4195   3.185   2.680  11.320 -0.3075  0.9780  0.3136
  274TMC3     O 4196   3.207   2.709  11.436 -0.0002 -0.0602  0.3106
  274TMC3     H 4197   3.065   2.718  11.086 -0.8997  0.6787 -0.5552
  274TMC3    H1 4198   3.283   2.916  11.397  0.5292  2.2944  0.0376
  274TMC3    H2 4199   3.029   3.126  11.141  0.9272  0.0026  0.5541
  274TMC3    C7 4200   3.072   3.076  11.373  0.0102  0.2907 -0.4861
  274TMC3    C8 4201   2.961   2.931  10.975  0.2319  0.2374  0.4947
  274TMC3    O1 4202   3.018   3.187  11.365 -0.5412 -0.1132 -0.0067
  274TMC3    O2 4203   2.902   2.824  10.954 -0.5168 -0.1425  0.1597
  275MPD2     C 4204   2.610   1.112  14.108  0.3873  1.1577 -1.0138
  275MPD2    C1 4205   2.540   1.118  14.229  0.2790  0.1058  0.1000
  275MPD2    C2 4206   2.427   1.036  14.244  0.4390  0.9981 -0.0354
  275MPD2    C3 4207   2.379   0.960  14.136 -0.3274  0.3384 -0.6661
  275MPD2    C4 4208   2.453   0.964  14.020 -0.0242  0.0343 -0.2800
  275MPD2    C5 4209   2.563   1.047  14.007 -0.0543 -0.1144 -0.4917
  275MPD2     H 4210   2.378   1.030  14.341  0.0955 -2.1582 -0.4232
  275MPD2    H1 4211   2.427   0.894  13.941 -1.8026  2.3789 -1.7878
  275MPD2    H2 4212   2.705   1.164  14.107  1.4724 -0.7942  0.9002
  275MPD2    H3 4213   2.633   1.027  13.927 -1.4197  0.2513 -1.7665
  275MPD2     N 4214   2.273   0.870  14.153 -0.1986 -0.9260 -0.1505
  275MPD2    H5 4215   2.265   0.808  14.073 -1.9787 -2.2046  1.0113
  275MPD2    N1 4216   2.592   1.179  14.347  0.0026  0.2350  0.1258
  275MPD2    H7 4217   2.544   1.143  14.429 -0.0740  0.8153  0.3328
  276TMC3    C1 4218   2.722   1.285  14.506  0.5101 -0.0157  0.7765
  276TMC3    C2 4219   2.691   1.181  14.589  0.6519  0.5265 -0.0846
  276TMC3    C3 4220   2.702   1.204  14.721 -0.1415 -0.0471 -0.0791
  276TMC3    C4 4221   2.772   1.407  14.541  0.3539 -0.1148 -0.3635
  276TMC3    C5 4222   2.776   1.426  14.678  0.2872 -0.0231 -0.3465
  276TMC3    C6 4223   2.734   1.330  14.766 -0.1675 -0.4224 -0.0900
  276TMC3     C 4224   2.695   1.269  14.368  0.0800 -0.0758  0.8106
  276TMC3     O 4225   2.745   1.338  14.281 -0.0114 -0.3154 -0.2265
  276TMC3     H 4226   2.646   1.088  14.559 -0.0672  0.9020 -0.1727
  276TMC3    H1 4227   2.774   1.489  14.471 -1.0001 -0.6091 -0.9666
  276TMC3    H2 4228   2.742   1.357  14.871 -2.6076 -1.4360  0.3507
  276TMC3    C7 4229   2.883   1.513  14.735 -0.2903 -0.2447 -0.0131
  276TMC3    C8 4230   2.652   1.102  14.819 -0.1769  0.0474  0.2411
  276TMC3    O1 4231   2.890   1.513  14.858 -0.1603 -0.8059  0.0666
  276TMC3    O2 4232   2.599   1.153  14.919  0.2609 -0.5589 -0.8095
  277MPD2     C 4233   4.727   4.523  13.318 -0.1099 -0.5837  0.5499
  277MPD2    C1 4234   4.593   4.514  13.350 -0.0069  0.7736  0.2404
  277MPD2    C2 4235   4.537   4.402  13.408 -0.5680  0.0611  0.8938
  277MPD2    C3 4236   4.617   4.297  13.439  0.5802 -1.3262  0.1204
  277MPD2    C4 4237   0.012   4.298  13.405 -0.4810 -0.2340 -0.3637
  277MPD2    C5 4238   0.063   4.413  13.345 -0.8331  0.2829 -0.0401
  277MPD2     H 4239   4.434   4.407  13.442  0.1413 -2.9601  3.5077
  277MPD2    H1 4240   0.080   4.217  13.428 -1.0172 -0.0299  1.9237
  277MPD2    H2 4241   0.030   4.608  13.265 -1.4587 -0.1281  0.2532
  277MPD2    H3 4242   0.166   4.411  13.309 -1.1027  0.4307 -0.8268
  277MPD2     N 4243   4.543   4.193  13.500  0.2823 -0.2267  0.3446
  277MPD2    H5 4244   4.452   4.210  13.542 -0.4674  1.4456 -1.9181
  277MPD2    N1 4245   4.506   4.616  13.294 -0.3593 -0.1297  0.2233
  277MPD2    H7 4246   4.552   4.689  13.241  2.3471 -2.2896 -0.4390
  278TMC3    C1 4247   4.475   3.987  13.526 -0.4379 -0.1265  0.1766
  278TMC3    C2 4248   4.478   3.883  13.607 -0.0997  0.3196  0.4109
  278TMC3    C3 4249   4.355   3.834  13.653 -0.9229  0.5149 -0.2363
  278TMC3    C4 4250   4.360   4.046  13.476 -0.5498 -0.2972 -0.4094
  278TMC3    C5 4251   4.240   4.006  13.533  0.5044 -0.2086 -0.1190
  278TMC3    C6 4252   4.236   3.893  13.610 -0.0791 -0.5426 -0.6266
  278TMC3     C 4253   4.592   4.070  13.524 -0.0335  0.3502  0.1521
  278TMC3     O 4254   4.708   4.027  13.526 -0.4817 -0.3737  0.4311
  278TMC3     H 4255   4.572   3.844  13.643  0.3617  2.3688  1.3977
  278TMC3    H1 4256   4.356   4.103  13.384 -1.3545 -1.7486 -1.2840
  278TMC3    H2 4257   4.140   3.858  13.646  0.0411 -0.0614  0.1856
  278TMC3    C7 4258   4.116   4.058  13.481  0.2144 -0.2246 -0.4175
  278TMC3    C8 4259   4.366   3.718  13.742  0.3419  0.2505  0.7940
  278TMC3    O1 4260   4.114   4.073  13.362 -0.3746  0.5616  0.4842
  278TMC3    O2 4261   4.478   3.695  13.780  0.6521 -0.2955 -0.5338
  279MPD2     C 4262   3.720   0.267   0.391  0.3847 -0.4054  0.1703
  279MPD2    C1 4263   3.603   0.222   0.335 -0.1029  0.2870  0.5332
  279MPD2    C2 4264   3.615   0.149   0.221 -0.2326  0.7123 -0.2405
  279MPD2    C3 4265   3.738   0.128   0.158 -0.0099 -0.3474 -0.1199
  279MPD2    C4 4266   3.857   0.171   0.218  0.5553 -0.5040 -0.4167
  279MPD2    C5 4267   3.842   0.250   0.332  0.1008  0.3282 -0.8984
  279MPD2     H 4268   3.524   0.116   0.171  0.5398 -2.1697  0.2442
  279MPD2    H1 4269   3.956   0.156   0.176  2.0107  0.0066  2.7734
  279MPD2    H2 4270   3.716   0.340   0.471 -0.5207  1.1144 -1.2449
  279MPD2    H3 4271   3.930   0.283   0.387  0.3378 -1.0166 -0.4676
  279MPD2     N 4272   3.756   0.063   0.035 -0.0075 -0.0094  0.5007
  279MPD2    H5 4273   3.849   0.070  17.745 -0.4680 -2.2457 -0.9531
  279MPD2    N1 4274   3.476   0.246   0.388 -0.3358  0.4339  0.1577
  279MPD2    H7 4275   3.398   0.201   0.341  0.9537 -0.4507 -1.1164
  280TMC3    C1 4276   3.311   0.325   0.531 -0.7676  0.0881 -0.6960
  280TMC3    C2 4277   3.256   0.203   0.512 -0.3844  0.3616 -0.4985
  280TMC3    C3 4278   3.123   0.210   0.477  0.4706 -0.5754  0.3852
  280TMC3    C4 4279   3.242   0.446   0.520 -0.4765  0.1209  0.7984
  280TMC3    C5 4280   3.117   0.440   0.479  0.0645 -0.0311  0.5464
  280TMC3    C6 4281   3.050   0.325   0.466 -0.7005  1.1088  0.7937
  280TMC3     C 4282   3.450   0.338   0.490 -0.6467 -0.2855 -0.4079
  280TMC3     O 4283   3.504   0.438   0.526 -0.0283 -0.3002  0.1110
  280TMC3     H 4284   3.318   0.115   0.496  0.7651  0.7745  1.7477
  280TMC3    H1 4285   3.296   0.540   0.530 -0.3639  0.1202  0.2122
  280TMC3    H2 4286   2.946   0.320   0.437 -0.5002 -2.4451  0.6954
  280TMC3    C7 4287   3.065   0.565   0.417  0.6905 -0.3558  0.0567
  280TMC3    C8 4288   3.049   0.080   0.450 -0.8737  0.1811 -0.5794
  280TMC3    O1 4289   3.103   0.664   0.476 -0.0309  0.0799 -0.1572
  280TMC3    O2 4290   2.938   0.095   0.405 -0.4007  0.5373 -0.1498
  281TMC3    C1 4291   2.672   0.241  13.361  0.3891 -0.4337 -0.3345
  281TMC3    C2 4292   2.760   0.310  13.291  0.0104 -0.0144  0.4114
  281TMC3    C3 4293   2.855   0.239  13.221  0.4374  0.3989 -0.6070
  281TMC3    C4 4294   2.683   0.107  13.388 -0.6501  0.6431  0.0671
  281TMC3    C5 4295   2.790   0.042  13.335 -0.4253 -0.6817  0.6632
  281TMC3    C6 4296   2.880   0.101  13.253  0.4583  0.6935 -0.0709
  281TMC3     C 4297   2.549   0.307  13.406  0.4659 -0.1644 -0.1512
  281TMC3     O 4298   2.491   0.243  13.497 -0.1024  0.2979  0.2705
  281TMC3     H 4299   2.750   0.416  13.270  0.2365 -0.2758 -1.0404
  281TMC3    H1 4300   2.600   0.051  13.430 -0.7801  1.7748  1.3519
  281TMC3    H2 4301   2.967   0.046  13.217 -0.2175 -1.2717  1.3131
  281TMC3    C7 4302   2.832   4.663  13.396 -0.0898 -0.6411 -0.0148
  281TMC3    C8 4303   2.977   0.309  13.180  0.1931  0.0224 -1.2759
  281TMC3    O1 4304   2.931   4.609  13.349  0.1824 -1.1827  0.8278
  281TMC3    O2 4305   3.075   0.249  13.210  0.6170 -0.3469 -0.3059
  282MPD2     C 4306   4.367   1.439  14.853  0.4038 -0.1184  0.0761
  282MPD2    C1 4307   4.236   1.493  14.857  0.9324  0.5547  0.1235
  282MPD2    C2 4308   4.164   1.491  14.742 -0.2081  0.6416 -0.7371
  282MPD2    C3 4309   4.208   1.434  14.625  0.3943 -1.6892 -0.5536
  282MPD2    C4 4310   4.330   1.371  14.623 -0.2427 -0.4796  0.4762
  282MPD2    C5 4311   4.413   1.385  14.733 -0.2200 -0.3708 -0.2798
  282MPD2     H 4312   4.059   1.520  14.746 -0.5097 -0.2917 -1.9637
  282MPD2    H1 4313   4.377   1.324  14.537  2.7126 -0.4550  2.0966
  282MPD2    H2 4314   4.428   1.442  14.942  1.8141  0.1339 -0.8969
  282MPD2    H3 4315   4.503   1.328  14.754  0.9623  2.0346  1.2277
  282MPD2     N 4316   4.126   1.440  14.514 -0.0284  0.1585 -0.1636
  282MPD2    H5 4317   4.046   1.502  14.522 -0.8984 -0.9948  0.0587
  282MPD2    N1 4318   4.179   1.555  14.968  0.3621 -0.3443  0.7422
  282MPD2    H7 4319   4.082   1.583  14.963  0.6577  0.7601  1.0171
  283TMC3    C1 4320   4.144   1.639  15.174  0.1049  0.0089  0.0537
  283TMC3    C2 4321   4.179   1.757  15.240 -0.5648  0.2795  0.3473
  283TMC3    C3 4322   4.146   1.763  15.372 -0.0439  0.0040 -0.4692
  283TMC3    C4 4323   4.063   1.545  15.228  0.2834  0.3233 -0.2454
  283TMC3    C5 4324   4.025   1.562  15.357  0.0701 -0.2014  0.8238
  283TMC3    C6 4325   4.071   1.660  15.431 -0.3574 -0.0062 -0.3549
  283TMC3     C 4326   4.242   1.593  15.078  0.4975 -0.2321  0.2399
  283TMC3     O 4327   4.360   1.598  15.111  0.3157  0.1495  0.7348
  283TMC3     H 4328   4.246   1.826  15.191  1.2520 -0.3405  1.9666
  283TMC3    H1 4329   4.061   1.447  15.180  1.2032 -0.2895  0.9589
  283TMC3    H2 4330   4.031   1.681  15.529 -0.9289 -0.7843 -0.4168
  283TMC3    C7 4331   3.936   1.469  15.423 -0.0553  0.5205  0.0170
  283TMC3    C8 4332   4.164   1.876  15.461 -0.5628 -0.0648 -0.7315
  283TMC3    O1 4333   3.940   1.470  15.545  0.5232  0.9688 -0.1900
  283TMC3    O2 4334   4.156   1.859  15.583 -0.2105 -0.2047 -0.1458
  284MPD2     C 4335   3.020   0.545  12.302  1.0276  0.2558 -0.8636
  284MPD2    C1 4336   2.976   0.498  12.181  0.7525  0.1280 -0.4632
  284MPD2    C2 4337   2.962   0.364  12.168  0.3644  0.0346  0.5048
  284MPD2    C3 4338   2.987   0.274  12.271 -0.0546 -0.1826 -0.5623
  284MPD2    C4 4339   3.056   0.327  12.380 -0.4437 -0.0460 -0.1028
  284MPD2    C5 4340   3.065   0.464  12.403  1.2391 -0.5969  0.5693
  284MPD2     H 4341   2.930   0.328  12.070  0.8113 -1.2148  0.8212
  284MPD2    H1 4342   3.102   0.259  12.451  2.6011  3.3069  1.1320
  284MPD2    H2 4343   3.037   0.650  12.318 -0.0952  0.0133  1.9482
  284MPD2    H3 4344   3.114   0.499  12.493  2.4158 -0.1849 -0.2313
  284MPD2     N 4345   2.958   0.136  12.273  0.0904 -0.3773  0.0156
  284MPD2    H5 4346   3.004   0.076  12.341 -2.7849 -1.4769  1.0312
  284MPD2    N1 4347   2.945   0.574  12.062 -0.1845 -0.1270  0.3178
  284MPD2    H7 4348   2.915   0.523  11.980  0.6693 -1.2703  0.7194
  285TMC3    C1 4349   2.942   0.764  11.915 -0.4806 -0.3899  0.6335
  285TMC3    C2 4350   2.956   0.681  11.809 -0.0068  0.4883 -0.4582
  285TMC3    C3 4351   2.975   0.740  11.686  0.1655  0.0629 -0.4184
  285TMC3    C4 4352   2.940   0.903  11.903 -1.2067  0.1225  0.7968
  285TMC3    C5 4353   2.941   0.957  11.777  0.6184  0.1708 -0.3097
  285TMC3    C6 4354   2.968   0.875  11.671 -0.2356 -0.3028  0.8711
  285TMC3     C 4355   2.970   0.713  12.048  0.5686 -0.1250 -0.6587
  285TMC3     O 4356   3.029   0.791  12.129  0.2502  0.4010  0.0677
  285TMC3     H 4357   2.978   0.576  11.814  1.2982  0.8094  0.4655
  285TMC3    H1 4358   2.930   0.959  11.995 -0.3754 -0.1537  1.0571
  285TMC3    H2 4359   2.962   0.928  11.577 -2.8804 -1.2793  0.4684
  285TMC3    C7 4360   2.857   1.071  11.739  0.5150 -1.1219  0.5112
  285TMC3    C8 4361   3.004   0.661  11.571 -0.0490 -0.2392  0.4704
  285TMC3    O1 4362   2.847   1.111  11.624  0.6259  0.3094  0.2765
  285TMC3    O2 4363   2.998   0.540  11.573  0.3016 -0.8607  0.0793
  286MPD2     C 4364   3.075   0.034   1.440  1.0172  0.3671  0.2173
  286MPD2    C1 4365   3.056   4.704   1.319  0.0575  0.9744 -0.3442
  286MPD2    C2 4366   3.161   4.625   1.266 -0.8380  0.0178  0.2591
  286MPD2    C3 4367   3.284   4.620   1.334  0.9219 -0.1579 -0.3868
  286MPD2    C4 4368   3.302   4.702   1.444  1.0366 -0.3366  0.0874
  286MPD2    C5 4369   3.199   0.030   1.501 -0.3157 -0.5214  1.1597
  286MPD2     H 4370   3.144   4.574   1.172 -2.6998  0.8630  0.1240
  286MPD2    H1 4371   3.388   4.709   1.509  0.1873 -0.5077  1.2288
  286MPD2    H2 4372   2.994   0.088   1.489 -0.6067 -0.6974 -1.3170
  286MPD2    H3 4373   3.228   0.082   1.592 -0.9349 -0.5555  1.3812
  286MPD2     N 4374   3.404   4.552   1.282  0.1618 -0.4249  0.2633
  286MPD2    H5 4375   3.493   4.570   1.329 -0.4344  0.2805  1.1346
  286MPD2    N1 4376   2.935   4.728   1.252  0.5289 -0.4588  0.1043
  286MPD2    H7 4377   2.864   0.046   1.299  0.7972 -0.1317  0.1196
  287TMC3    C1 4378   3.531   4.418   1.143  0.2830 -0.0017  0.4376
  287TMC3    C2 4379   3.547   4.324   1.042 -0.5365  0.3111  0.1566
  287TMC3    C3 4380   3.674   4.270   1.023 -0.0641  0.3838 -0.1056
  287TMC3    C4 4381   3.641   4.443   1.223  0.1248  0.7733  0.2968
  287TMC3    C5 4382   3.760   4.388   1.199  0.6468  0.5628  0.0555
  287TMC3    C6 4383   3.779   4.298   1.106 -0.5320 -0.1813  0.2635
  287TMC3     C 4384   3.398   4.464   1.174 -0.0304  0.3824 -0.3728
  287TMC3     O 4385   3.309   4.419   1.110  0.2949 -0.3112 -0.4371
  287TMC3     H 4386   3.463   4.299   0.978 -0.7887  1.9372 -0.1340
  287TMC3    H1 4387   3.641   4.528   1.289  0.2279  0.6066  0.5129
  287TMC3    H2 4388   3.878   4.269   1.072 -1.0413 -1.0266 -0.5110
  287TMC3    C7 4389   3.872   4.461   1.247 -0.1535  0.6325  0.4055
  287TMC3    C8 4390   3.693   4.181   0.911  0.1744  0.6309  0.0614
  287TMC3    O1 4391   3.863   4.583   1.262  0.2891  0.6040  0.3737
  287TMC3    O2 4392   3.807   4.191   0.864  0.0111  0.0359  0.4890
  288TMC3    C1 4393   4.716   4.031  14.259  0.3746  0.4584  0.1671
  288TMC3    C2 4394   4.592   4.079  14.307  0.3176 -0.2979 -0.2141
  288TMC3    C3 4395   4.588   4.209  14.359  0.0534  0.6199  0.1160
  288TMC3    C4 4396   0.086   4.107  14.252 -0.1620 -0.5178  0.1542
  288TMC3    C5 4397   0.068   4.238  14.284 -0.3828  0.1410  0.3282
  288TMC3    C6 4398   4.690   4.293  14.331  0.0797 -0.6906 -0.4165
  288TMC3     C 4399   0.007   3.889  14.290  0.7840  0.4635  0.4967
  288TMC3     O 4400   4.660   3.804  14.267  0.1798  0.1396 -0.4464
  288TMC3     H 4401   4.517   4.001  14.309  0.8776 -0.7925  1.7415
  288TMC3    H1 4402   0.175   4.069  14.203 -0.3772 -1.8556  0.7983
  288TMC3    H2 4403   4.682   4.396  14.364 -1.4628 -1.5509  1.9437
  288TMC3    C7 4404   0.181   4.320  14.250  0.4310  0.1120  0.1424
  288TMC3    C8 4405   4.482   4.251  14.450 -0.5038 -0.3224  0.3229
  288TMC3    O1 4406   0.270   4.257  14.192  0.1460  0.5211 -0.0904
  288TMC3    O2 4407   4.499   4.362  14.499  0.3307 -0.0380 -0.2150
  289MPD2     C 4408   4.715   3.237  14.389  0.0235  0.6878 -0.3749
  289MPD2    C1 4409   4.665   3.319  14.291 -0.8601 -0.5842  0.0148
  289MPD2    C2 4410   4.531   3.323  14.268 -0.3933  0.3550 -0.2541
  289MPD2    C3 4411   4.442   3.264  14.351 -0.5001  0.4654  0.2620
  289MPD2    C4 4412   4.491   3.172  14.440  0.0359  0.4783  0.0316
  289MPD2    C5 4413   4.625   3.158  14.451 -0.4753 -0.4285  0.0814
  289MPD2     H 4414   4.482   3.387  14.195 -2.0233 -0.5700  0.0243
  289MPD2    H1 4415   4.429   3.111  14.505  0.2371  1.3404  1.0176
  289MPD2    H2 4416   0.083   3.226  14.410  0.0575 -0.6951 -1.2816
  289MPD2    H3 4417   4.659   3.090  14.529  0.7210  1.5271  1.2728
  289MPD2     N 4418   4.304   3.283  14.346  0.5515  0.0174  0.3757
  289MPD2    H5 4419   4.238   3.224  14.395  1.7452 -0.8107  0.9788
  289MPD2    N1 4420   0.020   3.393  14.207 -0.5149 -0.0734 -0.0628
  289MPD2    H7 4421   0.120   3.382  14.217 -0.3150  2.0439  0.2927
  290TMC3    C1 4422   4.118   3.392  14.255  0.1255  0.1653  0.6416
  290TMC3    C2 4423   4.090   3.487  14.166 -0.3846  0.3988 -0.3937
  290TMC3    C3 4424   3.992   3.468  14.076 -0.8177 -0.6857  0.5756
  290TMC3    C4 4425   4.056   3.267  14.252 -0.4773  0.4882  0.2010
  290TMC3    C5 4426   3.965   3.253  14.152 -0.8275 -0.3227 -0.3970
  290TMC3    C6 4427   3.927   3.351  14.071  0.1226 -0.6019 -0.1171
  290TMC3     C 4428   4.254   3.404  14.310 -0.1685  0.0242  0.4365
  290TMC3     O 4429   4.308   3.513  14.286  0.0500  0.0390 -0.4780
  290TMC3     H 4430   4.143   3.581  14.153  0.0167  0.1279 -0.6882
  290TMC3    H1 4431   4.055   3.210  14.344  0.7801  2.0237  1.1458
  290TMC3    H2 4432   3.852   3.338  13.993  2.7765  1.9318 -3.1429
  290TMC3    C7 4433   3.892   3.129  14.142 -0.2570  0.7514 -0.7301
  290TMC3    C8 4434   3.925   3.584  14.022 -0.3308  0.2336  0.7713
  290TMC3    O1 4435   3.790   3.120  14.074  0.5882  0.4440 -0.8394
  290TMC3    O2 4436   3.856   3.570  13.924  0.0415 -0.1024  0.1958
  291MPD2     C 4437   3.656   3.239  17.315 -0.0864 -0.2177  0.0709
  291MPD2    C1 4438   3.627   3.271  17.445 -0.5929  0.1438  0.0801
  291MPD2    C2 4439   3.682   3.386  17.497 -0.4963 -0.0682 -0.3903
  291MPD2    C3 4440   3.752   3.471  17.409  1.1508  0.6469 -0.1163
  291MPD2    C4 4441   3.789   3.433  17.282  0.1357 -0.1902 -0.4548
  291MPD2    C5 4442   3.737   3.321  17.241  0.2255 -0.3624  0.1175
  291MPD2     H 4443   3.677   3.407  17.604 -0.3100 -1.5379 -0.0857
  291MPD2    H1 4444   3.852   3.499  17.224  0.9403 -1.2043 -0.7441
  291MPD2    H2 4445   3.610   3.152  17.270  1.5396 -0.8588 -0.3430
  291MPD2    H3 4446   3.746   3.301  17.135  2.2908 -0.1213  0.2442
  291MPD2     N 4447   3.813   3.589  17.454 -0.1382  0.3324 -0.4466
  291MPD2    H5 4448   3.884   3.624  17.390  0.0084 -0.8623 -0.9385
  291MPD2    N1 4449   3.549   3.196  17.538  0.5253 -0.3210  0.0290
  291MPD2    H7 4450   3.517   3.241  17.623 -0.9999 -0.0574 -0.6931
  292TMC3    C1 4451   3.471   2.996  17.636  0.2664  0.2154 -0.4729
  292TMC3    C2 4452   3.493   3.037   0.014  0.1547 -0.2030 -0.4077
  292TMC3    C3 4453   3.425   2.961   0.108 -0.0781  0.4445 -0.5855
  292TMC3    C4 4454   3.386   2.895  17.596  0.0197 -0.6744  0.3126
  292TMC3    C5 4455   3.314   2.834  17.698  0.6983 -0.0288 -0.8219
  292TMC3    C6 4456   3.331   2.872   0.075 -0.4497  0.6832 -0.4744
  292TMC3     C 4457   3.529   3.061  17.521 -0.2416 -0.5117 -0.0097
  292TMC3     O 4458   3.560   2.990  17.422  0.3492  0.6478  0.4438
  292TMC3     H 4459   3.562   3.116   0.041  0.6311 -1.0524  0.8667
  292TMC3    H1 4460   3.364   2.882  17.490 -0.7167  2.3086  0.0933
  292TMC3    H2 4461   3.282   2.809   0.149 -2.2615  1.8009 -0.7120
  292TMC3    C7 4462   3.223   2.727  17.675 -0.1112 -0.3315  0.0348
  292TMC3    C8 4463   3.474   2.961   0.246 -0.7088  0.7721  0.5339
  292TMC3    O1 4464   3.117   2.740  17.733  0.0301 -0.1091  0.2091
  292TMC3    O2 4465   3.569   3.039   0.264  0.2194  0.3170  0.2422
  293MPD2     C 4466   1.014   4.541  12.497  0.4900  0.0663 -0.1112
  293MPD2    C1 4467   0.915   4.485  12.587 -0.1020 -0.1764  0.0205
  293MPD2    C2 4468   0.926   4.508  12.723 -0.7242 -0.0887 -0.2853
  293MPD2    C3 4469   1.047   4.568  12.767  0.7293 -0.4122 -0.7240
  293MPD2    C4 4470   1.131   4.632  12.677  0.4674  0.9158  0.3343
  293MPD2    C5 4471   1.124   4.609  12.545  0.0078  0.4948  0.7326
  293MPD2     H 4472   0.856   4.475  12.798 -1.6040  0.6196 -0.7957
  293MPD2    H1 4473   1.217   4.686  12.712  0.8445  0.5741 -0.0658
  293MPD2    H2 4474   1.007   4.533  12.389  1.2353  0.8356 -0.2089
  293MPD2    H3 4475   1.213   4.626  12.486  0.9036  0.5138  2.0688
  293MPD2     N 4476   1.069   4.579  12.909 -0.4651  0.1249 -0.6187
  293MPD2    H5 4477   1.003   4.534  12.971 -0.3275 -1.0935 -1.3552
  293MPD2    N1 4478   0.802   4.422  12.523  0.8202 -0.2555  0.2402
  293MPD2    H7 4479   0.797   4.429  12.422 -1.0102  2.6364  0.5177
  294TMC3    C1 4480   0.595   4.315  12.497  0.4844  0.1774  1.2946
  294TMC3    C2 4481   0.571   4.379  12.378 -0.7026  0.5084  0.0047
  294TMC3    C3 4482   0.497   4.313  12.283 -0.4763 -0.8874  0.1536
  294TMC3    C4 4483   0.554   4.185  12.519 -0.0639 -0.2782  0.0389
  294TMC3    C5 4484   0.479   4.121  12.428  0.0792  0.4409  0.2037
  294TMC3    C6 4485   0.454   4.185  12.308 -0.7077 -0.4989  0.3576
  294TMC3     C 4486   0.694   4.366  12.589 -0.3363  0.1632 -0.3229
  294TMC3     O 4487   0.665   4.354  12.710  0.7885 -0.0386  0.4432
  294TMC3     H 4488   0.592   4.483  12.357  0.1988  0.4315  0.5411
  294TMC3    H1 4489   0.585   4.121  12.602 -1.1398  0.9308  1.3652
  294TMC3    H2 4490   0.421   4.121  12.228  0.4880 -0.6324 -0.0280
  294TMC3    C7 4491   0.530   3.987  12.396  0.3274  0.1056 -0.3375
  294TMC3    C8 4492   0.516   4.343  12.142 -0.1168 -0.0182 -0.0936
  294TMC3    O1 4493   0.464   3.886  12.412 -0.1108  0.1717 -0.1518
  294TMC3    O2 4494   0.614   4.407  12.113  0.4885 -0.4967  0.2528
  295MPD2     C 4495   1.196   4.028   0.949  0.1678 -0.1867 -0.5078
  295MPD2    C1 4496   1.214   3.888   0.950 -0.6128 -0.0952  0.2462
  295MPD2    C2 4497   1.129   3.809   1.028  0.7590  0.0348  0.5119
  295MPD2    C3 4498   1.031   3.865   1.105  0.1969 -0.5159 -0.3271
  295MPD2    C4 4499   1.028   4.000   1.112  0.0367 -0.2121  0.3108
  295MPD2    C5 4500   1.108   4.081   1.042 -0.0555 -0.5073  0.7996
  295MPD2     H 4501   1.139   3.702   1.030  0.0172 -0.0402  0.4178
  295MPD2    H1 4502   0.951   4.051   1.169  0.1417 -2.7098  2.6806
  295MPD2    H2 4503   1.247   4.098   0.884  0.3551 -0.8813 -1.1158
  295MPD2    H3 4504   1.089   4.187   1.043  1.0739 -0.2943  0.2007
  295MPD2     N 4505   0.938   3.803   1.195  0.3659 -0.0992  0.8767
  295MPD2    H5 4506   0.869   3.860   1.243  0.6524  1.3298 -0.4004
  295MPD2    N1 4507   1.302   3.821   0.862 -0.5865  0.0644  0.7344
  295MPD2    H7 4508   1.324   3.723   0.877  0.6894  0.2465  0.0969
  296TMC3    C1 4509   0.868   3.628   1.336  0.0218 -0.6707  0.2263
  296TMC3    C2 4510   0.799   3.714   1.424 -0.0954  0.7864 -0.4780
  296TMC3    C3 4511   0.696   3.670   1.499 -0.7236  0.7897  0.2755
  296TMC3    C4 4512   0.832   3.497   1.319 -0.2317 -0.0478 -0.0756
  296TMC3    C5 4513   0.727   3.461   1.397 -0.0596  0.6477  0.0504
  296TMC3    C6 4514   0.655   3.540   1.483 -0.1545  0.1934  0.4198
  296TMC3     C 4515   0.956   3.671   1.235 -0.3341 -0.4125  0.1971
  296TMC3     O 4516   1.038   3.590   1.194 -0.5783  0.7869 -0.2328
  296TMC3     H 4517   0.852   3.805   1.452  0.8661  0.0739  0.0009
  296TMC3    H1 4518   0.871   3.446   1.231  1.9200  2.2865 -0.4653
  296TMC3    H2 4519   0.573   3.497   1.540  0.3253  1.2426  1.8787
  296TMC3    C7 4520   0.672   3.329   1.362  0.7835  0.2358  0.1490
  296TMC3    C8 4521   0.621   3.759   1.586 -0.8894 -0.3710 -0.3960
  296TMC3    O1 4522   0.567   3.308   1.411  0.0128 -0.6645  0.2451
  296TMC3    O2 4523   0.537   3.701   1.650 -0.6111 -0.1807  1.1020
  297MPD2     C 4524   3.183   0.335  16.008  0.2145 -0.3422 -0.3061
  297MPD2    C1 4525   3.184   0.425  15.906 -0.0004 -0.6821 -0.4098
  297MPD2    C2 4526   3.296   0.500  15.882 -0.0497 -0.4321  0.0644
  297MPD2    C3 4527   3.417   0.481  15.946  0.1663 -0.4124  0.1113
  297MPD2    C4 4528   3.423   0.378  16.032 -0.3112  0.2077  0.5192
  297MPD2    C5 4529   3.307   0.310  16.071 -0.5369  0.7224  0.7452
  297MPD2     H 4530   3.298   0.571  15.800 -0.4753 -0.3371  0.1377
  297MPD2    H1 4531   3.513   0.360  16.090  1.3485 -1.0834 -2.4612
  297MPD2    H2 4532   3.094   0.276  16.028  0.1927 -0.5264 -0.9358
  297MPD2    H3 4533   3.306   0.230  16.144  0.7271  0.4861  0.5038
  297MPD2     N 4534   3.532   0.554  15.901 -0.1879  0.1428 -0.0124
  297MPD2    H5 4535   3.519   0.640  15.847  0.8124  1.5347  1.9553
  297MPD2    N1 4536   3.059   0.465  15.844 -0.2310  0.2373  0.4923
  297MPD2    H7 4537   3.072   0.534  15.771  2.8053 -1.4013 -0.4834
  298TMC3    C1 4538   2.834   0.495  15.797  0.1265 -0.0453  0.1002
  298TMC3    C2 4539   2.871   0.524  15.671  0.5706 -0.3454 -0.4713
  298TMC3    C3 4540   2.784   0.602  15.599 -0.5302  0.2981 -0.2041
  298TMC3    C4 4541   2.724   0.547  15.859  0.4175 -0.7240  0.5762
  298TMC3    C5 4542   2.639   0.623  15.784  0.9264 -0.6094  0.8445
  298TMC3    C6 4543   2.669   0.649  15.648 -0.2338  0.0707 -0.1017
  298TMC3     C 4544   2.932   0.432  15.885 -0.4407 -0.1460 -0.7560
  298TMC3     O 4545   2.888   0.368  15.974 -0.0328 -0.0775 -0.4948
  298TMC3     H 4546   2.957   0.477  15.626 -1.8972 -1.8090 -3.6511
  298TMC3    H1 4547   2.701   0.536  15.964 -0.6894  1.5408  0.5718
  298TMC3    H2 4548   2.603   0.711  15.587  0.8076  1.0666 -0.2178
  298TMC3    C7 4549   2.546   0.715  15.857  0.5873 -0.0047  0.8272
  298TMC3    C8 4550   2.826   0.664  15.475  0.4318 -0.2502 -0.3976
  298TMC3    O1 4551   2.553   0.716  15.977 -0.0824  0.6345  0.6710
  298TMC3    O2 4552   2.738   0.705  15.402 -0.5838  0.1458 -0.3471
  299MPD2     C 4553   3.973   0.290  10.933  0.3876  0.8335 -0.6658
  299MPD2    C1 4554   4.058   0.313  10.830 -0.0621 -0.7004  0.4085
  299MPD2    C2 4555   4.017   0.284  10.696 -0.1193 -0.7821 -0.3649
  299MPD2    C3 4556   3.892   0.230  10.679  0.0580  0.1505  0.0903
  299MPD2    C4 4557   3.808   0.225  10.781  0.2356  0.1564 -0.2676
  299MPD2    C5 4558   3.851   0.245  10.911 -0.3710 -0.2604  0.4360
  299MPD2     H 4559   4.082   0.299  10.611 -1.6427 -0.6488 -1.5034
  299MPD2    H1 4560   3.707   0.188  10.770 -0.4924  1.3071  2.4847
  299MPD2    H2 4561   4.009   0.310  11.033 -1.5727 -0.0580  0.1954
  299MPD2    H3 4562   3.787   0.230  10.997 -1.4329  0.7888 -0.1773
  299MPD2     N 4563   3.849   0.167  10.559 -0.1251 -0.2477  0.0243
  299MPD2    H5 4564   3.753   0.136  10.555  0.0109 -0.8303  1.3227
  299MPD2    N1 4565   4.182   0.374  10.861 -0.7253 -0.3422 -0.3700
  299MPD2    H7 4566   4.220   0.369  10.955  1.3353  0.9977 -1.1533
  300TMC3    C1 4567   3.858   0.051  10.349 -0.3099  0.2462 -0.3549
  300TMC3    C2 4568   3.882   0.073  10.218  0.4529 -0.5777 -0.2482
  300TMC3    C3 4569   3.820   0.005  10.120  0.3926 -0.2196  0.3132
  300TMC3    C4 4570   3.752   4.711  10.382 -0.1880  0.2211 -0.2588
  300TMC3    C5 4571   3.696   4.639  10.283  1.1429  0.0910 -0.5775
  300TMC3    C6 4572   3.728   4.653  10.155  0.7281 -0.5036 -0.3583
  300TMC3     C 4573   3.930   0.140  10.446 -0.3328 -0.6199  0.0392
  300TMC3     O 4574   4.031   0.195  10.403 -0.3056 -0.4733 -0.3190
  300TMC3     H 4575   3.955   0.151  10.202  1.4785 -1.7127 -1.0684
  300TMC3    H1 4576   3.727   4.690  10.485  0.2233 -0.6926 -0.3479
  300TMC3    H2 4577   3.664   4.607  10.082 -0.4714 -0.5322  0.7203
  300TMC3    C7 4578   3.575   4.562  10.311 -1.0440 -0.0230  0.5950
  300TMC3    C8 4579   3.769   0.111  10.037  0.3243 -0.1177  0.1020
  300TMC3    O1 4580   3.546   4.469  10.240  0.7012  0.3543 -0.3295
  300TMC3    O2 4581   3.849   0.198  10.008  0.9751  0.1133  0.0066
  301MPD2     C 4582   1.640   1.764   0.752 -0.1899  0.3205  0.2057
  301MPD2    C1 4583   1.545   1.761   0.647 -0.3653 -0.0828  0.1688
  301MPD2    C2 4584   1.517   1.641   0.581  0.5074  0.0999 -0.3268
  301MPD2    C3 4585   1.586   1.523   0.618 -0.4831 -0.2682  0.2485
  301MPD2    C4 4586   1.682   1.535   0.720  0.4615  0.5772 -0.3028
  301MPD2    C5 4587   1.697   1.647   0.792 -0.2366 -0.7590  0.2069
  301MPD2     H 4588   1.441   1.635   0.504 -1.5199  2.0973  1.5234
  301MPD2    H1 4589   1.733   1.449   0.762  3.1056  1.4980 -1.5798
  301MPD2    H2 4590   1.668   1.849   0.813 -1.8267  0.2660  1.0325
  301MPD2    H3 4591   1.741   1.642   0.891 -1.5875 -0.6537  0.8095
  301MPD2     N 4592   1.546   1.394   0.572  0.1253  0.7333  0.2468
  301MPD2    H5 4593   1.592   1.311   0.608 -0.3681  0.9293  1.2951
  301MPD2    N1 4594   1.474   1.874   0.600  0.9283 -0.4533  0.2325
  301MPD2    H7 4595   1.415   1.847   0.521 -1.0038  1.2492  1.0751
  302TMC3    C1 4596   1.410   1.229   0.476 -0.9248 -0.2112  0.5011
  302TMC3    C2 4597   1.477   1.129   0.544  0.1854  0.3473  0.4487
  302TMC3    C3 4598   1.441   1.001   0.522 -0.7328 -0.3790  0.6333
  302TMC3    C4 4599   1.309   1.200   0.391 -0.0324 -0.1693 -0.0049
  302TMC3    C5 4600   1.274   1.068   0.374 -0.6562  0.7306  0.1594
  302TMC3    C6 4601   1.337   0.968   0.440  0.5505  0.2287  0.5775
  302TMC3     C 4602   1.444   1.369   0.489 -1.1821 -0.2969 -0.4734
  302TMC3     O 4603   1.367   1.448   0.437 -0.3474 -0.0155  1.0319
  302TMC3     H 4604   1.559   1.139   0.614  0.4624 -0.3533  0.2277
  302TMC3    H1 4605   1.243   1.280   0.359 -0.1973 -0.7349 -1.0502
  302TMC3    H2 4606   1.314   0.864   0.424  2.3994  0.2457 -2.2039
  302TMC3    C7 4607   1.147   1.035   0.315 -0.2152  0.1997  0.0967
  302TMC3    C8 4608   1.517   0.899   0.583 -0.3313  0.6471 -0.4104
  302TMC3    O1 4609   1.126   0.929   0.263  0.0431 -0.0042 -0.1171
  302TMC3    O2 4610   1.621   0.934   0.639  0.1494 -0.3163  0.4246
  303MPD2     C 4611   1.271   0.523  10.790 -0.3192  0.2048  0.2682
  303MPD2    C1 4612   1.240   0.395  10.749  0.1410 -0.0438 -0.3579
  303MPD2    C2 4613   1.331   0.337  10.655  0.2131 -0.5394  0.3653
  303MPD2    C3 4614   1.444   0.398  10.606 -0.3984  0.0523  0.4594
  303MPD2    C4 4615   1.464   0.526  10.640  0.3127 -0.5189 -0.3633
  303MPD2    C5 4616   1.379   0.585  10.731 -0.6253  0.3241 -0.2041
  303MPD2     H 4617   1.313   0.231  10.644 -0.5499 -0.3738  0.0196
  303MPD2    H1 4618   1.545   0.581  10.592  0.1829  1.7194  1.9817
  303MPD2    H2 4619   1.199   0.572  10.855 -0.9808 -1.5681  0.8820
  303MPD2    H3 4620   1.386   0.692  10.744  0.3523  0.3012 -0.5418
  303MPD2     N 4621   1.535   0.333  10.518 -0.1068  0.3749 -0.3668
  303MPD2    H5 4622   1.614   0.388  10.484  0.3675 -0.6538 -0.9138
  303MPD2    N1 4623   1.141   0.314  10.818 -0.4649  0.2244 -0.3673
  303MPD2    H7 4624   1.108   0.343  10.910  0.8568 -2.7382  1.0362
  304TMC3    C1 4625   0.990   0.142  10.851 -0.8925  0.4550 -0.4418
  304TMC3    C2 4626   0.896   0.065  10.783 -0.3540  0.5960  0.1760
  304TMC3    C3 4627   0.825   4.707  10.851 -0.1256 -0.0128 -0.0936
  304TMC3    C4 4628   1.028   0.124  10.980 -0.7787  0.5939  0.2243
  304TMC3    C5 4629   0.969   0.013  11.032 -0.3472 -0.3485  0.1770
  304TMC3    C6 4630   0.857   4.685  10.981  0.7590 -0.4266 -0.5089
  304TMC3     C 4631   1.081   0.207  10.760  1.3075  0.1212 -0.4943
  304TMC3     O 4632   1.099   0.162  10.649 -0.2643  0.5605 -0.1953
  304TMC3     H 4633   0.890   0.093  10.678 -0.5888 -0.4996 -0.1003
  304TMC3    H1 4634   1.123   0.163  11.014  0.4419 -1.0383 -1.3094
  304TMC3    H2 4635   0.802   4.606  11.031  1.5718 -1.5754 -1.4428
  304TMC3    C7 4636   1.058   4.660  11.101 -0.1949  0.1537 -0.3141
  304TMC3    C8 4637   0.800   4.581  10.779  0.1562  0.0111  0.0727
  304TMC3    O1 4638   1.134   4.707  11.183 -0.0343 -0.1649 -0.1133
  304TMC3    O2 4639   0.817   4.485  10.852  0.2053 -0.3913  0.1216
  305MPD2     C 4640   4.411   1.782  13.647 -0.4405 -0.1309  0.8360
  305MPD2    C1 4641   4.481   1.667  13.680  0.0486  0.4053 -0.0483
  305MPD2    C2 4642   4.478   1.554  13.596  0.3781 -0.0838 -0.2827
  305MPD2    C3 4643   4.418   1.561  13.476  0.2622  0.5411  1.1525
  305MPD2    C4 4644   4.367   1.686  13.440 -0.1063  0.0801 -0.1861
  305MPD2    C5 4645   4.360   1.795  13.523  0.5491 -0.6971  0.1934
  305MPD2     H 4646   4.525   1.463  13.632 -1.3870  0.1546  2.6481
  305MPD2    H1 4647   4.316   1.709  13.347 -3.2391  0.5314  1.6391
  305MPD2    H2 4648   4.395   1.871  13.707 -0.2795  1.1797 -1.0550
  305MPD2    H3 4649   4.321   1.891  13.491  1.1106 -0.7521 -0.6623
  305MPD2     N 4650   4.428   1.467  13.373  0.3460 -0.3225  0.1232
  305MPD2    H5 4651   4.403   1.498  13.279 -0.5046 -1.7172 -0.1104
  305MPD2    N1 4652   4.528   1.662  13.814 -0.1277 -0.2073 -0.4372
  305MPD2    H7 4653   4.510   1.738  13.879 -0.3058 -0.4620 -0.1893
  306TMC3    C1 4654   4.672   1.610  13.987 -0.5039  0.2908 -0.1948
  306TMC3    C2 4655   4.738   1.506  14.055 -0.6793 -0.3758 -0.3559
  306TMC3    C3 4656   0.027   1.521  14.188 -0.3910  0.0550 -0.1267
  306TMC3    C4 4657   4.640   1.724  14.049 -0.1437 -0.0352 -0.9339
  306TMC3    C5 4658   4.681   1.743  14.174  0.0680  0.0077 -0.7664
  306TMC3    C6 4659   4.733   1.641  14.248  0.9558  0.1313 -0.4478
  306TMC3     C 4660   4.618   1.573  13.857 -0.5445 -0.5962 -0.7525
  306TMC3     O 4661   4.683   1.485  13.796  0.8407  0.2269 -0.0300
  306TMC3     H 4662   0.017   1.414  14.001 -2.2898  0.5993 -2.5508
  306TMC3    H1 4663   4.583   1.805  14.004 -3.6306 -1.2814  1.2664
  306TMC3    H2 4664   0.017   1.661  14.352  1.5530 -1.2424 -0.2978
  306TMC3    C7 4665   4.621   1.846  14.256  0.5758  0.0917  0.0316
  306TMC3    C8 4666   0.083   1.415  14.279 -0.0326  0.1053 -0.2900
  306TMC3    O1 4667   4.503   1.856  14.233  0.8379 -0.0683 -0.2726
  306TMC3    O2 4668   0.071   1.300  14.244 -0.1866  0.5435 -0.2173
  307MPD2     C 4669   2.043   4.424  17.742  0.2449 -0.0022  0.6768
  307MPD2    C1 4670   2.049   4.554  17.713  0.0837  0.4398  0.2022
  307MPD2    C2 4671   2.017   4.647   0.061  0.3280  0.2662  0.2002
  307MPD2    C3 4672   1.952   4.606   0.176 -0.6790 -0.5650  0.1631
  307MPD2    C4 4673   1.953   4.470   0.204  0.2086 -0.2213  0.6213
  307MPD2    C5 4674   1.995   4.378   0.115  0.0922 -0.3274 -0.4716
  307MPD2     H 4675   2.021   0.015   0.038 -0.8120  0.8803  2.7317
  307MPD2    H1 4676   1.900   4.422   0.285  0.1421 -2.3069 -0.6302
  307MPD2    H2 4677   2.058   4.346  17.669 -1.3719  1.3461 -1.0898
  307MPD2    H3 4678   1.979   4.271   0.125  1.7529 -0.6766 -1.5273
  307MPD2     N 4679   1.889   4.702   0.261  0.2903  0.4085 -0.0516
  307MPD2    H5 4680   1.895   0.056   0.220  1.3291  0.9578  1.3135
  307MPD2    N1 4681   2.092   4.602  17.586 -0.5130  0.6286 -0.6512
  307MPD2    H7 4682   2.108   4.701  17.577  0.6997  0.4173 -0.8433
  308TMC3    C1 4683   1.571   0.189   0.465 -0.2753  0.1476  0.0781
  308TMC3    C2 4684   1.637   0.310   0.448 -0.6105 -0.0507 -0.2098
  308TMC3    C3 4685   1.776   0.299   0.444  0.0686 -0.0573 -0.1312
  308TMC3    C4 4686   1.633   0.068   0.460 -0.6394 -0.8664 -0.5606
  308TMC3    C5 4687   1.763   0.065   0.427  0.9630 -0.5321 -0.1157
  308TMC3    C6 4688   1.840   0.179   0.419  0.4891  0.4236  0.0916
  308TMC3     C 4689   1.434   0.177   0.518 -0.0844 -0.2080  0.6370
  308TMC3     O 4690   1.414   0.090   0.604  0.0242  0.0168 -0.3746
  308TMC3     H 4691   1.591   0.404   0.477 -0.8917 -1.1058  2.7357
  308TMC3    H1 4692   1.574   4.716   0.473 -1.3023 -0.2498  0.7659
  308TMC3    H2 4693   1.945   0.169   0.398  0.3644  0.3289 -0.4784
  308TMC3    C7 4694   1.813   4.677   0.372  0.3972  0.2554 -0.5988
  308TMC3    C8 4695   1.854   0.418   0.444  0.5398  1.2297 -0.2499
  308TMC3    O1 4696   1.775   4.572   0.425  0.1904 -0.0243 -0.2997
  308TMC3    O2 4697   1.953   0.421   0.518 -0.0866  0.1903  0.1730
  309MPD2     C 4698   1.258   0.256  16.968  1.1722 -0.4085  0.3407
  309MPD2    C1 4699   1.207   0.339  16.868  0.3071  0.2072 -0.0465
  309MPD2    C2 4700   1.082   0.391  16.891  0.0589  0.2511 -0.3123
  309MPD2    C3 4701   1.003   0.368  17.001 -0.2057 -0.0234 -0.3090
  309MPD2    C4 4702   1.057   0.282  17.095 -0.3615 -0.1349  0.2749
  309MPD2    C5 4703   1.184   0.235  17.085  0.0012 -0.1820 -0.1669
  309MPD2     H 4704   1.056   0.459  16.811 -1.2123 -0.8587 -0.8144
  309MPD2    H1 4705   1.003   0.269  17.188 -3.2442  0.9011 -1.2427
  309MPD2    H2 4706   1.355   0.208  16.964  1.8038  0.7872  1.1957
  309MPD2    H3 4707   1.212   0.170  17.167 -0.6741 -0.7244 -0.3738
  309MPD2     N 4708   0.873   0.423  17.028 -0.3091  0.5414  0.0799
  309MPD2    H5 4709   0.828   0.390  17.113  0.4968 -0.7502 -0.0059
  309MPD2    N1 4710   1.268   0.361  16.739  0.2085  0.8358 -0.0641
  309MPD2    H7 4711   1.226   0.432  16.679 -0.5457  0.8363  0.4651
  310TMC3    C1 4712   1.394   0.316  16.548 -0.3023 -0.2640  0.1964
  310TMC3    C2 4713   1.290   0.364  16.471  0.5855 -0.4660 -0.3698
  310TMC3    C3 4714   1.317   0.380  16.340  0.5419  0.0222 -0.9525
  310TMC3    C4 4715   1.510   0.272  16.493 -0.6834  0.4964 -0.4046
  310TMC3    C5 4716   1.533   0.289  16.362  0.0932 -0.0647  0.1418
  310TMC3    C6 4717   1.436   0.345  16.282 -0.1199 -0.5541 -0.3930
  310TMC3     C 4718   1.377   0.290  16.691 -0.1091 -0.0444 -0.5928
  310TMC3     O 4719   1.429   0.195  16.745 -0.3957 -0.1133 -0.9501
  310TMC3     H 4720   1.190   0.371  16.512  0.5035  0.0991 -0.6690
  310TMC3    H1 4721   1.576   0.208  16.551 -0.2161  2.7427  1.5204
  310TMC3    H2 4722   1.444   0.345  16.174  1.1177 -0.1624 -0.3041
  310TMC3    C7 4723   1.618   0.196  16.299 -0.2097 -0.1668  0.2347
  310TMC3    C8 4724   1.219   0.440  16.247  0.2165  0.4613 -0.1634
  310TMC3    O1 4725   1.641   0.091  16.359  0.6313  0.4284 -0.5272
  310TMC3    O2 4726   1.237   0.417  16.132 -0.0061 -1.0902  1.0245
  311MPD2     C 4727   3.438   1.624  11.890  0.1494  0.8294 -0.3400
  311MPD2    C1 4728   3.489   1.650  12.012 -0.4277 -0.2126 -0.2374
  311MPD2    C2 4729   3.395   1.656  12.112  0.7062  0.1578 -0.6101
  311MPD2    C3 4730   3.260   1.643  12.105  0.3927 -0.0256  0.0432
  311MPD2    C4 4731   3.212   1.629  11.976  0.5112 -0.1277  0.3049
  311MPD2    C5 4732   3.301   1.619  11.873  0.0226 -0.7277 -0.5115
  311MPD2     H 4733   3.429   1.685  12.211  4.5267  0.7781 -2.0865
  311MPD2    H1 4734   3.107   1.614  11.956 -0.1233  0.6971  3.0803
  311MPD2    H2 4735   3.500   1.602  11.803  0.2157  2.6685 -0.7598
  311MPD2    H3 4736   3.259   1.595  11.775 -1.6218  1.7350 -0.3999
  311MPD2     N 4737   3.180   1.655  12.218 -0.6025 -0.1469  0.4256
  311MPD2    H5 4738   3.219   1.676  12.309 -0.1194  0.9290 -0.0291
  311MPD2    N1 4739   3.631   1.670  12.037  0.0488  0.7027  0.6630
  311MPD2    H7 4740   3.656   1.673  12.136  0.6638  0.3164  0.5161
  312TMC3    C1 4741   2.978   1.697  12.344 -0.5026 -0.6657  0.4222
  312TMC3    C2 4742   2.843   1.672  12.365 -0.2163  0.7187  0.0915
  312TMC3    C3 4743   2.792   1.693  12.487 -0.5950 -0.0212  0.0800
  312TMC3    C4 4744   3.053   1.755  12.442 -0.1668  0.2984  0.7121
  312TMC3    C5 4745   3.004   1.747  12.573 -0.3267 -0.1948  0.6480
  312TMC3    C6 4746   2.872   1.713  12.598  0.3105  0.3410  0.7886
  312TMC3     C 4747   3.037   1.653  12.216  0.3594 -0.1342 -0.5242
  312TMC3     O 4748   2.958   1.627  12.126  0.3706 -0.2545 -0.0790
  312TMC3     H 4749   2.780   1.652  12.279  1.0838  2.0583 -1.1714
  312TMC3    H1 4750   3.156   1.783  12.420 -0.2061 -0.2979 -0.2287
  312TMC3    H2 4751   2.831   1.715  12.698 -0.1438 -2.6140  0.6560
  312TMC3    C7 4752   3.080   1.819  12.680  0.4239 -0.1297 -0.0289
  312TMC3    C8 4753   2.664   1.630  12.510  0.4311  0.4553 -0.1477
  312TMC3    O1 4754   3.122   1.926  12.648  0.0153  0.8670  0.2227
  312TMC3    O2 4755   2.626   1.555  12.421  0.0343  0.4222  0.0361
  313MPD2     C 4756   2.660   0.577  11.315  0.0675  0.6254 -1.0370
  313MPD2    C1 4757   2.739   0.631  11.213 -0.9368 -0.0925 -0.0140
  313MPD2    C2 4758   2.786   0.552  11.109  0.5104  0.0410 -0.5500
  313MPD2    C3 4759   2.740   0.425  11.092 -0.6112 -0.1529  0.0896
  313MPD2    C4 4760   2.666   0.367  11.197 -0.3917 -0.6379 -0.0496
  313MPD2    C5 4761   2.628   0.446  11.300 -0.2442 -0.1733 -0.2979
  313MPD2     H 4762   2.861   0.588  11.040  1.7105 -2.7013 -0.6672
  313MPD2    H1 4763   2.631   0.264  11.197  2.0001 -1.4515 -1.6488
  313MPD2    H2 4764   2.623   0.630  11.402 -1.2479 -2.1467  0.1080
  313MPD2    H3 4765   2.562   0.402  11.374 -0.8201  1.4208  0.1296
  313MPD2     N 4766   2.779   0.346  10.980  0.3667 -0.1814  0.4122
  313MPD2    H5 4767   2.854   0.385  10.924  1.2196  0.4722  2.0064
  313MPD2    N1 4768   2.773   0.768  11.212 -0.2838 -0.1742 -0.3467
  313MPD2    H7 4769   2.834   0.805  11.139 -1.3141  2.7447  0.2751
  314TMC3    C1 4770   2.757   0.998  11.267 -0.0618  0.2178 -0.8101
  314TMC3    C2 4771   2.889   1.006  11.241  0.3315 -0.2658 -0.5648
  314TMC3    C3 4772   2.945   1.133  11.233  0.2979 -0.0010  0.1793
  314TMC3    C4 4773   2.675   1.104  11.288  0.3265 -0.3909 -0.1584
  314TMC3    C5 4774   2.722   1.231  11.268  0.8514  0.5867  0.5881
  314TMC3    C6 4775   2.863   1.236  11.244 -0.1593 -0.0848  0.6336
  314TMC3     C 4776   2.700   0.863  11.281 -0.2623  0.8433  0.5221
  314TMC3     O 4777   2.600   0.849  11.350  0.6306  0.4969  0.1898
  314TMC3     H 4778   2.948   0.917  11.223  1.6671  0.4611  0.2497
  314TMC3    H1 4779   2.568   1.097  11.278  0.0147  1.0521  1.9443
  314TMC3    H2 4780   2.903   1.336  11.228 -0.5077 -0.2916 -1.6013
  314TMC3    C7 4781   2.641   1.312  11.179 -0.2122 -0.2132 -0.2317
  314TMC3    C8 4782   3.065   1.166  11.150 -0.1166  0.7865  0.9219
  314TMC3    O1 4783   2.518   1.321  11.200 -0.1348  0.6736 -0.1015
  314TMC3    O2 4784   3.046   1.232  11.051 -0.0993 -1.0758 -0.1093
  315MPD2     C 4785   2.093   0.445   0.010 -0.4161 -0.3318  0.1537
  315MPD2    C1 4786   2.221   0.402   0.022 -0.4564 -0.5051 -0.3027
  315MPD2    C2 4787   2.319   0.460  17.695  0.1346  0.1109  0.4203
  315MPD2    C3 4788   2.286   0.544  17.588 -0.0773 -0.6984  0.0091
  315MPD2    C4 4789   2.152   0.587  17.574 -0.5460  0.2816 -0.0115
  315MPD2    C5 4790   2.056   0.537  17.663  0.4052  0.2147 -0.2015
  315MPD2     H 4791   2.421   0.435  17.724  0.3075 -1.5893 -1.6774
  315MPD2    H1 4792   2.131   0.674  17.512  0.9585  0.4795 -0.2412
  315MPD2    H2 4793   2.014   0.414   0.077  1.0846 -0.6927  1.7521
  315MPD2    H3 4794   1.954   0.574  17.658 -0.0053 -0.9336 -0.2240
  315MPD2     N 4795   2.388   0.595  17.517 -0.1198 -0.2130  0.5409
  315MPD2    H5 4796   2.480   0.588  17.559  0.3342 -2.9678 -0.8731
  315MPD2    N1 4797   2.267   0.308   0.113 -0.2495  0.1276  0.0437
  315MPD2    H7 4798   2.367   0.294   0.115 -0.4099 -0.8080  2.0812
  316TMC3    C1 4799   2.501   0.721  17.361 -0.4204  0.7554  0.3995
  316TMC3    C2 4800   2.597   0.719  17.464  0.3413  0.2870 -0.4163
  316TMC3    C3 4801   2.727   0.747  17.431 -0.1858 -0.2930  0.2398
  316TMC3    C4 4802   2.544   0.723  17.234  0.9249  0.3547 -0.2218
  316TMC3    C5 4803   2.677   0.745  17.206  0.0213  0.2083 -0.2036
  316TMC3    C6 4804   2.771   0.753  17.301  0.5624  0.0707 -0.5949
  316TMC3     C 4805   2.375   0.654  17.393  0.2085 -0.5562 -0.1601
  316TMC3     O 4806   2.281   0.665  17.315  0.2484  0.1037 -0.1530
  316TMC3     H 4807   2.580   0.730  17.571  1.4607 -0.0495 -0.2064
  316TMC3    H1 4808   2.478   0.695  17.152  0.3638 -0.1473  0.3994
  316TMC3    H2 4809   2.875   0.782  17.287  0.3535  1.2353  0.2880
  316TMC3    C7 4810   2.713   0.788  17.071  0.0073  0.0961 -0.1646
  316TMC3    C8 4811   2.811   0.813  17.533  0.6486 -0.4502 -0.1225
  316TMC3    O1 4812   2.832   0.800  17.054  0.7051  0.0908  0.1595
  316TMC3    O2 4813   2.868   0.914  17.502 -0.5678 -0.2262  0.1660
  317MPD2     C 4814   4.573   3.420  12.375 -0.0768 -0.4636 -0.4744
  317MPD2    C1 4815   4.665   3.316  12.370 -0.4828 -0.0578 -0.2146
  317MPD2    C2 4816   4.712   3.255  12.488 -0.0825  0.0757  0.0590
  317MPD2    C3 4817   4.650   3.284  12.606 -0.7113  0.1333 -0.3622
  317MPD2    C4 4818   4.550   3.386  12.606 -0.9426  0.6114  0.5562
  317MPD2    C5 4819   4.502   3.440  12.491 -0.4577  0.3963 -0.1321
  317MPD2     H 4820   0.035   3.167  12.474 -0.8340 -0.5457  0.7069
  317MPD2    H1 4821   4.494   3.401  12.697 -1.9638 -0.7034  0.1456
  317MPD2    H2 4822   4.533   3.471  12.287 -1.4118  0.2071  0.5084
  317MPD2    H3 4823   4.418   3.508  12.495 -0.3118  0.3593  3.3895
  317MPD2     N 4824   4.684   3.220  12.730 -0.1907 -0.1635 -0.2654
  317MPD2    H5 4825   0.011   3.142  12.728  0.5840  0.4106  1.6510
  317MPD2    N1 4826   4.716   3.269  12.245 -0.1055  0.0598 -0.3352
  317MPD2    H7 4827   0.052   3.200  12.253 -1.3162 -1.1115  0.8383
  318TMC3    C1 4828   4.691   3.162  12.956  0.0705  1.0751  1.2293
  318TMC3    C2 4829   4.715   3.036  12.921  0.5105  0.2359 -0.5492
  318TMC3    C3 4830   0.004   2.946  13.016  0.8603  0.0297  0.2801
  318TMC3    C4 4831   4.700   3.200  13.088  0.5085  0.0142 -0.6827
  318TMC3    C5 4832   0.007   3.108  13.181 -0.0174 -0.5108  0.3592
  318TMC3    C6 4833   0.017   2.974  13.148  0.6313  0.1691  0.7188
  318TMC3     C 4834   4.647   3.255  12.856 -0.9108  0.3390 -0.1432
  318TMC3     O 4835   4.587   3.354  12.896  0.1793  0.5132  0.0184
  318TMC3     H 4836   4.687   2.995  12.825 -0.1612  1.2533 -0.7802
  318TMC3    H1 4837   4.676   3.304  13.108  0.0141 -0.4109  0.8997
  318TMC3    H2 4838   0.042   2.896  13.219 -2.1682 -2.5084 -1.2304
  318TMC3    C7 4839   0.082   3.169  13.289 -0.5002  0.3901  0.2261
  318TMC3    C8 4840   0.014   2.802  12.987 -0.2234 -0.2527  0.0180
  318TMC3    O1 4841   0.073   3.289  13.314 -0.0458  0.1827 -0.3199
  318TMC3    O2 4842   4.727   2.721  13.074 -0.2359 -0.5782  0.1619
  319MPD2     C 4843   0.374   0.089  16.933 -0.2378 -0.0996  0.3785
  319MPD2    C1 4844   0.336   4.707  16.990 -0.7794 -0.2065  0.2900
  319MPD2    C2 4845   0.304   4.603  16.907 -0.3271  0.3893 -0.3984
  319MPD2    C3 4846   0.319   4.616  16.770  0.1258  0.0236  0.8082
  319MPD2    C4 4847   0.366   4.732  16.716  0.7346  0.4012  0.8750
  319MPD2    C5 4848   0.390   0.099  16.799 -0.3593  0.9079 -0.6133
  319MPD2     H 4849   0.276   4.508  16.951  1.1475  0.1670  0.0782
  319MPD2    H1 4850   0.371   4.736  16.607  0.3109  0.1561  0.8452
  319MPD2    H2 4851   0.417   0.173  16.987  0.3597 -0.4117  0.3915
  319MPD2    H3 4852   0.416   0.196  16.758 -1.9125  1.1407 -1.0516
  319MPD2     N 4853   0.273   4.523  16.673 -0.4895  0.1803 -0.3165
  319MPD2    H5 4854   0.281   4.555  16.577  2.0608 -0.8488 -0.4544
  319MPD2    N1 4855   0.317   4.687  17.129  0.0952 -0.0318  0.2373
  319MPD2    H7 4856   0.279   4.603  17.171  0.3214 -1.5458 -2.5710
  320TMC3    C1 4857   0.203   4.320  16.571 -0.0867 -0.7201 -0.2094
  320TMC3    C2 4858   0.194   4.379  16.449  0.2893  0.2736 -0.1150
  320TMC3    C3 4859   0.169   4.298  16.344  0.7326  0.4737 -0.6034
  320TMC3    C4 4860   0.195   4.186  16.588  0.5182 -1.0672  0.4616
  320TMC3    C5 4861   0.191   4.098  16.478 -0.0649 -0.6471  0.2536
  320TMC3    C6 4862   0.177   4.159  16.353  0.3881 -0.0660 -0.0118
  320TMC3     C 4863   0.232   4.395  16.693  0.6624 -0.1659  0.5185
  320TMC3     O 4864   0.246   4.332  16.803 -0.7509 -0.1430  0.5601
  320TMC3     H 4865   0.188   4.487  16.443 -0.3253  0.2215 -0.4390
  320TMC3    H1 4866   0.177   4.153  16.689  0.2521  0.3648  0.8669
  320TMC3    H2 4867   0.181   4.094  16.267  0.1476 -0.1794  0.0614
  320TMC3    C7 4868   0.277   3.983  16.490  0.4825 -0.1521  0.0076
  320TMC3    C8 4869   0.157   4.367  16.216  0.1784  0.3711  0.0614
  320TMC3    O1 4870   0.290   3.919  16.388 -0.0063  0.1010 -0.6833
  320TMC3    O2 4871   0.204   4.476  16.222 -0.4228  0.6434  0.5334
  321TMC3    C1 4872   0.358   4.727  17.359  0.4142 -0.0988 -0.4525
  321TMC3    C2 4873   0.321   4.604  17.399  0.2074  0.0054  0.8930
  321TMC3    C3 4874   0.334   4.579  17.527 -0.5589 -1.0220  0.0895
  321TMC3    C4 4875   0.405   0.086  17.449  0.3238  0.2907  0.3903
  321TMC3    C5 4876   0.403   0.059  17.586  0.5172 -0.1424  0.5775
  321TMC3    C6 4877   0.356   4.674  17.625  0.5872  0.5949 -0.4026
  321TMC3     C 4878   0.364   0.038  17.220  0.1916 -0.5788 -0.4693
  321TMC3     O 4879   0.419   0.147  17.202 -0.3163  0.0050 -0.2441
  321TMC3     H 4880   0.309   4.523  17.328 -2.0747  0.5512  0.6500
  321TMC3    H1 4881   0.448   0.177  17.408 -0.3394  0.4809  0.1208
  321TMC3    H2 4882   0.346   4.652  17.731  0.9808 -0.9418 -0.6768
  321TMC3    C7 4883   0.531   0.070  17.643 -0.6577 -0.2914  0.1609
  321TMC3    C8 4884   0.349   4.439  17.567 -0.1355  0.4241  0.1695
  321TMC3    O1 4885   0.567   4.701  17.697 -0.0551  0.3054  0.5467
  321TMC3    O2 4886   0.314   4.355  17.488 -0.2032  0.0475 -0.0534
  322MPD2     C 4887   4.319   0.800  13.425 -0.3896 -0.4512  0.1059
  322MPD2    C1 4888   4.295   0.801  13.565  0.4062  0.3244 -0.5258
  322MPD2    C2 4889   4.270   0.677  13.628 -0.4765 -0.0525 -0.4017
  322MPD2    C3 4890   4.272   0.564  13.552 -0.3213 -0.7082  0.0167
  322MPD2    C4 4891   4.286   0.568  13.414  0.7559 -0.7549 -0.1638
  322MPD2    C5 4892   4.315   0.685  13.356 -0.6790 -0.6175 -0.2519
  322MPD2     H 4893   4.254   0.666  13.734 -0.9576  0.3912 -0.4267
  322MPD2    H1 4894   4.284   0.481  13.349 -0.8797  0.4811 -1.7347
  322MPD2    H2 4895   4.357   0.886  13.371 -2.5317  1.2042  1.2531
  322MPD2    H3 4896   4.337   0.696  13.250  0.7741  0.5615  0.1886
  322MPD2     N 4897   4.251   0.440  13.616  0.1026  0.4794 -0.2466
  322MPD2    H5 4898   4.222   0.449  13.713 -0.2474  1.0635 -0.4087
  322MPD2    N1 4899   4.308   0.925  13.631 -0.6306  0.0885  0.3880
  322MPD2    H7 4900   4.330   1.005  13.573 -1.4076 -0.7626 -1.0563
  323TMC3    C1 4901   4.329   1.070  13.825 -0.0899  0.3319  0.3190
  323TMC3    C2 4902   4.444   1.118  13.778 -0.5932  0.2596 -0.4702
  323TMC3    C3 4903   4.538   1.172  13.860 -0.2364  1.0625  0.2811
  323TMC3    C4 4904   4.314   1.072  13.963  0.1095  0.4473  0.5820
  323TMC3    C5 4905   4.407   1.126  14.044  0.4460  0.0842 -0.1172
  323TMC3    C6 4906   4.528   1.172  13.996  0.7472  0.4382  0.3218
  323TMC3     C 4907   4.275   0.949  13.761 -0.8692 -0.2552  0.2943
  323TMC3     O 4908   4.221   0.870  13.833  0.1059  0.2100 -0.5032
  323TMC3     H 4909   4.475   1.112  13.674  0.4919  0.0786 -0.1335
  323TMC3    H1 4910   4.225   1.034  14.011 -0.5071  0.3787 -0.6136
  323TMC3    H2 4911   4.610   1.213  14.055  1.6166  0.0508 -0.6292
  323TMC3    C7 4912   4.434   1.048  14.165 -0.1716  0.5496  0.7352
  323TMC3    C8 4913   4.676   1.166  13.818  1.5651 -0.6788  0.6073
  323TMC3    O1 4914   4.383   0.938  14.173  0.0855 -0.0353 -0.1579
  323TMC3    O2 4915   0.013   1.107  13.897  0.2576  0.1851 -0.3778
  324MPD2     C 4916   0.805   1.913  14.803 -0.7084  0.0978 -0.3975
  324MPD2    C1 4917   0.861   2.007  14.719  0.1049 -0.3957 -0.1022
  324MPD2    C2 4918   0.778   2.072  14.623  0.6700 -0.5609 -1.1391
  324MPD2    C3 4919   0.637   2.051  14.625 -0.4144  0.0051  0.0172
  324MPD2    C4 4920   0.588   1.965  14.718  0.3486 -0.6514  0.6224
  324MPD2    C5 4921   0.670   1.889  14.798 -0.4009 -0.7876 -0.2137
  324MPD2     H 4922   0.829   2.131  14.548  0.9676 -0.3986 -0.8086
  324MPD2    H1 4923   0.482   1.948  14.730  0.0428 -0.0094 -1.1814
  324MPD2    H2 4924   0.869   1.850  14.864 -1.6279 -0.0139  0.4587
  324MPD2    H3 4925   0.631   1.816  14.868 -0.2248 -1.0405 -0.3750
  324MPD2     N 4926   0.541   2.119  14.540 -0.2001  0.4747  0.1080
  324MPD2    H5 4927   0.443   2.108  14.562 -0.0331  1.8956  1.5803
  324MPD2    N1 4928   1.003   2.025  14.713 -0.0849  0.6058  0.1398
  324MPD2    H7 4929   1.041   2.080  14.636 -1.7349  1.4910 -0.0250
  325TMC3    C1 4930   0.465   2.247  14.360 -0.7108 -0.0095  0.1418
  325TMC3    C2 4931   0.354   2.167  14.336 -0.1698  0.2486 -0.0843
  325TMC3    C3 4932   0.265   2.205  14.243 -0.1479 -0.3249 -0.8203
  325TMC3    C4 4933   0.488   2.353  14.282 -0.9000 -0.3305 -0.2312
  325TMC3    C5 4934   0.397   2.392  14.188 -0.3667  0.0246  0.3773
  325TMC3    C6 4935   0.281   2.322  14.169  0.7595 -0.0893  0.3111
  325TMC3     C 4936   0.577   2.202  14.437  0.6596  0.7938 -1.0409
  325TMC3     O 4937   0.687   2.252  14.413 -0.2011  0.1988  0.2204
  325TMC3     H 4938   0.343   2.068  14.378  0.0474  0.6910  1.0280
  325TMC3    H1 4939   0.567   2.420  14.313 -1.5021  0.9070 -1.3889
  325TMC3    H2 4940   0.205   2.338  14.094 -0.1396 -1.7915  0.8492
  325TMC3    C7 4941   0.427   2.498  14.100 -0.6719  0.1561  0.0805
  325TMC3    C8 4942   0.202   2.097  14.165 -0.6947 -0.7059 -1.3278
  325TMC3    O1 4943   0.539   2.546  14.115  0.0287 -0.0993 -0.5897
  325TMC3    O2 4944   0.275   2.000  14.151 -0.1025  0.6091  0.1659
  326MPD2     C 4945   2.602   3.024  11.160 -1.0204 -0.1476  0.6612
  326MPD2    C1 4946   2.555   3.099  11.056 -0.5445  0.3297  0.8804
  326MPD2    C2 4947   2.609   3.218  11.037 -0.2148 -0.0578 -0.6562
  326MPD2    C3 4948   2.708   3.266  11.117 -0.4651 -0.3218 -0.2784
  326MPD2    C4 4949   2.750   3.199  11.229 -0.1238  0.0972  0.1461
  326MPD2    C5 4950   2.695   3.077  11.246  0.0041 -0.0285  1.4175
  326MPD2     H 4951   2.559   3.284  10.967 -1.0392 -1.6960 -1.6371
  326MPD2    H1 4952   2.823   3.236  11.300 -1.4220  2.0592  0.4728
  326MPD2    H2 4953   2.558   2.929  11.189 -0.7317 -0.5002 -0.0448
  326MPD2    H3 4954   2.726   3.021  11.333  2.0355 -1.3669 -0.1641
  326MPD2     N 4955   2.764   3.394  11.094  0.3753  0.0262 -0.3728
  326MPD2    H5 4956   2.832   3.422  11.165 -0.8025  0.1654  0.7037
  326MPD2    N1 4957   2.447   3.056  10.977 -0.8168  0.4712  0.1481
  326MPD2    H7 4958   2.396   3.130  10.929 -0.4288 -0.5272 -1.7934
  327TMC3    C1 4959   2.320   2.926  10.854  0.4033  0.3186  1.0755
  327TMC3    C2 4960   2.222   3.026  10.854  0.5860 -0.2435  0.5905
  327TMC3    C3 4961   2.179   3.062  10.725 -0.1502 -0.6521  0.0248
  327TMC3    C4 4962   2.360   2.862  10.735  1.3856 -0.7378  0.1798
  327TMC3    C5 4963   2.345   2.928  10.618  0.1837 -0.2971  0.2152
  327TMC3    C6 4964   2.240   3.013  10.610  0.2802 -0.0818 -0.0985
  327TMC3     C 4965   2.416   2.928  10.956 -0.5804 -0.0690 -0.1962
  327TMC3     O 4966   2.468   2.824  10.992 -0.1843 -0.8833 -0.3155
  327TMC3     H 4967   2.177   3.073  10.941  2.1911  0.9278  0.7975
  327TMC3    H1 4968   2.412   2.767  10.731  0.5531 -1.1875  0.0069
  327TMC3    H2 4969   2.208   3.051  10.514  0.1917  3.2876  1.2800
  327TMC3    C7 4970   2.463   3.002  10.574  0.2511 -0.2376  0.1493
  327TMC3    C8 4971   2.072   3.163  10.697  0.2567  0.1895  0.2390
  327TMC3    O1 4972   2.449   3.100  10.501 -0.1469 -0.2530 -0.2090
  327TMC3    O2 4973   2.017   3.160  10.591 -0.5247 -0.3338 -0.0589
  328MPD2     C 4974   0.189   3.396  17.339 -0.3561 -0.1315  0.1303
  328MPD2    C1 4975   0.072   3.327  17.360  0.9209  0.3078  0.2902
  328MPD2    C2 4976   4.717   3.311  17.264  0.4279  0.9449 -0.8693
  328MPD2    C3 4977   4.735   3.357  17.134  0.1793  1.0281  0.0967
  328MPD2    C4 4978   0.123   3.414  17.104  0.3489 -0.2976  0.5772
  328MPD2    C5 4979   0.218   3.426  17.205  0.3381  0.1983 -0.6874
  328MPD2     H 4980   4.622   3.266  17.293  0.5255  1.1998 -0.1411
  328MPD2    H1 4981   0.136   3.455  17.004 -1.6194 -2.3438 -0.5199
  328MPD2    H2 4982   0.268   3.394  17.413 -0.2303 -0.3318 -0.0101
  328MPD2    H3 4983   0.312   3.473  17.181  1.5811 -2.0388 -0.2267
  328MPD2     N 4984   4.642   3.348  17.029  0.2878 -0.0303  0.0420
  328MPD2    H5 4985   4.660   3.390  16.939  0.7876 -0.8803 -0.2583
  328MPD2    N1 4986   0.043   3.275  17.490  0.0032 -0.4528 -0.4128
  328MPD2    H7 4987   0.107   3.300  17.565 -1.5998  1.2852  0.3945
  329TMC3    C1 4988   4.678   3.163  17.664 -0.2650 -0.6283 -0.2554
  329TMC3    C2 4989   4.689   3.272  17.746  0.3970 -0.1549  0.1578
  329TMC3    C3 4990   4.654   3.249   0.126 -0.0676 -0.1800  0.5184
  329TMC3    C4 4991   4.623   3.043  17.710  0.2611 -0.3491 -0.5674
  329TMC3    C5 4992   4.603   3.023   0.089 -0.8580  0.0260  0.0878
  329TMC3    C6 4993   4.603   3.131   0.171 -0.4174  0.2351 -0.5099
  329TMC3     C 4994   4.683   3.183  17.521 -0.0917  0.3579  0.5248
  329TMC3     O 4995   4.618   3.113  17.444 -0.1042  0.0054  0.2731
  329TMC3     H 4996   4.729   3.370  17.721  0.0760 -0.4329 -1.4354
  329TMC3    H1 4997   4.627   2.961  17.639 -1.1336 -1.1218  0.2368
  329TMC3    H2 4998   4.553   3.141   0.266  1.2673  1.1987  0.2709
  329TMC3    C7 4999   4.521   2.904   0.117 -0.3640  0.3326  0.4808
  329TMC3    C8 5000   4.637   3.368   0.208 -0.4042 -1.1285 -0.2269
  329TMC3    O1 5001   4.472   2.847   0.020  0.2018  0.2490  0.0695
  329TMC3    O2 5002   4.638   3.359   0.329 -0.0430 -0.5022 -0.3392
  330TMC3    C1 5003   2.570   2.575   9.022 -0.5469  0.2338  0.1897
  330TMC3    C2 5004   2.452   2.584   9.099  0.6465 -0.8140  0.1953
  330TMC3    C3 5005   2.456   2.543   9.231 -0.6033 -0.4551  0.1254
  330TMC3    C4 5006   2.691   2.526   9.071  0.6065 -0.1736  0.0400
  330TMC3    C5 5007   2.685   2.487   9.200 -0.0819  0.2182 -0.1916
  330TMC3    C6 5008   2.575   2.494   9.282  0.3656 -0.1982  0.0013
  330TMC3     C 5009   2.570   2.621   8.889 -0.0382 -0.0893  0.4880
  330TMC3     O 5010   2.680   2.617   8.835  0.1387 -0.7398 -0.7224
  330TMC3     H 5011   2.354   2.623   9.071  2.3566  2.9439 -0.4570
  330TMC3    H1 5012   2.787   2.531   9.021  0.3606 -1.5532 -0.5877
  330TMC3    H2 5013   2.585   2.454   9.382  1.0353  1.2049  0.4983
  330TMC3    C7 5014   2.810   2.465   9.272 -0.3119  0.6345 -0.4165
  330TMC3    C8 5015   2.334   2.555   9.314 -0.5152 -1.1108 -0.7664
  330TMC3    O1 5016   2.809   2.481   9.393  0.0471  0.2122  0.1709
  330TMC3    O2 5017   2.231   2.601   9.266  0.8572  0.3684  0.2334
  331MPD2     C 5018   1.035   1.552  12.847  0.3505  0.2629 -0.1604
  331MPD2    C1 5019   1.084   1.553  12.719 -0.0202  0.3205  0.2840
  331MPD2    C2 5020   1.085   1.436  12.652 -0.4683 -0.6399 -0.1487
  331MPD2    C3 5021   1.053   1.314  12.715 -0.3066 -0.5482  0.1361
  331MPD2    C4 5022   1.003   1.307  12.842  0.3370  0.4644 -0.3548
  331MPD2    C5 5023   0.999   1.428  12.907 -0.6746 -0.0102 -0.3583
  331MPD2     H 5024   1.110   1.436  12.546  0.0960  3.5500 -0.0246
  331MPD2    H1 5025   0.981   1.210  12.885  1.4048  0.5485  0.3849
  331MPD2    H2 5026   1.022   1.640  12.910  1.5680  2.5254 -3.0447
  331MPD2    H3 5027   0.990   1.424  13.015  0.5005 -1.0013 -0.2897
  331MPD2     N 5028   1.073   1.193  12.643 -0.2036 -0.3432 -0.2515
  331MPD2    H5 5029   1.090   1.213  12.545 -0.2171  2.5887  0.3525
  331MPD2    N1 5030   1.133   1.674  12.660 -0.7757 -0.4645  0.1667
  331MPD2    H7 5031   1.116   1.757  12.716  3.8143  0.4702  0.1870
  332TMC3    C1 5032   1.102   0.959  12.585  0.3919  0.5092 -1.5172
  332TMC3    C2 5033   1.042   0.975  12.465  0.1490  0.0889  0.6917
  332TMC3    C3 5034   1.038   0.870  12.377 -0.3532 -0.3838  0.2232
  332TMC3    C4 5035   1.150   0.837  12.624 -0.0914  0.0589  0.5518
  332TMC3    C5 5036   1.149   0.735  12.536 -0.3488  0.2952  1.1127
  332TMC3    C6 5037   1.095   0.750  12.416 -0.5240 -0.2425  0.0186
  332TMC3     C 5038   1.076   1.062  12.695 -0.3283 -0.0503 -0.3200
  332TMC3     O 5039   1.094   1.022  12.807 -0.0721  0.3304  0.0849
  332TMC3     H 5040   0.987   1.065  12.444  0.6671  0.2853  0.1635
  332TMC3    H1 5041   1.202   0.829  12.719  0.2005 -0.6817  0.3305
  332TMC3    H2 5042   1.099   0.675  12.338  0.1850  0.2137 -0.3873
  332TMC3    C7 5043   1.279   0.673  12.536 -0.4527  0.1577 -0.3482
  332TMC3    C8 5044   0.969   0.871  12.250 -0.8488  0.0726 -0.2184
  332TMC3    O1 5045   1.302   0.578  12.607 -1.0746 -0.6986 -0.7768
  332TMC3    O2 5046   0.915   0.765  12.217  0.5254 -0.0235  0.3869
  333MPD2     C 5047   0.892   1.812  10.974 -0.0358  0.1453  0.9081
  333MPD2    C1 5048   1.014   1.753  11.004 -0.3885 -0.2919  0.5471
  333MPD2    C2 5049   1.009   1.634  11.072  0.3162  0.2965  0.4077
  333MPD2    C3 5050   0.889   1.576  11.109  0.7573  0.3877  0.8487
  333MPD2    C4 5051   0.777   1.656  11.109 -0.4282  0.2397  0.1914
  333MPD2    C5 5052   0.773   1.769  11.031 -0.0086  0.3142  0.0774
  333MPD2     H 5053   1.104   1.587  11.094 -0.3149 -1.2722 -0.2032
  333MPD2    H1 5054   0.690   1.633  11.170  0.9348  2.2485  2.8871
  333MPD2    H2 5055   0.884   1.912  10.934  0.2944  0.4122  1.5134
  333MPD2    H3 5056   0.682   1.827  11.023  0.5785  1.2730  0.1823
  333MPD2     N 5057   0.889   1.446  11.177 -0.1761 -0.2037  0.3405
  333MPD2    H5 5058   0.977   1.399  11.196  1.0051  1.7265 -0.3809
  333MPD2    N1 5059   1.129   1.818  10.959 -0.0200  0.0956  0.1918
  333MPD2    H7 5060   1.115   1.913  10.924  1.0443 -0.4686 -1.7146
  334TMC3    C1 5061   1.363   1.856  10.900 -0.4407 -0.7292 -0.0580
  334TMC3    C2 5062   1.475   1.803  10.841 -0.2275  0.5649  0.2988
  334TMC3    C3 5063   1.574   1.879  10.801  0.1029  0.1399 -0.3510
  334TMC3    C4 5064   1.368   1.992  10.929  0.0503 -0.0672  0.0099
  334TMC3    C5 5065   1.478   2.061  10.887 -0.3814 -0.0219 -0.4345
  334TMC3    C6 5066   1.587   2.012  10.817  0.2585 -0.4375 -0.5428
  334TMC3     C 5067   1.257   1.765  10.952 -0.7427  0.3373 -0.0181
  334TMC3     O 5068   1.281   1.647  10.964 -0.1435 -0.1947  0.7259
  334TMC3     H 5069   1.471   1.697  10.817 -1.1402  0.2082  2.0317
  334TMC3    H1 5070   1.293   2.032  10.995 -0.5559 -3.5130  1.4323
  334TMC3    H2 5071   1.668   2.076  10.785 -2.3352  1.1002 -4.0163
  334TMC3    C7 5072   1.470   2.208  10.900 -0.7877 -0.0323 -0.1544
  334TMC3    C8 5073   1.666   1.813  10.706  0.3239  0.1800 -0.7070
  334TMC3    O1 5074   1.572   2.269  10.880 -0.4014 -0.2157 -0.2439
  334TMC3    O2 5075   1.636   1.702  10.667 -0.1648  0.1046 -0.1186
  335TMC3    C1 5076   1.199   2.919  17.566 -0.6205  0.5454 -0.1282
  335TMC3    C2 5077   1.152   3.037  17.541 -0.2703 -0.1442 -0.2838
  335TMC3    C3 5078   1.223   3.114  17.453 -0.2742  0.0474 -0.8505
  335TMC3    C4 5079   1.314   2.871  17.511  0.2990  0.0664 -0.7713
  335TMC3    C5 5080   1.401   2.964  17.454  0.2033 -0.5202  0.4904
  335TMC3    C6 5081   1.352   3.084  17.422 -0.0929  0.1261 -0.0226
  335TMC3     C 5082   1.093   2.821  17.593  0.0406  0.2042  0.2214
  335TMC3     O 5083   0.994   2.853  17.660  0.8157 -0.0122  0.1433
  335TMC3     H 5084   1.058   3.069  17.584  0.1496  2.2471 -1.1502
  335TMC3    H1 5085   1.359   2.778  17.544  0.3957  0.4137  0.0653
  335TMC3    H2 5086   1.401   3.149  17.351  0.6665  1.6423  1.8693
  335TMC3    C7 5087   1.523   2.922  17.399  0.2484 -0.4031  0.3187
  335TMC3    C8 5088   1.159   3.229  17.387 -0.4150  0.3253 -0.1257
  335TMC3    O1 5089   1.592   3.016  17.363  0.1475 -0.3071  0.0315
  335TMC3    O2 5090   1.218   3.301  17.303  0.0749 -0.2147  0.1786
  336MPD2     C 5091   0.400   1.020  16.263  0.4984  0.1590 -0.3272
  336MPD2    C1 5092   0.399   0.974  16.130  0.3440  0.3087  0.2193
  336MPD2    C2 5093   0.434   0.840  16.111  0.6730  0.2346  0.2175
  336MPD2    C3 5094   0.462   0.756  16.218 -0.0810  0.1988 -0.0906
  336MPD2    C4 5095   0.453   0.802  16.343  0.4762  0.4616  0.0977
  336MPD2    C5 5096   0.425   0.936  16.368  0.1359 -0.1941  0.1381
  336MPD2     H 5097   0.418   0.795  16.013  0.1503 -0.4411  0.6155
  336MPD2    H1 5098   0.491   0.733  16.417 -0.5529  1.0981  1.2091
  336MPD2    H2 5099   0.372   1.122  16.284  0.3499 -0.1173  0.7991
  336MPD2    H3 5100   0.409   0.984  16.463  0.4875  1.0339 -0.4241
  336MPD2     N 5101   0.493   0.617  16.208  0.0983 -0.8610 -0.1631
  336MPD2    H5 5102   0.495   0.567  16.296  2.2184 -2.4142 -1.0766
  336MPD2    N1 5103   0.370   1.058  16.020 -0.2768 -0.8469  0.4963
  336MPD2    H7 5104   0.372   1.009  15.931  1.6193  1.9179 -0.9811
  337TMC3    C1 5105   0.269   1.231  15.890 -0.3137 -0.6949 -0.3229
  337TMC3    C2 5106   0.145   1.266  15.864 -0.0304  0.1731  0.0652
  337TMC3    C3 5107   0.102   1.271  15.733 -0.6266  1.5365  0.3053
  337TMC3    C4 5108   0.359   1.197  15.790  0.2186  0.1890 -0.1783
  337TMC3    C5 5109   0.309   1.196  15.661  0.9039 -0.4068  0.0661
  337TMC3    C6 5110   0.182   1.236  15.627 -1.4415 -0.1052 -0.3694
  337TMC3     C 5111   0.290   1.173  16.024 -0.1251  0.0980  0.1320
  337TMC3     O 5112   0.265   1.239  16.124 -0.0084 -0.5321  0.6702
  337TMC3     H 5113   0.086   1.285  15.952 -0.8850  0.0184 -0.4719
  337TMC3    H1 5114   0.453   1.154  15.821 -0.8959 -0.9538  1.6055
  337TMC3    H2 5115   0.147   1.232  15.525 -0.0424 -1.8882 -0.7767
  337TMC3    C7 5116   0.393   1.131  15.558  0.1713 -0.6334  0.3828
  337TMC3    C8 5117   4.701   1.310  15.713 -0.5583 -0.4365 -0.3723
  337TMC3    O1 5118   0.333   1.096  15.453 -0.5245  0.4614 -0.6778
  337TMC3    O2 5119   4.640   1.362  15.808  0.3726  0.0886  0.2019
  338MPD2     C 5120   0.226   0.904   0.741  0.4633 -0.2099  0.3308
  338MPD2    C1 5121   0.250   0.816   0.634  0.4669  0.5490  0.5348
  338MPD2    C2 5122   0.147   0.738   0.590 -0.6891 -0.0096  0.3132
  338MPD2    C3 5123   0.023   0.729   0.658  0.2040 -0.1514  0.3955
  338MPD2    C4 5124   4.731   0.818   0.759  0.0034  0.6095  1.2120
  338MPD2    C5 5125   0.098   0.903   0.797 -0.0095 -0.6934  0.4151
  338MPD2     H 5126   0.185   0.659   0.526  3.0363  0.8356  1.4880
  338MPD2    H1 5127   4.634   0.824   0.807 -1.1621  0.4181 -1.1161
  338MPD2    H2 5128   0.295   0.977   0.782  2.5648 -0.8683 -1.9969
  338MPD2    H3 5129   0.085   0.977   0.875 -3.5912  0.4388 -1.2324
  338MPD2     N 5130   4.669   0.640   0.600  0.1007  0.0461 -0.3450
  338MPD2    H5 5131   4.699   0.593   0.516  0.8067  0.0719 -0.1101
  338MPD2    N1 5132   0.373   0.819   0.552  0.4324  0.2724  0.1938
  338MPD2    H7 5133   0.378   0.758   0.471  0.0109  0.8153 -0.2395
  339TMC3    C1 5134   4.471   0.541   0.533 -0.3441  0.2950 -0.2325
  339TMC3    C2 5135   4.516   0.411   0.502  0.6194  0.6005 -0.3788
  339TMC3    C3 5136   4.500   0.365   0.375 -0.2888  0.4397 -0.3907
  339TMC3    C4 5137   4.420   0.619   0.430  0.5695 -0.3361 -0.0954
  339TMC3    C5 5138   4.412   0.579   0.303  0.1656 -0.9232 -0.2725
  339TMC3    C6 5139   4.442   0.449   0.278 -0.3000 -0.1253 -0.6638
  339TMC3     C 5140   4.538   0.611   0.637 -0.1848  0.5182  0.0622
  339TMC3     O 5141   4.460   0.685   0.694  0.2600 -0.2473 -0.2524
  339TMC3     H 5142   4.571   0.353   0.575 -0.0634  1.5531  0.8850
  339TMC3    H1 5143   4.390   0.719   0.461 -0.9064 -0.7974 -0.0064
  339TMC3    H2 5144   4.428   0.392   0.186  0.0024  0.8693 -1.3206
  339TMC3    C7 5145   4.462   0.683   0.208  0.0366 -0.1936  0.4627
  339TMC3    C8 5146   4.501   0.220   0.364 -0.0373 -0.3621  0.1162
  339TMC3    O1 5147   4.461   0.794   0.246  0.1146 -0.1248  0.0118
  339TMC3    O2 5148   4.408   0.181   0.292  0.4682 -0.2298 -0.5884
  340MPD2     C 5149   0.753   3.075  10.175  0.2719  0.8621 -0.8850
  340MPD2    C1 5150   0.737   2.945  10.132  0.1791  0.6392  1.1998
  340MPD2    C2 5151   0.723   2.846  10.226 -0.3262  0.3686 -0.5350
  340MPD2    C3 5152   0.729   2.873  10.362 -0.2738 -0.3602  0.8589
  340MPD2    C4 5153   0.744   3.002  10.401  0.4069 -0.4713  0.1407
  340MPD2    C5 5154   0.763   3.106  10.307  0.8892  0.0034  0.3691
  340MPD2     H 5155   0.718   2.743  10.194 -0.2436  0.1062  0.2926
  340MPD2    H1 5156   0.748   3.030  10.506 -0.0920  1.6228 -0.4090
  340MPD2    H2 5157   0.756   3.155  10.101  0.1539  1.1395 -0.5882
  340MPD2    H3 5158   0.782   3.208  10.336 -1.5956  0.3314  0.8373
  340MPD2     N 5159   0.727   2.775  10.473 -0.7371 -0.5064  0.8075
  340MPD2    H5 5160   0.732   2.811  10.568 -1.6085  0.4549  0.4888
  340MPD2    N1 5161   0.736   2.922   9.994 -0.1760 -0.3270 -0.3085
  340MPD2    H7 5162   0.758   3.005   9.940 -0.3484 -1.4124 -2.0460
  341TMC3    C1 5163   0.746   2.797   9.786 -0.4473 -0.0598  0.3885
  341TMC3    C2 5164   0.734   2.675   9.733  0.2143  0.0767 -0.3461
  341TMC3    C3 5165   0.791   2.654   9.609 -0.8169 -0.0646  0.8194
  341TMC3    C4 5166   0.819   2.899   9.726 -0.4698 -0.4834  0.2101
  341TMC3    C5 5167   0.880   2.873   9.608  0.7705 -0.1755  0.2832
  341TMC3    C6 5168   0.873   2.751   9.546 -0.1071  0.2903 -0.1529
  341TMC3     C 5169   0.728   2.800   9.933 -0.5353 -0.4449 -0.6093
  341TMC3     O 5170   0.680   2.698   9.981 -0.2478 -0.4029 -0.4156
  341TMC3     H 5171   0.677   2.601   9.789 -1.1310  1.6276  0.3297
  341TMC3    H1 5172   0.821   2.995   9.777  0.0620 -0.1433 -0.4405
  341TMC3    H2 5173   0.912   2.728   9.448  0.0264  0.5912 -0.1704
  341TMC3    C7 5174   0.972   2.975   9.565  0.1056 -0.2353 -0.0119
  341TMC3    C8 5175   0.776   2.517   9.547 -1.1699 -0.8628  0.2684
  341TMC3    O1 5176   0.968   3.083   9.624  0.2147 -0.2053  0.3742
  341TMC3    O2 5177   0.841   2.500   9.446  0.7231  0.3874  0.2408
  342MPD2     C 5178   3.125   1.140  17.519  0.5755  0.2265  0.3632
  342MPD2    C1 5179   3.246   1.165  17.456  0.7508  0.1685  0.0149
  342MPD2    C2 5180   3.282   1.295  17.421 -0.1986 -0.5891 -0.2803
  342MPD2    C3 5181   3.220   1.401  17.488  0.6328  0.0034  0.0321
  342MPD2    C4 5182   3.105   1.374  17.562 -0.0217 -0.2826 -0.4017
  342MPD2    C5 5183   3.057   1.248  17.576  0.5601 -0.3424 -0.2062
  342MPD2     H 5184   3.371   1.314  17.361  1.4650 -0.6147  2.2017
  342MPD2    H1 5185   3.055   1.460  17.605  1.4016  0.9438 -1.1561
  342MPD2    H2 5186   3.078   1.043  17.520 -0.6806  0.8273  0.0718
  342MPD2    H3 5187   2.969   1.231  17.637  1.7541 -0.7870  1.4011
  342MPD2     N 5188   3.265   1.533  17.489  0.0201 -0.3139 -0.1621
  342MPD2    H5 5189   3.222   1.597  17.556 -0.4864 -1.4558  0.6059
  342MPD2    N1 5190   3.327   1.068  17.387  0.3115  0.1756  0.7934
  342MPD2    H7 5191   3.408   1.106  17.339 -1.0889  2.2328  0.0816
  343TMC3    C1 5192   3.386   0.857  17.286 -0.1661  0.0315  0.5218
  343TMC3    C2 5193   3.494   0.919  17.223  0.1750 -0.2718  0.4732
  343TMC3    C3 5194   3.556   0.861  17.112  0.1251 -1.0054  0.1202
  343TMC3    C4 5195   3.348   0.732  17.252  0.2369  0.0684  0.7637
  343TMC3    C5 5196   3.416   0.672  17.147 -0.1812 -0.8115  0.1787
  343TMC3    C6 5197   3.516   0.735  17.074 -0.0331  0.0951 -1.3605
  343TMC3     C 5198   3.305   0.931  17.389 -0.1440 -0.1768 -0.0998
  343TMC3     O 5199   3.224   0.861  17.446  0.4537 -0.3878 -0.2020
  343TMC3     H 5200   3.524   1.016  17.261  0.0885 -0.2552  0.4999
  343TMC3    H1 5201   3.268   0.684  17.307  1.8169 -1.7708  1.4771
  343TMC3    H2 5202   3.555   0.694  16.981  1.9606  2.7469 -1.6712
  343TMC3    C7 5203   3.352   0.547  17.101  0.2911 -0.6151 -1.4768
  343TMC3    C8 5204   3.653   0.925  17.029  0.8530 -0.0504 -0.1972
  343TMC3    O1 5205   3.274   0.498  17.185  0.3324  0.0790  0.4223
  343TMC3    O2 5206   3.663   1.045  17.048  0.2240  0.0609  0.7215
  344MPD2     C 5207   0.196   0.717  10.762  0.1509 -0.1326  0.6592
  344MPD2    C1 5208   0.110   0.671  10.668 -0.3904 -0.3745  0.0656
  344MPD2    C2 5209   0.106   0.729  10.543  0.2426 -0.6497 -0.2256
  344MPD2    C3 5210   0.183   0.844  10.519  0.1615 -0.0837  0.9479
  344MPD2    C4 5211   0.264   0.893  10.613  0.7066  0.2280 -0.2679
  344MPD2    C5 5212   0.266   0.828  10.730  0.3336 -0.7341  0.3505
  344MPD2     H 5213   0.036   0.692  10.469  1.9508 -1.9013 -1.2328
  344MPD2    H1 5214   0.329   0.978  10.600  1.7314 -0.8264 -2.0789
  344MPD2    H2 5215   0.216   0.674  10.859 -0.2116  1.0567  1.2616
  344MPD2    H3 5216   0.326   0.870  10.810 -1.2811  1.0877  0.6150
  344MPD2     N 5217   0.170   0.924  10.400  0.0690  0.3655  0.2291
  344MPD2    H5 5218   0.238   0.997  10.384  0.0710 -0.2201 -2.4485
  344MPD2    N1 5219   0.017   0.571  10.697  0.1055 -0.3829 -0.6102
  344MPD2    H7 5220   4.692   0.543  10.622  1.2069  1.5787 -2.2519
  345TMC3    C1 5221   0.095   0.990  10.181  0.2923 -0.4347 -0.4215
  345TMC3    C2 5222   0.207   1.066  10.163 -0.0617 -0.7807 -0.2712
  345TMC3    C3 5223   0.227   1.108  10.036  0.0978  0.8175  0.7160
  345TMC3    C4 5224   4.734   0.973  10.083  0.4764 -0.0649 -0.1110
  345TMC3    C5 5225   0.015   1.030   9.960  0.2485  0.4859  0.2295
  345TMC3    C6 5226   0.137   1.090   9.933 -1.3557 -0.2730 -0.0445
  345TMC3     C 5227   0.098   0.895  10.290 -0.5136 -1.1871 -0.0696
  345TMC3     O 5228   0.026   0.800  10.277  0.1561 -0.0387 -0.0249
  345TMC3     H 5229   0.287   1.066  10.236 -0.1555  0.7196 -0.1765
  345TMC3    H1 5230   4.637   0.931  10.106  0.0190 -0.2672 -2.4519
  345TMC3    H2 5231   0.151   1.141   9.838 -0.9585 -0.3645 -0.0350
  345TMC3    C7 5232   4.649   1.110   9.903 -0.4947 -0.5905  0.1769
  345TMC3    C8 5233   0.297   1.235  10.027 -0.4056  0.2157 -0.7054
  345TMC3    O1 5234   4.676   1.229   9.884 -0.1817 -0.4387 -0.2795
  345TMC3    O2 5235   0.275   1.316  10.115  0.4896  0.5472  0.2267
  346MPD2     C 5236   4.284   2.300  13.737 -0.1027  0.0336  0.9689
  346MPD2    C1 5237   4.384   2.374  13.681 -0.6205 -0.2384 -0.6660
  346MPD2    C2 5238   4.436   2.473  13.754  0.1002 -0.4839  0.5186
  346MPD2    C3 5239   4.375   2.527  13.863  0.0874  0.2201 -0.2439
  346MPD2    C4 5240   4.264   2.464  13.914 -0.5596 -0.2147  0.7278
  346MPD2    C5 5241   4.225   2.340  13.857  0.1175 -0.4718  0.2748
  346MPD2     H 5242   4.522   2.524  13.712 -0.7044  0.2156 -0.2636
  346MPD2    H1 5243   4.210   2.501  14.000  1.5120  2.6780  0.7794
  346MPD2    H2 5244   4.244   2.208  13.695 -2.0191  0.8691  0.9669
  346MPD2    H3 5245   4.146   2.280  13.901 -0.2443  1.3762  2.1410
  346MPD2     N 5246   4.431   2.641  13.924 -0.8315 -0.0042 -0.0463
  346MPD2    H5 5247   4.505   2.688  13.873 -0.5472 -1.4039 -0.9292
  346MPD2    N1 5248   4.460   2.341  13.565 -0.1257  0.1672 -0.1147
  346MPD2    H7 5249   4.539   2.398  13.536  0.3791 -1.4791 -1.9896
  347TMC3    C1 5250   4.446   2.832  14.061  0.1913  0.0609 -0.1276
  347TMC3    C2 5251   4.493   2.897  13.939 -0.2733 -0.5131  0.1774
  347TMC3    C3 5252   4.608   2.968  13.946  0.3789 -0.0347  1.0705
  347TMC3    C4 5253   4.509   2.847  14.177  0.8575  0.0431 -0.0679
  347TMC3    C5 5254   4.615   2.935  14.185 -0.8396 -0.0397  0.8986
  347TMC3    C6 5255   4.659   2.991  14.071 -0.2109  0.1255 -0.3125
  347TMC3     C 5256   4.393   2.701  14.042 -0.4363 -0.3281  0.6969
  347TMC3     O 5257   4.330   2.649  14.134 -1.0148  0.5116 -0.9835
  347TMC3     H 5258   4.444   2.886  13.843  0.2578  2.7587 -0.4480
  347TMC3    H1 5259   4.467   2.793  14.261  1.0950 -0.3738 -0.2188
  347TMC3    H2 5260   0.004   3.062  14.076 -0.6372  0.3715  3.1657
  347TMC3    C7 5261   4.716   2.904  14.283 -0.7694 -0.2028 -0.5444
  347TMC3    C8 5262   4.712   2.889  13.876 -0.3458  1.2812 -0.3204
  347TMC3    O1 5263   4.685   2.820  14.367 -0.6311 -0.1457 -0.4472
  347TMC3    O2 5264   4.679   2.777  13.842 -0.0230  0.0766  0.5899
  348MPD2     C 5265   3.860   1.849  11.538  0.1358  0.4057  0.7636
  348MPD2    C1 5266   3.747   1.841  11.456  0.9567  0.6275  0.2765
  348MPD2    C2 5267   3.715   1.950  11.375 -0.0561  0.3506  0.1722
  348MPD2    C3 5268   3.780   2.070  11.386 -0.1221  0.2622 -0.6415
  348MPD2    C4 5269   3.866   2.084  11.495 -0.0470  0.0959 -0.5788
  348MPD2    C5 5270   3.911   1.974  11.561  0.4138  0.0206 -0.6879
  348MPD2     H 5271   3.635   1.942  11.302 -0.8219  0.6033  0.9849
  348MPD2    H1 5272   3.924   2.175  11.507  2.7800 -1.4885 -2.1142
  348MPD2    H2 5273   3.895   1.764  11.595 -1.2846 -1.6849 -1.4993
  348MPD2    H3 5274   3.992   1.984  11.632 -0.2966 -3.2789  0.5960
  348MPD2     N 5275   3.738   2.172  11.307 -0.4025 -0.1254  0.2895
  348MPD2    H5 5276   3.683   2.142  11.227 -0.6236 -0.3613  0.5299
  348MPD2    N1 5277   3.668   1.723  11.450 -0.4226  0.1612  0.2571
  348MPD2    H7 5278   3.576   1.725  11.406  0.2299  0.0984 -1.1318
  349TMC3    C1 5279   3.600   1.499  11.498  0.1761 -0.4051  0.4399
  349TMC3    C2 5280   3.620   1.404  11.594  1.4240 -0.2436 -0.1052
  349TMC3    C3 5281   3.511   1.365  11.672  0.4992  0.0100  0.1780
  349TMC3    C4 5282   3.479   1.536  11.458  0.1438 -0.5415 -0.3541
  349TMC3    C5 5283   3.374   1.480  11.526  0.4585  0.3478  0.4021
  349TMC3    C6 5284   3.385   1.388  11.628 -0.2985 -0.2811 -0.1428
  349TMC3     C 5285   3.708   1.596  11.489 -0.1210 -0.6277  0.1542
  349TMC3     O 5286   3.822   1.550  11.496  0.0353  0.6956  0.4740
  349TMC3     H 5287   3.722   1.376  11.616  1.7420  1.6280  0.7697
  349TMC3    H1 5288   3.460   1.622  11.394 -1.5194 -0.5934  0.0685
  349TMC3    H2 5289   3.294   1.360  11.679  1.3154 -2.5358  1.4907
  349TMC3    C7 5290   3.239   1.480  11.461  0.4440  0.9907 -0.2153
  349TMC3    C8 5291   3.536   1.307  11.808 -0.3784  0.0303 -0.0682
  349TMC3    O1 5292   3.141   1.453  11.534  0.6847  0.3457 -0.2434
  349TMC3    O2 5293   3.451   1.233  11.853 -0.5330  0.0896  0.1826
  350MPD2     C 5294   2.294   0.197  10.155  0.6641  0.7061  0.3542
  350MPD2    C1 5295   2.342   0.069  10.179  0.6380 -0.2956  0.3093
  350MPD2    C2 5296   2.438   0.042  10.276 -0.5407  0.3572 -0.3742
  350MPD2    C3 5297   2.489   0.147  10.344 -0.5319  0.2733  0.0410
  350MPD2    C4 5298   2.443   0.276  10.323 -0.5346  0.0548 -0.0629
  350MPD2    C5 5299   2.343   0.300  10.227  0.3228 -0.4849  0.4269
  350MPD2     H 5300   2.475   4.680  10.296 -1.8485  0.5043  2.7330
  350MPD2    H1 5301   2.482   0.367  10.368  1.7164 -1.6942  1.4922
  350MPD2    H2 5302   2.218   0.212  10.080 -0.5033  0.6333  1.5214
  350MPD2    H3 5303   2.293   0.395  10.211  1.5569  0.1433  0.3004
  350MPD2     N 5304   2.589   0.124  10.432 -0.1093 -0.0171 -0.0935
  350MPD2    H5 5305   2.608   0.024  10.439 -2.1951 -0.2753  1.6471
  350MPD2    N1 5306   2.300   4.702  10.095 -0.1082 -0.0894 -0.2613
  350MPD2    H7 5307   2.330   4.608  10.120 -2.6097 -0.6722  0.5031
  351TMC3    C1 5308   2.171   4.565   9.950 -0.0681 -0.0442  0.0754
  351TMC3    C2 5309   2.227   4.448  10.000 -0.2877 -0.0012  0.5447
  351TMC3    C3 5310   2.191   4.331   9.939  0.9827  0.2430 -0.2070
  351TMC3    C4 5311   2.076   4.561   9.855  0.5863 -0.3441 -0.1699
  351TMC3    C5 5312   2.043   4.446   9.800  0.3173  0.4678 -0.3196
  351TMC3    C6 5313   2.106   4.325   9.833 -0.8240  0.2061 -0.6381
  351TMC3     C 5314   2.211   4.700   9.990  0.1445 -0.0091  0.1223
  351TMC3     O 5315   2.176   0.049   9.914  0.3878 -0.2816 -0.2443
  351TMC3     H 5316   2.275   4.451  10.097  1.2542 -0.1027 -0.1997
  351TMC3    H1 5317   2.033   4.654   9.820  0.1393 -0.1106  1.0126
  351TMC3    H2 5318   2.082   4.235   9.778  3.8818 -1.1313 -0.5233
  351TMC3    C7 5319   1.957   4.446   9.685  0.5684 -0.1225 -0.0062
  351TMC3    C8 5320   2.267   4.211   9.946 -0.2002  0.1018  0.7667
  351TMC3    O1 5321   1.991   4.373   9.596 -0.1337 -0.3485 -0.0596
  351TMC3    O2 5322   2.223   4.112   9.883 -0.0530 -0.1838  0.1923
  352MPD2     C 5323   1.286   2.838   0.889  0.0232 -0.1340 -0.2291
  352MPD2    C1 5324   1.170   2.792   0.827 -0.5894  0.1625 -0.4044
  352MPD2    C2 5325   1.169   2.669   0.764 -0.7010 -0.7944 -0.2586
  352MPD2    C3 5326   1.280   2.588   0.769  0.1021 -0.2667  0.0023
  352MPD2    C4 5327   1.401   2.640   0.823  0.1994  0.0111  0.6909
  352MPD2    C5 5328   1.399   2.763   0.883  0.5322 -0.5090 -0.4298
  352MPD2     H 5329   1.082   2.618   0.722  0.2761  0.0668 -3.3341
  352MPD2    H1 5330   1.497   2.589   0.829  0.6656  0.6141 -1.4690
  352MPD2    H2 5331   1.296   2.933   0.939  1.8621 -0.5815  0.2408
  352MPD2    H3 5332   1.484   2.823   0.912  0.5210 -0.1481 -1.1448
  352MPD2     N 5333   1.286   2.456   0.715 -0.3203  0.2969  0.2527
  352MPD2    H5 5334   1.366   2.400   0.742  0.8348  1.8981  0.1471
  352MPD2    N1 5335   1.054   2.870   0.833 -0.1361  0.8814  0.2199
  352MPD2    H7 5336   1.046   2.951   0.894 -2.5723  0.9419 -0.1768
  353TMC3    C1 5337   1.209   2.256   0.616 -0.4627  0.2826  0.0554
  353TMC3    C2 5338   1.330   2.192   0.639  1.1760 -0.7766 -0.2090
  353TMC3    C3 5339   1.335   2.061   0.608  0.5212 -0.7357 -0.1265
  353TMC3    C4 5340   1.092   2.188   0.574  0.4279  0.0849 -0.8046
  353TMC3    C5 5341   1.108   2.048   0.555 -0.7489 -1.0459  0.2314
  353TMC3    C6 5342   1.225   1.987   0.573  0.4223  0.3265  0.2459
  353TMC3     C 5343   1.182   2.395   0.649 -0.4414 -0.3823  0.5410
  353TMC3     O 5344   1.066   2.426   0.644 -0.3536 -0.2537 -0.2353
  353TMC3     H 5345   1.422   2.249   0.651  1.7995 -1.6949 -0.6999
  353TMC3    H1 5346   0.999   2.234   0.543 -0.4329 -0.2022  1.3946
  353TMC3    H2 5347   1.223   1.879   0.574  1.4902  0.3401  2.3606
  353TMC3    C7 5348   0.991   1.964   0.556 -0.5242  0.0610 -0.2947
  353TMC3    C8 5349   1.463   2.000   0.650  0.1651 -1.1764 -0.8940
  353TMC3    O1 5350   0.992   1.847   0.535  0.5116 -0.2307  0.6112
  353TMC3    O2 5351   1.511   2.040   0.754 -0.1979  0.3470 -1.1218
  354TMC3    C1 5352   2.989   3.314  13.453 -0.2304  0.2538  0.3169
  354TMC3    C2 5353   2.928   3.427  13.406 -0.7392 -0.1961  0.7555
  354TMC3    C3 5354   2.896   3.430  13.270 -0.0924  0.0868 -0.6338
  354TMC3    C4 5355   3.029   3.209  13.376 -0.7108  0.2291 -0.1852
  354TMC3    C5 5356   2.982   3.209  13.248  0.0705 -0.1964 -0.6398
  354TMC3    C6 5357   2.930   3.322  13.189  0.6733 -0.5494 -0.0332
  354TMC3     C 5358   2.964   3.284  13.594 -0.2120  0.7382 -0.5638
  354TMC3     O 5359   2.877   3.356  13.643 -0.0572 -0.8341 -0.2079
  354TMC3     H 5360   2.912   3.504  13.481  1.5028  2.1801 -1.2023
  354TMC3    H1 5361   3.046   3.113  13.423  0.8908  1.1483  1.1265
  354TMC3    H2 5362   2.893   3.330  13.088  0.6323  2.4705  0.2461
  354TMC3    C7 5363   2.997   3.087  13.168  0.5178 -0.1709 -0.4205
  354TMC3    C8 5364   2.827   3.539  13.208 -0.1588  0.1170  0.3043
  354TMC3    O1 5365   3.071   2.999  13.207  0.2920 -0.6941 -0.4865
  354TMC3    O2 5366   2.849   3.561  13.092 -0.3840 -0.4925  0.0646
  355MPD2     C 5367   2.889   3.770  11.907  0.3864 -0.2569  0.4909
  355MPD2    C1 5368   2.936   3.856  12.010  0.2019  0.3437  0.0490
  355MPD2    C2 5369   2.948   3.818  12.145 -0.0464  0.2875  0.0663
  355MPD2    C3 5370   2.911   3.681  12.176  0.2919 -0.6866 -0.2418
  355MPD2    C4 5371   2.866   3.597  12.071 -0.4479 -0.1334  0.1033
  355MPD2    C5 5372   2.857   3.639  11.937 -0.4018  0.4847 -0.1559
  355MPD2     H 5373   2.985   3.887  12.219  1.1336  1.3382 -1.4895
  355MPD2    H1 5374   2.840   3.492  12.082 -2.4319  0.3408 -0.1585
  355MPD2    H2 5375   2.876   3.808  11.807  3.1169 -0.1372  0.1615
  355MPD2    H3 5376   2.817   3.575  11.859  0.1471  1.4193 -1.1857
  355MPD2     N 5377   2.943   3.622  12.304  0.3141 -1.0474  0.2766
  355MPD2    H5 5378   2.895   3.535  12.324  1.6070 -2.5296 -3.1522
  355MPD2    N1 5379   2.990   3.978  11.961  0.1902  0.3228  0.0585
  355MPD2    H7 5380   3.006   3.984  11.861 -2.2168  1.8168 -0.2261
  356TMC3    C1 5381   3.148   3.747  12.374 -0.1290 -0.7193  0.3403
  356TMC3    C2 5382   3.218   3.725  12.261  0.4908  0.3761  0.1582
  356TMC3    C3 5383   3.339   3.783  12.246  0.5130 -0.0511 -0.3962
  356TMC3    C4 5384   3.212   3.799  12.484 -0.0673 -0.9489  0.3022
  356TMC3    C5 5385   3.336   3.854  12.465  0.2117 -0.0039 -0.3233
  356TMC3    C6 5386   3.399   3.846  12.350 -0.3448  0.3512  0.0375
  356TMC3     C 5387   3.022   3.678  12.402  0.2197 -0.4046  0.2657
  356TMC3     O 5388   3.021   3.640  12.519 -0.3175  0.3382 -0.0843
  356TMC3     H 5389   3.166   3.686  12.174  0.6376  0.0395  0.2216
  356TMC3    H1 5390   3.167   3.819  12.581 -0.2592 -2.6500  0.5511
  356TMC3    H2 5391   3.501   3.882  12.334  0.4881 -1.4801  1.2394
  356TMC3    C7 5392   3.416   3.856  12.581 -0.3440  0.5306  0.4295
  356TMC3    C8 5393   3.359   3.829  12.107  0.7750 -0.1540  0.1395
  356TMC3    O1 5394   3.387   3.803  12.689 -0.5313 -0.0291 -0.0555
  356TMC3    O2 5395   3.293   3.777  12.019  0.1515  0.3097 -0.3549
  357MPD2     C 5396   2.026   4.062   0.471 -0.0475 -0.0848 -0.1306
  357MPD2    C1 5397   2.018   3.977   0.576  0.4765 -0.0160  0.9693
  357MPD2    C2 5398   1.915   3.982   0.668  0.4803 -0.3649 -0.0227
  357MPD2    C3 5399   1.825   4.086   0.667  0.2707  1.0944  0.6836
  357MPD2    C4 5400   1.832   4.170   0.556 -0.0662 -0.0980  0.3326
  357MPD2    C5 5401   1.925   4.154   0.455  0.0479 -0.0130 -0.5450
  357MPD2     H 5402   1.905   3.917   0.753  1.7276  0.4830  0.7640
  357MPD2    H1 5403   1.777   4.263   0.547 -1.5866 -0.9257  1.1540
  357MPD2    H2 5404   2.109   4.065   0.401 -0.9485  0.0027 -1.2139
  357MPD2    H3 5405   1.941   4.232   0.381  0.0851  1.3169  0.8606
  357MPD2     N 5406   1.724   4.115   0.765  0.1065 -0.0560 -0.8749
  357MPD2    H5 5407   1.677   4.205   0.761  0.7470  0.2685 -1.1102
  357MPD2    N1 5408   2.129   3.897   0.601 -0.5510  0.3422 -0.7463
  357MPD2    H7 5409   2.203   3.898   0.531 -1.0449  4.3864 -1.2101
  358TMC3    C1 5410   2.275   3.741   0.679  0.1247 -0.2637 -0.2415
  358TMC3    C2 5411   2.268   3.607   0.704  0.6934  0.2592 -0.8886
  358TMC3    C3 5412   2.350   3.525   0.637  0.4008 -0.6816  0.6250
  358TMC3    C4 5413   2.377   3.787   0.603  0.5007 -0.5161  0.0626
  358TMC3    C5 5414   2.455   3.700   0.533  0.7453 -0.4043 -0.0445
  358TMC3    C6 5415   2.440   3.566   0.546 -0.4827  0.6376 -0.2652
  358TMC3     C 5416   2.148   3.808   0.698 -0.1547  0.7856 -0.2768
  358TMC3     O 5417   2.073   3.774   0.790  0.8478 -0.0881 -0.1766
  358TMC3     H 5418   2.189   3.576   0.772  0.3968  0.7021 -1.0369
  358TMC3    H1 5419   2.386   3.894   0.591  0.9306 -0.2575  2.6005
  358TMC3    H2 5420   2.515   3.494   0.514  1.2755  1.6761  1.4957
  358TMC3    C7 5421   2.572   3.750   0.470 -0.7930  0.5476  0.0581
  358TMC3    C8 5422   2.271   3.411   0.597  0.1543  0.0783 -0.3159
  358TMC3    O1 5423   2.630   3.844   0.527  0.0918  0.3813  0.5653
  358TMC3    O2 5424   2.165   3.383   0.651 -0.4179 -0.2730 -0.4099
  359MPD2     C 5425   3.064   2.429  12.348 -0.5305  1.0456  0.3068
  359MPD2    C1 5426   3.052   2.387  12.217  0.5693  0.6120  0.3323
  359MPD2    C2 5427   2.924   2.368  12.172 -0.3775 -0.2438 -0.3740
  359MPD2    C3 5428   2.820   2.386  12.254 -0.1877  0.0652  0.1692
  359MPD2    C4 5429   2.835   2.441  12.378  0.2225 -0.2511 -0.1653
  359MPD2    C5 5430   2.956   2.452  12.431  0.4335 -0.1743  0.2667
  359MPD2     H 5431   2.903   2.342  12.069  2.1391 -2.0638 -0.4395
  359MPD2    H1 5432   2.755   2.453  12.449  0.9900 -1.0371  0.8330
  359MPD2    H2 5433   3.161   2.447  12.393  0.8289 -1.2786 -1.6692
  359MPD2    H3 5434   2.982   2.487  12.530  2.6314 -0.3244 -0.2507
  359MPD2     N 5435   2.690   2.368  12.206  1.0124 -0.1158 -0.5392
  359MPD2    H5 5436   2.619   2.412  12.263  1.9244 -2.6882  2.5667
  359MPD2    N1 5437   3.159   2.376  12.124 -0.0237  0.7228  0.1447
  359MPD2    H7 5438   3.126   2.360  12.029  3.1297 -0.6504 -0.7119
  360TMC3    C1 5439   3.386   2.333  12.045  0.8719 -0.6696  0.3368
  360TMC3    C2 5440   3.511   2.276  12.064  0.3372  0.0980  0.0016
  360TMC3    C3 5441   3.574   2.219  11.957 -0.4237 -0.0051  0.2548
  360TMC3    C4 5442   3.349   2.358  11.916  0.4778 -0.9514 -0.3252
  360TMC3    C5 5443   3.419   2.294  11.815 -1.1548  0.6524  0.2242
  360TMC3    C6 5444   3.530   2.216  11.834 -0.1560 -0.0988  0.0437
  360TMC3     C 5445   3.293   2.375  12.156  0.0030 -0.2367  0.1061
  360TMC3     O 5446   3.342   2.383  12.269 -0.2248  0.6870 -0.0134
  360TMC3     H 5447   3.553   2.276  12.164  2.3867 -1.9445 -0.8820
  360TMC3    H1 5448   3.267   2.427  11.900  2.0169  0.0874 -3.5806
  360TMC3    H2 5449   3.580   2.178  11.746 -0.7917  1.2863 -0.9119
  360TMC3    C7 5450   3.405   2.359  11.686 -0.3683 -0.2982  0.2770
  360TMC3    C8 5451   3.712   2.173  11.983  0.0413 -0.2840 -0.1592
  360TMC3    O1 5452   3.371   2.478  11.700 -0.5380  0.0709 -0.2190
  360TMC3    O2 5453   3.741   2.136  12.095  0.6558 -0.4990  0.4076
  361MPD2     C 5454   4.185   2.002  17.025 -0.3809 -0.0319 -0.0233
  361MPD2    C1 5455   4.181   1.873  16.969  0.6861  0.0074  0.1616
  361MPD2    C2 5456   4.297   1.803  16.973 -0.6652 -0.2383 -0.7322
  361MPD2    C3 5457   4.420   1.855  17.025  0.4631  1.3283 -0.0433
  361MPD2    C4 5458   4.426   1.985  17.072 -0.5428  0.4822 -0.4643
  361MPD2    C5 5459   4.305   2.052  17.070 -0.0202  0.5060 -0.3875
  361MPD2     H 5460   4.305   1.702  16.934  0.3706 -1.3983  2.4740
  361MPD2    H1 5461   4.516   2.030  17.113 -1.9801  3.1101 -0.2049
  361MPD2    H2 5462   4.103   2.071  17.018 -1.7818 -1.6660  0.2066
  361MPD2    H3 5463   4.311   2.154  17.109 -1.6235 -0.9035  3.5502
  361MPD2     N 5464   4.547   1.790  17.020  1.2002  0.4469  0.3157
  361MPD2    H5 5465   4.634   1.829  17.053  2.1596  0.5503 -2.3314
  361MPD2    N1 5466   4.058   1.818  16.927  0.2740  0.4293 -0.3716
  361MPD2    H7 5467   3.973   1.868  16.953  0.8600  1.5930 -0.6867
  362TMC3    C1 5468   3.907   1.687  16.826 -0.6605  0.0598  0.7490
  362TMC3    C2 5469   3.817   1.729  16.920 -0.0674 -0.6730 -0.4337
  362TMC3    C3 5470   3.701   1.792  16.879  0.7698 -0.7313 -0.1108
  362TMC3    C4 5471   3.887   1.728  16.700  0.3095  0.4980 -0.7774
  362TMC3    C5 5472   3.771   1.792  16.660 -0.1107 -0.3800 -0.5167
  362TMC3    C6 5473   3.682   1.837  16.752  0.4685  0.3614  0.1390
  362TMC3     C 5474   4.044   1.691  16.870  0.0127 -0.1899 -0.3226
  362TMC3     O 5475   4.127   1.613  16.829 -0.1223 -0.1213  0.5352
  362TMC3     H 5476   3.832   1.714  17.026 -0.4237  0.3882 -0.2355
  362TMC3    H1 5477   3.970   1.723  16.630  2.0252 -0.6137  1.3665
  362TMC3    H2 5478   3.587   1.870  16.710 -2.1141 -1.3996  4.5295
  362TMC3    C7 5479   3.769   1.861  16.531  0.6787 -0.0806  1.0178
  362TMC3    C8 5480   3.590   1.805  16.975  0.1862 -0.0766 -0.7994
  362TMC3    O1 5481   3.745   1.978  16.529  0.0036  0.5292 -0.0375
  362TMC3    O2 5482   3.565   1.717  17.056 -0.1838  0.1518  0.3518
  363TMC3    C1 5483   2.694   3.936   9.642 -0.1227  0.3978  0.6312
  363TMC3    C2 5484   2.816   3.909   9.705 -0.0581  0.8419  0.2258
  363TMC3    C3 5485   2.866   4.006   9.787  0.1641  0.0979  0.0935
  363TMC3    C4 5486   2.631   4.052   9.658 -0.7603 -0.7104  0.3908
  363TMC3    C5 5487   2.686   4.143   9.743 -0.8037 -0.0780 -0.5814
  363TMC3    C6 5488   2.801   4.122   9.809  0.8521 -0.1233 -0.2434
  363TMC3     C 5489   2.652   3.823   9.551  0.1785  0.4901 -0.1782
  363TMC3     O 5490   2.744   3.755   9.514  0.6397  0.5996  0.3518
  363TMC3     H 5491   2.853   3.807   9.707  0.7908  1.1459 -0.2979
  363TMC3    H1 5492   2.561   4.083   9.582 -1.2883  2.5337  2.1857
  363TMC3    H2 5493   2.831   4.190   9.887 -1.6854  0.1598  0.4877
  363TMC3    C7 5494   2.667   4.280   9.724  0.4889 -0.1192 -0.4019
  363TMC3    C8 5495   2.991   3.978   9.860  0.1310 -0.0055 -0.2254
  363TMC3    O1 5496   2.764   4.357   9.753 -0.3387  0.5179 -0.3449
  363TMC3    O2 5497   3.026   4.059   9.948 -0.1991  0.6201  0.3955
  364MPD2     C 5498   1.875   3.623  10.861  0.1767  0.1698  0.3773
  364MPD2    C1 5499   1.866   3.564  10.737 -0.0449 -0.0361  0.1359
  364MPD2    C2 5500   1.922   3.438  10.715 -0.5368 -0.5491  0.1661
  364MPD2    C3 5501   1.994   3.377  10.815 -0.3207  0.4095 -0.7777
  364MPD2    C4 5502   2.009   3.447  10.933 -0.0549 -0.1787 -0.1239
  364MPD2    C5 5503   1.944   3.559  10.956  0.0497 -0.1344  0.0846
  364MPD2     H 5504   1.919   3.383  10.621  0.9360  0.8149 -0.6943
  364MPD2    H1 5505   2.071   3.410  11.013 -0.4922 -0.8154 -0.0794
  364MPD2    H2 5506   1.828   3.717  10.888 -1.0262 -0.9643  2.1673
  364MPD2    H3 5507   1.967   3.610  11.048 -1.5988 -1.0989  1.0498
  364MPD2     N 5508   2.066   3.256  10.797  0.0235  0.1547 -0.2166
  364MPD2    H5 5509   2.138   3.238  10.867  0.7993 -0.0524 -1.0644
  364MPD2    N1 5510   1.804   3.641  10.640  0.1721 -0.5108 -0.2273
  364MPD2    H7 5511   1.766   3.731  10.667  0.8379 -0.1179 -0.6115
  365TMC3    C1 5512   1.772   3.735  10.430  0.2118  0.5105 -0.1355
  365TMC3    C2 5513   1.715   3.709  10.310 -0.4833 -0.0929 -0.2407
  365TMC3    C3 5514   1.727   3.810  10.216  1.0329 -0.6244 -0.0718
  365TMC3    C4 5515   1.835   3.849  10.459  0.2583 -0.4758  0.7691
  365TMC3    C5 5516   1.815   3.959  10.374 -0.2652  0.5731  0.4118
  365TMC3    C6 5517   1.757   3.940  10.255  0.4833 -0.1232  0.3562
  365TMC3     C 5518   1.799   3.619  10.507 -1.0412  0.4434  0.1602
  365TMC3     O 5519   1.828   3.517  10.446 -0.0373  0.2414  0.0136
  365TMC3     H 5520   1.665   3.615  10.291 -0.7510 -0.1707  0.8619
  365TMC3    H1 5521   1.892   3.860  10.551  0.3112  0.6480  0.5982
  365TMC3    H2 5522   1.762   4.022  10.184  0.3877  0.2793  0.8127
  365TMC3    C7 5523   1.876   4.084  10.408 -0.1348 -0.0050 -0.1020
  365TMC3    C8 5524   1.778   3.768  10.090 -0.5525 -0.0546 -0.6945
  365TMC3    O1 5525   1.880   4.166  10.314 -0.5581  0.5914  0.0657
  365TMC3    O2 5526   1.757   3.834   9.986  0.1236  0.1158  0.4878
  366MPD2     C 5527   0.153   4.533  15.004  0.3597 -0.0432  0.6685
  366MPD2    C1 5528   0.186   4.665  14.994  0.5083 -0.3467 -0.5732
  366MPD2    C2 5529   0.318   4.700  14.990 -0.5967  0.3840  0.1285
  366MPD2    C3 5530   0.426   4.610  14.999  0.3416  0.0448  0.3990
  366MPD2    C4 5531   0.390   4.480  15.001 -0.3190  0.1784 -0.2656
  366MPD2    C5 5532   0.258   4.439  15.003  0.6119 -0.0559  0.2685
  366MPD2     H 5533   0.341   0.068  14.986 -0.9519  0.4838  0.7222
  366MPD2    H1 5534   0.464   4.401  15.004 -1.3732 -0.7053  2.5567
  366MPD2    H2 5535   0.054   4.490  15.012 -0.6745  1.7723 -2.1281
  366MPD2    H3 5536   0.240   4.332  15.016 -1.6148  0.1451 -1.1299
  366MPD2     N 5537   0.560   4.662  14.999  0.1090  0.2808 -1.0111
  366MPD2    H5 5538   0.574   0.024  15.004  3.6275 -0.1310 -2.4220
  366MPD2    N1 5539   0.090   0.028  14.998 -0.3082  0.2059  0.4819
  366MPD2    H7 5540   0.122   0.122  15.017 -0.5870  0.3512  0.2300
  367TMC3    C1 5541   4.643   0.117  15.091 -0.1407  0.6280 -0.6215
  367TMC3    C2 5542   4.729   0.146  15.193 -0.4059 -0.1581  0.5695
  367TMC3    C3 5543   4.687   0.246  15.287  1.0389  0.0687 -0.2737
  367TMC3    C4 5544   4.517   0.178  15.082  0.1039 -0.2243 -0.0636
  367TMC3    C5 5545   4.486   0.274  15.180 -0.2664  0.3319 -0.0949
  367TMC3    C6 5546   4.561   0.305  15.289 -0.8735  0.2214 -0.1687
  367TMC3     C 5547   4.692   0.006  15.012 -0.8668 -0.2871  0.5539
  367TMC3     O 5548   4.626   4.645  14.992  0.1865 -0.4000  0.6843
  367TMC3     H 5549   0.084   0.097  15.218  0.6757  0.5703 -1.9978
  367TMC3    H1 5550   4.461   0.158  14.992 -1.8199 -2.4575  1.6501
  367TMC3    H2 5551   4.535   0.383  15.359  1.6434  1.9923 -1.2124
  367TMC3    C7 5552   4.426   0.396  15.120  0.1113  0.3844  0.1028
  367TMC3    C8 5553   0.054   0.314  15.342  0.7277  0.4839  0.0499
  367TMC3    O1 5554   4.461   0.504  15.166  0.5116  0.1948 -0.0548
  367TMC3    O2 5555   0.133   0.242  15.397  0.0245  0.1894  0.2113
  368MPD2     C 5556   1.310   1.964  13.270  0.3065 -0.0874  0.7256
  368MPD2    C1 5557   1.383   2.079  13.270 -0.3489  0.8582 -0.4214
  368MPD2    C2 5558   1.482   2.099  13.173 -0.3094  0.4106  0.0942
  368MPD2    C3 5559   1.481   2.022  13.057 -0.0699  0.4443 -0.2521
  368MPD2    C4 5560   1.390   1.916  13.046  0.0654  0.1016  0.1308
  368MPD2    C5 5561   1.313   1.886  13.155  0.0413  0.1884  0.2318
  368MPD2     H 5562   1.567   2.166  13.187 -0.1950  0.3445 -0.2997
  368MPD2    H1 5563   1.402   1.843  12.967 -1.4992 -1.0842  0.9940
  368MPD2    H2 5564   1.239   1.938  13.348  0.8892 -2.8368  0.3323
  368MPD2    H3 5565   1.256   1.794  13.153  2.3085 -1.2796  2.6323
  368MPD2     N 5566   1.574   2.041  12.944  0.4873  0.3786  0.8880
  368MPD2    H5 5567   1.550   1.986  12.862 -0.2754  0.8739  0.7787
  368MPD2    N1 5568   1.350   2.181  13.366 -0.3839 -0.3627 -0.5442
  368MPD2    H7 5569   1.253   2.182  13.397 -0.1905 -2.4104  0.1590
  369TMC3    C1 5570   1.309   2.403  13.331 -0.6419  0.2489  0.0611
  369TMC3    C2 5571   1.352   2.450  13.212 -0.3571 -1.3198  0.7555
  369TMC3    C3 5572   1.284   2.423  13.092  0.0744 -0.0867 -0.6416
  369TMC3    C4 5573   1.180   2.358  13.325 -0.2064  0.1330 -0.1465
  369TMC3    C5 5574   1.108   2.334  13.214  0.3261 -0.1065 -0.1035
  369TMC3    C6 5575   1.163   2.369  13.090  0.1729 -0.1927  1.0145
  369TMC3     C 5576   1.411   2.307  13.375  0.0505 -0.1369 -0.6755
  369TMC3     O 5577   1.532   2.337  13.361  0.4344 -0.0130  0.3594
  369TMC3     H 5578   1.456   2.481  13.211 -0.0941 -2.3098 -1.3822
  369TMC3    H1 5579   1.129   2.336  13.418 -0.3379  0.0005 -0.2502
  369TMC3    H2 5580   1.109   2.359  12.996  1.2486  1.9173  0.1773
  369TMC3    C7 5581   1.003   2.239  13.227 -0.0299 -0.1746 -0.0017
  369TMC3    C8 5582   1.333   2.455  12.962  0.4364 -0.1839 -0.1022
  369TMC3    O1 5583   0.972   2.203  13.337 -0.3356  0.7265  0.2841
  369TMC3    O2 5584   1.252   2.479  12.873 -0.1217 -0.2460  0.4409
  370TMC3    C1 5585   1.029   2.978  16.234  0.1375  0.4561 -0.3002
  370TMC3    C2 5586   0.941   2.945  16.330  0.1789  0.9585  0.9801
  370TMC3    C3 5587   0.847   2.847  16.302 -0.2447  0.5140  0.1536
  370TMC3    C4 5588   1.028   2.920  16.111 -0.2493  0.3468 -0.4908
  370TMC3    C5 5589   0.958   2.809  16.100  0.1005 -0.6164 -0.0277
  370TMC3    C6 5590   0.870   2.766  16.195  0.3172 -0.0235  0.7343
  370TMC3     C 5591   1.134   3.066  16.272  0.3764  0.3004  0.2243
  370TMC3     O 5592   1.167   3.078  16.387 -0.0274 -0.1498  0.0461
  370TMC3     H 5593   0.948   3.004  16.421  0.7870  0.4576  1.2573
  370TMC3    H1 5594   1.083   2.953  16.024  2.4690  0.3504  1.2239
  370TMC3    H2 5595   0.808   2.678  16.179 -0.6835  1.0537 -1.3894
  370TMC3    C7 5596   0.984   2.733  15.982  0.5617 -0.0430 -0.0289
  370TMC3    C8 5597   0.779   2.790  16.416 -0.2971 -0.0430  0.0123
  370TMC3    O1 5598   0.979   2.804  15.880  0.5625 -0.0360 -0.2526
  370TMC3    O2 5599   0.737   2.672  16.399  0.1522 -0.4100 -0.1200
  371TMC3    C1 5600   1.897   0.877  15.532  0.1813  0.1140  0.3699
  371TMC3    C2 5601   1.764   0.871  15.571 -0.5616  0.4519  0.4888
  371TMC3    C3 5602   1.711   0.986  15.628  0.9228  0.4811 -0.3428
  371TMC3    C4 5603   1.968   0.996  15.530  0.1905 -0.5255 -0.0409
  371TMC3    C5 5604   1.909   1.105  15.581  0.3666 -0.6296  0.2470
  371TMC3    C6 5605   1.780   1.111  15.629 -0.3990  0.6712  0.2884
  371TMC3     C 5606   1.974   0.768  15.471 -0.1111 -0.4102 -0.1870
  371TMC3     O 5607   2.095   0.790  15.444  0.0112 -0.0679 -0.6164
  371TMC3     H 5608   1.710   0.777  15.579 -1.1912  0.5431 -2.5705
  371TMC3    H1 5609   2.071   0.999  15.497 -0.6290 -2.4750 -2.7054
  371TMC3    H2 5610   1.744   1.207  15.661 -0.6877 -0.0309  2.0439
  371TMC3    C7 5611   1.981   1.228  15.583  0.5174 -0.4512 -0.0460
  371TMC3    C8 5612   1.570   0.989  15.635  0.0421  0.5951  0.4386
  371TMC3    O1 5613   1.959   1.314  15.666  0.0260 -0.1794 -0.5234
  371TMC3    O2 5614   1.500   0.907  15.572  0.0509  0.0122 -0.5702
  372MPD2     C 5615   2.276   2.316  13.157 -0.0584 -0.5420  0.8132
  372MPD2    C1 5616   2.297   2.186  13.199 -0.0395  0.4174  0.0038
  372MPD2    C2 5617   2.189   2.113  13.244  0.2554 -1.1164  0.3130
  372MPD2    C3 5618   2.065   2.170  13.255  0.6948 -0.7948  0.2732
  372MPD2    C4 5619   2.051   2.304  13.230 -0.0870 -0.4843 -0.3491
  372MPD2    C5 5620   2.156   2.374  13.178  0.3473 -0.0276  0.2576
  372MPD2     H 5621   2.202   2.010  13.274  1.7484 -0.5047  1.7828
  372MPD2    H1 5622   1.959   2.362  13.240 -0.0083 -0.6661  1.3298
  372MPD2    H2 5623   2.349   2.371  13.098 -0.0762 -1.1951  0.1756
  372MPD2    H3 5624   2.143   2.479  13.154 -0.6799 -0.2777 -0.3353
  372MPD2     N 5625   1.955   2.090  13.300 -0.3661  0.3610  0.0215
  372MPD2    H5 5626   1.964   1.989  13.301 -2.1725  0.1591 -1.9997
  372MPD2    N1 5627   2.430   2.128  13.190 -0.1576 -0.1782  0.0972
  372MPD2    H7 5628   2.446   2.040  13.236 -1.6654 -0.4987  0.0268
  373TMC3    C1 5629   1.744   2.036  13.378 -0.3783 -0.1591  0.7888
  373TMC3    C2 5630   1.657   2.066  13.475  0.1859 -0.9685 -0.0253
  373TMC3    C3 5631   1.571   1.964  13.518  0.0728  0.1864 -0.0834
  373TMC3    C4 5632   1.747   1.912  13.319  0.3596  1.0398  0.2785
  373TMC3    C5 5633   1.677   1.815  13.374  0.0693 -0.3290  0.3634
  373TMC3    C6 5634   1.580   1.840  13.469 -0.5107  0.1864 -0.4367
  373TMC3     C 5635   1.835   2.141  13.339 -0.1432  0.4054 -0.3121
  373TMC3     O 5636   1.810   2.253  13.376 -0.0787  0.2455 -0.0853
  373TMC3     H 5637   1.651   2.165  13.518  1.2880 -0.2298 -1.5880
  373TMC3    H1 5638   1.812   1.888  13.236 -1.2135 -1.4276 -0.2380
  373TMC3    H2 5639   1.516   1.765  13.513  0.0945  0.0715  0.2436
  373TMC3    C7 5640   1.742   1.688  13.368 -0.1385  0.5732  0.0434
  373TMC3    C8 5641   1.511   1.969  13.653 -0.4084 -0.2666 -0.6953
  373TMC3    O1 5642   1.781   1.661  13.256  0.0758  0.0243  0.1623
  373TMC3    O2 5643   1.429   1.886  13.692 -0.1624  0.3479  0.0401
  374TMC3    C1 5644   2.168   2.596  10.001 -0.4083 -1.3934 -0.0214
  374TMC3    C2 5645   2.278   2.655   9.948  0.3618 -0.4812 -0.7661
  374TMC3    C3 5646   2.258   2.754   9.858 -0.0520  0.4980 -0.2830
  374TMC3    C4 5647   2.040   2.644   9.970 -0.0756 -0.0318  0.4753
  374TMC3    C5 5648   2.037   2.757   9.889 -0.3145 -0.1597  0.7515
  374TMC3    C6 5649   2.143   2.817   9.827 -0.1434 -0.0134  0.1300
  374TMC3     C 5650   2.176   2.477  10.084  0.0808  0.4990 -0.1556
  374TMC3     O 5651   2.067   2.422  10.083 -0.4545 -0.2327 -0.4293
  374TMC3     H 5652   2.375   2.608   9.955  1.1748  1.2642 -0.5545
  374TMC3    H1 5653   1.949   2.601  10.011  0.2918 -1.5255 -0.2819
  374TMC3    H2 5654   2.128   2.893   9.751 -0.0561  0.3556  0.4755
  374TMC3    C7 5655   1.914   2.827   9.878 -0.0944  0.1337 -0.2235
  374TMC3    C8 5656   2.378   2.833   9.814  0.1406 -1.0356 -0.2289
  374TMC3    O1 5657   1.916   2.949   9.865 -0.8227 -0.4434 -0.8200
  374TMC3    O2 5658   2.358   2.903   9.715 -0.4612 -0.2649 -0.6030
  375MPD2     C 5659   2.074   2.946  16.426 -0.1375  0.2221  0.2002
  375MPD2    C1 5660   2.160   2.884  16.511 -0.1170  0.1115  0.5250
  375MPD2    C2 5661   2.235   2.782  16.458 -0.3049 -0.0621 -0.7743
  375MPD2    C3 5662   2.230   2.750  16.328 -0.2254  0.4146 -0.3856
  375MPD2    C4 5663   2.130   2.810  16.249 -0.1401 -0.3754  0.6000
  375MPD2    C5 5664   2.051   2.913  16.295 -0.4412 -0.0416 -0.5855
  375MPD2     H 5665   2.308   2.730  16.519 -0.7626 -0.5475 -0.6322
  375MPD2    H1 5666   2.122   2.790  16.143  0.0402  0.2679  0.4662
  375MPD2    H2 5667   2.010   3.027  16.457 -1.2921 -0.1367 -1.2298
  375MPD2    H3 5668   1.977   2.966  16.238 -0.7156  1.0137  0.7662
  375MPD2     N 5669   2.309   2.656  16.259  0.2341 -0.7179 -0.1205
  375MPD2    H5 5670   2.282   2.640  16.162 -1.8860 -0.9415  0.5220
  375MPD2    N1 5671   2.173   2.913  16.650  0.2361 -0.1688  0.0883
  375MPD2    H7 5672   2.232   2.856  16.709  0.9338  0.8982  0.4237
  376TMC3    C1 5673   2.507   2.543  16.195  0.1414  0.0031  0.9570
  376TMC3    C2 5674   2.629   2.485  16.241 -0.1088 -0.0055 -0.8553
  376TMC3    C3 5675   2.699   2.413  16.149 -0.4175 -0.6102 -0.1723
  376TMC3    C4 5676   2.466   2.527  16.067  0.4451 -0.0160  0.1597
  376TMC3    C5 5677   2.542   2.452  15.977  0.2286 -0.3327 -0.0541
  376TMC3    C6 5678   2.663   2.407  16.015  0.4631  0.4636  0.4245
  376TMC3     C 5679   2.430   2.621  16.296 -0.6724 -0.4357 -0.9190
  376TMC3     O 5680   2.481   2.655  16.398 -0.2368 -0.2343 -0.4946
  376TMC3     H 5681   2.679   2.504  16.335 -2.3203  3.1036 -0.2868
  376TMC3    H1 5682   2.377   2.580  16.036  0.3014  0.7049  1.8045
  376TMC3    H2 5683   2.731   2.350  15.953  1.7802  2.9930 -0.4554
  376TMC3    C7 5684   2.513   2.486  15.839 -0.1798 -0.1952 -0.3532
  376TMC3    C8 5685   2.837   2.399  16.176  0.3911  0.5135  0.6063
  376TMC3    O1 5686   2.445   2.586  15.817  0.1781  0.4818 -0.2319
  376TMC3    O2 5687   2.918   2.448  16.097  0.3233 -0.3542  0.3523
  377MPD2     C 5688   0.909   2.582  12.906  0.3990  0.4457  0.5952
  377MPD2    C1 5689   0.819   2.518  12.819 -0.1687  0.6331 -0.0397
  377MPD2    C2 5690   0.717   2.445  12.874  0.0037 -0.0281  0.1488
  377MPD2    C3 5691   0.702   2.429  13.013 -0.7381 -0.3438 -0.6302
  377MPD2    C4 5692   0.794   2.492  13.096  0.6186  0.4798 -0.3304
  377MPD2    C5 5693   0.891   2.565  13.039 -0.5593 -0.3048  0.6718
  377MPD2     H 5694   0.650   2.392  12.807  1.9084 -1.7000 -0.4237
  377MPD2    H1 5695   0.787   2.478  13.203 -4.1706  2.3517 -0.4104
  377MPD2    H2 5696   0.995   2.641  12.876 -1.3141  2.3191 -0.6460
  377MPD2    H3 5697   0.960   2.616  13.105  1.4542 -1.7765 -0.3019
  377MPD2     N 5698   0.610   2.343  13.072 -0.0108 -0.3968  0.6556
  377MPD2    H5 5699   0.610   2.343  13.173  0.0282 -3.3128  0.6643
  377MPD2    N1 5700   0.832   2.528  12.676  0.0444 -0.1315 -0.0076
  377MPD2    H7 5701   0.911   2.579  12.639  1.9260 -1.7453  1.7235
  378TMC3    C1 5702   0.790   2.530  12.211  0.7337  0.4509  0.2453
  378TMC3    C2 5703   0.730   2.534  12.337  0.1612  0.1714 -0.2603
  378TMC3    C3 5704   0.800   2.497  12.447 -0.3359  0.3394 -0.0290
  378TMC3    C4 5705   0.913   2.465  12.198 -0.8913 -0.2064  0.2059
  378TMC3    C5 5706   0.985   2.425  12.312  0.0903  0.9336  0.5134
  378TMC3    C6 5707   0.926   2.445  12.440  0.2522  0.3532 -0.9927
  378TMC3     C 5708   0.700   2.550  12.102 -0.3035  0.0854 -0.2605
  378TMC3     O 5709   0.579   2.562  12.126  0.4582  0.2565  0.2023
  378TMC3     H 5710   0.631   2.575  12.356 -1.1491 -2.2636 -1.8952
  378TMC3    H1 5711   0.955   2.442  12.101  0.6503 -0.2519  0.8973
  378TMC3    H2 5712   0.967   2.401  12.530 -3.2060  2.2814  1.5117
  378TMC3    C7 5713   1.124   2.413  12.322 -0.5093  1.3562 -0.4675
  378TMC3    C8 5714   0.736   2.507  12.579  0.3098 -0.0949 -0.8440
  378TMC3    O1 5715   1.165   2.401  12.437 -0.2698 -0.3121  0.3163
  378TMC3    O2 5716   0.616   2.483  12.582  0.4753 -0.0813  0.1671
  379MPD2     C 5717   0.833   0.756  16.125  0.5963 -0.9020  0.8118
  379MPD2    C1 5718   0.899   0.663  16.048  0.0255  0.3729 -0.0768
  379MPD2    C2 5719   1.001   0.586  16.102  0.0032 -0.4343  0.1359
  379MPD2    C3 5720   1.041   0.603  16.233  0.8029  0.3581 -0.2409
  379MPD2    C4 5721   0.968   0.692  16.312  0.1669  0.0129  0.0184
  379MPD2    C5 5722   0.863   0.760  16.260  0.3796  0.7436  0.2704
  379MPD2     H 5723   1.050   0.513  16.039  1.0282 -2.2654  3.0206
  379MPD2    H1 5724   0.998   0.721  16.412  2.0762 -1.4006 -0.1323
  379MPD2    H2 5725   0.752   0.824  16.100  0.8504 -1.2976 -1.0133
  379MPD2    H3 5726   0.805   0.825  16.325  0.3554 -1.4525  2.4186
  379MPD2     N 5727   1.135   0.530  16.304 -0.0897 -0.8882  0.0064
  379MPD2    H5 5728   1.147   0.539  16.404  1.4649 -2.2273 -0.0430
  379MPD2    N1 5729   0.864   0.652  15.916 -0.0818 -0.5727 -0.6764
  379MPD2    H7 5730   0.782   0.701  15.883 -0.3881 -1.2235 -0.8668
  380TMC3    C1 5731   0.870   0.596  15.686  0.2687 -0.2233 -0.6010
  380TMC3    C2 5732   0.937   0.530  15.581  0.1830 -1.1635  0.1089
  380TMC3    C3 5733   0.869   0.525  15.463 -0.4597 -0.1317  0.3990
  380TMC3    C4 5734   0.738   0.645  15.674  1.0943  0.5021  0.1179
  380TMC3    C5 5735   0.684   0.640  15.546 -0.1573  0.0624 -0.0669
  380TMC3    C6 5736   0.749   0.588  15.439  0.0063 -0.5355  0.2808
  380TMC3     C 5737   0.931   0.590  15.817 -0.4630 -0.3240  0.0307
  380TMC3     O 5738   1.030   0.518  15.819 -0.9958  0.5062 -0.7637
  380TMC3     H 5739   1.040   0.497  15.592  0.9186  0.6238 -1.4488
  380TMC3    H1 5740   0.677   0.685  15.755 -1.6613 -0.0003 -1.7314
  380TMC3    H2 5741   0.718   0.598  15.335  0.4201  0.6468  0.2710
  380TMC3    C7 5742   0.548   0.684  15.531  0.0720 -0.7017 -0.0528
  380TMC3    C8 5743   0.944   0.480  15.348 -0.5332  0.4023 -0.5090
  380TMC3    O1 5744   0.495   0.749  15.620  0.2908  0.2011 -0.2510
  380TMC3    O2 5745   0.940   0.540  15.243  0.2786 -0.1659  0.5924
  381TMC3    C1 5746   0.589   2.073  16.330 -0.2497 -0.1697 -0.0375
  381TMC3    C2 5747   0.714   2.124  16.296  0.1797 -0.5582 -0.2444
  381TMC3    C3 5748   0.752   2.242  16.350  0.2680  0.5390 -0.2423
  381TMC3    C4 5749   0.506   2.133  16.417 -0.0587  0.8331 -0.0117
  381TMC3    C5 5750   0.546   2.249  16.471  0.2355  0.1951 -0.3029
  381TMC3    C6 5751   0.668   2.308  16.436  0.2150 -0.7801  0.2442
  381TMC3     C 5752   0.539   1.955  16.272 -0.2203  0.0268 -0.2348
  381TMC3     O 5753   0.455   1.892  16.340  0.1350 -0.7009 -0.0209
  381TMC3     H 5754   0.783   2.073  16.230  0.6329  0.6550 -0.7064
  381TMC3    H1 5755   0.421   2.075  16.450 -0.4490  1.7814  0.6577
  381TMC3    H2 5756   0.685   2.410  16.468 -0.9964 -0.0929 -1.3025
  381TMC3    C7 5757   0.501   2.251  16.613 -0.1217 -0.4197 -0.0517
  381TMC3    C8 5758   0.882   2.297  16.319  0.2587 -0.2422  0.0352
  381TMC3    O1 5759   0.500   2.144  16.665  0.5657 -0.2485  0.2639
  381TMC3    O2 5760   0.938   2.241  16.221 -0.1360 -0.4043 -0.4953
  382MPD2     C 5761   4.609   4.476  16.758  0.0597 -0.3165  0.5597
  382MPD2    C1 5762   4.644   4.477  16.892 -0.2909 -0.1053 -0.0844
  382MPD2    C2 5763   4.657   4.351  16.956 -0.1495 -0.0245  0.4600
  382MPD2    C3 5764   4.655   4.233  16.879 -0.2000  0.2987 -0.6137
  382MPD2    C4 5765   4.626   4.232  16.748 -0.0137 -0.0997 -0.4902
  382MPD2    C5 5766   4.617   4.357  16.690  0.3725 -0.3092  0.0401
  382MPD2     H 5767   4.654   4.356  17.065  3.1736 -0.3365  0.5711
  382MPD2    H1 5768   4.619   4.143  16.687 -2.7945 -0.2062 -0.0223
  382MPD2    H2 5769   4.586   4.569  16.706 -0.9998  1.1187  3.5703
  382MPD2    H3 5770   4.606   4.361  16.582 -0.7382 -1.0665  0.1260
  382MPD2     N 5771   4.673   4.109  16.938 -0.0445  0.0673  0.0053
  382MPD2    H5 5772   4.659   4.034  16.871 -0.6388  2.2037 -2.2718
  382MPD2    N1 5773   4.657   4.592  16.967 -0.0715  0.5381 -0.0587
  382MPD2    H7 5774   4.683   4.572  17.063 -1.4978 -0.7577  0.0566
  383TMC3    C1 5775   0.002   3.949  17.095 -0.1358  0.0883  0.0977
  383TMC3    C2 5776   4.641   3.861  17.057  0.2579  0.0519 -0.2030
  383TMC3    C3 5777   4.628   3.751  17.131 -0.9386 -0.9238  1.0290
  383TMC3    C4 5778   0.080   3.928  17.211  0.1804 -0.7841 -0.1645
  383TMC3    C5 5779   0.065   3.808  17.273 -0.0413 -0.2038  0.3567
  383TMC3    C6 5780   4.706   3.723  17.236  0.1987  0.1800 -0.8924
  383TMC3     C 5781   4.735   4.089  17.057 -0.4251 -0.2987  0.1490
  383TMC3     O 5782   0.064   4.171  17.114  0.5958 -0.2814 -0.2515
  383TMC3     H 5783   4.572   3.884  16.978  0.1969 -0.4745 -0.3013
  383TMC3    H1 5784   0.161   3.997  17.235  1.0482 -1.0451 -2.2551
  383TMC3    H2 5785   4.702   3.626  17.284  0.3985  0.3207 -0.5928
  383TMC3    C7 5786   0.153   3.763  17.375  0.1302  0.5231 -0.1606
  383TMC3    C8 5787   4.513   3.670  17.089  0.6485  0.0596 -0.4563
  383TMC3    O1 5788   0.101   3.684  17.455 -0.2174 -0.6269 -0.0656
  383TMC3    O2 5789   4.478   3.674  16.974 -0.0120  0.4822  0.1334
  384MPD2     C 5790   1.960   0.767  11.801  0.1678 -0.5815 -0.4476
  384MPD2    C1 5791   2.012   0.713  11.916 -0.3835  1.0877 -0.2938
  384MPD2    C2 5792   2.140   0.665  11.904  1.3002  0.2027 -0.4573
  384MPD2    C3 5793   2.204   0.656  11.780 -0.1839  0.1217  0.7364
  384MPD2    C4 5794   2.147   0.703  11.668  0.0447 -0.2060  0.3868
  384MPD2    C5 5795   2.022   0.756  11.680  0.2120 -0.6466 -0.6744
  384MPD2     H 5796   2.193   0.623  11.989 -0.1263  0.0414  0.3606
  384MPD2    H1 5797   2.193   0.696  11.570 -0.8754 -1.2674  0.0332
  384MPD2    H2 5798   1.857   0.798  11.797  0.1787 -0.5879 -0.7805
  384MPD2    H3 5799   1.973   0.788  11.588 -3.9728 -0.2781  1.6773
  384MPD2     N 5800   2.328   0.585  11.780 -0.8687 -0.1430 -0.3381
  384MPD2    H5 5801   2.353   0.564  11.876 -1.2920 -0.7288 -0.3580
  384MPD2    N1 5802   1.925   0.698  12.026 -0.1718 -0.3204 -0.1958
  384MPD2    H7 5803   1.832   0.739  12.017  0.5596  1.3795  0.0599
  385TMC3    C1 5804   2.540   0.492  11.717  0.2218 -0.4489 -0.0986
  385TMC3    C2 5805   2.551   0.362  11.670 -0.0335 -0.5317  0.5682
  385TMC3    C3 5806   2.594   0.271  11.760  0.6672 -0.1411 -0.5371
  385TMC3    C4 5807   2.557   0.513  11.852  0.8416  0.1056  0.0889
  385TMC3    C5 5808   2.578   0.415  11.941 -0.2484 -0.3500  0.0341
  385TMC3    C6 5809   2.608   0.294  11.894  0.7819 -0.1756 -0.5976
  385TMC3     C 5810   2.415   0.556  11.671 -0.4789 -0.3800 -0.5256
  385TMC3     O 5811   2.398   0.582  11.554 -0.0869 -0.4172 -0.5713
  385TMC3     H 5812   2.536   0.339  11.566  1.0148  0.2964  0.2333
  385TMC3    H1 5813   2.552   0.613  11.892 -1.7292  0.6452 -1.6017
  385TMC3    H2 5814   2.633   0.208  11.955  0.5861  0.7109  0.7315
  385TMC3    C7 5815   2.490   0.432  12.061  0.4177  0.2311 -0.1052
  385TMC3    C8 5816   2.618   0.137  11.712  0.3154 -0.0384  0.0762
  385TMC3    O1 5817   2.421   0.535  12.055  0.4537  0.0500 -0.0464
  385TMC3    O2 5818   2.698   0.073  11.780 -0.0640  0.1434  0.4785
  386TMC3    C1 5819   2.312   2.586  11.520 -0.3137  0.9286  0.3018
  386TMC3    C2 5820   2.317   2.660  11.404  0.1768 -0.0108  0.0999
  386TMC3    C3 5821   2.236   2.769  11.401 -0.0852  0.5496 -0.6425
  386TMC3    C4 5822   2.239   2.625  11.628 -0.4955 -0.2139 -0.1498
  386TMC3    C5 5823   2.173   2.745  11.629  0.4105 -0.2675 -0.6124
  386TMC3    C6 5824   2.169   2.818  11.518  0.0556  0.0621 -0.2060
  386TMC3     C 5825   2.383   2.459  11.525 -0.0776 -0.5659  0.4735
  386TMC3     O 5826   2.493   2.459  11.467 -0.3606 -0.3957  0.4554
  386TMC3     H 5827   2.397   2.634  11.336 -1.3511  0.6270 -1.9491
  386TMC3    H1 5828   2.230   2.563  11.716 -0.4799  1.9854  1.4209
  386TMC3    H2 5829   2.125   2.917  11.523  2.4842  1.1415 -0.1771
  386TMC3    C7 5830   2.053   2.729  11.698 -0.0422  0.3926  0.9096
  386TMC3    C8 5831   2.174   2.822  11.287 -0.1630 -0.3288  0.4265
  386TMC3    O1 5832   2.062   2.715  11.821  0.1125 -0.0098  0.3319
  386TMC3    O2 5833   2.082   2.903  11.303 -0.3848 -0.2810 -0.2714
  387MPD2     C 5834   4.191   2.432  10.012  0.0065  0.0344  0.8554
  387MPD2    C1 5835   4.267   2.427   9.899 -0.2061 -0.3009  0.6834
  387MPD2    C2 5836   4.240   2.328   9.808  0.8013 -0.3454  0.0429
  387MPD2    C3 5837   4.156   2.215   9.833  0.3430  0.6628 -0.1439
  387MPD2    C4 5838   4.095   2.216   9.954 -0.0986  0.7641  0.3854
  387MPD2    C5 5839   4.106   2.326  10.037 -0.3288 -0.5428 -0.1257
  387MPD2     H 5840   4.302   2.310   9.721 -2.2288 -3.2001 -1.5756
  387MPD2    H1 5841   4.045   2.129   9.995 -0.2916  0.6139 -0.1707
  387MPD2    H2 5842   4.210   2.507  10.088 -1.4437  0.7167  0.5475
  387MPD2    H3 5843   4.052   2.319  10.130 -0.6163  1.8904 -0.1180
  387MPD2     N 5844   4.144   2.112   9.736 -0.5205  0.5608 -0.2952
  387MPD2    H5 5845   4.180   2.127   9.642 -0.4817 -0.3740 -0.4335
  387MPD2    N1 5846   4.379   2.520   9.879 -0.5704  0.5920 -0.1877
  387MPD2    H7 5847   4.447   2.492   9.809  0.1996  2.3700 -0.1584
  388TMC3    C1 5848   4.545   2.665   9.954  0.3651  0.1499  0.1259
  388TMC3    C2 5849   4.596   2.788   9.946 -0.9978  0.4423 -0.0967
  388TMC3    C3 5850   4.723   2.806   9.907 -0.8877 -0.1338 -0.2419
  388TMC3    C4 5851   4.620   2.554   9.932 -0.5114  0.6943 -0.0843
  388TMC3    C5 5852   0.010   2.577   9.884 -0.5917  1.1237  0.1867
  388TMC3    C6 5853   0.062   2.699   9.872  0.1206  0.2086  0.4642
  388TMC3     C 5854   4.405   2.632   9.956 -0.5801 -1.0948  0.5616
  388TMC3     O 5855   4.332   2.703  10.026 -0.1116 -0.3870 -0.3614
  388TMC3     H 5856   4.530   2.874   9.954 -1.8695 -0.0687 -1.5318
  388TMC3    H1 5857   4.590   2.466   9.987 -2.8668  0.6578 -1.4570
  388TMC3    H2 5858   0.157   2.712   9.821 -1.7535  1.0711 -2.7995
  388TMC3    C7 5859   0.089   2.457   9.844  0.1601  0.7619  0.7345
  388TMC3    C8 5860   0.045   2.937   9.885 -0.2650 -0.0595 -1.1152
  388TMC3    O1 5861   0.212   2.471   9.836 -0.0561 -0.5688 -0.4085
  388TMC3    O2 5862   0.126   2.963   9.797 -0.6449  0.3108 -0.2016
  389MPD2     C 5863   4.020   0.656  11.152 -0.6896  0.3032  0.1307
  389MPD2    C1 5864   3.917   0.600  11.079 -0.2548  0.3321  0.0012
  389MPD2    C2 5865   3.838   0.511  11.148 -0.2167 -0.4260 -0.3698
  389MPD2    C3 5866   3.825   0.508  11.291 -0.4309  0.0554 -0.1133
  389MPD2    C4 5867   3.923   0.577  11.363 -0.7238  0.7032 -0.7671
  389MPD2    C5 5868   4.022   0.644  11.292 -0.8320 -0.1107 -0.3812
  389MPD2     H 5869   3.761   0.459  11.093 -0.6146 -1.3132  1.0317
  389MPD2    H1 5870   3.934   0.575  11.471  2.7395 -0.5908 -1.1334
  389MPD2    H2 5871   4.107   0.698  11.103 -1.6450  0.7580 -1.1738
  389MPD2    H3 5872   4.101   0.681  11.356 -0.7059 -1.8729  0.4750
  389MPD2     N 5873   3.723   0.446  11.361  0.8157 -0.3248  0.7261
  389MPD2    H5 5874   3.715   0.455  11.462 -0.4408 -0.6349  0.6549
  389MPD2    N1 5875   3.911   0.617  10.943 -0.1901 -0.8277 -0.7332
  389MPD2    H7 5876   3.993   0.644  10.890 -0.8025 -0.9691 -1.7489
  390TMC3    C1 5877   3.516   0.343  11.405  0.0418 -0.1726  0.0732
  390TMC3    C2 5878   3.486   0.438  11.501  0.0437  0.4004 -0.1205
  390TMC3    C3 5879   3.357   0.425  11.537  0.3680  0.5617  0.1954
  390TMC3    C4 5880   3.434   0.247  11.354 -0.8986 -0.1087  0.2452
  390TMC3    C5 5881   3.311   0.241  11.408  0.6132  0.1563  0.5956
  390TMC3    C6 5882   3.270   0.327  11.503  0.0889  0.0149  0.2130
  390TMC3     C 5883   3.618   0.373  11.307  0.1283  0.1748 -0.0684
  390TMC3     O 5884   3.617   0.319  11.199  0.2803  0.0599  0.4710
  390TMC3     H 5885   3.552   0.514  11.541 -0.6989  0.7728  0.3882
  390TMC3    H1 5886   3.462   0.180  11.274  0.9778  1.9247 -0.8140
  390TMC3    H2 5887   3.169   0.345  11.538 -0.5449 -1.0941 -1.0400
  390TMC3    C7 5888   3.244   0.114  11.394 -0.6184 -0.4686  0.7930
  390TMC3    C8 5889   3.352   0.426  11.678  0.1245  0.3700 -0.6881
  390TMC3    O1 5890   3.279   0.039  11.304  0.0915 -0.3581  0.5838
  390TMC3    O2 5891   3.331   0.523  11.749 -0.0128  0.0241 -0.1493
  391MPD2     C 5892   3.482   2.111  10.682  0.1302  0.0646 -0.1932
  391MPD2    C1 5893   3.476   2.240  10.727 -0.0291  0.1783  0.6251
  391MPD2    C2 5894   3.430   2.331  10.632 -0.0921 -0.6987  0.2111
  391MPD2    C3 5895   3.364   2.296  10.514  0.2232 -0.0062 -0.1820
  391MPD2    C4 5896   3.356   2.162  10.486  0.5283 -0.2441 -0.3849
  391MPD2    C5 5897   3.416   2.069  10.570  0.4532  0.0922  0.1888
  391MPD2     H 5898   3.441   2.437  10.653  0.7406 -0.5816 -0.8557
  391MPD2    H1 5899   3.311   2.123  10.395  1.4473 -1.3261 -0.3756
  391MPD2    H2 5900   3.517   2.033  10.748 -0.8401 -0.6232 -0.4966
  391MPD2    H3 5901   3.400   1.963  10.552  1.0041  0.0097  0.1866
  391MPD2     N 5902   3.317   2.400  10.436 -0.4223  0.1145 -0.2872
  391MPD2    H5 5903   3.322   2.490  10.484  2.4950 -0.4633  0.4618
  391MPD2    N1 5904   3.527   2.272  10.852 -0.2634  0.0647  0.0290
  391MPD2    H7 5905   3.545   2.198  10.918 -0.7703  0.4360  0.5865
  392TMC3    C1 5906   3.231   2.522  10.255 -0.6449 -0.7505 -0.5921
  392TMC3    C2 5907   3.127   2.532  10.173 -0.1706  0.8563 -0.1197
  392TMC3    C3 5908   3.095   2.654  10.125 -0.2763 -0.5358 -0.3328
  392TMC3    C4 5909   3.283   2.629  10.316 -0.0411 -0.2288  0.2618
  392TMC3    C5 5910   3.236   2.753  10.278 -0.0052  0.0580 -0.0086
  392TMC3    C6 5911   3.150   2.769  10.176 -0.0697  0.0164  0.0527
  392TMC3     C 5912   3.263   2.390  10.310 -0.3858  0.0723  0.4561
  392TMC3     O 5913   3.249   2.294  10.234 -0.2403 -0.1685 -0.3414
  392TMC3     H 5914   3.097   2.442  10.121  0.6132  0.0305  0.8564
  392TMC3    H1 5915   3.371   2.627  10.379  1.6844  1.2541 -2.0950
  392TMC3    H2 5916   3.117   2.871  10.159  1.1982  0.4288  0.0773
  392TMC3    C7 5917   3.327   2.859  10.309 -0.0767  0.0868 -0.6349
  392TMC3    C8 5918   2.967   2.675  10.056  0.1146  0.4064 -0.0121
  392TMC3    O1 5919   3.378   2.858  10.417 -0.1287 -0.4783 -0.1458
  392TMC3    O2 5920   2.887   2.580  10.065  0.3201 -0.0868 -0.0001
  393TMC3    C1 5921   1.983   0.332  10.651  0.2223  0.1546  0.0302
  393TMC3    C2 5922   1.966   0.330  10.789  0.0661 -0.0250 -0.2314
  393TMC3    C3 5923   2.040   0.236  10.855 -0.1413 -0.2864 -0.5664
  393TMC3    C4 5924   2.062   0.246  10.584 -0.1693 -0.6147 -0.3259
  393TMC3    C5 5925   2.124   0.147  10.652 -0.4271 -0.5512  0.1817
  393TMC3    C6 5926   2.117   0.147  10.788 -0.2191  0.1348 -0.1437
  393TMC3     C 5927   1.928   0.447  10.571  0.3070  0.1843 -0.1424
  393TMC3     O 5928   1.950   0.449  10.447  0.0475  0.1991 -0.3028
  393TMC3     H 5929   1.907   0.398  10.848 -2.8138 -1.2029 -1.7709
  393TMC3    H1 5930   2.065   0.241  10.476 -1.6412 -1.2541 -0.3333
  393TMC3    H2 5931   2.159   0.064  10.844 -1.8445  1.0946  2.4826
  393TMC3    C7 5932   2.179   0.035  10.575  0.5149 -0.3208 -0.3693
  393TMC3    C8 5933   2.015   0.209  10.995  0.2514 -0.3260  0.0967
  393TMC3    O1 5934   2.136   0.031  10.460  0.0658  0.3848  0.2768
  393TMC3    O2 5935   2.096   0.147  11.060 -0.5621 -0.4102 -0.1480
  394TMC3    C1 5936   3.796   0.619  10.731  0.2640 -0.1771 -0.3965
  394TMC3    C2 5937   3.672   0.621  10.671  0.6708 -1.3560 -0.5904
  394TMC3    C3 5938   3.672   0.619  10.535 -0.0876  0.7508  0.0543
  394TMC3    C4 5939   3.916   0.619  10.667 -0.4694 -0.7522  0.5886
  394TMC3    C5 5940   3.903   0.627  10.530 -0.4201  0.1949  0.0943
  394TMC3    C6 5941   3.784   0.623  10.460 -0.3361  0.3189  0.7526
  394TMC3     C 5942   3.790   0.604  10.878 -0.6238  1.2547  0.1915
  394TMC3     O 5943   3.679   0.583  10.926 -0.4432 -0.0996  0.1178
  394TMC3     H 5944   3.578   0.598  10.720  0.7617 -2.7793 -1.0708
  394TMC3    H1 5945   4.015   0.610  10.711  0.0598  0.8842 -0.2948
  394TMC3    H2 5946   3.781   0.647  10.354 -0.8771  2.3182  1.2135
  394TMC3    C7 5947   4.018   0.691  10.459 -0.4685  0.1859  0.1930
  394TMC3    C8 5948   3.558   0.543  10.470 -0.3716 -0.5039 -0.0553
  394TMC3    O1 5949   3.979   0.745  10.360 -0.0092 -0.3551 -0.2379
  394TMC3    O2 5950   3.450   0.545  10.526  0.2568 -0.0463 -0.2336
  395TMC3    C1 5951   3.251   2.684  14.991 -0.3857  1.0656 -0.6650
  395TMC3    C2 5952   3.143   2.694  14.912  0.4340  0.5793 -0.1650
  395TMC3    C3 5953   3.145   2.779  14.796 -0.0534  0.2377  0.5197
  395TMC3    C4 5954   3.363   2.757  14.961 -0.2703 -0.5240 -0.0700
  395TMC3    C5 5955   3.369   2.832  14.843  1.1341  0.5458  0.4887
  395TMC3    C6 5956   3.260   2.850  14.761  0.3381 -0.1318 -0.0230
  395TMC3     C 5957   3.266   2.569  15.085 -0.4801  0.4658 -0.8946
  395TMC3     O 5958   3.360   2.567  15.162  0.3243 -0.2382  0.4542
  395TMC3     H 5959   3.054   2.638  14.937  0.3950  0.0162 -1.5847
  395TMC3    H1 5960   3.448   2.739  15.026  0.7002  0.5562 -1.0247
  395TMC3    H2 5961   3.257   2.939  14.699  0.7550  0.0615  0.2358
  395TMC3    C7 5962   3.490   2.916  14.823  0.5212  0.9697  0.2995
  395TMC3    C8 5963   3.022   2.853  14.780  0.1746 -0.6029  0.2332
  395TMC3    O1 5964   3.560   2.936  14.923  0.1824  0.0714 -0.1865
  395TMC3    O2 5965   3.031   2.973  14.789 -0.1860 -0.0918 -0.1065
  396MPD2     C 5966   2.783   3.612  16.796  0.7638 -0.0783  0.3144
  396MPD2    C1 5967   2.815   3.715  16.887 -0.6149 -0.7618 -0.4999
  396MPD2    C2 5968   2.894   3.826  16.848 -0.3141 -0.0081 -0.7069
  396MPD2    C3 5969   2.936   3.834  16.718 -0.2345 -0.4482  0.1503
  396MPD2    C4 5970   2.913   3.730  16.631  0.2527  0.0626 -0.7310
  396MPD2    C5 5971   2.836   3.627  16.672  0.4137 -0.7869  0.0569
  396MPD2     H 5972   2.916   3.903  16.920 -1.0657 -0.6184  0.1793
  396MPD2    H1 5973   2.941   3.724  16.527  1.4786  1.6718 -0.4935
  396MPD2    H2 5974   2.709   3.538  16.827 -0.8822  0.4569 -2.3596
  396MPD2    H3 5975   2.821   3.553  16.595 -0.4456 -0.2943 -0.2511
  396MPD2     N 5976   3.004   3.953  16.693  0.3563 -0.5522 -0.0951
  396MPD2    H5 5977   3.008   4.025  16.765 -0.8071 -0.1019 -0.4739
  396MPD2    N1 5978   2.760   3.715  17.013  0.2278  0.2464 -0.1884
  396MPD2    H7 5979   2.724   3.625  17.044 -1.4394  0.4053 -1.6455
  397TMC3    C1 5980   2.808   3.764  17.221  0.3877  0.1016  0.5876
  397TMC3    C2 5981   2.944   3.801  17.233 -0.6880  0.7362  0.4781
  397TMC3    C3 5982   3.036   3.698  17.255  0.1937 -0.8360  0.2792
  397TMC3    C4 5983   2.772   3.635  17.250 -0.2931  0.7002  0.3591
  397TMC3    C5 5984   2.860   3.539  17.282  0.1842 -0.6783  0.2736
  397TMC3    C6 5985   2.991   3.571  17.288  0.0092 -0.3866  0.5027
  397TMC3     C 5986   2.765   3.820  17.101  0.0321  0.2207  0.3600
  397TMC3     O 5987   2.764   3.938  17.080 -0.1016  0.0404 -0.5135
  397TMC3     H 5988   2.961   3.894  17.179  2.1546 -0.5743 -0.8666
  397TMC3    H1 5989   2.665   3.616  17.254 -0.3391  0.8802  0.0400
  397TMC3    H2 5990   3.059   3.487  17.300 -1.0878 -1.2468  0.7477
  397TMC3    C7 5991   2.830   3.444  17.393  0.1407  0.0383  0.0861
  397TMC3    C8 5992   3.123   3.679  17.141 -0.6172 -0.6874 -0.2308
  397TMC3    O1 5993   2.724   3.384  17.383  0.4761 -0.4498  0.5911
  397TMC3    O2 5994   3.131   3.570  17.085 -0.0367 -0.4141 -0.3303
  398MPD2     C 5995   0.969   0.823  17.576  0.2544 -0.5637  0.2654
  398MPD2    C1 5996   1.064   0.733  17.608  1.2305  0.2269 -0.8730
  398MPD2    C2 5997   1.194   0.763  17.574 -0.0691  0.5451  0.2182
  398MPD2    C3 5998   1.235   0.868  17.491  0.2450 -0.7400 -0.2155
  398MPD2    C4 5999   1.131   0.958  17.449  0.3559  0.5744  0.3154
  398MPD2    C5 6000   1.007   0.928  17.502  0.4149 -0.1025 -0.2047
  398MPD2     H 6001   1.276   0.696  17.599 -1.6279 -0.6703  2.0467
  398MPD2    H1 6002   1.154   1.044  17.388  1.6936  0.1386  0.1918
  398MPD2    H2 6003   0.866   0.823  17.611  0.4775 -1.4430  0.9256
  398MPD2    H3 6004   0.920   0.983  17.465 -2.0747 -3.2746  0.9369
  398MPD2     N 6005   1.371   0.875  17.459 -0.5021 -0.0910 -0.1129
  398MPD2    H5 6006   1.431   0.801  17.494 -0.2735  0.9325  1.6655
  398MPD2    N1 6007   1.037   0.614  17.674  0.7781  0.2082  0.1571
  398MPD2    H7 6008   1.111   0.545  17.666 -1.6637 -2.7114  3.3083
  399TMC3    C1 6009   0.929   0.442   0.059 -0.2962  0.1758 -0.8101
  399TMC3    C2 6010   1.061   0.394   0.082 -0.1108 -0.6892 -0.0434
  399TMC3    C3 6011   1.075   0.279   0.156  0.0578 -0.0366  0.2470
  399TMC3    C4 6012   0.815   0.382   0.113 -0.0242  0.2772 -0.3206
  399TMC3    C5 6013   0.831   0.269   0.180  0.1229 -0.1715  0.3282
  399TMC3    C6 6014   0.959   0.216   0.204 -0.3082 -0.3031 -0.2497
  399TMC3     C 6015   0.917   0.573  17.737  0.2401  0.1303  0.1703
  399TMC3     O 6016   0.807   0.622  17.749  0.1172 -0.2318  0.3399
  399TMC3     H 6017   1.148   0.442   0.039 -1.1365  0.7897 -0.4628
  399TMC3    H1 6018   0.716   0.412   0.081  0.0380  0.7487 -0.0637
  399TMC3    H2 6019   0.960   0.119   0.253  0.2519 -0.0184  0.2988
  399TMC3    C7 6020   0.715   0.189   0.212  0.1317  0.1125 -0.2590
  399TMC3    C8 6021   1.205   0.217   0.144 -0.9025 -0.2644  0.2544
  399TMC3    O1 6022   0.730   0.077   0.259 -0.5015 -0.0973 -0.0508
  399TMC3    O2 6023   1.297   0.281   0.095 -0.1238  0.0228  0.1361
  400TMC3    C1 6024   4.441   3.283  16.923  0.1718  0.2735 -0.3686
  400TMC3    C2 6025   4.372   3.166  16.902 -0.0092 -0.1020  0.1715
  400TMC3    C3 6026   4.320   3.152  16.779  1.0836  0.5298 -0.4997
  400TMC3    C4 6027   4.466   3.375  16.829  0.3373  0.3871 -0.6288
  400TMC3    C5 6028   4.403   3.354  16.711 -0.0157 -0.0348  0.3579
  400TMC3    C6 6029   4.327   3.246  16.684  0.5896 -0.0458 -0.2759
  400TMC3     C 6030   4.525   3.283  17.045  0.0783 -0.1186  0.1833
  400TMC3     O 6031   4.489   3.205  17.132  0.2399  0.9308  0.0724
  400TMC3     H 6032   4.356   3.088  16.976 -1.3039  0.3027  0.3100
  400TMC3    H1 6033   4.529   3.462  16.838  1.3257 -0.4324  0.2120
  400TMC3    H2 6034   4.287   3.232  16.584 -0.6253 -0.8674  0.3244
  400TMC3    C7 6035   4.393   3.472  16.621  0.5188 -0.1969 -0.5053
  400TMC3    C8 6036   4.212   3.065  16.770  0.1761 -0.1269 -0.2975
  400TMC3    O1 6037   4.381   3.448  16.503 -0.5874  0.4523 -0.3021
  400TMC3    O2 6038   4.144   3.050  16.870 -0.1228  0.1797  0.0343
  401MPD2     C 6039   2.589   2.347   0.676  0.2401  0.3794 -0.1323
  401MPD2    C1 6040   2.708   2.321   0.745 -0.3653 -0.4157 -0.3384
  401MPD2    C2 6041   2.778   2.205   0.741 -0.8780 -0.0367  0.0866
  401MPD2    C3 6042   2.732   2.099   0.661  0.1003  0.9748  0.2825
  401MPD2    C4 6043   2.617   2.121   0.598  0.1092  0.7042 -0.5792
  401MPD2    C5 6044   2.551   2.240   0.599  0.5206  0.3080  0.8573
  401MPD2     H 6045   2.868   2.198   0.801 -0.9967  1.2628  0.4105
  401MPD2    H1 6046   2.569   2.045   0.538  2.2627 -3.1120  2.5137
  401MPD2    H2 6047   2.540   2.443   0.661 -0.7101 -0.0258  0.3654
  401MPD2    H3 6048   2.466   2.250   0.532  1.1539 -3.4987 -0.5652
  401MPD2     N 6049   2.808   1.979   0.658 -0.1154 -0.1887 -0.6871
  401MPD2    H5 6050   2.884   1.972   0.724 -0.6479  0.9125  0.0401
  401MPD2    N1 6051   2.769   2.429   0.810  0.0991  0.1565 -0.4762
  401MPD2    H7 6052   2.853   2.409   0.863 -1.2222 -1.5791  0.9300
  402TMC3    C1 6053   2.890   1.766   0.599  0.5027 -0.4382  0.7931
  402TMC3    C2 6054   2.950   1.750   0.723 -0.3423  0.3770 -0.0679
  402TMC3    C3 6055   3.050   1.656   0.733  0.3098  0.2312  0.5638
  402TMC3    C4 6056   2.929   1.689   0.492 -0.3258  0.7044 -0.3654
  402TMC3    C5 6057   3.028   1.599   0.504  0.3178  0.1846 -0.2583
  402TMC3    C6 6058   3.087   1.578   0.626  0.0568 -0.0592  1.3477
  402TMC3     C 6059   2.780   1.869   0.583 -0.1368  0.1214  0.2285
  402TMC3     O 6060   2.694   1.852   0.498  0.0898  0.1293 -0.1008
  402TMC3     H 6061   2.904   1.792   0.812  0.6487  0.6296  0.3212
  402TMC3    H1 6062   2.890   1.711   0.393 -4.1482  2.0024  1.4603
  402TMC3    H2 6063   3.166   1.504   0.638  0.7818  0.5747  0.5356
  402TMC3    C7 6064   3.061   1.522   0.389 -0.0140  0.7579 -0.0247
  402TMC3    C8 6065   3.094   1.605   0.858  0.0163  0.2488 -0.2104
  402TMC3    O1 6066   3.028   1.568   0.280  0.3214  0.3627 -0.6202
  402TMC3    O2 6067   3.128   1.487   0.855  0.3580  0.6701  0.3105
  403MPD2     C 6068   1.711   4.498  13.240  0.0094  0.5502 -0.3015
  403MPD2    C1 6069   1.641   4.601  13.311  0.0176  0.1509  0.0847
  403MPD2    C2 6070   1.717   4.661  13.408  0.6644 -0.1530  0.9682
  403MPD2    C3 6071   1.841   4.619  13.452  0.2490 -0.2002  0.1340
  403MPD2    C4 6072   1.902   4.515  13.386  0.9422 -0.6143  0.6754
  403MPD2    C5 6073   1.840   4.463  13.271  0.5681  0.2046 -0.8011
  403MPD2     H 6074   1.666   4.728  13.476  1.5991 -0.5606  2.0619
  403MPD2    H1 6075   2.001   4.476  13.408  0.0654 -3.1789  0.0230
  403MPD2    H2 6076   1.673   4.431  13.164 -0.7076  0.9844 -0.3172
  403MPD2    H3 6077   1.881   4.374  13.225 -0.7065 -1.4733  1.3521
  403MPD2     N 6078   1.896   4.670  13.571 -0.4697 -0.1701  0.2986
  403MPD2    H5 6079   1.847   0.007  13.619 -1.3657  1.4250 -3.1256
  403MPD2    N1 6080   1.502   4.629  13.290  0.3371  0.4995 -0.5673
  403MPD2    H7 6081   1.463   4.567  13.219 -0.9994 -0.5884  1.1133
  404TMC3    C1 6082   1.294   4.736  13.306  0.3894 -0.4646  0.3348
  404TMC3    C2 6083   1.188   4.687  13.385  0.1651 -0.3234  0.7092
  404TMC3    C3 6084   1.105   4.590  13.334 -0.7253  0.1074  0.0735
  404TMC3    C4 6085   1.289   4.722  13.170  0.2545 -0.0610 -0.0383
  404TMC3    C5 6086   1.184   4.649  13.120  0.5538 -0.7704  0.0552
  404TMC3    C6 6087   1.117   4.562  13.198  0.1531 -0.1520  0.4503
  404TMC3     C 6088   1.418   4.705  13.371 -0.1746 -0.2137  0.1274
  404TMC3     O 6089   1.430   0.014  13.487  0.0452 -0.7273  0.3984
  404TMC3     H 6090   1.193   4.706  13.492 -0.9194  0.1315  0.6756
  404TMC3    H1 6091   1.369   0.031  13.112  0.3792 -1.1768 -0.7851
  404TMC3    H2 6092   1.061   4.482  13.153 -1.7540  0.3767  1.9038
  404TMC3    C7 6093   1.172   4.652  12.976  0.1987  0.1654 -0.3094
  404TMC3    C8 6094   1.111   4.468  13.418 -0.1947  0.4329  0.4076
  404TMC3    O1 6095   1.269   4.708  12.927 -0.3288 -0.1254 -0.4665
  404TMC3    O2 6096   1.159   4.375  13.357 -0.0280  0.0244  0.4934
  405MPD2     C 6097   1.475   0.823  14.464 -0.5239  0.9020 -0.2956
  405MPD2    C1 6098   1.432   0.730  14.367  0.1164 -0.3927 -0.5230
  405MPD2    C2 6099   1.321   0.755  14.287  1.0299 -0.9649 -0.1729
  405MPD2    C3 6100   1.256   0.875  14.301 -0.1673 -0.2951  0.3218
  405MPD2    C4 6101   1.293   0.973  14.400 -0.0587  0.5295  0.7233
  405MPD2    C5 6102   1.407   0.947  14.476  0.1276 -0.6170 -0.2638
  405MPD2     H 6103   1.280   0.673  14.229  1.7190 -1.2247 -0.2914
  405MPD2    H1 6104   1.234   1.064  14.409  0.2334  0.7075  0.8292
  405MPD2    H2 6105   1.554   0.794  14.531  0.3046 -1.2449 -2.1988
  405MPD2    H3 6106   1.441   1.018  14.551 -0.8963  0.1508 -0.5175
  405MPD2     N 6107   1.146   0.893  14.223 -0.3387  0.2395 -0.2696
  405MPD2    H5 6108   1.128   0.814  14.161  1.2656  0.1136 -0.5593
  405MPD2    N1 6109   1.497   0.603  14.364  0.2811  0.3093 -0.5494
  405MPD2    H7 6110   1.570   0.592  14.434  1.7520  3.2586 -1.6102
  406TMC3    C1 6111   0.695   0.921  14.132  0.5108  0.3066 -0.2624
  406TMC3    C2 6112   0.697   0.786  14.113  0.3195  0.6533  0.8133
  406TMC3    C3 6113   0.811   0.717  14.140 -0.0461 -1.0201 -0.2968
  406TMC3    C4 6114   0.798   0.986  14.184  0.3496  0.3388  0.2454
  406TMC3    C5 6115   0.913   0.915  14.205  0.1188 -0.1013  0.3329
  406TMC3    C6 6116   0.919   0.777  14.196 -0.4608 -0.0371 -0.4394
  406TMC3     C 6117   0.558   0.971  14.152  0.0638  0.5840 -0.8625
  406TMC3     O 6118   0.540   1.088  14.181  0.6106 -0.1775  0.6305
  406TMC3     H 6119   0.624   0.730  14.057 -0.2006  1.6138  0.5423
  406TMC3    H1 6120   0.793   1.092  14.205 -0.4526  0.1628  0.9482
  406TMC3    H2 6121   0.990   0.717  14.252  1.3648  3.5970  1.0703
  406TMC3    C7 6122   1.041   0.983  14.233  0.7309  0.7064  0.0885
  406TMC3    C8 6123   0.798   0.574  14.151 -0.3786 -0.0524 -0.3397
  406TMC3    O1 6124   1.026   1.089  14.288  0.2481 -0.2018 -0.3844
  406TMC3    O2 6125   0.692   0.524  14.164 -0.5266  0.3298 -0.3695
  407MPD2     C 6126   3.693   2.386  10.085  0.6944 -0.0805  0.5155
  407MPD2    C1 6127   3.791   2.484  10.076  0.1704  1.0084  0.1846
  407MPD2    C2 6128   3.826   2.561  10.190 -0.3670 -0.3302  0.7300
  407MPD2    C3 6129   3.759   2.537  10.311 -0.0958  0.3553 -0.0289
  407MPD2    C4 6130   3.673   2.424  10.328  0.2226  0.0139  0.1741
  407MPD2    C5 6131   3.644   2.358  10.210  0.1236 -0.4690 -0.8901
  407MPD2     H 6132   3.905   2.634  10.179  0.1069 -1.4904 -3.4770
  407MPD2    H1 6133   3.640   2.387  10.425 -0.7338  1.9245  0.5828
  407MPD2    H2 6134   3.662   2.330   9.997 -0.4457  0.9235  0.2790
  407MPD2    H3 6135   3.567   2.281  10.213 -0.5999  0.3054  0.1717
  407MPD2     N 6136   3.792   2.611  10.427  0.0471 -0.1553  0.7460
  407MPD2    H5 6137   3.861   2.685  10.411 -0.7075  0.5676  0.8297
  407MPD2    N1 6138   3.859   2.517   9.956  0.4894  0.2629  0.1602
  407MPD2    H7 6139   3.930   2.590   9.958  1.8884 -1.1439  2.1954
  408TMC3    C1 6140   3.937   2.492   9.730 -0.1083  0.2023  0.5049
  408TMC3    C2 6141   3.963   2.405   9.624 -0.0093  0.0868  1.1694
  408TMC3    C3 6142   4.037   2.448   9.512  0.1339  0.3161  0.2103
  408TMC3    C4 6143   4.007   2.608   9.730  0.2211 -0.5047 -0.0370
  408TMC3    C5 6144   4.071   2.648   9.616 -0.8856 -0.2982 -0.3566
  408TMC3    C6 6145   4.086   2.572   9.505  0.6078 -0.2883  0.1474
  408TMC3     C 6146   3.850   2.446   9.835 -0.2130 -0.8849 -0.0880
  408TMC3     O 6147   3.792   2.342   9.821 -0.2184  0.0014  0.3209
  408TMC3     H 6148   3.926   2.304   9.632  1.8434 -0.8436 -1.7374
  408TMC3    H1 6149   3.990   2.675   9.814 -0.1627  2.0276 -2.1216
  408TMC3    H2 6150   4.130   2.621   9.418 -2.4296  2.8062  0.3377
  408TMC3    C7 6151   4.202   2.712   9.638  0.4168 -0.4813  0.4545
  408TMC3    C8 6152   4.121   2.338   9.459  0.3738 -0.0969 -0.3528
  408TMC3    O1 6153   4.298   2.666   9.582 -0.1079  0.5596  0.1229
  408TMC3    O2 6154   4.077   2.228   9.467  0.1424 -0.0832 -0.0246
  409MPD2     C 6155   3.231   3.032  16.584 -0.3282  0.4430 -0.2549
  409MPD2    C1 6156   3.315   2.986  16.681 -0.0668 -0.5769  0.5121
  409MPD2    C2 6157   3.438   3.056  16.697  0.1822  0.0693 -0.2574
  409MPD2    C3 6158   3.465   3.163  16.621  0.3218  0.0900 -0.3888
  409MPD2    C4 6159   3.375   3.203  16.524 -0.3163  0.2471  0.1831
  409MPD2    C5 6160   3.257   3.145  16.511  0.6430 -0.5349 -0.7391
  409MPD2     H 6161   3.512   3.016  16.765 -0.5457  0.4376  0.7515
  409MPD2    H1 6162   3.396   3.281  16.452  0.6532 -2.1534 -2.1066
  409MPD2    H2 6163   3.128   3.004  16.560 -0.1220 -0.1214 -0.4829
  409MPD2    H3 6164   3.183   3.179  16.440  0.5165  1.2623  0.2447
  409MPD2     N 6165   3.588   3.230  16.627  0.4206 -0.4337 -0.1112
  409MPD2    H5 6166   3.604   3.306  16.562 -0.7447 -0.1345 -0.0475
  409MPD2    N1 6167   3.284   2.870  16.755 -0.3664 -0.4032 -0.5096
  409MPD2    H7 6168   3.341   2.841  16.834 -0.3763 -0.0424 -0.3694
  410TMC3    C1 6169   3.806   3.308  16.696  0.6376  0.0113  0.3699
  410TMC3    C2 6170   3.882   3.338  16.810  0.1552 -0.1415 -0.4156
  410TMC3    C3 6171   3.974   3.433  16.791  0.2649 -0.0980 -0.7583
  410TMC3    C4 6172   3.832   3.358  16.571 -0.4482  0.2265  0.2485
  410TMC3    C5 6173   3.935   3.451  16.564  0.0021  0.2826 -0.3122
  410TMC3    C6 6174   4.004   3.494  16.670 -0.2787  0.4173  0.1401
  410TMC3     C 6175   3.695   3.209  16.710 -0.6143  0.4441 -0.1165
  410TMC3     O 6176   3.700   3.142  16.813 -0.6217 -0.2689 -0.3186
  410TMC3     H 6177   3.851   3.313  16.911  0.9418  1.7341  0.2915
  410TMC3    H1 6178   3.770   3.342  16.484 -0.0241  0.1656 -0.0407
  410TMC3    H2 6179   4.064   3.584  16.663  0.8483 -0.3544 -0.1369
  410TMC3    C7 6180   3.941   3.534  16.445  0.5232 -0.4553 -0.3182
  410TMC3    C8 6181   4.061   3.489  16.898  0.7727  0.6970  0.6738
  410TMC3    O1 6182   4.011   3.639  16.445 -0.4921  0.3386 -0.9308
  410TMC3    O2 6183   4.130   3.587  16.872 -0.1661  0.3291 -0.7364
  411MPD2     C 6184   3.670   3.520  14.312 -0.4669 -0.0104  0.1483
  411MPD2    C1 6185   3.608   3.532  14.432  0.8612  0.0003 -0.4842
  411MPD2    C2 6186   3.486   3.462  14.441 -0.2526 -0.7620  0.3114
  411MPD2    C3 6187   3.430   3.381  14.341  0.1265  0.4227 -0.1452
  411MPD2    C4 6188   3.505   3.367  14.230  1.0932  0.5793 -0.6632
  411MPD2    C5 6189   3.626   3.435  14.216  0.0711  0.0099  0.1568
  411MPD2     H 6190   3.431   3.453  14.534  0.8313 -0.7130  0.9525
  411MPD2    H1 6191   3.476   3.305  14.145 -0.3471 -0.3921  0.5312
  411MPD2    H2 6192   3.767   3.563  14.289  0.2963 -0.1330  3.1836
  411MPD2    H3 6193   3.680   3.440  14.123  0.8807 -2.1988  0.5132
  411MPD2     N 6194   3.305   3.312  14.347  0.1050 -0.4140  0.3143
  411MPD2    H5 6195   3.275   3.263  14.263 -2.3225 -1.9704  2.0791
  411MPD2    N1 6196   3.672   3.615  14.532  0.2816  0.2597 -0.0332
  411MPD2    H7 6197   3.757   3.662  14.501  0.3680  0.4616  0.4949
  412TMC3    C1 6198   3.100   3.243  14.441 -0.2798  0.5572 -1.1872
  412TMC3    C2 6199   3.044   3.290  14.325 -0.2240 -0.4650  0.6454
  412TMC3    C3 6200   2.942   3.218  14.263  0.3236  0.6126  0.2084
  412TMC3    C4 6201   3.076   3.114  14.481  0.3294 -0.5477 -0.1573
  412TMC3    C5 6202   2.991   3.038  14.412 -0.8617  0.2913 -0.3552
  412TMC3    C6 6203   2.913   3.093  14.313  0.7365 -0.3590 -0.1140
  412TMC3     C 6204   3.233   3.294  14.466  1.1180  0.5935 -0.8062
  412TMC3     O 6205   3.263   3.319  14.584 -0.0475 -0.9356  0.2963
  412TMC3     H 6206   3.058   3.395  14.304  1.4091 -0.7475  0.3180
  412TMC3    H1 6207   3.143   3.070  14.553  0.8464 -2.0954 -1.5797
  412TMC3    H2 6208   2.831   3.036  14.272  0.3136 -0.0302  0.2670
  412TMC3    C7 6209   3.016   2.893  14.410 -0.0799 -0.1924  0.0277
  412TMC3    C8 6210   2.853   3.290  14.181 -0.0555 -0.2872  0.5604
  412TMC3    O1 6211   3.124   2.859  14.455  0.9739 -0.1239  0.0835
  412TMC3    O2 6212   2.736   3.269  14.219 -0.1308 -0.0721 -1.0116
  413MPD2     C 6213   0.428   1.988  15.508 -0.0672 -0.5957  0.1603
  413MPD2    C1 6214   0.468   1.990  15.380  0.7672  0.9918  0.4335
  413MPD2    C2 6215   0.578   1.911  15.342 -0.5103 -0.2456 -0.0087
  413MPD2    C3 6216   0.637   1.814  15.424  0.4280 -0.3928  0.2028
  413MPD2    C4 6217   0.588   1.810  15.553 -0.4655  0.0074  0.2276
  413MPD2    C5 6218   0.483   1.893  15.596 -0.1686 -0.2758  0.4714
  413MPD2     H 6219   0.614   1.910  15.240 -1.1897  0.6636 -0.2517
  413MPD2    H1 6220   0.624   1.737  15.625 -1.0746 -0.2872  0.2259
  413MPD2    H2 6221   0.346   2.049  15.543  0.0667  1.1552 -2.6052
  413MPD2    H3 6222   0.438   1.882  15.693 -0.7214 -0.3686  0.2013
  413MPD2     N 6223   0.740   1.729  15.366 -0.5860  0.5648 -0.0848
  413MPD2    H5 6224   0.777   1.753  15.275 -1.1512  2.1669  0.1056
  413MPD2    N1 6225   0.394   2.069  15.284 -0.0608  0.0888  0.2053
  413MPD2    H7 6226   0.327   2.140  15.312  0.3030  1.1374 -1.5625
  414TMC3    C1 6227   0.857   1.527  15.313  0.2264 -0.3336 -0.6539
  414TMC3    C2 6228   0.914   1.412  15.358 -0.1566 -0.1596 -0.7278
  414TMC3    C3 6229   0.933   1.306  15.269  0.0177  0.3004 -0.9529
  414TMC3    C4 6230   0.826   1.550  15.182 -0.0439 -0.0839  0.1017
  414TMC3    C5 6231   0.846   1.446  15.094 -0.2206  0.1491 -0.3781
  414TMC3    C6 6232   0.894   1.325  15.135 -0.1607  0.0880  0.1465
  414TMC3     C 6233   0.783   1.609  15.414 -0.3837 -0.5308  0.2507
  414TMC3     O 6234   0.776   1.563  15.525 -0.1867  0.6335 -0.4738
  414TMC3     H 6235   0.941   1.392  15.460 -1.8199 -0.8463 -0.4141
  414TMC3    H1 6236   0.774   1.630  15.131 -1.2296 -1.4823 -0.8908
  414TMC3    H2 6237   0.898   1.240  15.067  1.6506  1.0744 -0.9740
  414TMC3    C7 6238   0.891   1.495  14.971 -0.2508 -0.2805  0.2402
  414TMC3    C8 6239   1.061   1.231  15.264  0.4193  0.7147  0.2969
  414TMC3    O1 6240   0.845   1.436  14.873  0.0330 -0.6383  0.2591
  414TMC3    O2 6241   1.064   1.123  15.205 -0.4495 -0.7883 -0.2125
  415TMC3    C1 6242   1.658   0.143  10.424  0.0467  0.6427 -0.2807
  415TMC3    C2 6243   1.756   0.222  10.368  0.1422  0.0662  0.3100
  415TMC3    C3 6244   1.865   0.153  10.312  0.0744  0.4348  1.0892
  415TMC3    C4 6245   1.669   0.005  10.427 -0.0088 -0.0549 -0.0162
  415TMC3    C5 6246   1.774   4.676  10.370  0.1313  0.2098  0.8606
  415TMC3    C6 6247   1.870   0.022  10.302  0.1222  0.8771  0.8918
  415TMC3     C 6248   1.547   0.195  10.505 -0.4709 -0.5648 -0.8489
  415TMC3     O 6249   1.468   0.111  10.543  0.1308 -0.1491 -0.3167
  415TMC3     H 6250   1.750   0.330  10.359 -1.2296 -0.1522 -1.3582
  415TMC3    H1 6251   1.582   4.686  10.455  0.5670 -0.4432  0.9990
  415TMC3    H2 6252   1.950   4.719  10.241 -0.8767 -0.0765  0.2164
  415TMC3    C7 6253   1.740   4.560  10.287 -0.0155  0.4987 -0.0260
  415TMC3    C8 6254   1.928   0.215  10.188 -0.4998  0.0179 -0.1260
  415TMC3    O1 6255   1.799   4.552  10.181 -0.2697 -0.2996  0.5377
  415TMC3    O2 6256   1.919   0.147  10.089 -0.3704  0.3025  0.1482
  416MPD2     C 6257   2.797   2.965  11.791  0.5163  0.6717  0.2785
  416MPD2    C1 6258   2.782   3.067  11.699  0.0051  0.3119  0.0295
  416MPD2    C2 6259   2.864   3.066  11.585  0.1179  0.3133 -0.6020
  416MPD2    C3 6260   2.966   2.974  11.573 -0.1577 -0.6424 -0.0272
  416MPD2    C4 6261   2.986   2.877  11.670  0.3324 -0.0835  0.3689
  416MPD2    C5 6262   2.907   2.879  11.775  1.0662 -0.3316  0.2500
  416MPD2     H 6263   2.836   3.136  11.507  0.1504  0.0659 -0.8380
  416MPD2    H1 6264   3.057   2.795  11.663 -0.6559 -0.9580  0.4258
  416MPD2    H2 6265   2.728   2.954  11.874 -0.8917 -0.6576 -1.0688
  416MPD2    H3 6266   2.930   2.805  11.851 -1.8058 -0.0485  1.3946
  416MPD2     N 6267   3.056   2.974  11.463  0.0184 -0.2504 -0.5303
  416MPD2    H5 6268   3.112   2.890  11.451  2.3546  1.1891  0.2867
  416MPD2    N1 6269   2.697   3.176  11.734  0.1481 -0.0988 -0.2927
  416MPD2    H7 6270   2.643   3.169  11.819  0.6938  0.8661  0.1318
  417TMC3    C1 6271   2.579   3.374  11.707  0.5129  0.1455  0.6773
  417TMC3    C2 6272   2.565   3.374  11.847 -0.0251 -0.3234  0.6042
  417TMC3    C3 6273   2.486   3.480  11.892 -0.7145  0.6217 -0.6478
  417TMC3    C4 6274   2.531   3.467  11.620  1.1744 -0.1114  0.2671
  417TMC3    C5 6275   2.460   3.570  11.677 -0.3546  0.0856  0.0455
  417TMC3    C6 6276   2.434   3.577  11.808  0.6840 -0.3026  0.3506
  417TMC3     C 6277   2.684   3.288  11.654  0.6983  0.5120  1.0078
  417TMC3     O 6278   2.728   3.311  11.543  0.0351  0.1711  0.2458
  417TMC3     H 6279   2.605   3.297  11.912 -1.9958 -1.8255  0.0251
  417TMC3    H1 6280   2.539   3.462  11.512 -0.6373  0.4947  0.1162
  417TMC3    H2 6281   2.357   3.648  11.838  3.0735  2.0561  0.9007
  417TMC3    C7 6282   2.467   3.697  11.604 -0.4813 -0.1843 -0.1210
  417TMC3    C8 6283   2.471   3.514  12.030  0.1836  0.6351  0.3278
  417TMC3    O1 6284   2.483   3.696  11.482 -0.2459 -0.1098  0.4187
  417TMC3    O2 6285   2.455   3.635  12.053 -0.0398 -0.1214  0.0018
  418TMC3    C1 6286   1.759   0.847  17.319  0.3688 -1.1288 -0.4633
  418TMC3    C2 6287   1.652   0.933  17.308  0.2914 -0.2683 -0.4680
  418TMC3    C3 6288   1.578   0.980  17.413  0.2499 -0.2534 -1.0221
  418TMC3    C4 6289   1.804   0.812  17.446 -0.4564 -0.6285 -0.2030
  418TMC3    C5 6290   1.726   0.861  17.557 -0.2592 -0.5927  0.5108
  418TMC3    C6 6291   1.614   0.943  17.540  0.1369 -0.0266 -0.0860
  418TMC3     C 6292   1.822   0.794  17.197 -0.5027 -0.3878  0.7458
  418TMC3     O 6293   1.812   0.859  17.094  0.2313  0.0989 -0.2494
  418TMC3     H 6294   1.618   0.961  17.209 -0.6440  0.7530  0.1480
  418TMC3    H1 6295   1.892   0.750  17.459 -1.5886 -1.8046  1.9684
  418TMC3    H2 6296   1.570   0.991  17.627  3.9942  1.2451  1.1725
  418TMC3    C7 6297   1.744   0.800  17.685  0.4724  0.0498 -0.4038
  418TMC3    C8 6298   1.433   0.983  17.399  0.5996 -0.8098 -0.5805
  418TMC3    O1 6299   1.648   0.730  17.717 -0.8441  0.6656  0.4849
  418TMC3    O2 6300   1.382   1.084  17.351 -0.1164 -0.5464  0.2908
  419MPD2     C 6301   0.329   3.374  12.314  0.2493  0.2842 -0.6435
  419MPD2    C1 6302   0.313   3.505  12.257  0.1273 -0.2253 -0.0003
  419MPD2    C2 6303   0.279   3.607  12.343 -0.0227 -0.3676 -0.0547
  419MPD2    C3 6304   0.271   3.595  12.481 -0.1023 -0.3521 -0.6215
  419MPD2    C4 6305   0.273   3.463  12.539  0.0012 -0.7221 -0.5531
  419MPD2    C5 6306   0.302   3.359  12.450  0.1074  0.1729  0.1948
  419MPD2     H 6307   0.270   3.705  12.297 -0.0020 -0.6663 -0.6912
  419MPD2    H1 6308   0.254   3.436  12.642 -1.0182  0.8560 -0.3159
  419MPD2    H2 6309   0.356   3.289  12.252 -0.1849  1.7548 -2.8437
  419MPD2    H3 6310   0.298   3.259  12.493 -0.5577 -0.9360 -2.4266
  419MPD2     N 6311   0.251   3.710  12.555 -0.6286 -0.1273 -0.0539
  419MPD2    H5 6312   0.269   3.798  12.508 -0.9164  0.5102  1.0124
  419MPD2    N1 6313   0.338   3.534  12.122  0.3209  0.0172 -0.4596
  419MPD2    H7 6314   0.310   3.627  12.095  1.0150  0.9055  1.8200
  420TMC3    C1 6315   0.187   3.837  12.732 -0.0211 -0.3288  0.4565
  420TMC3    C2 6316   0.199   3.942  12.653 -0.6149  0.0948 -0.3572
  420TMC3    C3 6317   0.151   4.056  12.703 -0.2702  0.0944 -0.7928
  420TMC3    C4 6318   0.114   3.835  12.844 -0.1272  0.6392  0.0432
  420TMC3    C5 6319   0.057   3.950  12.888  0.2369  0.1376  0.2716
  420TMC3    C6 6320   0.074   4.062  12.817  0.0412  0.3303  0.0986
  420TMC3     C 6321   0.214   3.705  12.680  0.1121 -0.6813 -0.2452
  420TMC3     O 6322   0.182   3.610  12.746 -0.2676 -0.3999 -0.1451
  420TMC3     H 6323   0.254   3.950  12.560  0.8776  0.4401  0.5569
  420TMC3    H1 6324   0.074   3.747  12.894 -1.1325  1.9285  1.5321
  420TMC3    H2 6325   0.035   4.158  12.849 -1.9716 -0.2830 -0.5199
  420TMC3    C7 6326   4.672   3.944  12.968 -0.1861 -0.7046  0.2964
  420TMC3    C8 6327   0.164   4.179  12.626 -0.2603 -0.7369  0.2813
  420TMC3    O1 6328   4.588   4.027  12.939  0.3836  0.1464 -0.0284
  420TMC3    O2 6329   0.155   4.163  12.504 -0.1444 -0.1078  0.4410
  421TMC3    C1 6330   2.029   4.710  13.760 -0.5770  0.2705  0.0760
  421TMC3    C2 6331   2.046   0.103  13.734 -0.2667  1.2794 -0.2840
  421TMC3    C3 6332   2.110   0.170  13.836 -0.5828  0.0732  0.0765
  421TMC3    C4 6333   2.046   4.648  13.881 -0.6726 -0.2579 -0.3159
  421TMC3    C5 6334   2.074   4.732  13.986  0.3828 -1.0892  0.0645
  421TMC3    C6 6335   2.106   0.125  13.961 -0.2847 -0.1916  0.2254
  421TMC3     C 6336   2.010   4.633  13.636 -0.4062  0.2238  0.0687
  421TMC3     O 6337   2.073   4.526  13.619  0.0499 -0.4527 -0.4422
  421TMC3     H 6338   2.045   0.147  13.635  0.0857  2.1880  0.1120
  421TMC3    H1 6339   2.008   4.547  13.891 -0.7061 -0.2835 -0.7236
  421TMC3    H2 6340   2.117   0.183  14.052  1.8152 -0.3869  0.0797
  421TMC3    C7 6341   2.121   4.678  14.112  0.7890 -0.2958 -1.0163
  421TMC3    C8 6342   2.100   0.314  13.815 -0.5077 -0.6200  0.0436
  421TMC3    O1 6343   2.205   4.736  14.179  0.5930  0.1795  0.1607
  421TMC3    O2 6344   2.176   0.383  13.882  0.0996 -0.3152  0.2554
  422TMC3    C1 6345   4.096   1.703  11.982  0.0545 -0.6038 -0.0162
  422TMC3    C2 6346   4.109   1.731  12.120  0.0704  0.6079 -0.4781
  422TMC3    C3 6347   4.002   1.727  12.197  0.6298 -0.3118 -0.0795
  422TMC3    C4 6348   3.974   1.686  11.921  0.4621  0.5755  0.6768
  422TMC3    C5 6349   3.865   1.683  12.007  0.3136 -0.7673  0.0054
  422TMC3    C6 6350   3.879   1.707  12.145  0.5745 -0.0556  0.1405
  422TMC3     C 6351   4.220   1.707  11.893  0.7661  0.0914 -0.4427
  422TMC3     O 6352   4.311   1.772  11.944 -0.9149  1.2916  0.1375
  422TMC3     H 6353   4.206   1.738  12.169 -0.3230 -0.1576  0.4140
  422TMC3    H1 6354   3.970   1.688  11.812  2.8386 -0.5799  0.5752
  422TMC3    H2 6355   3.792   1.726  12.207  0.0304  1.8170 -1.2116
  422TMC3    C7 6356   3.730   1.680  11.945  0.3966  0.3073  0.0594
  422TMC3    C8 6357   4.022   1.776  12.334 -0.5680 -0.0099  0.2883
  422TMC3    O1 6358   3.728   1.681  11.822 -0.2958  0.1685 -0.2013
  422TMC3    O2 6359   4.088   1.878  12.346  0.6615  0.2620  0.6247
  423MPD2     C 6360   0.336   2.608   0.640  0.0194 -0.4672  0.4691
  423MPD2    C1 6361   0.420   2.684   0.563 -0.3529 -0.2941 -0.1740
  423MPD2    C2 6362   0.437   2.650   0.430 -0.2288 -0.7646 -1.1277
  423MPD2    C3 6363   0.368   2.541   0.375 -0.1858  0.9033  0.3343
  423MPD2    C4 6364   0.289   2.466   0.451 -0.5584 -0.4180 -0.0621
  423MPD2    C5 6365   0.272   2.499   0.585  0.0876 -0.3135 -0.6577
  423MPD2     H 6366   0.494   2.718   0.367  0.3781  0.9395  1.2679
  423MPD2    H1 6367   0.239   2.375   0.421  1.6699 -1.2570 -1.2506
  423MPD2    H2 6368   0.306   2.623   0.742  2.3286  1.0160  0.9252
  423MPD2    H3 6369   0.215   2.431   0.647  0.7871  0.5212  0.9059
  423MPD2     N 6370   0.380   2.503   0.239  0.5106 -0.1472 -0.0285
  423MPD2    H5 6371   0.317   2.428   0.213  0.4086  0.7896 -2.4770
  423MPD2    N1 6372   0.499   2.796   0.604 -0.2508  0.3278  0.0142
  423MPD2    H7 6373   0.577   2.817   0.543 -0.7291 -1.2931 -1.1724
  424TMC3    C1 6374   0.600   2.943   0.751 -0.3511 -0.4124 -0.4754
  424TMC3    C2 6375   0.713   2.872   0.740  0.8638 -0.6419  0.2708
  424TMC3    C3 6376   0.828   2.919   0.799 -0.3483 -0.0981  0.5576
  424TMC3    C4 6377   0.591   3.064   0.817 -0.4582 -0.3098  0.4361
  424TMC3    C5 6378   0.717   3.120   0.854  0.3668  0.2704 -0.8729
  424TMC3    C6 6379   0.834   3.046   0.846 -0.2267 -0.4165  0.2544
  424TMC3     C 6380   0.492   2.852   0.726 -0.4127 -0.1416 -0.0164
  424TMC3     O 6381   0.398   2.833   0.811 -0.0186  0.1213 -0.3540
  424TMC3     H 6382   0.709   2.766   0.719 -0.0516 -0.7217  0.8029
  424TMC3    H1 6383   0.497   3.110   0.844 -0.6470 -1.6180  1.9668
  424TMC3    H2 6384   0.930   3.089   0.875  0.4787 -0.6650 -1.7277
  424TMC3    C7 6385   0.732   3.260   0.876  0.7630  0.0319 -0.1039
  424TMC3    C8 6386   0.950   2.854   0.749  1.1469 -0.1323  0.2181
  424TMC3    O1 6387   0.843   3.300   0.842  0.1160  0.4086  0.3855
  424TMC3    O2 6388   0.926   2.769   0.663  0.5027 -0.3692  0.2222
  425MPD2     C 6389   4.198   1.816  17.296 -0.6355 -0.2787  0.9085
  425MPD2    C1 6390   4.129   1.704  17.272  0.7514  0.1219  0.3156
  425MPD2    C2 6391   3.996   1.703  17.301 -0.3106 -0.2559  0.3673
  425MPD2    C3 6392   3.930   1.823  17.334 -0.1449 -0.0033 -0.5832
  425MPD2    C4 6393   3.998   1.939  17.338  0.0259 -0.3243 -0.1602
  425MPD2    C5 6394   4.133   1.932  17.326  0.0247 -0.1884 -0.3013
  425MPD2     H 6395   3.933   1.615  17.300  0.6727 -0.9618  1.4034
  425MPD2    H1 6396   3.963   2.041  17.355  0.7417 -0.0927 -0.0892
  425MPD2    H2 6397   4.302   1.832  17.269 -1.9202  0.5399 -3.4846
  425MPD2    H3 6398   4.194   2.022  17.334 -0.6322  0.2286 -0.0148
  425MPD2     N 6399   3.785   1.823  17.363 -0.2398 -0.5416  0.2625
  425MPD2    H5 6400   3.749   1.731  17.342 -1.1479 -0.3950  1.1450
  425MPD2    N1 6401   4.195   1.591  17.216  0.4727  0.1451 -0.8952
  425MPD2    H7 6402   4.295   1.592  17.199  0.6915 -1.4449  0.2423
  426TMC3    C1 6403   4.225   1.366  17.149 -0.5076 -0.4777 -0.4016
  426TMC3    C2 6404   4.254   1.366  17.016  0.8573  0.2916  0.0923
  426TMC3    C3 6405   4.276   1.247  16.952 -0.2618  0.6121  0.1910
  426TMC3    C4 6406   4.210   1.244  17.219  0.1516  0.0769 -0.2243
  426TMC3    C5 6407   4.224   1.127  17.150 -0.1078 -0.2518  0.1042
  426TMC3    C6 6408   4.270   1.128  17.017  0.6203  0.0013  0.4288
  426TMC3     C 6409   4.132   1.468  17.199  0.7170  0.0514  0.4598
  426TMC3     O 6410   4.025   1.420  17.239 -0.5194  0.5632  0.6917
  426TMC3     H 6411   4.253   1.459  16.960 -0.8369  0.2039 -0.0219
  426TMC3    H1 6412   4.174   1.248  17.321  2.4882  2.3253  0.4941
  426TMC3    H2 6413   4.269   1.031  16.968  0.9070 -1.2087  2.7909
  426TMC3    C7 6414   4.127   1.023  17.185  0.0705 -0.0248  0.0727
  426TMC3    C8 6415   4.320   1.240  16.814  0.4901  0.1979 -0.8090
  426TMC3    O1 6416   4.155   0.905  17.157 -0.0936 -0.1518 -0.2877
  426TMC3    O2 6417   4.344   1.131  16.763  0.2068 -0.1374 -0.2877
  427MPD2     C 6418   2.659   3.340  15.055 -0.7672  0.1518  0.2479
  427MPD2    C1 6419   2.702   3.441  15.138  0.0266  0.6054 -0.1536
  427MPD2    C2 6420   2.640   3.561  15.120  0.0559  0.1391 -0.3570
  427MPD2    C3 6421   2.545   3.582  15.025 -0.0637 -0.7479 -0.0308
  427MPD2    C4 6422   2.504   3.482  14.942 -0.0142 -0.5094 -0.3555
  427MPD2    C5 6423   2.553   3.355  14.967 -0.3029  1.0599  0.0339
  427MPD2     H 6424   2.680   3.642  15.179 -0.8303 -0.6973  1.3957
  427MPD2    H1 6425   2.436   3.488  14.858  0.8721 -4.0886 -1.3420
  427MPD2    H2 6426   2.710   3.245  15.048 -0.9634 -0.0675  1.9460
  427MPD2    H3 6427   2.531   3.273  14.900  3.4827 -0.4945  0.6992
  427MPD2     N 6428   2.471   3.702  15.019  0.2015  0.2847 -0.6603
  427MPD2    H5 6429   2.400   3.706  14.947 -0.9692  0.6369  0.5110
  427MPD2    N1 6430   2.812   3.426  15.225 -0.5540 -0.1715  0.2002
  427MPD2    H7 6431   2.826   3.503  15.290 -1.4900 -0.3630  0.6283
  428TMC3    C1 6432   2.982   3.323  15.355  0.2528 -0.3426 -0.6295
  428TMC3    C2 6433   3.016   3.208  15.420 -0.4852 -0.2613  0.2798
  428TMC3    C3 6434   3.089   3.215  15.538  0.1073 -0.0494 -0.2353
  428TMC3    C4 6435   3.026   3.447  15.388 -0.7894  0.2489  0.2052
  428TMC3    C5 6436   3.114   3.454  15.492 -0.7599 -0.4366 -0.4571
  428TMC3    C6 6437   3.141   3.338  15.570 -0.4258  0.3228  1.0156
  428TMC3     C 6438   2.884   3.311  15.247  0.0850  0.1900 -0.4246
  428TMC3     O 6439   2.875   3.197  15.200  0.1623  0.0498 -0.3912
  428TMC3     H 6440   2.961   3.120  15.390  0.7679 -0.4074 -1.5903
  428TMC3    H1 6441   3.000   3.531  15.324 -0.8298 -0.3370 -0.5409
  428TMC3    H2 6442   3.219   3.346  15.644  1.3450 -1.0785 -0.7012
  428TMC3    C7 6443   3.231   3.540  15.492 -0.2829  0.1532 -0.8050
  428TMC3    C8 6444   3.125   3.093  15.596 -0.3397  0.1120  0.2539
  428TMC3    O1 6445   3.277   3.568  15.602 -1.4968  0.1785 -0.4137
  428TMC3    O2 6446   3.084   2.984  15.553  0.5547  0.4978 -0.2894
  429MPD2     C 6447   3.655   4.108  17.422  0.0744  0.0028 -0.9600
  429MPD2    C1 6448   3.703   4.036  17.317  0.2808  0.3147  0.2644
  429MPD2    C2 6449   3.816   4.081  17.254 -0.7346  0.7812  0.3217
  429MPD2    C3 6450   3.865   4.201  17.281  0.4556  0.2527  0.5885
  429MPD2    C4 6451   3.808   4.280  17.372 -0.1567  0.2717 -0.1231
  429MPD2    C5 6452   3.714   4.229  17.455 -0.9206  0.0907 -0.1332
  429MPD2     H 6453   3.868   4.020  17.181 -2.4837 -0.2955 -0.0181
  429MPD2    H1 6454   3.851   4.376  17.395  0.9405 -0.5036  1.0623
  429MPD2    H2 6455   3.574   4.069  17.483 -1.2293  1.1465 -1.9662
  429MPD2    H3 6456   3.682   4.299  17.532  0.9105 -0.4947  1.1617
  429MPD2     N 6457   3.967   4.240  17.193 -0.7630  0.2603 -0.6238
  429MPD2    H5 6458   3.980   4.177  17.114 -1.2411  0.8712 -1.1969
  429MPD2    N1 6459   3.646   3.913  17.273 -0.2504 -0.6050 -0.3006
  429MPD2    H7 6460   3.698   3.859  17.205  0.9661 -0.9934  0.9314
  430TMC3    C1 6461   4.112   4.348  17.061 -0.3762  0.0861 -0.8411
  430TMC3    C2 6462   4.151   4.459  16.987  0.6570  0.1052  0.0074
  430TMC3    C3 6463   4.224   4.438  16.868 -0.4030 -0.6657 -0.3268
  430TMC3    C4 6464   4.160   4.223  17.040 -0.4956 -0.2247  0.3217
  430TMC3    C5 6465   4.238   4.209  16.925  0.2190  1.2604  0.4655
  430TMC3    C6 6466   4.272   4.308  16.834  0.2774 -0.8983  0.5083
  430TMC3     C 6467   4.041   4.357  17.183 -0.0203  0.2914  0.2933
  430TMC3     O 6468   4.036   4.466  17.238 -0.1847  0.1095  0.4196
  430TMC3     H 6469   4.122   4.561  17.012  1.1844 -0.1680  1.6965
  430TMC3    H1 6470   4.147   4.145  17.114 -1.6169 -0.9754 -0.6680
  430TMC3    H2 6471   4.344   4.292  16.754  0.6886 -0.2810  0.7474
  430TMC3    C7 6472   4.258   4.078  16.884 -0.0252 -0.1369  0.1038
  430TMC3    C8 6473   4.224   4.539  16.759 -0.3426 -0.6893 -0.3577
  430TMC3    O1 6474   4.263   3.997  16.976  0.2860  0.0918  0.2190
  430TMC3    O2 6475   4.206   4.661  16.786  0.3558  0.1179 -0.3089
  431MPD2     C 6476   0.537   4.304  11.839  0.3066 -0.5831  0.5512
  431MPD2    C1 6477   0.458   4.236  11.928  0.2393  0.0107  0.4569
  431MPD2    C2 6478   0.400   4.112  11.894  0.1319 -0.0292  0.3297
  431MPD2    C3 6479   0.431   4.048  11.772 -0.5092  0.4858 -0.9516
  431MPD2    C4 6480   0.505   4.124  11.680  0.3511  0.0564  0.0704
  431MPD2    C5 6481   0.563   4.239  11.720 -0.2776  0.0301 -0.7957
  431MPD2     H 6482   0.348   4.066  11.977 -0.4840 -1.2711 -0.7273
  431MPD2    H1 6483   0.526   4.104  11.576  0.3232  0.4059 -0.0016
  431MPD2    H2 6484   0.575   4.400  11.872 -0.2115 -0.0422 -0.4164
  431MPD2    H3 6485   0.625   4.285  11.643  0.6129 -0.5302 -0.4146
  431MPD2     N 6486   0.396   3.921  11.735 -0.1074 -0.1543  0.2248
  431MPD2    H5 6487   0.430   3.893  11.644 -0.4457 -1.6433  0.5423
  431MPD2    N1 6488   0.424   4.279  12.058 -0.7759 -0.8593  0.0741
  431MPD2    H7 6489   0.349   4.225  12.099  0.7434 -1.3695  2.2282
  432TMC3    C1 6490   0.345   3.700  11.772 -0.5023  0.4507 -0.5290
  432TMC3    C2 6491   0.440   3.671  11.680 -0.1213 -0.3365 -0.1430
  432TMC3    C3 6492   0.509   3.551  11.688  0.1215 -0.1461 -0.3261
  432TMC3    C4 6493   0.316   3.616  11.873  0.2411 -0.2249 -0.0785
  432TMC3    C5 6494   0.386   3.500  11.885  0.0791  0.5256  0.4391
  432TMC3    C6 6495   0.493   3.474  11.801 -0.3553 -0.0164 -0.9349
  432TMC3     C 6496   0.337   3.835  11.817 -0.7804  0.1449  0.8167
  432TMC3     O 6497   0.281   3.855  11.925  0.1005 -0.1182 -0.3986
  432TMC3     H 6498   0.464   3.739  11.599 -0.7091  0.8441  0.6726
  432TMC3    H1 6499   0.226   3.631  11.932  0.1677  0.2964 -0.3218
  432TMC3    H2 6500   0.567   3.399  11.828 -1.8990 -1.2850 -0.2385
  432TMC3    C7 6501   0.395   3.452  12.025 -0.3004 -0.0229 -0.3787
  432TMC3    C8 6502   0.630   3.540  11.616  0.0457 -0.7403 -0.1717
  432TMC3    O1 6503   0.447   3.342  12.049 -0.0192 -0.1757  0.2550
  432TMC3    O2 6504   0.629   3.557  11.496 -0.5487 -0.1026  0.2255
  433MPD2     C 6505   3.896   2.302  10.654  0.9142 -0.3950  0.2710
  433MPD2    C1 6506   4.031   2.266  10.664  0.1545  0.3330 -0.2826
  433MPD2    C2 6507   4.104   2.305  10.779  0.0114 -0.0423  0.1120
  433MPD2    C3 6508   4.046   2.388  10.873  0.2419  0.3676  0.3484
  433MPD2    C4 6509   3.913   2.419  10.865 -0.1178 -1.0480 -0.0642
  433MPD2    C5 6510   3.839   2.369  10.758  0.8201  0.5286 -0.5928
  433MPD2     H 6511   4.203   2.264  10.799  0.1937  0.4057  0.1346
  433MPD2    H1 6512   3.868   2.489  10.935  2.4411 -1.6730  2.1904
  433MPD2    H2 6513   3.830   2.256  10.581  2.6788 -0.5211 -1.2387
  433MPD2    H3 6514   3.734   2.391  10.749  1.3570  2.4173 -2.1788
  433MPD2     N 6515   4.129   2.419  10.984 -0.7416 -0.3015  0.8076
  433MPD2    H5 6516   4.229   2.403  10.985 -1.0298 -2.0330  1.7742
  433MPD2    N1 6517   4.089   2.202  10.551  0.6240 -0.6106  0.4849
  433MPD2    H7 6518   4.037   2.216  10.465  0.6569 -0.9319  0.4123
  434TMC3    C1 6519   4.250   2.089  10.426  0.9528 -0.3954  0.2160
  434TMC3    C2 6520   4.383   2.047  10.435 -0.1223  0.5761 -0.3539
  434TMC3    C3 6521   4.419   1.919  10.406  0.4242  0.2274 -0.0926
  434TMC3    C4 6522   4.158   2.000  10.368  0.4668  0.0257  0.0797
  434TMC3    C5 6523   4.198   1.871  10.357 -0.2192  0.1715  0.0159
  434TMC3    C6 6524   4.325   1.823  10.369  0.6961 -0.3263 -0.0848
  434TMC3     C 6525   4.211   2.141  10.554 -0.9095  0.4442  0.2380
  434TMC3     O 6526   4.290   2.125  10.646 -0.6315 -0.3103  0.0712
  434TMC3     H 6527   4.457   2.115  10.475  0.8634 -0.9315  0.4215
  434TMC3    H1 6528   4.056   2.030  10.346  0.0164 -0.1463  1.9407
  434TMC3    H2 6529   4.350   1.717  10.363 -0.0098 -0.5081  0.2170
  434TMC3    C7 6530   4.094   1.784  10.311  0.1914 -0.6173 -0.3560
  434TMC3    C8 6531   4.553   1.882  10.445  0.1589 -0.3838  0.1588
  434TMC3    O1 6532   4.002   1.845  10.261  0.3410  0.2634  0.2113
  434TMC3    O2 6533   4.627   1.967  10.498 -0.0895 -0.4012  0.0631
  435MPD2     C 6534   1.129   2.764  15.441  0.2725 -0.0570 -0.4138
  435MPD2    C1 6535   1.115   2.795  15.573 -0.3092  0.8972 -0.0819
  435MPD2    C2 6536   1.194   2.722  15.656  0.6687 -0.3619 -0.5212
  435MPD2    C3 6537   1.283   2.625  15.607  0.3974 -0.2282 -0.6135
  435MPD2    C4 6538   1.311   2.616  15.473 -0.1326  0.4861 -0.3434
  435MPD2    C5 6539   1.223   2.680  15.387 -0.4938  0.0726 -0.0491
  435MPD2     H 6540   1.183   2.739  15.763  4.1373 -1.7495  0.0341
  435MPD2    H1 6541   1.375   2.538  15.433  0.0698  0.6447 -0.3257
  435MPD2    H2 6542   1.065   2.819  15.373  0.8266 -0.6795 -1.4392
  435MPD2    H3 6543   1.230   2.648  15.284 -1.4622  1.3020 -0.4972
  435MPD2     N 6544   1.342   2.536  15.701  0.7026  0.6295  0.0103
  435MPD2    H5 6545   1.299   2.542  15.793  1.9075  0.6934  0.5680
  435MPD2    N1 6546   1.016   2.882  15.628 -0.0539  0.7555 -0.3243
  435MPD2    H7 6547   1.003   2.878  15.729  0.4619  0.9685 -0.2500
  436TMC3    C1 6548   0.785   3.141  15.824 -0.6033 -0.0159  0.2502
  436TMC3    C2 6549   0.845   3.124  15.703 -0.6495 -0.3932  0.1107
  436TMC3    C3 6550   0.826   3.012  15.637 -0.1500 -0.4559 -0.1762
  436TMC3    C4 6551   0.696   3.043  15.873 -0.6775  0.6908  0.1820
  436TMC3    C5 6552   0.685   2.926  15.805  0.4971 -0.3843  0.1179
  436TMC3    C6 6553   0.748   2.911  15.684  0.0990  0.1033 -0.0680
  436TMC3     C 6554   0.860   3.213  15.926 -0.0187  0.3424 -0.0278
  436TMC3     O 6555   0.983   3.229  15.898 -1.0013 -0.1752 -0.9734
  436TMC3     H 6556   0.912   3.200  15.664 -0.1676 -0.3606  1.0021
  436TMC3    H1 6557   0.641   3.048  15.966  1.3859  1.1026  1.3824
  436TMC3    H2 6558   0.734   2.821  15.625 -2.7860  0.2897  0.3239
  436TMC3    C7 6559   0.637   2.810  15.891  0.1868  0.0968  0.1159
  436TMC3    C8 6560   0.938   2.966  15.552 -0.2494  0.2686  0.4757
  436TMC3    O1 6561   0.608   2.834  16.010  0.2893  0.4906  0.6735
  436TMC3    O2 6562   0.947   3.004  15.435 -0.1925 -0.2186 -0.0455
  437TMC3    C1 6563   4.629   0.072  12.586 -0.2704  0.6138  0.3919
  437TMC3    C2 6564   4.496   0.105  12.605  0.4533  0.2368 -0.3597
  437TMC3    C3 6565   4.448   0.168  12.492 -0.4432 -0.5517 -1.4345
  437TMC3    C4 6566   4.704   0.102  12.474  0.1073 -0.0581  0.2803
  437TMC3    C5 6567   4.646   0.179  12.373  0.9725  0.2865 -0.6368
  437TMC3    C6 6568   4.517   0.215  12.384 -0.1910  0.0289  0.0178
  437TMC3     C 6569   4.693   0.005  12.689  0.0461 -0.5266  0.3070
  437TMC3     O 6570   4.615   4.700  12.778  0.2184 -0.0273  0.2541
  437TMC3     H 6571   4.439   0.096  12.697 -0.7301 -2.9143 -1.3900
  437TMC3    H1 6572   0.065   0.061  12.457  0.6520  0.7445  1.4924
  437TMC3    H2 6573   4.458   0.275  12.316 -0.5899  0.1094  0.4346
  437TMC3    C7 6574   4.721   0.208  12.251  0.5048 -0.2771 -0.0850
  437TMC3    C8 6575   4.304   0.189  12.483 -0.0364  0.0370 -0.2441
  437TMC3    O1 6576   4.661   0.253  12.158 -0.4862 -0.4497  0.6083
  437TMC3    O2 6577   4.265   0.295  12.436 -0.6309  0.0203  0.3035
  438MPD2     C 6578   1.902   0.528  16.158 -0.2405 -0.3018 -0.1608
  438MPD2    C1 6579   1.970   0.450  16.243 -0.7892  0.4646 -0.6884
  438MPD2    C2 6580   1.925   0.440  16.372  0.0377 -0.5273 -0.3422
  438MPD2    C3 6581   1.815   0.510  16.420 -0.6799 -0.0421 -0.3300
  438MPD2    C4 6582   1.761   0.604  16.336 -0.6510  0.0194 -0.1982
  438MPD2    C5 6583   1.799   0.604  16.208  0.4468  0.3735  0.6248
  438MPD2     H 6584   1.972   0.365  16.436  2.1898 -0.0054 -1.3142
  438MPD2    H1 6585   1.668   0.655  16.361 -0.6238  0.4145 -0.8857
  438MPD2    H2 6586   1.931   0.535  16.054 -0.0466  0.4602 -0.0517
  438MPD2    H3 6587   1.728   0.657  16.146 -0.1690  0.9988  1.8571
  438MPD2     N 6588   1.750   0.496  16.545  0.6016 -0.0684 -0.6624
  438MPD2    H5 6589   1.673   0.559  16.564  0.2834 -0.2515 -1.3311
  438MPD2    N1 6590   2.067   0.355  16.205 -0.1031  0.0843  0.1658
  438MPD2    H7 6591   2.110   0.291  16.271  0.3136  2.4286  2.1951
  439TMC3    C1 6592   2.191   0.233  16.047  0.0475 -1.1754  0.8763
  439TMC3    C2 6593   2.301   0.249  15.962 -0.1603  0.6697 -0.4706
  439TMC3    C3 6594   2.403   0.155  15.964 -0.0745 -0.2249  0.3729
  439TMC3    C4 6595   2.187   0.128  16.133  0.4453 -0.3919  0.0039
  439TMC3    C5 6596   2.298   0.051  16.141  0.2060 -0.1754 -0.5798
  439TMC3    C6 6597   2.401   0.052  16.053 -0.2009 -0.0729  0.3635
  439TMC3     C 6598   2.115   0.355  16.077 -0.9402 -0.3372 -0.2689
  439TMC3     O 6599   2.110   0.438  15.989  0.3501 -0.4222  0.0136
  439TMC3     H 6600   2.312   0.349  15.921  2.7082  1.0443  1.1727
  439TMC3    H1 6601   2.119   0.124  16.217  1.1362  1.3747  0.6644
  439TMC3    H2 6602   2.488   4.729  16.074 -0.2977 -0.1021  0.6744
  439TMC3    C7 6603   2.342   0.006  16.272  0.1411  0.0574  0.3270
  439TMC3    C8 6604   2.523   0.167  15.893  0.5534 -0.1408 -0.3702
  439TMC3    O1 6605   2.455   0.036  16.314  0.1398  0.4777 -0.0364
  439TMC3    O2 6606   2.620   0.107  15.935 -0.6873  0.5156 -0.1132
  440MPD2     C 6607   0.951   0.713  14.517  0.5823 -0.1000  0.5773
  440MPD2    C1 6608   0.968   0.813  14.609  0.2833 -0.4759 -0.3578
  440MPD2    C2 6609   1.080   0.827  14.678 -0.3513  0.8961  0.0887
  440MPD2    C3 6610   1.183   0.725  14.668  0.0309  0.5084 -0.3002
  440MPD2    C4 6611   1.153   0.615  14.593  0.2721  0.2321  0.3682
  440MPD2    C5 6612   1.037   0.608  14.515  0.1797 -0.4539  0.0656
  440MPD2     H 6613   1.077   0.912  14.745 -1.4912  1.2518 -0.4205
  440MPD2    H1 6614   1.234   0.545  14.576  0.3472  0.9355 -2.1958
  440MPD2    H2 6615   0.859   0.696  14.462  0.1280  2.5617  0.4752
  440MPD2    H3 6616   1.019   0.536  14.436 -0.9416  1.5848 -1.5230
  440MPD2     N 6617   1.310   0.730  14.731 -0.0409 -0.0992  0.3006
  440MPD2    H5 6618   1.356   0.639  14.729  1.7007  0.8811 -4.8823
  440MPD2    N1 6619   0.865   0.907  14.637 -0.1237 -0.1668  0.2855
  440MPD2    H7 6620   0.893   0.969  14.713  1.1874 -0.0948 -0.2396
  441TMC3    C1 6621   1.471   0.790  14.880  0.0404  0.0647  0.0101
  441TMC3    C2 6622   1.545   0.894  14.925  1.0256 -0.1107 -0.1627
  441TMC3    C3 6623   1.635   0.867  15.031  0.8225  0.3010  0.2324
  441TMC3    C4 6624   1.480   0.664  14.929  0.2588 -0.1820  0.6672
  441TMC3    C5 6625   1.570   0.639  15.032  0.2928 -0.1705 -0.1569
  441TMC3    C6 6626   1.652   0.744  15.081 -0.5908  0.0416  0.3112
  441TMC3     C 6627   1.361   0.830  14.803 -0.3076  0.0176 -0.7234
  441TMC3     O 6628   1.323   0.944  14.820  0.0977 -0.7677 -0.1551
  441TMC3     H 6629   1.517   0.997  14.908  2.4469  0.3182  0.0706
  441TMC3    H1 6630   1.400   0.595  14.906  1.2415 -1.2465  0.4447
  441TMC3    H2 6631   1.716   0.733  15.168  2.3713  1.7050 -1.6273
  441TMC3    C7 6632   1.543   0.527  15.114 -0.5481  0.8410 -1.1940
  441TMC3    C8 6633   1.643   0.966  15.138 -0.0539 -0.0354 -0.2678
  441TMC3    O1 6634   1.637   0.466  15.166  0.2278  0.4129 -0.4248
  441TMC3    O2 6635   1.744   0.987  15.201 -0.1278 -0.2548  0.3104
  442MPD2     C 6636   3.981   1.358  16.289  0.5242 -0.0881 -0.3981
  442MPD2    C1 6637   3.867   1.281  16.311 -0.0440  0.7823 -0.9965
  442MPD2    C2 6638   3.830   1.179  16.226 -0.8483  0.2803 -0.2607
  442MPD2    C3 6639   3.903   1.161  16.104 -0.7205 -0.7131  0.2353
  442MPD2    C4 6640   4.016   1.243  16.082 -0.0450 -1.1752  0.5746
  442MPD2    C5 6641   4.050   1.344  16.174  0.1575  0.3014  0.5914
  442MPD2     H 6642   3.739   1.124  16.247 -1.1382  1.2943  1.1580
  442MPD2    H1 6643   4.070   1.234  15.988  0.0964  0.7316  0.4678
  442MPD2    H2 6644   4.012   1.427  16.366 -2.5503  0.6534  0.1852
  442MPD2    H3 6645   4.140   1.403  16.162  0.0938 -0.1450 -2.0098
  442MPD2     N 6646   3.896   1.047  16.017 -0.1002  0.3525  0.1626
  442MPD2    H5 6647   3.961   1.043  15.940  0.4598  0.6746  0.6154
  442MPD2    N1 6648   3.780   1.301  16.421 -0.0607 -0.1008  0.3780
  442MPD2    H7 6649   3.711   1.228  16.430 -0.1669  0.0309  0.6395
  443TMC3    C1 6650   3.638   1.414  16.579 -0.8566 -0.8251  0.6087
  443TMC3    C2 6651   3.585   1.537  16.594 -0.3935  0.1808 -0.4721
  443TMC3    C3 6652   3.461   1.536  16.653 -0.6967  0.9282 -1.3615
  443TMC3    C4 6653   3.610   1.313  16.666  0.4939  0.0707 -0.5688
  443TMC3    C5 6654   3.510   1.331  16.747 -1.0151 -0.2121 -0.4341
  443TMC3    C6 6655   3.423   1.435  16.736 -0.1892  1.0027 -0.2360
  443TMC3     C 6656   3.754   1.414  16.494 -0.2285  0.0095 -0.6188
  443TMC3     O 6657   3.812   1.520  16.483  0.3322 -0.1697 -0.3577
  443TMC3     H 6658   3.614   1.617  16.528 -0.2958  0.7219  0.2288
  443TMC3    H1 6659   3.666   1.221  16.657  2.0155  0.6630  2.8936
  443TMC3    H2 6660   3.329   1.434  16.789 -0.4664 -0.0213 -0.7455
  443TMC3    C7 6661   3.442   1.213  16.802 -0.6620  0.2205 -0.3506
  443TMC3    C8 6662   3.368   1.649  16.642 -0.4221 -0.4796 -0.2663
  443TMC3    O1 6663   3.474   1.102  16.756  0.9024  0.0407  0.2974
  443TMC3    O2 6664   3.317   1.676  16.750  0.1238  0.3061  0.0899
  444MPD2     C 6665   3.857   1.001  16.838 -0.6923  0.6195 -0.0620
  444MPD2    C1 6666   3.857   0.880  16.900  0.3826 -0.3854 -0.9981
  444MPD2    C2 6667   3.968   0.804  16.889  0.9319  0.0066 -1.0755
  444MPD2    C3 6668   4.073   0.834  16.810  0.2281  0.2557 -0.6764
  444MPD2    C4 6669   4.065   0.955  16.740  0.7696  0.1717  0.1005
  444MPD2    C5 6670   3.959   1.038  16.757  0.3183 -0.3535 -0.2514
  444MPD2     H 6671   3.979   0.719  16.955  0.6145  0.9609  0.1922
  444MPD2    H1 6672   4.153   1.000  16.695  1.1243 -0.5805  0.0358
  444MPD2    H2 6673   3.775   1.072  16.841 -2.7052 -1.7513  1.1751
  444MPD2    H3 6674   3.962   1.139  16.719  1.9700 -0.8399 -1.4354
  444MPD2     N 6675   4.185   0.753  16.827  0.2151 -0.1971  0.2744
  444MPD2    H5 6676   4.178   0.687  16.903 -0.5407 -1.5039 -0.9278
  444MPD2    N1 6677   3.749   0.841  16.979  0.4093 -0.2413 -0.0504
  444MPD2    H7 6678   3.744   0.744  17.007  1.5748 -0.2962 -0.0159
  445TMC3    C1 6679   4.417   0.689  16.797  0.2072 -0.1979 -0.5195
  445TMC3    C2 6680   4.380   0.624  16.909  0.3223 -0.0975  0.1281
  445TMC3    C3 6681   4.420   0.493  16.928  0.3301 -0.9218 -0.5027
  445TMC3    C4 6682   4.476   0.619  16.697  0.2984 -1.6355 -0.2247
  445TMC3    C5 6683   4.521   0.494  16.722 -0.4656 -0.7040  0.7198
  445TMC3    C6 6684   4.498   0.425  16.837 -0.1478  0.5282  0.5831
  445TMC3     C 6685   4.301   0.769  16.750  0.8298  0.4661 -0.2308
  445TMC3     O 6686   4.308   0.814  16.639  0.1357  0.4707  0.5303
  445TMC3     H 6687   4.353   0.694  16.987  0.0337 -1.9566  1.6869
  445TMC3    H1 6688   4.482   0.658  16.596  0.7492  1.8802  1.1705
  445TMC3    H2 6689   4.526   0.321  16.833  2.4980  1.3325 -1.5826
  445TMC3    C7 6690   4.614   0.451  16.615 -0.0564 -0.1802  0.4040
  445TMC3    C8 6691   4.404   0.427  17.052  0.4446 -0.1189 -0.8217
  445TMC3    O1 6692   4.692   0.537  16.567 -0.1307  0.1450 -0.2077
  445TMC3    O2 6693   4.376   0.498  17.152 -0.5011 -0.4712  0.1076
  446MPD2     C 6694   4.191   1.507  10.723  0.4303 -0.4521  0.1540
  446MPD2    C1 6695   4.118   1.623  10.720 -0.8013  0.3756 -0.1922
  446MPD2    C2 6696   4.178   1.751  10.742 -0.0835  0.0405  0.9448
  446MPD2    C3 6697   4.310   1.753  10.779  0.2915 -0.2978  1.0441
  446MPD2    C4 6698   4.380   1.630  10.772 -0.2302 -0.6907  0.0940
  446MPD2    C5 6699   4.326   1.508  10.760  0.9443  0.0194  0.2887
  446MPD2     H 6700   4.115   1.838  10.731 -0.6881 -0.3953  0.9483
  446MPD2    H1 6701   4.487   1.626  10.789 -0.1486 -0.2526 -0.2898
  446MPD2    H2 6702   4.147   1.410  10.703 -0.5351  0.0274 -0.0510
  446MPD2    H3 6703   4.383   1.415  10.758  0.4047 -0.3458  1.9179
  446MPD2     N 6704   4.374   1.876  10.812  0.5054 -0.4497  0.0838
  446MPD2    H5 6705   4.328   1.966  10.796 -2.1645 -1.5275  1.8619
  446MPD2    N1 6706   3.976   1.618  10.692 -0.1354 -0.0881  0.3139
  446MPD2    H7 6707   3.924   1.705  10.682  1.3374  0.9588  1.9892
  447TMC3    C1 6708   4.577   2.011  10.838 -0.0970  0.0773 -0.0414
  447TMC3    C2 6709   4.497   2.121  10.843  1.0631 -0.0047  0.1700
  447TMC3    C3 6710   4.564   2.241  10.810 -0.0246  0.2683 -0.3918
  447TMC3    C4 6711   4.709   2.004  10.792 -0.0312 -0.3802  0.5093
  447TMC3    C5 6712   0.016   2.124  10.748 -0.6334  0.6550  0.5781
  447TMC3    C6 6713   4.685   2.242  10.754 -0.2858 -0.4700  0.2505
  447TMC3     C 6714   4.510   1.882  10.841 -0.3117 -0.2466 -0.2036
  447TMC3     O 6715   4.585   1.791  10.873  0.5475  0.3193  0.7326
  447TMC3     H 6716   4.394   2.122  10.876  0.8069  2.9331 -0.7121
  447TMC3    H1 6717   0.016   1.906  10.780  1.6280  0.2582  1.5165
  447TMC3    H2 6718   4.730   2.337  10.729  2.7566 -1.8275  0.4997
  447TMC3    C7 6719   0.148   2.109  10.682  0.2727  0.1395  0.5279
  447TMC3    C8 6720   4.478   2.345  10.760  0.7603  0.1386 -0.2939
  447TMC3    O1 6721   0.188   1.995  10.665 -0.1665 -0.3401 -0.2118
  447TMC3    O2 6722   4.396   2.397  10.835 -0.5257  0.7802  0.2001
  448TMC3    C1 6723   1.723   1.708  17.234  0.0938  0.7570  0.3363
  448TMC3    C2 6724   1.752   1.661  17.112 -0.6997 -0.3857  0.7715
  448TMC3    C3 6725   1.710   1.534  17.074 -0.3150 -0.0858  0.4869
  448TMC3    C4 6726   1.656   1.628  17.328 -0.0733  0.0513 -0.1699
  448TMC3    C5 6727   1.631   1.495  17.293 -0.0516 -0.0971  0.1490
  448TMC3    C6 6728   1.656   1.450  17.168  0.2651  0.5496  0.7768
  448TMC3     C 6729   1.765   1.846  17.279  0.3358 -0.4531 -0.3642
  448TMC3     O 6730   1.781   1.861  17.400  0.3674  0.0751  0.1668
  448TMC3     H 6731   1.801   1.728  17.042 -1.3833 -2.6582 -1.9134
  448TMC3    H1 6732   1.631   1.668  17.426 -0.3141 -0.0990 -0.1698
  448TMC3    H2 6733   1.637   1.346  17.143 -0.7931  0.9186  0.0684
  448TMC3    C7 6734   1.655   1.401  17.402  0.2112  0.4376 -0.4909
  448TMC3    C8 6735   1.728   1.492  16.936 -0.6563 -0.1494 -0.5433
  448TMC3    O1 6736   1.661   1.284  17.364  0.1668 -0.3000  0.6051
  448TMC3    O2 6737   1.713   1.373  16.906  0.1977  0.2136 -0.0924
  449MPD2     C 6738   3.075   4.575  13.913  0.0093 -0.5161  0.1774
  449MPD2    C1 6739   3.010   4.678  13.852 -0.0486 -0.0607 -0.6070
  449MPD2    C2 6740   2.889   4.721  13.899 -0.5469 -0.0323 -0.2946
  449MPD2    C3 6741   2.823   4.653  14.002 -0.1483  0.2251  0.1315
  449MPD2    C4 6742   2.872   4.541  14.048 -0.3083  0.3493 -0.3224
  449MPD2    C5 6743   3.002   4.506  14.007  0.6861  0.0633  0.6324
  449MPD2     H 6744   2.843   0.074  13.861 -1.0615 -1.1289 -2.3018
  449MPD2    H1 6745   2.820   4.498  14.133  0.4607  1.4232  0.6863
  449MPD2    H2 6746   3.166   4.526  13.880 -0.3007 -1.3052  0.4974
  449MPD2    H3 6747   3.042   4.419  14.057  2.8215 -0.0599 -1.2746
  449MPD2     N 6748   2.702   4.713  14.046  0.1366  0.5009  1.0754
  449MPD2    H5 6749   2.694   0.068  14.006  1.3415  0.6809  1.2551
  449MPD2    N1 6750   3.062   0.010  13.735 -0.7593  0.2577  0.6211
  449MPD2    H7 6751   3.007   0.085  13.694 -1.5348 -1.4463 -1.4745
  450TMC3    C1 6752   3.214   0.074  13.575  0.1712  0.0029  0.4028
  450TMC3    C2 6753   3.313   0.162  13.601 -0.2731  0.0503 -0.2744
  450TMC3    C3 6754   3.296   0.294  13.580 -0.1023 -0.5446 -0.0894
  450TMC3    C4 6755   3.095   0.123  13.527 -0.2942  0.4521  0.3320
  450TMC3    C5 6756   3.077   0.257  13.518 -0.4525 -0.3764  0.2451
  450TMC3    C6 6757   3.177   0.344  13.538  0.8138  0.1673 -0.5390
  450TMC3     C 6758   3.184   4.716  13.668  0.0683 -0.6413 -1.1921
  450TMC3     O 6759   3.269   4.632  13.694 -0.5276  0.2124 -0.1456
  450TMC3     H 6760   3.410   0.118  13.621 -0.8647 -0.7012  0.9347
  450TMC3    H1 6761   3.011   0.058  13.506  1.8326 -2.1297 -0.0369
  450TMC3    H2 6762   3.160   0.450  13.524 -1.3152 -0.2157 -0.8068
  450TMC3    C7 6763   2.944   0.286  13.559  0.0201 -1.2826  0.0786
  450TMC3    C8 6764   3.406   0.390  13.572 -0.2878  0.4645  0.0959
  450TMC3    O1 6765   2.895   0.204  13.634  0.0067 -0.0185 -0.4822
  450TMC3    O2 6766   3.371   0.506  13.549  0.4316 -0.2668 -0.1531
  451MPD2     C 6767   1.007   3.669   0.616  0.0232 -0.0385  0.2841
  451MPD2    C1 6768   0.877   3.610   0.614 -0.0378 -0.2244  0.2123
  451MPD2    C2 6769   0.865   3.476   0.590 -0.0343  0.3083 -0.2505
  451MPD2    C3 6770   0.976   3.402   0.565 -0.4164 -0.2414 -0.7203
  451MPD2    C4 6771   1.099   3.454   0.584  0.0659  0.0415  0.7061
  451MPD2    C5 6772   1.114   3.588   0.601 -0.3940  0.3562 -0.1944
  451MPD2     H 6773   0.771   3.423   0.605  0.7621 -1.0392  0.0168
  451MPD2    H1 6774   1.191   3.402   0.562 -0.3236  0.0373 -0.9652
  451MPD2    H2 6775   1.015   3.777   0.615  2.1343 -0.2182 -1.2734
  451MPD2    H3 6776   1.216   3.627   0.605 -0.3640  0.3055 -0.4661
  451MPD2     N 6777   0.979   3.264   0.535  0.0472 -0.0384  0.2724
  451MPD2    H5 6778   1.070   3.219   0.536  0.6625  1.1311 -1.9218
  451MPD2    N1 6779   0.771   3.696   0.626 -0.1656 -0.1815  0.1081
  451MPD2    H7 6780   0.793   3.792   0.651 -2.2715  0.3547 -0.0797
  452TMC3    C1 6781   0.764   3.226   0.438 -0.2521 -0.7068  0.0442
  452TMC3    C2 6782   0.643   3.175   0.480  0.9897  0.1213 -0.1691
  452TMC3    C3 6783   0.531   3.218   0.417 -0.2834  0.3315  0.5527
  452TMC3    C4 6784   0.772   3.320   0.338 -0.1615 -0.3650 -0.3082
  452TMC3    C5 6785   0.659   3.374   0.294  0.3734 -0.4868 -0.0454
  452TMC3    C6 6786   0.536   3.329   0.335  0.8698 -0.3923  0.1854
  452TMC3     C 6787   0.875   3.177   0.503  0.0345  0.1976  0.3692
  452TMC3     O 6788   0.882   3.057   0.527  0.2709 -0.1598  0.1898
  452TMC3     H 6789   0.645   3.086   0.542 -1.4135  0.4902  0.4105
  452TMC3    H1 6790   0.864   3.370   0.311 -1.4273  2.9150  1.3401
  452TMC3    H2 6791   0.441   3.373   0.309 -0.3428 -1.4303  2.9356
  452TMC3    C7 6792   0.651   3.512   0.249 -0.1272 -0.0985  0.2151
  452TMC3    C8 6793   0.419   3.216   0.506 -0.3909 -0.2305 -0.1344
  452TMC3    O1 6794   0.536   3.557   0.234  0.6117 -0.5074 -0.4638
  452TMC3    O2 6795   0.355   3.113   0.518  0.4210  0.3659 -0.2434
  453TMC3    C1 6796   1.490   1.308  11.621 -0.5925 -0.4252  0.2816
  453TMC3    C2 6797   1.382   1.223  11.608  0.0710 -0.3853  0.1336
  453TMC3    C3 6798   1.276   1.266  11.528 -0.1803  0.6470  0.2063
  453TMC3    C4 6799   1.501   1.427  11.553 -0.2102 -0.1421 -0.6989
  453TMC3    C5 6800   1.393   1.461  11.479 -0.3961  0.3672 -0.3946
  453TMC3    C6 6801   1.271   1.391  11.468 -0.3076 -0.7203 -0.1872
  453TMC3     C 6802   1.614   1.262  11.674 -0.2311  0.3126  0.6267
  453TMC3     O 6803   1.714   1.292  11.609 -0.0370 -0.5585 -0.0637
  453TMC3     H 6804   1.383   1.130  11.664 -0.3331 -0.1749  0.4964
  453TMC3    H1 6805   1.597   1.470  11.532  0.0283 -0.2984  0.0598
  453TMC3    H2 6806   1.194   1.421  11.399 -0.7970 -0.3229  0.5331
  453TMC3    C7 6807   1.415   1.570  11.386  0.6607  0.1203 -0.0133
  453TMC3    C8 6808   1.171   1.175  11.495  0.0980  0.3448  0.7731
  453TMC3    O1 6809   1.348   1.576  11.283  0.3110 -0.8197  0.6623
  453TMC3    O2 6810   1.074   1.217  11.433  0.3495  0.1897  0.3544
  454MPD2     C 6811   0.152   0.570  16.195 -0.5432  0.6732  0.1304
  454MPD2    C1 6812   0.149   0.608  16.068  0.4453  0.4520  0.8536
  454MPD2    C2 6813   0.114   0.736  16.035  0.3841 -0.2338 -0.1837
  454MPD2    C3 6814   0.082   0.824  16.134 -0.1896 -0.3921 -0.8352
  454MPD2    C4 6815   0.091   0.785  16.262  0.5575 -0.3108  0.7029
  454MPD2    C5 6816   0.133   0.653  16.295  1.1230  0.0630 -0.1478
  454MPD2     H 6817   0.107   0.757  15.929 -2.5056 -0.6029 -0.0604
  454MPD2    H1 6818   0.065   0.858  16.337  0.4705 -0.1379  0.5062
  454MPD2    H2 6819   0.171   0.467  16.224  1.6790  1.5075  1.6820
  454MPD2    H3 6820   0.146   0.613  16.395 -0.8788 -1.4402 -0.4725
  454MPD2     N 6821   0.005   0.940  16.112  0.0007 -0.4386 -0.2394
  454MPD2    H5 6822   4.703   0.983  16.195 -2.0555  0.4613 -1.6754
  454MPD2    N1 6823   0.167   0.518  15.960  0.0975  0.0900  0.1359
  454MPD2    H7 6824   0.141   0.569  15.876 -0.9654  0.3270  0.6094
  455TMC3    C1 6825   4.557   1.012  16.003 -1.0662  0.0027  0.1498
  455TMC3    C2 6826   4.523   1.100  16.097 -0.1788  0.2642 -0.3081
  455TMC3    C3 6827   4.397   1.073  16.153  0.2919 -0.1009  1.1145
  455TMC3    C4 6828   4.485   0.906  15.962  0.1338 -0.3657 -0.1801
  455TMC3    C5 6829   4.365   0.880  16.022  0.7798  0.2373  0.3498
  455TMC3    C6 6830   4.323   0.963  16.126 -0.2678 -0.8330  0.7072
  455TMC3     C 6831   4.694   0.981  15.987  0.4070 -0.2244 -0.1422
  455TMC3     O 6832   4.729   0.947  15.872  0.0413  0.6454 -0.1761
  455TMC3     H 6833   4.586   1.180  16.134 -0.3658  0.0566  0.4689
  455TMC3    H1 6834   4.529   0.830  15.897 -1.1337  1.0544 -2.6848
  455TMC3    H2 6835   4.231   0.926  16.170 -2.0734  1.7179 -0.9042
  455TMC3    C7 6836   4.333   0.738  16.034 -0.1708 -0.0463 -0.3844
  455TMC3    C8 6837   4.353   1.139  16.269 -0.3344 -0.0420 -0.0363
  455TMC3    O1 6838   4.218   0.702  16.053 -0.1560 -0.2086  0.0103
  455TMC3    O2 6839   4.282   1.078  16.348 -0.2198 -0.2149 -0.2163
  456MPD2     C 6840   2.364   1.003  15.715  0.0389 -0.0930 -0.2381
  456MPD2    C1 6841   2.422   0.928  15.814  0.1624  0.1431 -0.2787
  456MPD2    C2 6842   2.399   0.975  15.945  0.4080  0.1033 -0.2647
  456MPD2    C3 6843   2.310   1.080  15.975  0.5703  0.2933 -0.6387
  456MPD2    C4 6844   2.238   1.141  15.872  0.0497  0.0308 -0.1435
  456MPD2    C5 6845   2.279   1.106  15.745  0.7685 -0.0487  0.1670
  456MPD2     H 6846   2.429   0.899  16.016 -0.7892  0.5174  0.6908
  456MPD2    H1 6847   2.170   1.225  15.884  0.2282  0.0184  0.9674
  456MPD2    H2 6848   2.386   0.981  15.611  0.5529  0.5625 -0.2682
  456MPD2    H3 6849   2.226   1.143  15.658  0.0791  0.5755  0.8518
  456MPD2     N 6850   2.289   1.100  16.112 -0.0604 -0.4024 -0.1606
  456MPD2    H5 6851   2.324   1.034  16.181  1.0956 -0.3641 -0.7164
  456MPD2    N1 6852   2.487   0.812  15.773 -0.0266 -0.5494 -0.0165
  456MPD2    H7 6853   2.505   0.790  15.676 -1.3970  0.3566 -0.4646
  457TMC3    C1 6854   2.146   1.130  16.291 -0.0082 -0.7150 -0.2526
  457TMC3    C2 6855   2.021   1.178  16.328  0.8225 -0.7680  0.6316
  457TMC3    C3 6856   1.984   1.149  16.459 -0.2034  0.0951  0.6520
  457TMC3    C4 6857   2.243   1.091  16.383  0.3814 -0.1371 -0.0500
  457TMC3    C5 6858   2.207   1.073  16.516 -0.4293  0.2415 -0.2516
  457TMC3    C6 6859   2.077   1.102  16.553 -0.6677 -0.2839 -0.1296
  457TMC3     C 6860   2.195   1.180  16.165 -0.0232  0.4468  0.0194
  457TMC3     O 6861   2.127   1.269  16.117  0.0757 -0.1023 -0.7334
  457TMC3     H 6862   1.954   1.203  16.246  1.0905 -1.0859  0.3107
  457TMC3    H1 6863   2.340   1.056  16.350  0.2488 -0.1701 -0.4108
  457TMC3    H2 6864   2.046   1.075  16.653 -1.7355 -0.8427 -0.6063
  457TMC3    C7 6865   2.303   1.032  16.613  0.2550  0.3760  0.1632
  457TMC3    C8 6866   1.874   1.219  16.515 -0.1857  0.4875  0.6708
  457TMC3    O1 6867   2.273   1.068  16.726  0.2844  0.7429 -0.1727
  457TMC3    O2 6868   1.817   1.182  16.617  0.4764 -0.0624 -0.0045
  458MPD2     C 6869   0.450   0.251  12.014  0.0731 -0.8419  0.0219
  458MPD2    C1 6870   0.473   0.198  12.139 -0.1445 -0.3851  0.2128
  458MPD2    C2 6871   0.363   0.180  12.221  0.3589  0.6030 -0.0000
  458MPD2    C3 6872   0.236   0.202  12.171  0.0248  0.0303  0.0986
  458MPD2    C4 6873   0.213   0.255  12.049  0.4907  0.0997  0.2701
  458MPD2    C5 6874   0.326   0.279  11.974  0.1641  0.7012  0.1125
  458MPD2     H 6875   0.367   0.164  12.328 -1.3719 -0.2275 -0.0618
  458MPD2    H1 6876   0.122   0.277  11.994  1.0290  0.3922 -0.5015
  458MPD2    H2 6877   0.536   0.277  11.953 -0.4457 -1.3651 -0.9279
  458MPD2    H3 6878   0.313   0.333  11.882  0.2179 -1.2306 -1.0328
  458MPD2     N 6879   0.121   0.173  12.256  0.2000 -0.0962  0.0037
  458MPD2    H5 6880   0.154   0.149  12.349 -2.0779 -0.5807  0.6809
  458MPD2    N1 6881   0.602   0.170  12.176 -0.0310 -0.9572 -0.0596
  458MPD2    H7 6882   0.677   0.228  12.139 -0.9178  1.3202  1.6920
  459TMC3    C1 6883   0.751   0.103  12.338  0.0325  0.3761  0.2196
  459TMC3    C2 6884   0.846   0.187  12.290  0.5991  0.3878 -0.1038
  459TMC3    C3 6885   0.948   0.222  12.376 -0.3021  0.7014  0.5148
  459TMC3    C4 6886   0.759   0.049  12.466 -0.9176 -0.3006  0.0372
  459TMC3    C5 6887   0.852   0.104  12.551  0.0827 -0.1664 -0.1774
  459TMC3    C6 6888   0.958   0.181  12.507 -0.2294 -0.5749  0.8110
  459TMC3     C 6889   0.631   0.071  12.263 -0.2492 -0.5273 -0.2506
  459TMC3     O 6890   0.552   4.726  12.304 -0.3409  0.1682  0.1140
  459TMC3     H 6891   0.850   0.200  12.182 -1.0138 -0.9088 -0.3147
  459TMC3    H1 6892   0.683   4.719  12.503 -1.5742 -0.5054 -1.7049
  459TMC3    H2 6893   1.039   0.204  12.576  0.2368  0.9128 -0.2121
  459TMC3    C7 6894   0.807   0.100  12.690  0.5458  0.6994  0.2908
  459TMC3    C8 6895   1.053   0.308  12.326 -0.4881 -0.3731 -0.0707
  459TMC3    O1 6896   0.685   0.067  12.707 -0.1127  0.5774 -0.3836
  459TMC3    O2 6897   1.152   0.298  12.397  0.5596 -0.6935 -0.4179
  460MPD2     C 6898   4.458   2.462  10.411 -0.2671  0.7056 -0.2205
  460MPD2    C1 6899   4.418   2.453  10.542  0.8091 -0.6461  0.3992
  460MPD2    C2 6900   4.315   2.531  10.583  0.7475 -0.7095  0.5396
  460MPD2    C3 6901   4.258   2.624  10.494  1.0965  0.1063  0.3528
  460MPD2    C4 6902   4.291   2.623  10.363  0.7213 -0.2792 -0.2101
  460MPD2    C5 6903   4.392   2.536  10.319  0.3409 -0.0888 -0.7588
  460MPD2     H 6904   4.282   2.531  10.686 -0.2803  1.0412  0.2024
  460MPD2    H1 6905   4.258   2.699  10.293  0.2199  0.4138  0.7916
  460MPD2    H2 6906   4.541   2.405  10.371  0.7220  2.0372 -0.0481
  460MPD2    H3 6907   4.417   2.524  10.214  1.6823  0.8267 -0.5516
  460MPD2     N 6908   4.159   2.703  10.558  0.0071  0.0938  0.0227
  460MPD2    H5 6909   4.129   2.673  10.651  2.1211 -1.0742  0.3054
  460MPD2    N1 6910   4.497   2.364  10.625  0.1489 -0.0688 -0.4069
  460MPD2    H7 6911   4.573   2.309  10.585  1.9110  1.0921  1.3483
  461TMC3    C1 6912   3.970   2.847  10.547 -0.0102 -0.1513  0.8360
  461TMC3    C2 6913   3.890   2.745  10.587 -0.0514 -0.5986 -0.3374
  461TMC3    C3 6914   3.754   2.761  10.588 -0.3054 -0.2123 -0.3648
  461TMC3    C4 6915   3.911   2.962  10.497  0.9563  0.1543  0.0273
  461TMC3    C5 6916   3.777   2.972  10.488  0.4252 -0.4402 -0.6689
  461TMC3    C6 6917   3.694   2.865  10.523 -0.0820  0.0021  0.2797
  461TMC3     C 6918   4.101   2.812  10.489  0.2031  0.1292  0.0403
  461TMC3     O 6919   4.145   2.872  10.391  0.4516  0.4943 -0.1096
  461TMC3     H 6920   3.931   2.659  10.639 -1.5158 -1.1849 -0.1548
  461TMC3    H1 6921   3.975   3.040  10.456 -1.1523  2.0173  0.3148
  461TMC3    H2 6922   3.586   2.874  10.526  0.0000  1.1183 -0.2530
  461TMC3    C7 6923   3.762   3.001  10.347 -0.7584  0.7958  0.3346
  461TMC3    C8 6924   3.704   2.640  10.524 -0.3492  0.4109 -0.4345
  461TMC3    O1 6925   3.837   3.081  10.291 -0.3204 -0.3809  0.6820
  461TMC3    O2 6926   3.586   2.612  10.527  0.1830  0.3572 -0.0804
  462TMC3    C1 6927   3.934   3.950  17.710 -1.0873 -0.4617  0.5509
  462TMC3    C2 6928   4.068   3.934  17.674 -0.3295 -0.3593 -0.4531
  462TMC3    C3 6929   4.100   3.807  17.619  0.1641  0.6735 -1.0811
  462TMC3    C4 6930   3.838   3.873  17.667 -0.4994  0.4796  0.3054
  462TMC3    C5 6931   3.881   3.760  17.605  0.8878  0.7234 -0.2644
  462TMC3    C6 6932   4.007   3.724  17.580 -0.1170 -0.5764  0.2951
  462TMC3     C 6933   3.896   4.081   0.013 -0.4996 -0.2102  0.1435
  462TMC3     O 6934   3.805   4.100   0.088 -0.2099 -0.3308  0.1095
  462TMC3     H 6935   4.142   4.005  17.709  0.3869 -1.2966 -0.0877
  462TMC3    H1 6936   3.733   3.895  17.685 -0.4066  0.0695  1.3150
  462TMC3    H2 6937   4.037   3.622  17.560  0.9923  0.6432 -4.3136
  462TMC3    C7 6938   3.775   3.668  17.562  0.1635 -0.6754  0.6289
  462TMC3    C8 6939   4.209   3.740  17.678  0.1179  0.3843  0.0661
  462TMC3    O1 6940   3.684   3.650  17.643  0.0752  0.6265 -0.2290
  462TMC3    O2 6941   4.278   3.671  17.602  0.2900  0.1431 -0.1683
  463MPD2     C 6942   1.145   1.764   0.921 -0.8962  0.4431 -0.1548
  463MPD2    C1 6943   1.028   1.826   0.957  0.3887  0.0533  0.2722
  463MPD2    C2 6944   1.022   1.963   0.989 -0.2369  0.0525  0.1286
  463MPD2    C3 6945   1.136   2.037   0.975  0.4447  0.1354 -0.2126
  463MPD2    C4 6946   1.259   1.970   0.939 -0.2397 -0.1652 -0.4783
  463MPD2    C5 6947   1.257   1.839   0.919  0.9243 -0.5024 -0.1790
  463MPD2     H 6948   0.924   2.004   1.012  0.6279  1.2479  1.6585
  463MPD2    H1 6949   1.347   2.033   0.940  0.2923 -0.9244  0.2055
  463MPD2    H2 6950   1.150   1.658   0.899 -1.0813  0.2262  0.8535
  463MPD2    H3 6951   1.346   1.789   0.882  0.5878 -0.4769 -1.0230
  463MPD2     N 6952   1.133   2.175   0.981  0.1922  0.8368  0.2981
  463MPD2    H5 6953   1.216   2.230   0.963 -0.8707  2.2139 -0.3748
  463MPD2    N1 6954   0.902   1.761   0.989 -0.3604  0.4927  0.4048
  463MPD2    H7 6955   0.844   1.829   1.038  0.1773  0.7021  0.7599
  464TMC3    C1 6956   0.721   1.620   0.989 -0.1919 -0.5036 -0.6458
  464TMC3    C2 6957   0.651   1.701   1.079 -0.2136 -0.3710 -0.0374
  464TMC3    C3 6958   0.519   1.664   1.111  0.1325  0.3404  0.4496
  464TMC3    C4 6959   0.658   1.509   0.939  0.1085 -0.1305  0.3718
  464TMC3    C5 6960   0.539   1.468   0.981 -0.5534 -0.7900  0.3155
  464TMC3    C6 6961   0.462   1.553   1.057 -0.3230  0.0267  0.1858
  464TMC3     C 6962   0.858   1.640   0.947  0.3432  0.2644 -0.0390
  464TMC3     O 6963   0.920   1.547   0.889 -0.0671 -0.5933  0.2799
  464TMC3     H 6964   0.676   1.804   1.103  0.2768 -0.3734 -0.5639
  464TMC3    H1 6965   0.714   1.441   0.876 -1.9673  0.0709 -1.7096
  464TMC3    H2 6966   0.355   1.537   1.057 -0.2024 -0.7470  0.4117
  464TMC3    C7 6967   0.475   1.373   0.884 -0.4084  0.7745 -0.2773
  464TMC3    C8 6968   0.435   1.758   1.180  0.2908 -0.0709  0.3243
  464TMC3    O1 6969   0.536   1.348   0.778 -0.4133  0.0294 -0.0793
  464TMC3    O2 6970   0.453   1.878   1.182  0.0166  0.5794  0.5976
  465MPD2     C 6971   1.238   0.905  16.660  0.1770 -0.4076 -0.5250
  465MPD2    C1 6972   1.113   0.916  16.722  0.1198 -0.5300  0.1206
  465MPD2    C2 6973   1.007   0.966  16.650 -0.3166 -0.0316  0.6190
  465MPD2    C3 6974   1.024   1.004  16.516 -0.1584 -0.9586  1.3665
  465MPD2    C4 6975   1.145   0.988  16.453  0.5161  0.5888  0.2093
  465MPD2    C5 6976   1.249   0.947  16.531 -0.0613  0.3576  0.0883
  465MPD2     H 6977   0.913   0.980  16.703 -0.0532 -0.7882  1.2908
  465MPD2    H1 6978   1.162   1.020  16.351 -0.2671 -0.7263 -0.3457
  465MPD2    H2 6979   1.326   0.876  16.718  0.3442  1.1755  0.0204
  465MPD2    H3 6980   1.345   0.939  16.481 -0.6359 -0.1331 -0.9189
  465MPD2     N 6981   0.913   1.057  16.454  0.4400 -0.0246 -0.0468
  465MPD2    H5 6982   0.831   1.069  16.512 -0.1356 -1.3799 -0.5981
  465MPD2    N1 6983   1.085   0.862  16.850  0.5241  0.1281  0.1849
  465MPD2    H7 6984   0.998   0.886  16.898  0.8442  0.2529  0.7010
  466TMC3    C1 6985   0.631   1.250  16.448 -0.8114  0.7981  0.1396
  466TMC3    C2 6986   0.657   1.372  16.402 -0.2876  0.4890  0.3763
  466TMC3    C3 6987   0.747   1.379  16.297  0.0621 -0.0231  0.1023
  466TMC3    C4 6988   0.693   1.143  16.400  0.5190 -0.1239  0.2490
  466TMC3    C5 6989   0.780   1.151  16.297  0.0923 -0.0910 -0.4660
  466TMC3    C6 6990   0.810   1.272  16.244  0.1353 -0.3690  0.0430
  466TMC3     C 6991   0.619   1.240  16.595  0.5833  0.1818 -0.4489
  466TMC3     O 6992   0.689   1.155  16.645 -0.5391  0.0851 -0.3645
  466TMC3     H 6993   0.614   1.463  16.441 -0.2868  1.5942 -2.1507
  466TMC3    H1 6994   0.665   1.048  16.445 -0.9405 -0.3624 -1.1931
  466TMC3    H2 6995   0.888   1.269  16.168 -1.6060  0.2762 -1.7603
  466TMC3    C7 6996   0.903   1.073  16.319  0.1844 -0.4441  0.5544
  466TMC3    C8 6997   0.801   1.509  16.256  0.2324 -0.1406  0.1376
  466TMC3    O1 6998   0.979   1.061  16.226  0.3301 -0.6926  0.1672
  466TMC3    O2 6999   0.865   1.525  16.155  0.0993 -0.3970 -0.0413
  467TMC3    C1 7000   2.494   4.157  14.102  0.2204 -0.2708  0.6768
  467TMC3    C2 7001   2.523   4.291  14.093 -0.1541  1.3022  0.3277
  467TMC3    C3 7002   2.442   4.376  14.019  0.3668  0.3845 -0.0908
  467TMC3    C4 7003   2.381   4.108  14.051  0.1315 -0.0507 -0.9352
  467TMC3    C5 7004   2.314   4.191  13.966 -0.8659 -1.3004 -0.3954
  467TMC3    C6 7005   2.323   4.330  13.963  0.8155 -0.5031 -0.2275
  467TMC3     C 7006   2.613   4.072  14.104 -0.5861 -0.5783  0.5093
  467TMC3     O 7007   2.704   4.116  14.172 -0.2320  0.0075 -0.1251
  467TMC3     H 7008   2.620   4.331  14.121  0.9673 -1.4476  0.3159
  467TMC3    H1 7009   2.374   4.001  14.040  0.3660  0.0843 -2.3942
  467TMC3    H2 7010   2.269   4.405  13.906  0.0988 -0.9511 -0.1369
  467TMC3    C7 7011   2.175   4.141  13.940 -0.0702 -0.5724  0.4064
  467TMC3    C8 7012   2.516   4.447  13.915 -0.0325  0.1793 -0.8362
  467TMC3    O1 7013   2.140   4.067  14.029 -0.1870 -0.3876  0.2557
  467TMC3    O2 7014   2.472   4.548  13.866  0.4727  0.4708 -0.0923
  468MPD2     C 7015   1.210   2.649  10.991  0.2636  0.1320 -0.0034
  468MPD2    C1 7016   1.341   2.635  10.953  0.6553  0.8096 -0.4555
  468MPD2    C2 7017   1.394   2.508  10.933 -0.4148  0.9604  0.0610
  468MPD2    C3 7018   1.313   2.398  10.952  0.1570  0.5599 -0.2699
  468MPD2    C4 7019   1.182   2.413  10.992  0.6604 -0.1728  0.2849
  468MPD2    C5 7020   1.127   2.538  11.008 -0.0142  0.0873  0.2789
  468MPD2     H 7021   1.494   2.491  10.895 -0.2808 -4.4540  2.8076
  468MPD2    H1 7022   1.119   2.324  10.993 -0.2925  0.4970  0.4331
  468MPD2    H2 7023   1.169   2.748  11.002 -1.5227 -0.5148 -0.8939
  468MPD2    H3 7024   1.025   2.554  11.041  0.7420 -0.7295  3.0300
  468MPD2     N 7025   1.347   2.263  10.931  0.0787  0.9466  0.1461
  468MPD2    H5 7026   1.276   2.196  10.961 -1.2797  2.5714  0.5997
  468MPD2    N1 7027   1.425   2.745  10.921 -0.4686  0.0551  0.6824
  468MPD2    H7 7028   1.519   2.735  10.883 -1.0348  0.1747 -0.7518
  469TMC3    C1 7029   1.490   2.973  10.931 -0.1427  0.3642 -0.2989
  469TMC3    C2 7030   1.590   2.950  10.843 -0.0673 -0.6775  0.1444
  469TMC3    C3 7031   1.678   3.051  10.807  0.5867 -0.3235  0.4720
  469TMC3    C4 7032   1.482   3.091  10.998 -0.1364 -0.2377 -0.7277
  469TMC3    C5 7033   1.581   3.175  10.970  0.2974  0.4714 -0.3349
  469TMC3    C6 7034   1.687   3.156  10.888 -0.4899 -0.0319  0.1260
  469TMC3     C 7035   1.390   2.877  10.950 -0.0575 -0.1582 -0.0498
  469TMC3     O 7036   1.298   2.918  11.019  0.2108  0.0607 -0.1337
  469TMC3     H 7037   1.579   2.858  10.788 -0.6448 -0.2369 -0.4866
  469TMC3    H1 7038   1.409   3.113  11.074  0.5374  0.2206 -0.2126
  469TMC3    H2 7039   1.754   3.238  10.865 -1.4202  0.7123  0.0711
  469TMC3    C7 7040   1.583   3.306  11.026 -0.1160  0.1411 -0.2919
  469TMC3    C8 7041   1.805   2.995  10.780 -0.3319  0.9520 -0.2680
  469TMC3    O1 7042   1.615   3.396  10.954 -0.2273  0.2174 -0.1834
  469TMC3    O2 7043   1.810   2.941  10.671 -0.6903  0.3311 -0.3783
  470TMC3    C1 7044   3.608   3.495   0.614  0.0393 -1.2068 -0.1271
  470TMC3    C2 7045   3.732   3.536   0.651 -0.7238  0.3906  0.4654
  470TMC3    C3 7046   3.748   3.574   0.783  0.2662 -0.3554 -0.9896
  470TMC3    C4 7047   3.504   3.492   0.707  0.2864  0.7870  0.3991
  470TMC3    C5 7048   3.522   3.550   0.830  0.0135  1.0537 -0.5338
  470TMC3    C6 7049   3.648   3.591   0.871  0.0035  0.0999  0.7289
  470TMC3     C 7050   3.589   3.453   0.476  0.2009  0.4414 -0.0923
  470TMC3     O 7051   3.664   3.507   0.398 -0.3922  0.4675  0.8634
  470TMC3     H 7052   3.809   3.516   0.578 -0.8748 -0.4898  0.5451
  470TMC3    H1 7053   3.401   3.480   0.675  0.6287 -1.0015 -0.0537
  470TMC3    H2 7054   3.659   3.637   0.969 -1.5408 -2.5348  2.1595
  470TMC3    C7 7055   3.402   3.600   0.897  0.1910  0.1922  0.5150
  470TMC3    C8 7056   3.867   3.643   0.823  0.2095 -0.3453 -0.1090
  470TMC3    O1 7057   3.291   3.561   0.863  0.4010 -0.2335 -0.2372
  470TMC3    O2 7058   3.864   3.709   0.927 -0.3263 -0.1149 -0.1141
  471MPD2     C 7059   4.190   4.605  16.241 -0.2438 -0.2887  0.7200
  471MPD2    C1 7060   4.168   4.475  16.271 -0.3452  0.4146  0.1945
  471MPD2    C2 7061   4.177   4.441  16.409 -0.2325 -0.0169  0.7759
  471MPD2    C3 7062   4.215   4.525  16.511 -0.3632 -0.4734  0.3824
  471MPD2    C4 7063   4.236   4.659  16.474 -0.2754 -0.5066  0.1743
  471MPD2    C5 7064   4.226   4.692  16.341  0.3647 -0.2754 -0.3029
  471MPD2     H 7065   4.160   4.335  16.421  1.5922 -0.7119 -2.5360
  471MPD2    H1 7066   4.245   4.737  16.548  0.5379  0.1809 -0.6436
  471MPD2    H2 7067   4.172   4.643  16.141 -2.2441 -0.3064  1.0673
  471MPD2    H3 7068   4.238   0.059  16.316  1.3665 -0.2930  0.0662
  471MPD2     N 7069   4.218   4.474  16.640 -0.1090 -0.1400  0.0759
  471MPD2    H5 7070   4.203   4.373  16.645  2.6739 -0.6670 -1.8217
  471MPD2    N1 7071   4.135   4.371  16.181  0.0406 -0.1176  0.0135
  471MPD2    H7 7072   4.110   4.282  16.224  2.1916 -0.6033  0.2302
  472TMC3    C1 7073   4.037   4.266  15.991  0.1973  0.3207  0.1693
  472TMC3    C2 7074   3.932   4.281  15.903  0.2560  0.0813  0.3720
  472TMC3    C3 7075   3.870   4.161  15.858 -0.0746  0.7275  0.4311
  472TMC3    C4 7076   4.068   4.135  16.040  0.3332 -1.2627 -0.3461
  472TMC3    C5 7077   4.013   4.024  15.990 -0.6281 -0.7423  0.4767
  472TMC3    C6 7078   3.917   4.034  15.892 -0.2770 -0.2079  0.6181
  472TMC3     C 7079   4.094   4.387  16.047 -0.5443 -0.7377 -0.3658
  472TMC3     O 7080   4.087   4.485  15.977 -0.3873 -0.0665 -0.1274
  472TMC3     H 7081   3.898   4.373  15.857  2.4383  0.7072 -0.0285
  472TMC3    H1 7082   4.150   4.122  16.109  0.1936 -0.1260  0.0396
  472TMC3    H2 7083   3.867   3.947  15.851 -3.1881  1.6932  0.1114
  472TMC3    C7 7084   4.030   3.901  16.065  0.5468 -0.6655  0.9009
  472TMC3    C8 7085   3.728   4.178  15.828  0.7141  0.0437 -0.2866
  472TMC3    O1 7086   4.079   3.908  16.178 -0.1255  0.0275  0.5495
  472TMC3    O2 7087   3.683   4.290  15.803  0.0425 -0.5121  0.1810
  473MPD2     C 7088   4.248   1.486  13.939 -0.7625  0.4921 -0.0300
  473MPD2    C1 7089   4.182   1.594  13.878  0.1840 -0.3656  0.0578
  473MPD2    C2 7090   4.180   1.724  13.929 -0.1618  0.4629 -0.2946
  473MPD2    C3 7091   4.253   1.748  14.049 -0.1762 -0.0908  0.0269
  473MPD2    C4 7092   4.326   1.640  14.105  0.6657  0.4562 -0.5592
  473MPD2    C5 7093   4.323   1.516  14.050 -0.4865 -0.5351  0.4007
  473MPD2     H 7094   4.121   1.800  13.881  1.6939  0.3211 -2.7877
  473MPD2    H1 7095   4.371   1.652  14.203  0.1672  1.7635 -0.4814
  473MPD2    H2 7096   4.254   1.390  13.889  0.8224 -1.1064  3.1667
  473MPD2    H3 7097   4.385   1.440  14.096  0.3387  0.5155  1.0202
  473MPD2     N 7098   4.265   1.872  14.111  0.1792  0.1818 -0.2760
  473MPD2    H5 7099   4.331   1.883  14.188  0.4360 -1.1286 -0.2945
  473MPD2    N1 7100   4.111   1.589  13.756  0.8428  0.2369 -0.5790
  473MPD2    H7 7101   4.078   1.679  13.724 -1.1867 -0.1557  0.3898
  474TMC3    C1 7102   4.236   2.106  14.149  0.5380  0.2667  0.3730
  474TMC3    C2 7103   4.128   2.189  14.170 -0.1613 -0.3063  0.5562
  474TMC3    C3 7104   4.151   2.315  14.220  0.6935  0.2431  0.6655
  474TMC3    C4 7105   4.368   2.147  14.187  0.7105 -0.4022 -0.0028
  474TMC3    C5 7106   4.380   2.272  14.244  0.2690  0.0297  0.1299
  474TMC3    C6 7107   4.275   2.357  14.257  0.3468 -0.3854  1.0569
  474TMC3     C 7108   4.206   1.986  14.068 -0.0381 -0.8182  0.9254
  474TMC3     O 7109   4.120   2.015  13.989  0.2809  0.0109 -0.4621
  474TMC3     H 7110   4.027   2.149  14.160 -0.5206  0.5018  0.9443
  474TMC3    H1 7111   4.459   2.090  14.180  0.5409 -0.4471 -1.8132
  474TMC3    H2 7112   4.281   2.455  14.304 -0.8153  0.2555 -0.1510
  474TMC3    C7 7113   4.515   2.320  14.286  0.1905 -0.8624  0.2499
  474TMC3    C8 7114   4.037   2.408  14.211 -0.4835  0.1696  0.0555
  474TMC3    O1 7115   4.610   2.299  14.216 -0.2124 -0.1232 -0.3752
  474TMC3    O2 7116   3.933   2.352  14.189 -0.1964  0.2900 -0.0945
  475MPD2     C 7117   2.536   4.410  10.522  0.3803  1.0242  0.1484
  475MPD2    C1 7118   2.580   4.504  10.608  0.0466  0.2032  0.4578
  475MPD2    C2 7119   2.501   4.611  10.644 -0.2828 -0.0226 -0.3380
  475MPD2    C3 7120   2.380   4.626  10.582  0.1461 -0.0299  0.3606
  475MPD2    C4 7121   2.341   4.536  10.489  0.3930 -1.0159  0.3888
  475MPD2    C5 7122   2.414   4.430  10.462 -0.4452 -0.0187  0.3160
  475MPD2     H 7123   2.524   4.689  10.717  0.2206 -1.3775  0.9613
  475MPD2    H1 7124   2.241   4.554  10.449  0.5439 -0.9416  0.0504
  475MPD2    H2 7125   2.596   4.325  10.492  0.9336  1.6234 -0.4332
  475MPD2    H3 7126   2.377   4.354  10.395  1.1445  0.5709 -1.2354
  475MPD2     N 7127   2.303   4.735  10.626 -0.4785  0.1751 -0.3250
  475MPD2    H5 7128   2.349   0.059  10.691  1.1392 -0.7328 -0.6043
  475MPD2    N1 7129   2.714   4.474  10.656  0.4535  0.0733  0.6098
  475MPD2    H7 7130   2.741   4.377  10.641 -0.5138  0.0311 -0.8315
  476TMC3    C1 7131   2.777   4.693  10.722 -0.3973  0.5216  0.6387
  476TMC3    C2 7132   2.757   0.019  10.601 -0.0483 -0.2520 -0.3104
  476TMC3    C3 7133   2.750   0.152  10.597 -0.4869  0.5935  0.0313
  476TMC3    C4 7134   2.795   0.022  10.834  0.3057 -0.1735  0.3696
  476TMC3    C5 7135   2.787   0.162  10.829  0.2063  0.0717  0.3745
  476TMC3    C6 7136   2.770   0.228  10.712  0.2287 -0.4603  0.0592
  476TMC3     C 7137   2.791   4.552  10.739  0.5264 -0.3169 -0.5405
  476TMC3     O 7138   2.891   4.529  10.801  0.6633 -0.2129 -0.1240
  476TMC3     H 7139   2.763   4.695  10.512  0.8006  0.2445 -0.5963
  476TMC3    H1 7140   2.792   4.705  10.927  1.4775  1.2307  1.2419
  476TMC3    H2 7141   2.763   0.336  10.715  0.1433 -0.4272 -1.3251
  476TMC3    C7 7142   2.732   0.220  10.948 -0.3413 -0.5428 -0.2212
  476TMC3    C8 7143   2.656   0.213  10.509  0.0811  0.5212  0.8213
  476TMC3    O1 7144   2.655   0.149  11.013  1.1853 -0.0033  0.2628
  476TMC3    O2 7145   2.644   0.338  10.523  0.0624  0.0132 -0.1017
  477MPD2     C 7146   0.356   1.764  11.603 -0.5749 -0.1272  0.5579
  477MPD2    C1 7147   0.288   1.709  11.496 -0.4266 -0.2187  0.6655
  477MPD2    C2 7148   0.184   1.623  11.522  0.0557  0.4918 -0.4207
  477MPD2    C3 7149   0.133   1.610  11.645 -0.1493 -0.3247 -0.3857
  477MPD2    C4 7150   0.206   1.662  11.749  0.3989  0.1338  0.1176
  477MPD2    C5 7151   0.319   1.743  11.733 -0.1301 -0.3193 -0.0669
  477MPD2     H 7152   0.127   1.583  11.439 -2.6577  0.5851  1.3724
  477MPD2    H1 7153   0.178   1.626  11.847 -0.2383 -1.2294 -0.5659
  477MPD2    H2 7154   0.451   1.810  11.578 -0.1264 -1.2052  0.2458
  477MPD2    H3 7155   0.376   1.771  11.821 -0.1597  1.6999 -0.6765
  477MPD2     N 7156   0.017   1.535  11.664 -0.1518 -0.1720 -0.2799
  477MPD2    H5 7157   4.734   1.471  11.588 -2.4138  1.0013 -0.6187
  477MPD2    N1 7158   0.335   1.736  11.366  0.4171 -0.0961  0.0760
  477MPD2    H7 7159   0.394   1.819  11.359  1.3996 -1.0868 -3.4462
  478TMC3    C1 7160   0.365   1.730  11.130  0.4771 -0.1379  0.2462
  478TMC3    C2 7161   0.327   1.856  11.109  0.1124 -0.0782 -0.0247
  478TMC3    C3 7162   0.323   1.905  10.978  0.0186  0.3373 -0.2867
  478TMC3    C4 7163   0.377   1.653  11.012 -0.1737  0.4955 -0.2796
  478TMC3    C5 7164   0.369   1.707  10.884  0.2018  0.1964 -0.1701
  478TMC3    C6 7165   0.364   1.841  10.865 -0.1368  0.4050 -0.8261
  478TMC3     C 7166   0.310   1.666  11.252 -0.4997 -0.0070  0.0195
  478TMC3     O 7167   0.259   1.554  11.241 -0.1500  0.2081  0.1018
  478TMC3     H 7168   0.304   1.921  11.193 -0.1960  1.4982 -1.3354
  478TMC3    H1 7169   0.375   1.545  11.016 -1.6695  0.4783 -1.4636
  478TMC3    H2 7170   0.381   1.885  10.768  2.3942 -1.4621 -1.2412
  478TMC3    C7 7171   0.313   1.628  10.777 -0.0731 -0.1702  0.0926
  478TMC3    C8 7172   0.310   2.048  10.972  0.4779  0.0622  0.5991
  478TMC3    O1 7173   0.335   1.510  10.765 -0.2277  0.2153  0.0329
  478TMC3    O2 7174   0.383   2.114  10.901 -0.0611  0.1424  0.0989
  479MPD2     C 7175   3.450   3.604  15.210  0.1808  0.0699 -0.2901
  479MPD2    C1 7176   3.421   3.589  15.341 -0.1179  0.2512  0.3112
  479MPD2    C2 7177   3.517   3.619  15.437 -0.0181 -0.2983 -0.0842
  479MPD2    C3 7178   3.638   3.681  15.395  0.2054  0.5715  0.1151
  479MPD2    C4 7179   3.660   3.688  15.257 -0.3318  0.5352  0.0484
  479MPD2    C5 7180   3.566   3.655  15.166 -0.2114  0.1662 -1.3327
  479MPD2     H 7181   3.501   3.615  15.544 -0.6064 -2.9871 -0.2759
  479MPD2    H1 7182   3.757   3.723  15.224  0.9937 -1.8499  1.4924
  479MPD2    H2 7183   3.380   3.582  15.130 -2.1773 -0.7567  1.9922
  479MPD2    H3 7184   3.591   3.654  15.060  3.3720 -1.4839 -0.4752
  479MPD2     N 7185   3.747   3.729  15.479 -0.3014  0.6518 -0.3242
  479MPD2    H5 7186   3.821   3.760  15.417 -0.6784 -1.1464 -1.6727
  479MPD2    N1 7187   3.297   3.537  15.377  0.3534 -0.4812  0.3218
  479MPD2    H7 7188   3.240   3.490  15.307  1.5833  1.3145 -1.8398
  480TMC3    C1 7189   3.480   3.727  15.845  0.0841  0.0168  0.0397
  480TMC3    C2 7190   3.383   3.803  15.790  0.5971  0.2039 -0.2972
  480TMC3    C3 7191   3.426   3.884  15.686  0.8078 -0.7232  0.2754
  480TMC3    C4 7192   3.602   3.710  15.786 -0.2287 -0.0767  0.5134
  480TMC3    C5 7193   3.636   3.781  15.678  0.3887 -0.3062  0.5661
  480TMC3    C6 7194   3.554   3.867  15.625 -0.9925  0.1680 -0.7397
  480TMC3     C 7195   3.437   3.610  15.919 -0.5876  0.4158 -0.2064
  480TMC3     O 7196   3.535   3.550  15.961 -0.1658 -0.0753  0.0459
  480TMC3     H 7197   3.280   3.805  15.824  0.8145 -1.1615  0.4128
  480TMC3    H1 7198   3.675   3.647  15.836  1.1328  1.2274  0.1600
  480TMC3    H2 7199   3.584   3.934  15.546  1.1712 -1.3062 -1.1886
  480TMC3    C7 7200   3.756   3.745  15.615  0.4190  0.1335 -0.3623
  480TMC3    C8 7201   3.315   3.906  15.593 -0.5483 -0.6109  0.1933
  480TMC3    O1 7202   3.854   3.750  15.689 -0.2851 -0.2388  0.0576
  480TMC3    O2 7203   3.201   3.921  15.634 -0.1550 -0.3847 -0.3781
  481MPD2     C 7204   0.432   3.495  13.846  0.0687 -0.6860  0.1832
  481MPD2    C1 7205   0.324   3.425  13.900 -0.1304  0.1809  0.3321
  481MPD2    C2 7206   0.338   3.374  14.027  0.4529  0.1263  0.4006
  481MPD2    C3 7207   0.457   3.386  14.098  0.4152  0.1053 -0.4726
  481MPD2    C4 7208   0.556   3.458  14.039 -0.1616 -0.1073  0.4265
  481MPD2    C5 7209   0.545   3.507  13.914  0.2352  0.0945  0.0305
  481MPD2     H 7210   0.258   3.317  14.074  0.9741 -0.4223  0.6193
  481MPD2    H1 7211   0.655   3.467  14.081  0.6525 -1.2907 -1.2700
  481MPD2    H2 7212   0.431   3.521  13.741  1.3753  0.9987  0.5683
  481MPD2    H3 7213   0.629   3.568  13.881 -0.8211  1.4373 -0.2097
  481MPD2     N 7214   0.483   3.346  14.228  0.0465  0.6942  0.4452
  481MPD2    H5 7215   0.572   3.373  14.269  0.4584  1.2903 -0.8523
  481MPD2    N1 7216   0.218   3.408  13.809 -0.3497  0.0724 -0.1651
  481MPD2    H7 7217   0.214   3.452  13.718 -2.3337 -1.1107 -0.6541
  482TMC3    C1 7218   0.019   3.322  13.726 -0.2249  0.2284  0.3408
  482TMC3    C2 7219   4.693   3.211  13.687  0.1917  0.3321  0.4346
  482TMC3    C3 7220   4.593   3.214  13.592  0.5106  0.3456 -0.0907
  482TMC3    C4 7221   4.722   3.443  13.673 -0.4634 -0.3412 -0.0165
  482TMC3    C5 7222   4.614   3.449  13.582  0.1813  0.6826 -0.4020
  482TMC3    C6 7223   4.545   3.330  13.547 -1.0051  0.2662 -0.3424
  482TMC3     C 7224   0.119   3.310  13.824  0.6164 -0.0552  0.4056
  482TMC3     O 7225   0.119   3.212  13.901 -0.0345  0.0944  0.3771
  482TMC3     H 7226   4.736   3.115  13.712 -2.1235 -0.7236  0.2746
  482TMC3    H1 7227   0.015   3.538  13.715 -0.8346 -1.1630  2.1509
  482TMC3    H2 7228   4.473   3.342  13.467 -0.1137  2.3999 -0.8410
  482TMC3    C7 7229   4.614   3.571  13.500  0.3387  0.7496  0.1208
  482TMC3    C8 7230   4.557   3.090  13.526  0.3962  1.1517 -0.0187
  482TMC3    O1 7231   4.723   3.630  13.486 -0.3843 -0.1388  0.5668
  482TMC3    O2 7232   4.594   2.987  13.583  0.5512 -0.1465 -0.2092
  483TMC3    C1 7233   2.815   2.635   0.911 -0.3110  0.3903 -0.0484
  483TMC3    C2 7234   2.892   2.721   0.843  0.2132  0.1236 -0.3814
  483TMC3    C3 7235   3.028   2.727   0.869 -0.5862 -0.2578 -0.1396
  483TMC3    C4 7236   2.865   2.563   1.021 -0.0936 -0.3792 -0.3606
  483TMC3    C5 7237   2.997   2.576   1.048  0.6586 -0.2912 -0.9067
  483TMC3    C6 7238   3.082   2.662   0.978 -0.0520  0.3159 -0.1884
  483TMC3     C 7239   2.731   2.559   0.821  0.1083  0.0508  0.4862
  483TMC3     O 7240   2.660   2.618   0.744  0.5600  0.2518  0.4744
  483TMC3     H 7241   2.863   2.763   0.748  0.6871  0.8016 -0.2268
  483TMC3    H1 7242   2.810   2.500   1.090  1.3667 -1.8597 -0.5560
  483TMC3    H2 7243   3.190   2.650   0.970 -0.1272  1.5508 -2.9866
  483TMC3    C7 7244   3.065   2.456   1.098  0.7972 -0.0110 -0.1163
  483TMC3    C8 7245   3.118   2.771   0.758 -0.3056  0.5917  0.1522
  483TMC3    O1 7246   2.995   2.358   1.092  0.0541 -0.2461 -0.4592
  483TMC3    O2 7247   3.079   2.736   0.647  0.0591 -0.1744 -0.2061
  484MPD2     C 7248   1.089   0.578  12.067 -0.2557 -0.4178  0.2113
  484MPD2    C1 7249   1.120   0.488  12.166  0.1069 -0.4725 -0.1472
  484MPD2    C2 7250   1.251   0.500  12.207 -0.7905 -0.0709  0.3925
  484MPD2    C3 7251   1.338   0.591  12.149 -0.0527 -0.1820  0.0149
  484MPD2    C4 7252   1.301   0.675  12.055 -0.2758  0.1204  0.8345
  484MPD2    C5 7253   1.172   0.679  12.017  0.2466 -0.5498 -0.3763
  484MPD2     H 7254   1.285   0.439  12.290 -1.7704  1.1060  1.6747
  484MPD2    H1 7255   1.364   0.751  12.011 -0.4619 -1.3580 -2.0564
  484MPD2    H2 7256   0.986   0.561  12.037  0.0682 -0.4052 -0.9138
  484MPD2    H3 7257   1.139   0.746  11.938 -2.8412 -1.8451 -0.1805
  484MPD2     N 7258   1.472   0.590  12.175  0.1708  0.0666 -0.4181
  484MPD2    H5 7259   1.526   0.661  12.127  1.6709  0.2964  1.5666
  484MPD2    N1 7260   1.027   0.393  12.222 -0.5826  0.1150 -0.5035
  484MPD2    H7 7261   0.933   0.397  12.183 -0.8194 -1.3476 -0.0754
  485TMC3    C1 7262   1.674   0.543  12.298  0.5844  0.3582 -0.1174
  485TMC3    C2 7263   1.744   0.464  12.383 -0.5880 -0.2539 -0.0111
  485TMC3    C3 7264   1.872   0.505  12.416 -0.0861  0.7412 -0.1819
  485TMC3    C4 7265   1.742   0.645  12.230  0.2579  0.3918  0.8459
  485TMC3    C5 7266   1.875   0.670  12.259  0.0185  0.2830  0.0695
  485TMC3    C6 7267   1.933   0.608  12.363  0.3752  0.3515  0.3571
  485TMC3     C 7268   1.535   0.511  12.271  0.1733  0.2017 -0.0330
  485TMC3     O 7269   1.502   0.414  12.333  0.3910  0.2057 -0.5466
  485TMC3     H 7270   1.707   0.370  12.422 -2.1991  0.6206  0.5551
  485TMC3    H1 7271   1.695   0.709  12.157 -0.1064  1.6914  2.2185
  485TMC3    H2 7272   2.030   0.632  12.405  1.3991 -2.9066 -0.1398
  485TMC3    C7 7273   1.973   0.690  12.156  0.1339 -0.4086  0.2331
  485TMC3    C8 7274   1.958   0.390  12.431  0.4562  0.0805  0.3095
  485TMC3    O1 7275   2.085   0.653  12.200  0.3050  0.3423  0.5205
  485TMC3    O2 7276   1.944   0.309  12.522  0.5077 -0.5111 -0.4744
  486MPD2     C 7277   3.352   3.361  13.371  0.3015  0.4526  0.0741
  486MPD2    C1 7278   3.294   3.361  13.242  0.1755 -0.1204 -0.5583
  486MPD2    C2 7279   3.214   3.470  13.193  0.2311 -0.0726 -0.6175
  486MPD2    C3 7280   3.203   3.580  13.272 -0.2091  0.1829 -0.4364
  486MPD2    C4 7281   3.243   3.574  13.403  0.9643  0.7088  0.6049
  486MPD2    C5 7282   3.316   3.465  13.453 -0.2077 -0.5492 -0.2487
  486MPD2     H 7283   3.186   3.474  13.089  0.3822  3.4096 -0.5324
  486MPD2    H1 7284   3.204   3.642  13.478  0.3604  2.2364 -1.1221
  486MPD2    H2 7285   3.418   3.286  13.411  0.3577 -0.2283 -1.2971
  486MPD2    H3 7286   3.350   3.455  13.556  0.7888  0.6772 -0.4540
  486MPD2     N 7287   3.134   3.686  13.208 -0.1066 -0.5670 -0.4393
  486MPD2    H5 7288   3.094   3.669  13.116  0.4155 -0.4597 -0.6877
  486MPD2    N1 7289   3.331   3.250  13.159 -0.5258 -0.2728 -0.8064
  486MPD2    H7 7290   3.408   3.194  13.195 -1.1857 -0.4511  0.3197
  487TMC3    C1 7291   3.398   3.144  12.959 -0.2466 -0.2224  0.2489
  487TMC3    C2 7292   3.335   3.056  12.875  0.1064 -0.1120 -0.1854
  487TMC3    C3 7293   3.336   2.925  12.892  0.7103 -0.1098  0.6085
  487TMC3    C4 7294   3.479   3.087  13.060 -0.2252  0.4181  0.1850
  487TMC3    C5 7295   3.488   2.947  13.065 -0.1542 -0.0831  0.3984
  487TMC3    C6 7296   3.421   2.866  12.978  0.0053 -0.5703  0.3149
  487TMC3     C 7297   3.303   3.238  13.022  0.3916 -0.9710  0.2704
  487TMC3     O 7298   3.204   3.283  12.965 -0.3266  0.1971 -0.4869
  487TMC3     H 7299   3.260   3.098  12.808 -0.6082 -1.7354 -0.3895
  487TMC3    H1 7300   3.544   3.137  13.131  2.4623 -1.6779 -0.8450
  487TMC3    H2 7301   3.409   2.762  13.004 -0.5079 -0.8762 -1.1594
  487TMC3    C7 7302   3.503   2.909  13.199  0.4138  0.0113  0.0961
  487TMC3    C8 7303   3.303   2.837  12.780 -0.3175  0.3334  0.1009
  487TMC3    O1 7304   3.458   2.977  13.285  0.1505  0.2087  0.0260
  487TMC3    O2 7305   3.393   2.767  12.732  0.7722  0.3954 -0.3566
  488MPD2     C 7306   3.036   0.786  16.059  0.3816  0.9215 -0.1820
  488MPD2    C1 7307   3.157   0.784  16.123  0.2229  0.4446  0.1805
  488MPD2    C2 7308   3.167   0.715  16.241 -0.3384 -0.1330  0.3447
  488MPD2    C3 7309   3.062   0.639  16.282 -0.3472  0.5901  0.4151
  488MPD2    C4 7310   2.946   0.626  16.213  0.4453 -0.2598  0.3763
  488MPD2    C5 7311   2.924   0.712  16.107  0.3825 -0.3345  0.4685
  488MPD2     H 7312   3.259   0.720  16.299  0.1333  0.3061 -0.4463
  488MPD2    H1 7313   2.859   0.572  16.248 -1.3098  2.3488  0.1139
  488MPD2    H2 7314   3.030   0.851  15.973 -0.2360 -1.0083 -1.6064
  488MPD2    H3 7315   2.833   0.719  16.049  1.1272  2.2160 -0.3807
  488MPD2     N 7316   3.080   0.576  16.406  1.4804 -0.3338  0.6611
  488MPD2    H5 7317   3.173   0.593  16.442  1.2763 -2.1099  2.0484
  488MPD2    N1 7318   3.269   0.858  16.084 -0.6445  0.3524  0.4793
  488MPD2    H7 7319   3.340   0.872  16.154 -0.4657  1.4047  0.1011
  489TMC3    C1 7320   2.999   0.508  16.622 -0.3515  0.0442  0.0142
  489TMC3    C2 7321   3.105   0.575  16.681  0.2956  0.4911 -0.3109
  489TMC3    C3 7322   3.087   0.629  16.802 -0.3483 -0.1434  0.1757
  489TMC3    C4 7323   2.888   0.471  16.702 -0.0959 -0.1764  0.3797
  489TMC3    C5 7324   2.888   0.509  16.833  0.0469 -0.3396 -0.8066
  489TMC3    C6 7325   2.982   0.597  16.884  0.0233 -0.4788  0.1483
  489TMC3     C 7326   2.980   0.519  16.476  0.3742  0.5556 -0.5240
  489TMC3     O 7327   2.874   0.475  16.437  0.2056  0.1548  0.5205
  489TMC3     H 7328   3.191   0.609  16.625  0.2227  0.1286 -0.6449
  489TMC3    H1 7329   2.805   0.418  16.657  0.4106 -1.9555  1.5548
  489TMC3    H2 7330   2.983   0.641  16.982  0.9453 -1.0609  0.4079
  489TMC3    C7 7331   2.770   0.464  16.901 -0.2889  0.4367 -0.1179
  489TMC3    C8 7332   3.171   0.746  16.841  0.1814  0.2882 -0.0319
  489TMC3    O1 7333   2.672   0.428  16.841 -0.2505 -0.3784  0.1337
  489TMC3    O2 7334   3.276   0.778  16.783  0.0331  0.2274  0.1918
  490MPD2     C 7335   4.007   0.366  17.167  0.1712 -0.3543  0.1790
  490MPD2    C1 7336   4.004   0.353  17.304 -0.0120 -0.3612  0.4345
  490MPD2    C2 7337   4.066   0.452  17.385  0.3570  0.4409 -0.1135
  490MPD2    C3 7338   4.124   0.564  17.325  0.0094 -0.6739  0.1142
  490MPD2    C4 7339   4.114   0.579  17.189 -0.4723 -0.0448 -0.0746
  490MPD2    C5 7340   4.061   0.479  17.114  0.7308 -0.9566  0.1738
  490MPD2     H 7341   4.067   0.429  17.491  1.0898  2.7691  0.3828
  490MPD2    H1 7342   4.153   0.665  17.136  1.4955 -0.4985  0.6530
  490MPD2    H2 7343   3.961   0.294  17.100  0.2512  1.1860 -1.5452
  490MPD2    H3 7344   4.057   0.481  17.005 -0.4188 -2.5012  0.1819
  490MPD2     N 7345   4.170   0.678  17.397  0.2005 -0.2342 -0.4295
  490MPD2    H5 7346   4.191   0.755  17.334 -0.8949  0.1626 -0.3087
  490MPD2    N1 7347   3.947   0.240  17.370 -0.3488 -0.2695  0.3773
  490MPD2    H7 7348   3.971   0.236  17.468 -0.5496  3.5535  0.5862
  491TMC3    C1 7349   3.823   0.034  17.390  0.0814  0.1598  0.4162
  491TMC3    C2 7350   3.776   0.065  17.521  0.0181  0.0993  0.1308
  491TMC3    C3 7351   3.700   4.710  17.586 -0.1475  0.6294 -0.2810
  491TMC3    C4 7352   3.760   4.675  17.317 -0.4558  0.5748  0.0343
  491TMC3    C5 7353   3.672   4.592  17.382  0.5801  0.1994 -0.0745
  491TMC3    C6 7354   3.629   4.613  17.515 -0.0304  0.4275 -0.0643
  491TMC3     C 7355   3.879   0.135  17.299 -0.2300 -0.1371 -0.0012
  491TMC3     O 7356   3.850   0.123  17.181  0.2051 -0.3128 -0.2507
  491TMC3     H 7357   3.824   0.146  17.574 -1.1566  0.7043  0.2505
  491TMC3    H1 7358   3.782   4.668  17.211  1.7815  1.0332  0.4759
  491TMC3    H2 7359   3.534   4.578  17.555  0.9396 -0.5919  1.3679
  491TMC3    C7 7360   3.575   4.531  17.288  0.0827  0.6856  0.1553
  491TMC3    C8 7361   3.652   0.008  17.717 -0.8548  0.5225 -0.1412
  491TMC3    O1 7362   3.591   4.565  17.170  0.6346  0.0886 -0.3653
  491TMC3    O2 7363   3.530   0.009  17.736 -0.4981  0.5639  0.1796
  492MPD2     C 7364   0.065   0.057  11.289 -0.0267  0.6784  0.5639
  492MPD2    C1 7365   4.671   0.085  11.252  0.1948  0.1581 -0.5131
  492MPD2    C2 7366   4.572   0.032  11.337 -0.5410 -0.6183 -0.0923
  492MPD2    C3 7367   4.604   4.702  11.455 -0.4594  0.3331  0.0184
  492MPD2    C4 7368   4.736   4.680  11.491 -0.5474 -0.3123 -0.1661
  492MPD2    C5 7369   0.102   4.728  11.411 -0.1345  0.1996 -0.4794
  492MPD2     H 7370   4.472   0.072  11.332  0.1223  1.1743  0.8319
  492MPD2    H1 7371   0.024   4.622  11.579 -0.5443 -1.3889 -0.8834
  492MPD2    H2 7372   0.143   0.086  11.219  0.2914 -1.0296  0.2092
  492MPD2    H3 7373   0.204   4.712  11.443 -0.8246 -1.5085  0.8408
  492MPD2     N 7374   4.504   4.657  11.541 -0.3888 -0.5987 -0.0544
  492MPD2    H5 7375   4.538   4.615  11.627 -1.4528 -1.0572  0.1402
  492MPD2    N1 7376   4.657   0.155  11.127  0.0760 -0.2176  0.2459
  492MPD2    H7 7377   4.733   0.202  11.079  0.5381 -1.6182 -0.3707
  493TMC3    C1 7378   4.532   0.240  10.948  0.3463  0.3284  0.1817
  493TMC3    C2 7379   4.650   0.296  10.903 -0.1105 -0.1359 -0.7312
  493TMC3    C3 7380   4.638   0.403  10.816  0.1482 -0.5491  0.3409
  493TMC3    C4 7381   4.411   0.276  10.904 -0.1000  0.2347 -0.0947
  493TMC3    C5 7382   4.409   0.374  10.807  0.0466  0.1679 -0.0240
  493TMC3    C6 7383   4.522   0.434  10.758  0.4884  0.3802  0.1319
  493TMC3     C 7384   4.534   0.155  11.063 -0.0899 -0.0182 -0.7844
  493TMC3     O 7385   4.430   0.100  11.100  0.2183  0.0042  0.0893
  493TMC3     H 7386   0.010   0.253  10.924 -0.8751 -1.6507 -0.2720
  493TMC3    H1 7387   4.327   0.209  10.918  0.3548 -0.4789 -0.8301
  493TMC3    H2 7388   4.511   0.525  10.700 -1.5774  0.3176  0.4408
  493TMC3    C7 7389   4.274   0.413  10.763  0.8168  0.4859  0.0343
  493TMC3    C8 7390   0.016   0.489  10.807  0.3674 -0.1034 -0.3994
  493TMC3    O1 7391   4.259   0.453  10.647  0.0204  0.3586  0.0907
  493TMC3    O2 7392   0.102   0.471  10.894  0.5943 -0.4986 -0.3710
  494TMC3    C1 7393   4.689   2.587   0.532 -0.2535 -0.1792 -0.1015
  494TMC3    C2 7394   4.644   2.459   0.487 -0.1429  0.5905 -0.9484
  494TMC3    C3 7395   4.671   2.433   0.352  0.1773  0.2165 -0.0256
  494TMC3    C4 7396   0.020   2.671   0.438 -0.7559 -0.1110  0.0810
  494TMC3    C5 7397   0.038   2.633   0.312 -0.0303  0.2732  0.0086
  494TMC3    C6 7398   4.728   2.514   0.265 -0.2336  0.3904 -0.0781
  494TMC3     C 7399   4.687   2.608   0.681 -0.3195  0.2454  0.1072
  494TMC3     O 7400   4.652   2.511   0.747 -0.6365  0.1706 -0.5646
  494TMC3     H 7401   4.598   2.387   0.553  1.4786  0.2161 -0.2186
  494TMC3    H1 7402   0.047   2.771   0.469 -2.7091  0.6162 -0.5091
  494TMC3    H2 7403   0.011   2.494   0.161 -1.8181  0.6467 -0.4487
  494TMC3    C7 7404   0.082   2.732   0.213 -0.1649  0.2649 -0.3966
  494TMC3    C8 7405   4.630   2.305   0.298 -0.1571 -0.4991  0.4394
  494TMC3    O1 7406   0.060   2.703   0.096  0.4930 -0.0967  0.2279
  494TMC3    O2 7407   4.583   2.303   0.184  0.3838 -0.2800  0.9293
  495TMC3    C1 7408   3.653   3.784  14.688  0.4971 -0.3796 -0.5947
  495TMC3    C2 7409   3.645   3.878  14.591  0.0079  0.5567 -0.2867
  495TMC3    C3 7410   3.558   3.982  14.611 -0.1081 -0.1917  0.4326
  495TMC3    C4 7411   3.602   3.803  14.811 -0.4222 -0.8025  0.3590
  495TMC3    C5 7412   3.550   3.924  14.837 -0.1195 -0.5434 -0.5157
  495TMC3    C6 7413   3.522   4.010  14.741 -0.0720 -0.1470  0.1354
  495TMC3     C 7414   3.621   3.648  14.652 -0.3928 -0.3353  0.0727
  495TMC3     O 7415   3.526   3.605  14.711  0.6095 -0.5862  0.8092
  495TMC3     H 7416   3.689   3.868  14.492 -1.1584  0.8511 -0.8374
  495TMC3    H1 7417   3.618   3.724  14.883  0.8105  0.2969  1.2902
  495TMC3    H2 7418   3.453   4.090  14.765 -0.0882 -0.3289  0.6946
  495TMC3    C7 7419   3.500   3.947  14.973  0.2303 -0.3209 -0.1922
  495TMC3    C8 7420   3.444   3.988  14.511 -0.1405  0.4768  0.9410
  495TMC3    O1 7421   3.586   3.950  15.058  0.1688  0.4645  0.0685
  495TMC3    O2 7422   3.336   4.041  14.546  0.0134 -0.0956 -0.2287
  496MPD2     C 7423   0.526   4.136  14.911  0.6990 -0.5640  0.2524
  496MPD2    C1 7424   0.580   4.065  15.012 -0.0393  0.5735  0.3247
  496MPD2    C2 7425   0.501   3.968  15.062 -1.4561 -0.2941  0.3629
  496MPD2    C3 7426   0.364   3.958  15.031  0.0732  0.7330  0.4188
  496MPD2    C4 7427   0.317   4.021  14.920  0.1247  0.1769  0.3939
  496MPD2    C5 7428   0.398   4.113  14.867  0.4661 -0.6429  0.7164
  496MPD2     H 7429   0.532   3.897  15.139 -0.4313 -0.5865 -0.3236
  496MPD2    H1 7430   0.216   4.013  14.881  0.4618  2.6282 -1.0063
  496MPD2    H2 7431   0.581   4.206  14.849  2.3170 -0.5303  1.7360
  496MPD2    H3 7432   0.368   4.173  14.782  2.1136 -0.8069  0.0219
  496MPD2     N 7433   0.300   3.849  15.096 -0.2058  0.5231 -0.3920
  496MPD2    H5 7434   0.354   3.800  15.167 -0.5801 -0.0144 -0.4791
  496MPD2    N1 7435   0.714   4.093  15.055 -0.4803 -0.3025 -0.5716
  496MPD2    H7 7436   0.761   4.163  14.997 -1.3849  0.1607 -0.7394
  497TMC3    C1 7437   0.128   3.734  15.211  0.8080 -0.0727 -0.0327
  497TMC3    C2 7438   0.049   3.625  15.185 -0.8263  0.1352 -0.3280
  497TMC3    C3 7439   4.726   3.565  15.294 -0.0291  0.0196 -0.2671
  497TMC3    C4 7440   0.166   3.786  15.335 -0.1999  0.6037  0.4623
  497TMC3    C5 7441   0.116   3.711  15.438  0.0923  0.0327  0.0685
  497TMC3    C6 7442   0.022   3.607  15.419  0.0017 -0.0203  0.4560
  497TMC3     C 7443   0.164   3.819  15.097 -0.1098  0.7184  0.1157
  497TMC3     O 7444   0.077   3.867  15.025 -0.6216 -0.5805 -0.1574
  497TMC3     H 7445   0.034   3.597  15.081  2.3046 -0.3365 -0.6505
  497TMC3    H1 7446   0.219   3.879  15.351  3.3607 -1.9021  3.2689
  497TMC3    H2 7447   4.723   3.547  15.502  1.1105  1.0527  1.7202
  497TMC3    C7 7448   0.131   3.769  15.573  0.7574  0.7569  0.8306
  497TMC3    C8 7449   4.642   3.446  15.285  0.0009 -0.3698 -0.2845
  497TMC3    O1 7450   0.024   3.764  15.633 -0.3176 -1.0673 -0.4471
  497TMC3    O2 7451   4.582   3.413  15.385  0.2154 -0.1720 -0.1735
  498MPD2     C 7452   2.109   0.602   9.903  0.3367  0.8112 -0.1176
  498MPD2    C1 7453   2.101   0.643  10.031 -0.4221  0.1009 -0.1348
  498MPD2    C2 7454   2.064   0.555  10.130  0.6961  0.8026  1.0704
  498MPD2    C3 7455   2.008   0.432  10.096  0.6550  0.1414 -0.2273
  498MPD2    C4 7456   2.008   0.393   9.962  0.3767  0.0656  0.0954
  498MPD2    C5 7457   2.057   0.484   9.867  0.3568  0.0863  0.0774
  498MPD2     H 7458   2.069   0.592  10.232 -0.9184 -0.5987  1.6603
  498MPD2    H1 7459   1.950   0.312   9.920 -0.1609 -0.1428  1.2403
  498MPD2    H2 7460   2.155   0.651   9.818 -0.5113  1.2362 -0.3364
  498MPD2    H3 7461   2.068   0.461   9.762  1.0468 -0.2227  0.2157
  498MPD2     N 7462   1.953   0.347  10.202 -0.4913  0.1675  0.1159
  498MPD2    H5 7463   1.944   0.381  10.297  0.3118  1.1703 -0.1631
  498MPD2    N1 7464   2.157   0.768  10.066  0.9807 -0.2492  0.4260
  498MPD2    H7 7465   2.184   0.783  10.163  1.4041  0.1728  0.2418
  499TMC3    C1 7466   2.242   0.987  10.031  0.8645 -0.6794 -0.3896
  499TMC3    C2 7467   2.340   0.962  10.128 -0.1307 -0.2272  0.2001
  499TMC3    C3 7468   2.414   1.074  10.166 -0.0656  0.5166 -0.0362
  499TMC3    C4 7469   2.238   1.107   9.962 -0.5675  0.2737  0.2115
  499TMC3    C5 7470   2.318   1.202  10.002  0.3540  0.8940  0.0210
  499TMC3    C6 7471   2.394   1.190  10.114  0.1298  0.5332  0.0033
  499TMC3     C 7472   2.170   0.875   9.977  0.0403 -0.4678  0.1838
  499TMC3     O 7473   2.141   0.885   9.858  0.4333  0.4452  0.2895
  499TMC3     H 7474   2.356   0.869  10.182 -0.7532 -0.7959 -0.5960
  499TMC3    H1 7475   2.188   1.116   9.866  0.6639 -1.1036 -0.5528
  499TMC3    H2 7476   2.457   1.273  10.145 -0.0494  0.9479 -0.7146
  499TMC3    C7 7477   2.316   1.330   9.936 -0.6749 -0.1539  0.5155
  499TMC3    C8 7478   2.529   1.043  10.258 -0.7107 -0.6770 -0.9269
  499TMC3    O1 7479   2.416   1.397   9.958 -0.2138  0.3903 -0.4989
  499TMC3    O2 7480   2.507   0.946  10.332  0.2529  0.3045 -0.3626
  500MPD2     C 7481   3.463   0.942  10.849  0.2097 -0.7375  0.1964
  500MPD2    C1 7482   3.531   1.013  10.752  0.2414  0.1941 -0.1567
  500MPD2    C2 7483   3.457   1.083  10.660  0.2550  0.3250 -0.8921
  500MPD2    C3 7484   3.316   1.081  10.661  0.0663  0.0529 -0.5725
  500MPD2    C4 7485   3.254   1.016  10.770 -0.1467  0.7518 -0.8080
  500MPD2    C5 7486   3.325   0.937  10.856 -0.0821 -0.6295 -0.4364
  500MPD2     H 7487   3.516   1.144  10.592 -0.5555  2.2575  0.1317
  500MPD2    H1 7488   3.147   1.003  10.781 -0.0802  1.7859  1.0281
  500MPD2    H2 7489   3.502   0.878  10.927  0.8554  0.2475  0.6767
  500MPD2    H3 7490   3.272   0.869  10.921 -0.3289 -0.4263 -0.4249
  500MPD2     N 7491   3.227   1.156  10.577  0.3401 -0.4772  0.0720
  500MPD2    H5 7492   3.130   1.160  10.606  0.3141 -0.7616  0.0230
  500MPD2    N1 7493   3.670   1.023  10.752  0.2155  0.1074  0.1687
  500MPD2    H7 7494   3.709   1.074  10.673 -1.3340  1.3182  0.1672
  501TMC3    C1 7495   3.893   1.021  10.808  0.2648  0.4995  0.5253
  501TMC3    C2 7496   3.914   1.087  10.689  0.5143  0.2239 -0.8320
  501TMC3    C3 7497   4.041   1.076  10.629  0.0204  0.3472  0.0070
  501TMC3    C4 7498   3.996   0.952  10.864  0.1353 -0.0265 -0.7226
  501TMC3    C5 7499   4.118   0.951  10.808  0.2668 -0.1883  1.0440
  501TMC3    C6 7500   4.145   1.005  10.686  0.3334 -0.2480  0.1824
  501TMC3     C 7501   3.758   0.977  10.844  0.2692 -0.3424  0.4212
  501TMC3     O 7502   3.734   0.932  10.954  0.4827  0.2764 -0.7777
  501TMC3     H 7503   3.847   1.165  10.653  3.0962  1.9475 -1.8755
  501TMC3    H1 7504   3.993   0.897  10.957  0.6838  2.4908  0.7656
  501TMC3    H2 7505   4.238   1.000  10.630 -0.4679  0.1305 -1.1879
  501TMC3    C7 7506   4.200   0.838  10.841 -0.3293 -0.3536  0.2238
  501TMC3    C8 7507   4.075   1.178  10.536  0.3513 -0.0259  0.5511
  501TMC3    O1 7508   4.146   0.733  10.877 -0.8809 -0.4247 -0.0361
  501TMC3    O2 7509   4.193   1.213  10.522  0.1891 -0.0115 -0.2570
  502TMC3    C1 7510   3.088   0.203  14.768  0.5167  0.1313 -0.4335
  502TMC3    C2 7511   3.043   0.327  14.744 -0.0531 -0.4684 -0.5937
  502TMC3    C3 7512   2.905   0.349  14.749  0.0976 -0.3904  0.1018
  502TMC3    C4 7513   3.001   0.100  14.802 -1.1495  0.5502 -0.1928
  502TMC3    C5 7514   2.867   0.124  14.802 -0.2170  0.8449 -0.2948
  502TMC3    C6 7515   2.816   0.250  14.769  0.1161  0.3821 -0.0723
  502TMC3     C 7516   3.226   0.184  14.808  0.1971 -0.0852 -0.2816
  502TMC3     O 7517   3.314   0.259  14.776 -0.2087  0.5672 -0.7083
  502TMC3     H 7518   3.106   0.414  14.728  2.6788 -2.8370 -2.7287
  502TMC3    H1 7519   3.022   4.732  14.798 -0.0182  0.7379  0.8550
  502TMC3    H2 7520   2.711   0.270  14.751 -0.1328 -3.1324 -2.5248
  502TMC3    C7 7521   2.779   0.022  14.856 -0.1452 -0.1168  0.2790
  502TMC3    C8 7522   2.863   0.489  14.754  0.4273  0.3773 -0.1828
  502TMC3    O1 7523   2.832   4.655  14.894 -0.2994  0.2970  0.5422
  502TMC3    O2 7524   2.933   0.564  14.694  0.1441 -0.3759  0.0717
  503MPD2     C 7525   0.159   1.116  16.656  0.2117 -0.5849 -0.3959
  503MPD2    C1 7526   0.160   1.121  16.790  0.6565  1.0121  0.4088
  503MPD2    C2 7527   0.211   1.011  16.864 -0.3704 -0.0796 -0.5643
  503MPD2    C3 7528   0.248   0.903  16.789 -0.0460  0.3687 -0.8411
  503MPD2    C4 7529   0.247   0.893  16.653  1.0754  0.6452 -0.2220
  503MPD2    C5 7530   0.187   0.998  16.589 -0.3585 -0.6450  0.5389
  503MPD2     H 7531   0.204   1.000  16.972 -0.3966  3.0541 -0.2453
  503MPD2    H1 7532   0.277   0.800  16.607 -1.0351  0.0728 -0.4409
  503MPD2    H2 7533   0.128   1.207  16.605  3.5302  0.9305  0.2494
  503MPD2    H3 7534   0.165   1.003  16.483 -0.0109 -2.7657  0.3629
  503MPD2     N 7535   0.315   0.796  16.861  0.4855 -0.4288  0.5432
  503MPD2    H5 7536   0.319   0.797  16.963 -1.8141  0.0068  0.6108
  503MPD2    N1 7537   0.098   1.234  16.845  0.0562 -0.6668 -0.5701
  503MPD2    H7 7538   0.077   1.312  16.784  2.5510  0.2744 -0.2142
  504TMC3    C1 7539   0.471   0.628  16.907  0.0394 -0.4254  0.1137
  504TMC3    C2 7540   0.409   0.601  17.027  0.2917 -0.0201 -0.6016
  504TMC3    C3 7541   0.478   0.524  17.113 -0.1697 -0.5840 -0.3641
  504TMC3    C4 7542   0.599   0.593  16.879 -0.3355  0.6413 -0.2790
  504TMC3    C5 7543   0.671   0.524  16.978 -0.3840 -0.0981 -0.2803
  504TMC3    C6 7544   0.610   0.499  17.102  0.2043  0.5510  0.0466
  504TMC3     C 7545   0.398   0.700  16.805  0.1928  0.1632  0.2731
  504TMC3     O 7546   0.457   0.705  16.698 -0.3379 -0.4744  0.2846
  504TMC3     H 7547   0.302   0.610  17.037  0.3652  2.1306 -1.6899
  504TMC3    H1 7548   0.643   0.608  16.781  0.4095 -0.2855 -0.0827
  504TMC3    H2 7549   0.663   0.447  17.181  0.6862 -1.0227 -1.3055
  504TMC3    C7 7550   0.810   0.512  16.955 -0.6339 -0.6259 -0.1291
  504TMC3    C8 7551   0.409   0.503  17.236  0.5490  0.1197 -0.6018
  504TMC3    O1 7552   0.855   0.572  16.859  0.6543 -0.4323  0.2333
  504TMC3    O2 7553   0.286   0.496  17.225  0.3510  0.6647  0.8629
  505MPD2     C 7554   0.769   4.313  10.352 -0.0306 -0.2840 -0.2788
  505MPD2    C1 7555   0.819   4.274  10.476  0.6610  0.5235  0.1529
  505MPD2    C2 7556   0.813   4.360  10.583 -0.0045  0.4498 -0.8041
  505MPD2    C3 7557   0.764   4.487  10.553  0.1206 -0.1799 -0.3869
  505MPD2    C4 7558   0.732   4.525  10.427  0.0769 -0.1108  0.2729
  505MPD2    C5 7559   0.728   4.440  10.324 -0.1815 -0.2864 -0.1364
  505MPD2     H 7560   0.845   4.324  10.680  0.1275  1.7237 -0.3713
  505MPD2    H1 7561   0.695   4.625  10.406 -1.3447 -0.2888  2.0407
  505MPD2    H2 7562   0.764   4.248  10.265 -0.8141 -2.2789  1.2474
  505MPD2    H3 7563   0.708   4.473  10.223  0.5383 -0.3258 -0.2929
  505MPD2     N 7564   0.764   4.592  10.648 -0.6994  0.1387 -0.1760
  505MPD2    H5 7565   0.738   4.682  10.608  0.2417 -0.9547 -3.2916
  505MPD2    N1 7566   0.870   4.134  10.486  0.1281  0.0858 -0.0717
  505MPD2    H7 7567   0.878   4.082  10.399 -0.2807 -0.0056 -0.0553
  506TMC3    C1 7568   0.995   3.966  10.600 -0.3780 -0.4395  0.2108
  506TMC3    C2 7569   1.076   3.959  10.490 -0.8808  0.6850  0.2170
  506TMC3    C3 7570   1.213   3.949  10.508 -0.8935 -0.1968 -0.2008
  506TMC3    C4 7571   1.048   3.948  10.721 -0.2587 -0.5862  0.1857
  506TMC3    C5 7572   1.182   3.942  10.733 -0.2632  0.0244  0.6020
  506TMC3    C6 7573   1.267   3.950  10.629  1.0851  0.0396 -0.3017
  506TMC3     C 7574   0.901   4.075  10.606 -0.6831  0.0530  0.1586
  506TMC3     O 7575   0.861   4.108  10.720 -0.0560 -0.4567 -0.1971
  506TMC3     H 7576   1.031   3.980  10.394 -0.5791  1.4818  0.2520
  506TMC3    H1 7577   0.983   3.930  10.806  1.1980  1.0266  1.6472
  506TMC3    H2 7578   1.374   3.939  10.639  1.1694  2.3576  1.2106
  506TMC3    C7 7579   1.234   4.008  10.849 -0.1613  0.1391 -0.6283
  506TMC3    C8 7580   1.295   4.005  10.396  0.0537 -0.3191  0.1391
  506TMC3    O1 7581   1.351   3.981  10.874  0.5949  0.5278 -0.4062
  506TMC3    O2 7582   1.263   3.960  10.290 -0.2332 -0.1024  0.1559
  507TMC3    C1 7583   1.554   0.251  14.527  0.0083  0.2685 -0.1770
  507TMC3    C2 7584   1.501   0.140  14.455  0.6198 -0.1997  0.2256
  507TMC3    C3 7585   1.478   0.154  14.317 -0.4963  0.4325 -0.6525
  507TMC3    C4 7586   1.590   0.361  14.456  0.1413 -0.6227 -0.5978
  507TMC3    C5 7587   1.552   0.375  14.326  0.7841 -0.2476  0.2046
  507TMC3    C6 7588   1.504   0.269  14.254  0.6907  0.2469  0.0799
  507TMC3     C 7589   1.483   0.285  14.654 -0.4173 -0.2728 -0.5596
  507TMC3     O 7590   1.525   0.370  14.732  0.6833 -0.3254  1.2140
  507TMC3     H 7591   1.475   0.051  14.510 -1.2020 -0.3099 -0.8148
  507TMC3    H1 7592   1.629   0.449  14.505  0.8306 -0.8464 -0.7467
  507TMC3    H2 7593   1.481   0.283  14.149 -1.0175  1.5853  0.6239
  507TMC3    C7 7594   1.474   0.493  14.289  0.1359  0.4657 -0.3992
  507TMC3    C8 7595   1.337   0.123  14.305 -0.0304  0.3112 -0.1716
  507TMC3    O1 7596   1.388   0.479  14.202 -0.8611  0.4086  0.1440
  507TMC3    O2 7597   1.291   0.029  14.372 -0.4311 -0.1972 -0.4044
  508MPD2     C 7598   2.655   2.319  15.535 -0.8808  0.2824  0.5432
  508MPD2    C1 7599   2.585   2.406  15.614 -0.0279  0.4858  0.7329
  508MPD2    C2 7600   2.545   2.528  15.552 -0.4899  0.0586  0.7347
  508MPD2    C3 7601   2.573   2.542  15.418 -0.2777  0.6131 -0.5622
  508MPD2    C4 7602   2.621   2.438  15.334  0.0970 -0.3283  0.3797
  508MPD2    C5 7603   2.667   2.328  15.400  0.1246  0.7861  0.2362
  508MPD2     H 7604   2.502   2.608  15.611  2.1840 -0.0160  2.8284
  508MPD2    H1 7605   2.633   2.448  15.226  2.7702 -0.3792  0.6618
  508MPD2    H2 7606   2.680   2.221  15.574 -1.5199 -0.2491 -0.3556
  508MPD2    H3 7607   2.710   2.248  15.340 -1.1457  0.2255  0.0757
  508MPD2     N 7608   2.552   2.675  15.364  0.3691  0.5646 -0.3694
  508MPD2    H5 7609   2.537   2.747  15.434 -0.3118  0.0912 -0.0331
  508MPD2    N1 7610   2.569   2.394  15.755  0.2573 -0.1410 -0.3990
  508MPD2    H7 7611   2.609   2.307  15.791  1.0289  0.5906  0.5119
  509TMC3    C1 7612   2.399   3.032  15.186  0.1646  0.1407  0.0917
  509TMC3    C2 7613   2.481   3.109  15.256 -0.4293  0.8048  0.5107
  509TMC3    C3 7614   2.594   3.053  15.303 -0.1967  0.2440  0.4799
  509TMC3    C4 7615   2.425   2.898  15.165  0.1525  0.2140 -0.1752
  509TMC3    C5 7616   2.544   2.851  15.212 -1.1821 -0.0868 -0.2240
  509TMC3    C6 7617   2.636   2.925  15.281 -0.2645 -0.4311 -1.3861
  509TMC3     C 7618   2.294   3.083  15.096  0.1227  0.8396 -0.2082
  509TMC3     O 7619   2.268   3.020  15.001  0.0380  0.3813 -0.3553
  509TMC3     H 7620   2.461   3.215  15.266  1.9060  1.2064  1.0472
  509TMC3    H1 7621   2.351   2.834  15.118 -1.2219  2.6803 -1.3613
  509TMC3    H2 7622   2.723   2.875  15.323 -1.0404  0.6158  1.5099
  509TMC3    C7 7623   2.553   2.708  15.225  0.0585  0.9656  0.2866
  509TMC3    C8 7624   2.651   3.105  15.426 -0.5029  0.0964  0.1346
  509TMC3    O1 7625   2.573   2.640  15.124 -0.1044 -0.1984  0.0541
  509TMC3    O2 7626   2.744   3.034  15.469 -0.1119 -0.1073  0.1720
  510MPD2     C 7627   0.296   4.528  14.649 -0.1338  0.3932 -0.3433
  510MPD2    C1 7628   0.284   4.396  14.616  0.3561 -0.2110 -0.0429
  510MPD2    C2 7629   0.383   4.334  14.542 -0.4120  0.1597  0.1400
  510MPD2    C3 7630   0.495   4.402  14.500 -0.2068  0.3456  0.2737
  510MPD2    C4 7631   0.508   4.537  14.534  0.6160 -0.0750  0.1323
  510MPD2    C5 7632   0.407   4.599  14.610 -0.6626 -0.0115  0.3025
  510MPD2     H 7633   0.377   4.228  14.519  1.5815  0.0853 -0.1045
  510MPD2    H1 7634   0.590   4.599  14.499 -0.0004  0.6415 -0.0535
  510MPD2    H2 7635   0.234   4.567  14.728  1.2313  1.0542  0.4069
  510MPD2    H3 7636   0.432   4.695  14.654 -0.3061  1.7357 -3.7824
  510MPD2     N 7637   0.595   4.331  14.432  0.2115  0.4992 -0.0268
  510MPD2    H5 7638   0.578   4.232  14.442  3.8374 -0.1126  0.0688
  510MPD2    N1 7639   0.166   4.334  14.665  0.3961 -0.2709 -0.0167
  510MPD2    H7 7640   0.106   4.392  14.724 -3.1106 -1.9040 -2.0059
  511TMC3    C1 7641   0.021   4.153  14.712  0.0753  0.3184 -0.1311
  511TMC3    C2 7642   0.002   4.220  14.832  0.4578 -0.1835  0.4795
  511TMC3    C3 7643   4.639   4.175  14.907  0.0584 -0.9148 -1.0945
  511TMC3    C4 7644   4.713   4.029  14.696 -0.3788 -1.5546 -0.5627
  511TMC3    C5 7645   4.627   3.975  14.786 -0.4095 -0.3624 -0.3005
  511TMC3    C6 7646   4.585   4.047  14.890  0.5248  0.3829  0.6059
  511TMC3     C 7647   0.125   4.200  14.634 -0.1820 -0.9425  0.3900
  511TMC3     O 7648   0.170   4.126  14.547  0.2887  1.0320  0.5212
  511TMC3     H 7649   0.033   4.319  14.863  1.0573  0.5328 -2.3956
  511TMC3    H1 7650   0.007   3.982  14.603  0.3744 -1.2489 -0.4515
  511TMC3    H2 7651   4.504   4.017  14.955 -0.8130  0.0105 -1.2231
  511TMC3    C7 7652   4.565   3.850  14.750 -0.0340  0.1510 -0.3970
  511TMC3    C8 7653   4.621   4.231  15.042 -0.3428 -0.2343  0.0929
  511TMC3    O1 7654   4.559   3.837  14.626  0.3626  0.3853  0.4273
  511TMC3    O2 7655   4.596   4.350  15.051  0.7217 -0.0155 -0.3529
  512TMC3    C1 7656   3.663   3.154  13.644 -0.4262  0.1310  0.3796
  512TMC3    C2 7657   3.755   3.094  13.729  0.1707  0.3601 -0.3844
  512TMC3    C3 7658   3.873   3.055  13.663 -0.2487 -0.1633  0.3959
  512TMC3    C4 7659   3.667   3.137  13.507  1.1920 -0.2692 -0.5284
  512TMC3    C5 7660   3.781   3.069  13.456  0.7040  0.4553 -0.0326
  512TMC3    C6 7661   3.886   3.038  13.522  0.0478  0.4533 -0.1293
  512TMC3     C 7662   3.611   3.281  13.683 -0.5776 -0.3230  0.9647
  512TMC3     O 7663   3.564   3.292  13.798  0.4992  0.0067  0.0653
  512TMC3     H 7664   3.760   3.129  13.831  0.6347  0.4708 -0.4470
  512TMC3    H1 7665   3.587   3.172  13.443 -0.1001 -0.8437  0.7473
  512TMC3    H2 7666   3.980   2.995  13.490  0.4717  0.5885  0.9395
  512TMC3    C7 7667   3.794   3.092  13.313 -0.0048 -0.6317  0.1188
  512TMC3    C8 7668   3.991   3.091  13.738  0.2842  0.3332 -0.2524
  512TMC3    O1 7669   3.730   3.190  13.271 -0.1498 -0.1665  0.0184
  512TMC3    O2 7670   4.061   3.003  13.785  0.4179 -0.4522  0.0316
  513MPD2     C 7671   0.571   3.597  13.355 -0.6347  0.1476 -0.6229
  513MPD2    C1 7672   0.618   3.508  13.260 -0.0090 -0.0667 -0.1361
  513MPD2    C2 7673   0.703   3.401  13.293 -0.3202  0.1018 -0.6209
  513MPD2    C3 7674   0.742   3.389  13.423 -0.6034  0.1341  0.2732
  513MPD2    C4 7675   0.695   3.471  13.523 -0.6624 -0.0477  0.5038
  513MPD2    C5 7676   0.608   3.570  13.484  0.4543 -0.2435  0.3090
  513MPD2     H 7677   0.741   3.338  13.213 -1.5846 -1.0904 -0.2863
  513MPD2    H1 7678   0.716   3.461  13.629 -2.2477 -0.7160  0.7534
  513MPD2    H2 7679   0.503   3.680  13.341 -0.6437  0.3465  0.5884
  513MPD2    H3 7680   0.569   3.627  13.568  2.1960 -0.8331  1.5159
  513MPD2     N 7681   0.845   3.299  13.457 -0.0293  0.4560 -0.1013
  513MPD2    H5 7682   0.877   3.245  13.377  0.6654 -1.6402  1.5963
  513MPD2    N1 7683   0.587   3.523  13.125 -0.7934 -0.3223 -0.2886
  513MPD2    H7 7684   0.639   3.459  13.065  0.8002  0.1053  0.6218
  514TMC3    C1 7685   0.516   3.608  12.927  0.7265  0.7926  0.7389
  514TMC3    C2 7686   0.541   3.727  12.865 -0.5240  0.1216  0.0153
  514TMC3    C3 7687   0.640   3.742  12.774  0.2385 -0.1049  0.4813
  514TMC3    C4 7688   0.590   3.499  12.882 -0.9036 -0.0172 -0.5848
  514TMC3    C5 7689   0.696   3.515  12.799  1.4022 -0.0532 -0.1182
  514TMC3    C6 7690   0.725   3.635  12.744  0.1418 -0.3324  0.3562
  514TMC3     C 7691   0.513   3.620  13.070  0.0732  0.4057  0.4848
  514TMC3     O 7692   0.462   3.722  13.114  0.4447  0.2574  0.1918
  514TMC3     H 7693   0.483   3.812  12.900 -0.8949 -0.4817  0.8856
  514TMC3    H1 7694   0.553   3.397  12.893 -1.3690  0.5750  3.3951
  514TMC3    H2 7695   0.814   3.656  12.686 -1.0494 -1.3261 -1.8292
  514TMC3    C7 7696   0.800   3.430  12.842 -0.1161  0.4905 -0.1059
  514TMC3    C8 7697   0.688   3.875  12.744 -0.1454  0.3277  0.7357
  514TMC3    O1 7698   0.766   3.370  12.944  0.1183  0.7523 -0.0804
  514TMC3    O2 7699   0.664   3.965  12.820 -0.2624  0.5471  0.6225
  515MPD2     C 7700   3.721   0.724  15.068 -0.9305  0.2461 -0.7791
  515MPD2    C1 7701   3.756   0.723  14.932  0.0693 -0.2013 -0.4222
  515MPD2    C2 7702   3.830   0.828  14.883  0.4206 -0.6963 -0.2699
  515MPD2    C3 7703   3.864   0.939  14.963  0.0443 -0.6824  0.3025
  515MPD2    C4 7704   3.827   0.945  15.096  1.2298 -0.1852  0.1439
  515MPD2    C5 7705   3.759   0.836  15.142  0.5825 -0.8476  0.1698
  515MPD2     H 7706   3.856   0.830  14.778  0.5495 -1.9568 -0.2603
  515MPD2    H1 7707   3.868   1.018  15.166  1.0878  1.6355 -1.6597
  515MPD2    H2 7708   3.680   0.638  15.119  0.1276 -0.9862 -2.0045
  515MPD2    H3 7709   3.733   0.829  15.247 -0.3324  0.6406  0.0429
  515MPD2     N 7710   3.957   1.038  14.913 -0.4227 -0.0204  0.4614
  515MPD2    H5 7711   3.994   1.104  14.981  0.4770 -2.1872  2.0795
  515MPD2    N1 7712   3.740   0.609  14.843 -0.0678  0.4501 -0.1483
  515MPD2    H7 7713   3.776   0.630  14.751  0.6452 -0.5579 -0.0890
  516TMC3    C1 7714   3.703   0.393  14.760  0.3754 -0.3041  0.2400
  516TMC3    C2 7715   3.679   0.431  14.630 -0.5923  0.5579  0.1000
  516TMC3    C3 7716   3.673   0.326  14.540 -0.1534 -0.0835  0.2616
  516TMC3    C4 7717   3.715   0.260  14.799  0.5546 -0.2123 -0.3730
  516TMC3    C5 7718   3.698   0.164  14.700 -0.4853  0.2976  0.0659
  516TMC3    C6 7719   3.680   0.192  14.565  0.1947 -0.5184  0.2976
  516TMC3     C 7720   3.688   0.485  14.876  0.1526  0.4011 -0.3455
  516TMC3     O 7721   3.648   0.436  14.981  0.0703  0.1460 -0.2845
  516TMC3     H 7722   3.642   0.529  14.601 -2.5978 -1.0920 -2.9772
  516TMC3    H1 7723   3.718   0.238  14.905 -1.2818  0.3680 -0.1875
  516TMC3    H2 7724   3.665   0.124  14.483  0.8289  1.4436 -1.4333
  516TMC3    C7 7725   3.687   0.025  14.748 -0.3900 -0.4518  0.0078
  516TMC3    C8 7726   3.657   0.366  14.402 -0.0731 -0.0863 -0.5710
  516TMC3    O1 7727   3.741   0.002  14.856 -0.3226  0.4541 -0.1592
  516TMC3    O2 7728   3.602   0.287  14.323 -0.0954  0.3216  0.4129
  517MPD2     C 7729   3.058   2.264  17.566 -0.1263  0.4760 -0.0749
  517MPD2    C1 7730   3.195   2.267  17.569  0.2233 -0.6280  0.6315
  517MPD2    C2 7731   3.259   2.387  17.567  0.4931 -0.2723 -0.4780
  517MPD2    C3 7732   3.197   2.505  17.576  0.1169 -0.0438 -0.5240
  517MPD2    C4 7733   3.056   2.497  17.575 -0.8692  0.2585  0.3574
  517MPD2    C5 7734   2.991   2.382  17.567  0.1914  0.1883 -0.6468
  517MPD2     H 7735   3.366   2.396  17.554  0.4263  0.6889 -0.3456
  517MPD2    H1 7736   2.998   2.588  17.583  2.4311  2.3687  0.4805
  517MPD2    H2 7737   3.000   2.174  17.551 -1.4355  1.3292 -0.1803
  517MPD2    H3 7738   2.883   2.370  17.570  0.1206  0.7606 -1.0620
  517MPD2     N 7739   3.274   2.627  17.600  0.4091  0.0438  0.0163
  517MPD2    H5 7740   3.374   2.615  17.587  0.6804  0.2624  1.9356
  517MPD2    N1 7741   3.277   2.154  17.566  0.7114 -0.2662 -0.7214
  517MPD2    H7 7742   3.377   2.169  17.554  1.3264 -2.3142  1.7662
  518TMC3    C1 7743   3.346   1.937  17.511 -0.0066 -0.2458 -0.7475
  518TMC3    C2 7744   3.308   1.806  17.490  0.4004 -0.9406  0.3509
  518TMC3    C3 7745   3.400   1.720  17.436 -0.4142  0.3727 -0.4308
  518TMC3    C4 7746   3.469   1.986  17.477 -0.3496 -0.7143  0.0754
  518TMC3    C5 7747   3.555   1.895  17.409 -0.4745  0.3612  0.4714
  518TMC3    C6 7748   3.521   1.758  17.388  0.1593  0.0270  0.1631
  518TMC3     C 7749   3.233   2.023  17.535 -1.0291  0.4656  1.0683
  518TMC3     O 7750   3.128   1.969  17.521 -0.3134 -0.0134 -0.1725
  518TMC3     H 7751   3.209   1.765  17.508 -0.5527  0.7435 -1.0567
  518TMC3    H1 7752   3.498   2.090  17.488 -2.0770 -0.1824 -0.2668
  518TMC3    H2 7753   3.582   1.692  17.328 -0.6172 -0.5205 -0.0159
  518TMC3    C7 7754   3.694   1.930  17.387 -0.8429  0.2825  0.2245
  518TMC3    C8 7755   3.368   1.583  17.413 -0.1078 -0.9111  0.2815
  518TMC3    O1 7756   3.727   2.049  17.409 -0.0724 -0.3646 -0.5119
  518TMC3    O2 7757   3.427   1.531  17.319  0.0373 -0.2537  0.7213
  519MPD2     C 7758   0.554   0.778  13.774  0.3160  0.8625 -0.1319
  519MPD2    C1 7759   0.466   0.695  13.829 -0.8113 -0.0718  0.5969
  519MPD2    C2 7760   0.497   0.562  13.833  0.2584 -0.0085  0.2238
  519MPD2    C3 7761   0.619   0.514  13.799 -0.8500  0.3914 -0.3184
  519MPD2    C4 7762   0.712   0.603  13.750 -0.3526 -0.5679  0.1572
  519MPD2    C5 7763   0.682   0.731  13.741  0.8357  0.3655 -0.0792
  519MPD2     H 7764   0.422   0.493  13.869 -1.5058  1.1815 -1.1892
  519MPD2    H1 7765   0.815   0.579  13.726 -0.9736 -0.0622 -2.9207
  519MPD2    H2 7766   0.527   0.883  13.763  3.0544  1.9464  3.7428
  519MPD2    H3 7767   0.753   0.805  13.706  2.2182 -0.6570  0.5215
  519MPD2     N 7768   0.658   0.374  13.804 -0.2009  0.3391 -0.1498
  519MPD2    H5 7769   0.748   0.348  13.766 -0.1270 -0.8876  0.8458
  519MPD2    N1 7770   0.345   0.753  13.854  0.3303 -0.5199  0.2073
  519MPD2    H7 7771   0.345   0.849  13.823 -0.3820 -1.5413 -2.9731
  520TMC3    C1 7772   0.622   0.146  13.797  0.7194 -0.1679 -0.0946
  520TMC3    C2 7773   0.524   0.058  13.770 -0.7246 -0.3588 -0.3223
  520TMC3    C3 7774   0.542   4.663  13.802 -0.0957 -0.0054 -0.0273
  520TMC3    C4 7775   0.733   0.115  13.852 -0.6419  0.2385  0.5341
  520TMC3    C5 7776   0.756   4.718  13.879  0.2294 -0.6063 -0.1547
  520TMC3    C6 7777   0.663   4.623  13.849 -0.2576 -0.4905  0.3864
  520TMC3     C 7778   0.573   0.274  13.836 -0.4766  0.3898 -0.0121
  520TMC3     O 7779   0.458   0.278  13.879  0.3061  0.1796  0.2336
  520TMC3     H 7780   0.430   0.094  13.731 -0.6556  0.6855  0.4752
  520TMC3    H1 7781   0.800   0.192  13.887 -0.7757  0.9786 -0.8384
  520TMC3    H2 7782   0.676   4.519  13.876  0.5849 -0.4856 -0.0058
  520TMC3    C7 7783   0.888   4.674  13.917 -0.7234 -0.2798 -0.6169
  520TMC3    C8 7784   0.427   4.574  13.799 -0.7818 -0.3342  0.3497
  520TMC3    O1 7785   0.906   4.570  13.971  0.3767  0.5250  0.9007
  520TMC3    O2 7786   0.464   4.454  13.798  0.2469 -0.2399  0.4358
  521MPD2     C 7787   1.714   2.608  17.395 -0.4127 -0.2161  0.1083
  521MPD2    C1 7788   1.695   2.738  17.374 -0.5811 -0.2017  0.3465
  521MPD2    C2 7789   1.795   2.812  17.311 -0.8779 -0.3760  0.3569
  521MPD2    C3 7790   1.910   2.758  17.261 -0.3966  0.3392 -0.1781
  521MPD2    C4 7791   1.924   2.627  17.284  0.0888  0.4977  0.2440
  521MPD2    C5 7792   1.836   2.553  17.351 -0.8199  0.4671  0.8967
  521MPD2     H 7793   1.787   2.920  17.297 -1.1690 -0.7622 -2.4775
  521MPD2    H1 7794   2.012   2.575  17.246 -0.4089  1.3161 -2.0195
  521MPD2    H2 7795   1.643   2.550  17.453 -0.7549  1.2822  1.1870
  521MPD2    H3 7796   1.853   2.449  17.376 -0.9949  0.3048  0.3432
  521MPD2     N 7797   1.998   2.839  17.185  0.0387  0.4081  0.8897
  521MPD2    H5 7798   1.967   2.935  17.171 -0.7922 -0.2651 -1.9422
  521MPD2    N1 7799   1.573   2.797  17.422  0.7483  0.3476  0.4375
  521MPD2    H7 7800   1.507   2.733  17.465 -0.8093  0.4386 -1.8058
  522TMC3    C1 7801   2.175   2.901  17.048 -0.4563 -0.6092  0.5536
  522TMC3    C2 7802   2.162   2.906  16.909 -0.2150  0.4429 -0.5671
  522TMC3    C3 7803   2.167   3.032  16.848  0.8843  0.3956 -0.4623
  522TMC3    C4 7804   2.181   3.020  17.115 -0.4027  0.8811 -0.2443
  522TMC3    C5 7805   2.172   3.145  17.051 -0.5065 -0.2210 -0.3816
  522TMC3    C6 7806   2.164   3.146  16.914  0.1391 -0.1134 -0.2024
  522TMC3     C 7807   2.107   2.793  17.116 -0.1709  0.0753 -0.5013
  522TMC3     O 7808   2.122   2.681  17.065  0.2953  0.0926 -0.0803
  522TMC3     H 7809   2.138   2.814  16.858 -2.0960  0.8490 -0.3998
  522TMC3    H1 7810   2.185   3.017  17.223  0.5653  1.1590 -0.2763
  522TMC3    H2 7811   2.153   3.240  16.859 -2.5762 -0.3938 -0.1353
  522TMC3    C7 7812   2.148   3.260  17.131  0.3196  0.5295 -0.0899
  522TMC3    C8 7813   2.126   3.025  16.709  0.1933  0.3173  0.1569
  522TMC3    O1 7814   2.177   3.244  17.248 -0.7258  0.2800 -0.0657
  522TMC3    O2 7815   2.086   3.126  16.653  0.1917 -0.0139 -0.0553
  523MPD2     C 7816   3.592   2.761  10.137  0.8134 -0.5734 -0.2402
  523MPD2    C1 7817   3.650   2.882  10.164  0.1000  0.0431  0.7756
  523MPD2    C2 7818   3.667   2.977  10.062 -0.0063 -0.6764  0.6825
  523MPD2    C3 7819   3.622   2.941   9.932  0.4550 -0.1299  0.3133
  523MPD2    C4 7820   3.553   2.821   9.916  0.4340 -0.0968 -0.3364
  523MPD2    C5 7821   3.548   2.731  10.015  0.4077 -0.0834  0.2238
  523MPD2     H 7822   3.696   3.079  10.082  2.0085 -1.1902  0.3974
  523MPD2    H1 7823   3.497   2.800   9.826 -1.0454  3.4019 -0.2119
  523MPD2    H2 7824   3.582   2.680  10.209 -1.6315 -0.3435 -0.3416
  523MPD2    H3 7825   3.486   2.643  10.004  0.7216 -0.3532  0.6323
  523MPD2     N 7826   3.622   3.022   9.813 -0.3985 -0.0356 -0.1143
  523MPD2    H5 7827   3.583   2.979   9.730  1.1664 -0.1452 -0.8074
  523MPD2    N1 7828   3.695   2.894  10.296  0.3744 -0.6186  0.4514
  523MPD2    H7 7829   3.644   2.829  10.356 -1.5923  0.2115 -0.3372
  524TMC3    C1 7830   3.653   3.213   9.683  0.5991 -0.0305 -0.1683
  524TMC3    C2 7831   3.547   3.166   9.613  0.2263 -0.2889 -0.7118
  524TMC3    C3 7832   3.472   3.262   9.543  0.0589 -0.0386 -0.6705
  524TMC3    C4 7833   3.676   3.347   9.696 -0.6636 -0.4236  0.1193
  524TMC3    C5 7834   3.591   3.437   9.637  0.7896  0.2703  0.2191
  524TMC3    C6 7835   3.489   3.398   9.549 -0.0872  0.4622  0.2946
  524TMC3     C 7836   3.672   3.152   9.812 -0.5301  0.4827 -0.2844
  524TMC3     O 7837   3.738   3.212   9.893  0.1123  0.4116  0.2262
  524TMC3     H 7838   3.532   3.061   9.594  1.6214 -0.4862 -0.7060
  524TMC3    H1 7839   3.758   3.381   9.759 -0.5814 -0.7700  0.1985
  524TMC3    H2 7840   3.430   3.463   9.486  1.0046  0.2464 -0.9577
  524TMC3    C7 7841   3.563   3.543   9.739 -0.0300 -0.7242  0.3306
  524TMC3    C8 7842   3.413   3.206   9.422  0.1650 -0.3635  0.4577
  524TMC3    O1 7843   3.637   3.547   9.834  0.5038  0.2958 -0.2819
  524TMC3    O2 7844   3.454   3.097   9.383  0.0212 -0.3020  1.0935
  525MPD2     C 7845   1.791   4.733  14.206 -0.0030 -0.1160 -0.0360
  525MPD2    C1 7846   1.882   0.059  14.295 -0.1673  0.0543 -0.3292
  525MPD2    C2 7847   1.931   0.185  14.260  0.0324  0.5071 -0.5782
  525MPD2    C3 7848   1.876   0.246  14.141 -0.0998  0.6062 -0.9550
  525MPD2    C4 7849   1.777   0.181  14.068  0.0875  0.5758  0.5209
  525MPD2    C5 7850   1.740   0.055  14.099 -0.5237  0.8095  0.5408
  525MPD2     H 7851   2.013   0.223  14.320 -1.0093 -0.2431  1.3082
  525MPD2    H1 7852   1.716   0.238  13.999  1.8316 -0.4149 -1.8270
  525MPD2    H2 7853   1.745   4.639  14.231 -4.0418  1.9216  0.2296
  525MPD2    H3 7854   1.660   0.005  14.044 -0.0261 -0.7156  1.2015
  525MPD2     N 7855   1.906   0.378  14.106 -0.0200  0.8838 -0.5900
  525MPD2    H5 7856   1.859   0.417  14.025 -1.5074  0.1107 -0.1026
  525MPD2    N1 7857   1.924   4.732  14.409 -0.0574 -0.3307  0.4676
  525MPD2    H7 7858   1.994   0.036  14.470 -1.1043  0.5917  1.0537
  526TMC3    C1 7859   1.912   4.567  14.587  0.1619  0.3181  0.0530
  526TMC3    C2 7860   1.830   4.487  14.663 -0.2600  1.3769  0.1789
  526TMC3    C3 7861   1.878   4.413  14.768  0.2546 -0.2925 -0.2730
  526TMC3    C4 7862   2.044   4.557  14.598 -0.5968 -0.0614 -0.1952
  526TMC3    C5 7863   2.093   4.475  14.694  0.7540  1.1871  0.6755
  526TMC3    C6 7864   2.010   4.411  14.788 -0.3613 -0.9127 -0.3652
  526TMC3     C 7865   1.849   4.636  14.475  0.5911 -1.0531  0.3638
  526TMC3     O 7866   1.732   4.602  14.447 -0.4487  0.1154 -0.5294
  526TMC3     H 7867   1.724   4.478  14.644 -0.1154 -0.7909  0.3802
  526TMC3    H1 7868   2.112   4.603  14.527 -0.6815 -1.1681 -0.9723
  526TMC3    H2 7869   2.060   4.346  14.858 -2.5421 -1.2463  0.9102
  526TMC3    C7 7870   2.236   4.462  14.711  0.1113 -0.4398  0.5944
  526TMC3    C8 7871   1.805   4.390  14.891 -0.3753  0.4669  0.0005
  526TMC3    O1 7872   2.302   4.558  14.670 -0.2021 -0.3399 -0.0555
  526TMC3    O2 7873   1.871   4.379  14.992  0.0899 -0.3975 -0.1401
  527MPD2     C 7874   0.618   3.723   1.064 -0.6539  0.4466 -0.0444
  527MPD2    C1 7875   0.519   3.634   1.109 -0.2328  0.3748 -0.3929
  527MPD2    C2 7876   0.532   3.499   1.071  0.5616 -0.4842  0.7622
  527MPD2    C3 7877   0.629   3.454   0.987  0.4259  0.3431  0.4645
  527MPD2    C4 7878   0.718   3.553   0.946 -0.1093  0.0060  0.4401
  527MPD2    C5 7879   0.720   3.679   0.989  0.0462 -0.4635 -0.0620
  527MPD2     H 7880   0.459   3.428   1.109 -1.3448 -0.0766 -2.0783
  527MPD2    H1 7881   0.803   3.520   0.887  0.5992  1.4637  0.6386
  527MPD2    H2 7882   0.624   3.830   1.077  1.2133  0.5422 -1.7472
  527MPD2    H3 7883   0.799   3.750   0.965  0.5328  0.1254  3.2807
  527MPD2     N 7884   0.632   3.322   0.944  0.2577  0.2140  0.2486
  527MPD2    H5 7885   0.557   3.263   0.981 -1.5088  3.1799  1.4273
  527MPD2    N1 7886   0.415   3.680   1.199  0.8210  0.2241  0.2264
  527MPD2    H7 7887   0.353   3.606   1.229  0.8639 -0.0117 -0.2754
  528TMC3    C1 7888   0.291   3.838   1.331  0.6582  0.2766 -0.4540
  528TMC3    C2 7889   0.178   3.802   1.262  0.2974 -0.0491 -0.0324
  528TMC3    C3 7890   0.059   3.875   1.277  0.3006  0.2503 -0.0739
  528TMC3    C4 7891   0.292   3.951   1.405 -0.1196 -0.2219 -1.1379
  528TMC3    C5 7892   0.175   4.027   1.418 -0.8981 -0.4601  0.1909
  528TMC3    C6 7893   0.070   3.998   1.342 -0.7234 -0.1873  0.8013
  528TMC3     C 7894   0.412   3.805   1.262 -0.4497 -0.2086  0.1232
  528TMC3     O 7895   0.501   3.890   1.267 -0.4320  0.0202 -0.5424
  528TMC3     H 7896   0.183   3.723   1.188  1.2480 -0.2487  0.2525
  528TMC3    H1 7897   0.382   3.967   1.463 -3.5987  3.7471  3.1681
  528TMC3    H2 7898   4.723   4.065   1.353 -0.7161 -0.1929  0.8939
  528TMC3    C7 7899   0.201   4.161   1.464 -0.4368  0.0990 -0.2910
  528TMC3    C8 7900   4.692   3.854   1.182  0.6634 -0.3253  0.1470
  528TMC3    O1 7901   0.109   4.233   1.501 -0.1321  0.1643  0.2836
  528TMC3    O2 7902   4.720   3.810   1.073  0.0066  0.0641 -0.2944
  529MPD2     C 7903   2.529   1.915   0.875  0.9630 -0.1936 -0.2356
  529MPD2    C1 7904   2.493   1.783   0.841 -0.6876  0.1190  0.0019
  529MPD2    C2 7905   2.366   1.768   0.792 -0.5053  0.7114  0.7578
  529MPD2    C3 7906   2.277   1.870   0.774  0.2909 -0.1496 -0.0259
  529MPD2    C4 7907   2.320   2.000   0.802 -0.9205  0.6697 -0.4657
  529MPD2    C5 7908   2.448   2.020   0.842  0.0257  0.8492  0.3623
  529MPD2     H 7909   2.345   1.666   0.763  0.4834  0.1969  1.8111
  529MPD2    H1 7910   2.259   2.089   0.791 -1.0409  0.6549  0.0541
  529MPD2    H2 7911   2.634   1.927   0.902  0.9740 -1.3040  0.2236
  529MPD2    H3 7912   2.483   2.121   0.857  1.4009  0.1920  1.6169
  529MPD2     N 7913   2.158   1.853   0.701 -0.1340  0.8355  0.3332
  529MPD2    H5 7914   2.128   1.931   0.643 -1.8511  0.5069  0.7828
  529MPD2    N1 7915   2.581   1.668   0.855 -0.5771  0.0239  0.1943
  529MPD2    H7 7916   2.538   1.583   0.818 -0.1134 -0.3758  0.5657
  530TMC3    C1 7917   2.741   1.522   0.944 -0.1644  0.1222 -0.6237
  530TMC3    C2 7918   2.758   1.474   1.064  0.3030  0.0375  0.1129
  530TMC3    C3 7919   2.768   1.340   1.080 -0.9569 -0.1948 -0.0010
  530TMC3    C4 7920   2.742   1.450   0.827  0.3073 -0.3600  0.1784
  530TMC3    C5 7921   2.753   1.310   0.839 -0.1395 -0.0313  0.0079
  530TMC3    C6 7922   2.780   1.259   0.966  0.2359 -0.4834 -0.4268
  530TMC3     C 7923   2.686   1.655   0.939 -0.7542  0.6192  0.5746
  530TMC3     O 7924   2.742   1.744   1.000 -0.8603 -0.4973 -0.5070
  530TMC3     H 7925   2.754   1.543   1.148 -0.1631  0.1215  0.0199
  530TMC3    H1 7926   2.715   1.501   0.735 -3.5584 -1.1656  0.8455
  530TMC3    H2 7927   2.775   1.151   0.974  3.0922 -0.4727  1.8085
  530TMC3    C7 7928   2.695   1.237   0.723  0.4448  0.5346  0.6911
  530TMC3    C8 7929   2.778   1.293   1.219  0.0568  0.1728  0.3294
  530TMC3    O1 7930   2.702   1.284   0.611  0.2252  0.0741 -0.1940
  530TMC3    O2 7931   2.717   1.354   1.308 -0.1240  0.7841 -0.2067
  531MPD2     C 7932   1.296   3.289  12.926  0.6551 -0.4996  0.1474
  531MPD2    C1 7933   1.181   3.274  13.007 -0.3812 -0.2594  0.4849
  531MPD2    C2 7934   1.056   3.324  12.957  0.0038  0.0805 -0.1091
  531MPD2    C3 7935   1.045   3.395  12.837  0.1555 -0.1267  0.4903
  531MPD2    C4 7936   1.161   3.415  12.768  0.1276 -0.2169 -0.1506
  531MPD2    C5 7937   1.281   3.368  12.813  0.3137  1.1009  0.8823
  531MPD2     H 7938   0.970   3.308  13.021  0.5336  1.2418  0.8818
  531MPD2    H1 7939   1.169   3.480  12.682 -0.5572 -0.8475 -0.6851
  531MPD2    H2 7940   1.390   3.246  12.958  0.1710 -0.4951  1.6041
  531MPD2    H3 7941   1.362   3.393  12.745 -0.0640  2.0650  0.7888
  531MPD2     N 7942   0.926   3.453  12.790 -0.4978 -0.4157  0.0106
  531MPD2    H5 7943   0.937   3.500  12.700  0.5831  0.9415  0.8406
  531MPD2    N1 7944   1.194   3.219  13.135  0.3030  0.2046  0.4747
  531MPD2    H7 7945   1.286   3.194  13.170 -0.3332 -1.2778  1.0322
  532TMC3    C1 7946   1.151   3.171  13.361 -0.0293 -0.2250  0.1448
  532TMC3    C2 7947   1.050   3.136  13.449  0.2346  0.0112 -0.1522
  532TMC3    C3 7948   1.034   3.200  13.575 -1.0387 -0.8326  0.4946
  532TMC3    C4 7949   1.246   3.261  13.414 -0.3961  0.5181 -0.5810
  532TMC3    C5 7950   1.245   3.298  13.545 -0.2694 -0.9431  0.0559
  532TMC3    C6 7951   1.134   3.280  13.629 -0.3529  0.5535 -0.3121
  532TMC3     C 7952   1.096   3.201  13.234 -0.6429 -0.1360 -0.2096
  532TMC3     O 7953   0.978   3.225  13.232  0.0125 -0.1684 -0.2368
  532TMC3     H 7954   0.975   3.072  13.405 -0.7941  0.7384  0.5603
  532TMC3    H1 7955   1.330   3.289  13.352  0.7646  1.7579  1.5507
  532TMC3    H2 7956   1.141   3.299  13.735  0.6313 -0.1446 -0.2452
  532TMC3    C7 7957   1.368   3.334  13.606  0.4490  0.3028  0.3388
  532TMC3    C8 7958   0.914   3.277  13.581 -0.1448  0.0544 -0.8388
  532TMC3    O1 7959   1.363   3.382  13.719  0.5771 -0.9090  0.2601
  532TMC3    O2 7960   0.886   3.338  13.681  0.1517 -0.4241 -0.2402
  533TMC3    C1 7961   1.972   0.593  14.143  0.3043  0.7136  0.2124
  533TMC3    C2 7962   2.082   0.679  14.158  0.3165  0.4316 -0.4785
  533TMC3    C3 7963   2.067   0.800  14.211 -0.6677 -0.6694  0.2647
  533TMC3    C4 7964   1.845   0.634  14.188 -0.9383 -0.7651  0.2463
  533TMC3    C5 7965   1.840   0.747  14.265 -0.1374  0.2740 -0.1003
  533TMC3    C6 7966   1.949   0.831  14.267 -0.0820 -0.5860 -0.6050
  533TMC3     C 7967   2.002   0.454  14.161  0.4255  0.2740  0.7970
  533TMC3     O 7968   2.112   0.418  14.204  0.4888  0.6987  0.9405
  533TMC3     H 7969   2.181   0.646  14.130 -0.3116 -0.0373 -2.1899
  533TMC3    H1 7970   1.774   0.552  14.186 -0.1115 -1.4635 -0.6788
  533TMC3    H2 7971   1.938   0.937  14.287 -0.2086 -0.5613 -0.8081
  533TMC3    C7 7972   1.827   0.690  14.401  0.6470  0.3985 -0.0888
  533TMC3    C8 7973   2.179   0.883  14.247  0.8763 -0.2292 -0.5515
  533TMC3    O1 7974   1.824   0.571  14.415 -0.2531 -0.3981 -0.3996
  533TMC3    O2 7975   2.167   0.961  14.344 -0.3434  0.1173  0.5538
  534MPD2     C 7976   0.269   1.247   0.707  0.4437 -0.1704  0.2135
  534MPD2    C1 7977   0.241   1.289   0.832  0.0520  0.3433  0.2746
  534MPD2    C2 7978   0.104   1.294   0.873 -0.7195 -0.2548 -0.1511
  534MPD2    C3 7979   0.001   1.256   0.778  0.0099  0.3156 -0.2990
  534MPD2    C4 7980   0.035   1.205   0.661 -0.6386  0.0333  0.2005
  534MPD2    C5 7981   0.169   1.198   0.622 -1.0053 -0.1414  0.3231
  534MPD2     H 7982   0.078   1.337   0.969 -0.0810 -3.6112  1.5173
  534MPD2    H1 7983   4.695   1.178   0.591 -0.0016  0.0254 -0.5080
  534MPD2    H2 7984   0.371   1.241   0.673  0.6023  0.5359  0.5637
  534MPD2    H3 7985   0.192   1.157   0.524  0.9372 -0.3692  0.8676
  534MPD2     N 7986   4.599   1.266   0.801  0.1302  0.1189  0.0808
  534MPD2    H5 7987   4.537   1.242   0.725  0.7443 -2.1596  0.2949
  534MPD2    N1 7988   0.343   1.347   0.918  0.2011 -0.0692  0.4836
  534MPD2    H7 7989   0.307   1.355   1.013  0.5248 -0.4619  0.6357
  535TMC3    C1 7990   4.391   1.336   0.911 -0.6178  0.3247 -0.8520
  535TMC3    C2 7991   4.310   1.299   1.021  0.1912  0.9908 -0.0153
  535TMC3    C3 7992   4.176   1.335   1.014 -0.3226 -0.1003  0.7000
  535TMC3    C4 7993   4.345   1.419   0.807  0.5870 -0.4290 -0.4994
  535TMC3    C5 7994   4.213   1.451   0.808 -0.3384  0.8423 -0.2902
  535TMC3    C6 7995   4.128   1.423   0.911 -0.0977  0.4886 -0.5576
  535TMC3     C 7996   4.536   1.310   0.919  0.2260 -0.1025 -0.1528
  535TMC3     O 7997   4.589   1.326   1.029 -0.2613  0.4867  0.1474
  535TMC3     H 7998   4.337   1.225   1.095  0.5244 -1.5386 -2.6439
  535TMC3    H1 7999   4.408   1.440   0.721 -2.7498 -2.0802 -3.3907
  535TMC3    H2 8000   4.024   1.446   0.889  0.0336  2.0026  0.4298
  535TMC3    C7 8001   4.182   1.570   0.733 -0.1624 -0.0882 -0.4391
  535TMC3    C8 8002   4.078   1.295   1.113 -0.3146 -0.4277 -0.3092
  535TMC3    O1 8003   4.241   1.561   0.625 -0.3543 -0.2072  0.7068
  535TMC3    O2 8004   3.963   1.309   1.081 -0.2092  0.0455 -0.4241
  536MPD2     C 8005   3.704   4.453  16.296  0.2874 -0.5617  0.3426
  536MPD2    C1 8006   3.573   4.414  16.276  0.4370 -0.3484  0.4225
  536MPD2    C2 8007   3.506   4.464  16.170  0.1509  0.4314 -0.5202
  536MPD2    C3 8008   3.573   4.537  16.075 -0.0278  0.3671 -0.2970
  536MPD2    C4 8009   3.705   4.564  16.082  0.7324  0.1394  0.4361
  536MPD2    C5 8010   3.765   4.520  16.195  1.0902  0.3218 -0.3829
  536MPD2     H 8011   3.404   4.435  16.148  0.0804 -1.1714  1.9422
  536MPD2    H1 8012   3.765   4.623  16.013  1.0626  0.7590  1.2475
  536MPD2    H2 8013   3.756   4.430  16.388 -0.8646  3.5643  2.0353
  536MPD2    H3 8014   3.868   4.549  16.213  0.0980  2.9629  1.0106
  536MPD2     N 8015   3.499   4.597  15.967 -0.5835 -0.0935 -0.0055
  536MPD2    H5 8016   3.561   4.651  15.908  0.7288  0.6541  2.0637
  536MPD2    N1 8017   3.520   4.321  16.367  0.1843 -0.1527  0.0929
  536MPD2    H7 8018   3.575   4.296  16.449 -1.0621 -2.8430  0.1211
  537TMC3    C1 8019   3.348   4.199  16.477 -0.3111 -0.0113  0.7086
  537TMC3    C2 8020   3.367   4.266  16.593  0.4012  0.0821 -0.1079
  537TMC3    C3 8021   3.300   4.241  16.709  0.0040 -0.1242 -0.1485
  537TMC3    C4 8022   3.246   4.106  16.464  1.0021  0.2529 -0.2033
  537TMC3    C5 8023   3.170   4.087  16.578 -0.2883 -0.2044  0.7406
  537TMC3    C6 8024   3.204   4.144  16.697  0.4414  0.0218  0.2402
  537TMC3     C 8025   3.405   4.254  16.353  0.0741  0.0944 -0.3336
  537TMC3     O 8026   3.333   4.242  16.252 -0.4474 -0.0222  0.2737
  537TMC3     H 8027   3.435   4.350  16.604 -0.4128  0.4936  1.7109
  537TMC3    H1 8028   3.225   4.050  16.373  1.0974 -0.4974  0.2368
  537TMC3    H2 8029   3.165   4.100  16.788 -0.3883  0.4018  0.0608
  537TMC3    C7 8030   3.082   3.971  16.577 -0.0664 -0.0392  0.6949
  537TMC3    C8 8031   3.342   4.294  16.837  0.2932  0.1930 -0.7924
  537TMC3    O1 8032   3.086   3.907  16.473 -0.5846 -0.1768  0.3824
  537TMC3    O2 8033   3.444   4.357  16.841  0.5628  0.1620  0.0929
  538TMC3    C1 8034   4.435   2.782  10.881  0.8040  0.1759 -0.2289
  538TMC3    C2 8035   4.524   2.713  10.809 -0.0732 -0.1107  0.9117
  538TMC3    C3 8036   4.539   2.752  10.685 -0.1732 -1.3922 -0.7331
  538TMC3    C4 8037   4.363   2.887  10.840 -0.5632  0.0274  0.2064
  538TMC3    C5 8038   4.382   2.926  10.713  0.2700  1.0816 -0.3754
  538TMC3    C6 8039   4.467   2.858  10.636 -0.4170 -0.3379  0.5488
  538TMC3     C 8040   4.447   2.754  11.018  0.0773  1.1928  0.6500
  538TMC3     O 8041   4.551   2.699  11.057 -0.5532 -0.2945  0.5027
  538TMC3     H 8042   4.571   2.627  10.854  0.7017  0.2869  0.8652
  538TMC3    H1 8043   4.300   2.951  10.901  0.8691  1.4339  0.2175
  538TMC3    H2 8044   4.479   2.897  10.535  0.6825 -1.7547  0.1247
  538TMC3    C7 8045   4.358   3.064  10.682  0.6340  0.2509 -0.0533
  538TMC3    C8 8046   4.655   2.691  10.619 -0.3622 -0.4765 -0.7281
  538TMC3    O1 8047   4.294   3.086  10.579 -0.1497 -0.4245  0.1939
  538TMC3    O2 8048   4.713   2.606  10.684 -0.5131 -0.2100  0.4634
  539MPD2     C 8049   0.222   2.329  10.989 -0.5223 -0.2984 -0.2492
  539MPD2    C1 8050   0.156   2.226  11.057  0.3446 -0.3055 -0.5525
  539MPD2    C2 8051   0.034   2.245  11.121 -0.1729  0.4940 -0.6253
  539MPD2    C3 8052   4.708   2.370  11.100  0.3336 -0.6309  0.1106
  539MPD2    C4 8053   0.034   2.478  11.035  0.0916 -0.2586  0.4012
  539MPD2    C5 8054   0.163   2.460  10.981 -0.1495 -0.1750 -0.4563
  539MPD2     H 8055   4.725   2.168  11.181  0.7334 -0.6648 -1.3898
  539MPD2    H1 8056   4.722   2.572  11.012  0.5684 -0.0065  0.3841
  539MPD2    H2 8057   0.311   2.318  10.928 -0.9093  1.6106 -1.1456
  539MPD2    H3 8058   0.217   2.536  10.925  0.5800 -1.1282 -1.0575
  539MPD2     N 8059   4.582   2.397  11.153  0.0669 -0.6221  0.1443
  539MPD2    H5 8060   4.534   2.474  11.108 -0.9509 -1.0996  0.4106
  539MPD2    N1 8061   0.207   2.094  11.052  0.1486 -0.3911 -0.8152
  539MPD2    H7 8062   0.152   2.022  11.097 -1.4392  2.1744  1.3765
  540TMC3    C1 8063   4.396   2.379  11.275  0.0206  0.1608  0.1161
  540TMC3    C2 8064   4.318   2.447  11.176 -0.1484 -0.7173 -0.0514
  540TMC3    C3 8065   4.186   2.469  11.203  0.0065  0.5784 -0.2676
  540TMC3    C4 8066   4.345   2.346  11.394 -0.1877 -0.4255 -0.0684
  540TMC3    C5 8067   4.212   2.374  11.419  0.3474 -0.1300 -0.5467
  540TMC3    C6 8068   4.132   2.422  11.319  0.3280  0.1711  0.7392
  540TMC3     C 8069   4.520   2.319  11.248 -0.3806  0.2226  0.2665
  540TMC3     O 8070   4.561   2.241  11.328 -0.7678 -0.0902 -0.1294
  540TMC3     H 8071   4.356   2.464  11.077 -2.4938  1.7489 -0.5251
  540TMC3    H1 8072   4.410   2.330  11.479 -1.3212 -0.6701  0.7574
  540TMC3    H2 8073   4.028   2.437  11.344  0.0268  0.9493 -0.9653
  540TMC3    C7 8074   4.143   2.350  11.547  0.0465 -0.1218 -0.2597
  540TMC3    C8 8075   4.077   2.468  11.103  0.0863 -0.3723  0.3247
  540TMC3    O1 8076   4.044   2.423  11.561  0.2200  0.4982  0.6835
  540TMC3    O2 8077   3.967   2.495  11.144 -0.2873  0.2343  0.2831
  541MPD2     C 8078   2.637   3.809  13.390  0.3062 -0.3127  0.1534
  541MPD2    C1 8079   2.705   3.750  13.285  0.2526 -0.1016  0.1978
  541MPD2    C2 8080   2.693   3.807  13.158  0.3010  0.5700 -0.1789
  541MPD2    C3 8081   2.610   3.916  13.140 -0.2566 -0.4883  0.5993
  541MPD2    C4 8082   2.536   3.972  13.247  0.2113 -0.0617  0.3628
  541MPD2    C5 8083   2.559   3.918  13.366  0.2450 -0.3587  1.1240
  541MPD2     H 8084   2.747   3.763  13.075 -2.1595  1.1238 -2.0700
  541MPD2    H1 8085   2.479   4.061  13.222  0.1849 -0.2692 -0.3164
  541MPD2    H2 8086   2.645   3.771  13.491 -0.9841 -1.1888 -0.0697
  541MPD2    H3 8087   2.498   3.951  13.449 -0.6182  2.3147 -0.6093
  541MPD2     N 8088   2.575   3.961  13.016 -0.0647  0.0272 -0.4055
  541MPD2    H5 8089   2.499   4.029  13.011  0.0216  0.1008 -0.7145
  541MPD2    N1 8090   2.773   3.629  13.306 -0.1125 -0.0398 -0.6870
  541MPD2    H7 8091   2.766   3.599  13.403  0.8408 -0.0328 -0.6207
  542TMC3    C1 8092   2.549   3.951  12.784  0.3558  0.1665  1.1310
  542TMC3    C2 8093   2.517   3.848  12.699  0.3648  0.5808 -0.9336
  542TMC3    C3 8094   2.459   3.885  12.582  0.9664 -0.5063 -0.8541
  542TMC3    C4 8095   2.544   4.083  12.745  0.0363 -0.4391  0.3403
  542TMC3    C5 8096   2.483   4.112  12.627 -0.6995  0.7174  0.0287
  542TMC3    C6 8097   2.444   4.015  12.542 -0.7917  0.8152 -0.6929
  542TMC3     C 8098   2.626   3.908  12.896  0.0550  1.0026 -0.4815
  542TMC3     O 8099   2.718   3.836  12.869 -0.1379  0.0776  0.4329
  542TMC3     H 8100   2.497   3.755  12.752  0.7659 -0.2903 -2.3216
  542TMC3    H1 8101   2.576   4.156  12.818  1.2746  1.3424 -2.0073
  542TMC3    H2 8102   2.387   4.043  12.454  0.9186 -1.3205 -2.4783
  542TMC3    C7 8103   2.494   4.244  12.568 -0.1780  0.0871 -0.4405
  542TMC3    C8 8104   2.429   3.777  12.488  0.2262 -0.5723 -0.1853
  542TMC3    O1 8105   2.416   4.290  12.488 -0.3045  0.2545  0.4916
  542TMC3    O2 8106   2.384   3.800  12.376 -0.1685  0.3009 -0.0575
  543TMC3    C1 8107   1.685   0.402  16.752 -0.3976 -0.0582 -0.4625
  543TMC3    C2 8108   1.696   0.295  16.831  0.3329  0.8541  0.3076
  543TMC3    C3 8109   1.650   0.315  16.959  0.0019 -0.1789  1.2007
  543TMC3    C4 8110   1.629   0.520  16.798 -0.2882  0.6491  0.3316
  543TMC3    C5 8111   1.587   0.531  16.925 -0.3094  0.0272 -0.4172
  543TMC3    C6 8112   1.586   0.425  17.009  0.3130 -0.3169 -0.8576
  543TMC3     C 8113   1.777   0.396  16.636 -1.0936  0.3024  0.1414
  543TMC3     O 8114   1.858   0.306  16.636  0.1945  0.1829  0.6746
  543TMC3     H 8115   1.745   0.202  16.806 -1.7000 -0.5338  1.4800
  543TMC3    H1 8116   1.621   0.608  16.736 -1.0964 -0.0145 -0.4936
  543TMC3    H2 8117   1.542   0.435  17.108  1.3225 -0.3065 -0.4103
  543TMC3    C7 8118   1.545   0.663  16.986 -0.3599 -0.4632  0.4668
  543TMC3    C8 8119   1.667   0.201  17.041 -0.8016 -0.5539  0.6360
  543TMC3    O1 8120   1.511   0.660  17.106  0.5920 -0.0811  0.0794
  543TMC3    O2 8121   1.685   0.095  16.989  0.0319  0.2538 -0.6166
  544MPD2     C 8122   1.641   4.700  17.499 -0.0173  0.5985  0.2429
  544MPD2    C1 8123   1.689   4.654  17.379 -0.5225 -0.1955 -0.6633
  544MPD2    C2 8124   1.698   0.001  17.271  0.2452 -0.0733 -0.3085
  544MPD2    C3 8125   1.633   0.127  17.277  0.3824 -0.4048 -0.2517
  544MPD2    C4 8126   1.582   0.169  17.396  0.0595  0.2567 -0.3343
  544MPD2    C5 8127   1.576   0.083  17.506  0.6409 -0.3735  0.2823
  544MPD2     H 8128   1.770   4.713  17.193  0.9172 -0.1606  0.3451
  544MPD2    H1 8129   1.538   0.264  17.421  0.3314  0.4702 -0.6664
  544MPD2    H2 8130   1.637   4.635  17.585  3.6748 -0.3641 -0.3288
  544MPD2    H3 8131   1.537   0.114  17.602  0.5369 -0.0405  0.1336
  544MPD2     N 8132   1.634   0.225  17.176 -0.4985  0.3718 -0.4314
  544MPD2    H5 8133   1.619   0.322  17.203  1.0584  0.9586 -1.6398
  544MPD2    N1 8134   1.744   4.524  17.378  0.1279 -0.1222 -0.5326
  544MPD2    H7 8135   1.727   4.476  17.466 -0.3038 -1.7233 -1.4975
  545TMC3    C1 8136   1.794   4.308  17.287 -1.0986 -0.3344  0.0745
  545TMC3    C2 8137   1.877   4.234  17.211  0.4450 -0.2459  0.0664
  545TMC3    C3 8138   1.876   4.101  17.245  0.4958 -0.1255 -0.0845
  545TMC3    C4 8139   1.701   4.256  17.379  0.1383  0.1949 -0.0537
  545TMC3    C5 8140   1.703   4.122  17.407 -0.6519 -0.1830  0.0270
  545TMC3    C6 8141   1.801   4.047  17.349  0.6264  0.1563  0.1378
  545TMC3     C 8142   1.795   4.457  17.270  0.3442 -0.3146  0.5446
  545TMC3     O 8143   1.821   4.495  17.155 -0.4152 -0.2868  0.3559
  545TMC3     H 8144   1.954   4.275  17.147  1.0435 -1.3242  0.0792
  545TMC3    H1 8145   1.617   4.316  17.414  0.7231  1.6451 -1.1400
  545TMC3    H2 8146   1.817   3.941  17.363  0.0651 -0.2157 -2.0130
  545TMC3    C7 8147   1.589   4.060  17.463 -0.3011 -0.0737 -0.5443
  545TMC3    C8 8148   1.942   4.014  17.154  0.2951  0.4777 -0.0581
  545TMC3    O1 8149   1.490   4.129  17.440 -0.0424  0.2198  0.4566
  545TMC3    O2 8150   2.006   3.922  17.204  0.2158  0.3768 -0.4907
  546MPD2     C 8151   3.219   0.224  16.725 -0.2560  0.2467  0.4607
  546MPD2    C1 8152   3.153   0.244  16.842  0.7502 -0.2855 -0.4291
  546MPD2    C2 8153   3.208   0.339  16.929  0.7103  0.0674  0.1280
  546MPD2    C3 8154   3.324   0.407  16.896  0.1875 -0.5805 -0.1146
  546MPD2    C4 8155   3.385   0.381  16.778 -0.4298  0.5800  0.4847
  546MPD2    C5 8156   3.329   0.294  16.691 -0.3466 -0.4905 -0.0015
  546MPD2     H 8157   3.148   0.365  17.016  1.5923 -1.2175  1.1139
  546MPD2    H1 8158   3.477   0.431  16.750 -0.2389 -0.2734 -0.3903
  546MPD2    H2 8159   3.178   0.150  16.657  0.2432  0.5822 -0.2029
  546MPD2    H3 8160   3.383   0.272  16.600  0.6201 -0.6482  0.5968
  546MPD2     N 8161   3.381   0.513  16.971  0.0065 -0.2866  0.2337
  546MPD2    H5 8162   3.454   0.567  16.926 -1.0229  0.7789 -0.1424
  546MPD2    N1 8163   3.025   0.183  16.876  0.1574  0.5626  0.3058
  546MPD2    H7 8164   2.978   0.132  16.803  2.4250  0.0661 -0.7910
  547TMC3    C1 8165   2.841   0.114  16.991  0.2022  0.2177  0.6222
  547TMC3    C2 8166   2.784   0.082  16.864  0.1053  0.7699 -0.2951
  547TMC3    C3 8167   2.682   4.720  16.864  0.5401  0.0938 -0.8766
  547TMC3    C4 8168   2.804   0.056  17.104  0.0210  0.1774 -1.0856
  547TMC3    C5 8169   2.703   4.702  17.099  0.5482 -0.4560 -0.0898
  547TMC3    C6 8170   2.640   4.666  16.981 -0.5566 -0.1300  0.0908
  547TMC3     C 8171   2.965   0.182  16.997 -0.1424  0.2474  0.9343
  547TMC3     O 8172   3.001   0.227  17.103 -0.0489 -0.0723 -0.1881
  547TMC3     H 8173   2.805   0.133  16.771  1.8147  0.3197 -0.1613
  547TMC3    H1 8174   2.851   0.084  17.198  0.6838 -1.7060 -0.8488
  547TMC3    H2 8175   2.551   4.604  16.989 -1.5035  1.1684 -0.4057
  547TMC3    C7 8176   2.656   4.644  17.220 -0.4088  0.8261 -0.6817
  547TMC3    C8 8177   2.597   4.706  16.749 -0.3262 -0.0443 -0.3267
  547TMC3    O1 8178   2.702   4.705  17.317 -0.4186  0.0278 -0.0341
  547TMC3    O2 8179   2.605   0.050  16.663  0.3930 -0.5660 -0.7129
  548MPD2     C 8180   3.342   0.502  12.817 -0.5618  0.2457  0.2331
  548MPD2    C1 8181   3.290   0.379  12.765  0.5546 -0.1656  0.4352
  548MPD2    C2 8182   3.369   0.272  12.742 -0.2769  0.4929 -0.0190
  548MPD2    C3 8183   3.506   0.283  12.771  0.3740  0.7011 -0.2192
  548MPD2    C4 8184   3.560   0.400  12.826  0.5788 -0.1743  0.0336
  548MPD2    C5 8185   3.478   0.504  12.846  0.0856  0.8067  0.0271
  548MPD2     H 8186   3.325   0.179  12.708  2.6518 -0.9182 -0.0352
  548MPD2    H1 8187   3.660   0.409  12.865  0.7199 -0.8126 -0.1913
  548MPD2    H2 8188   3.277   0.582  12.852 -1.6128  0.5422 -2.4300
  548MPD2    H3 8189   3.516   0.591  12.898  0.0918  0.3495  0.7814
  548MPD2     N 8190   3.579   0.156  12.773 -0.3930 -1.0144  0.0185
  548MPD2    H5 8191   3.536   0.082  12.719 -0.7349 -1.5897  1.0710
  548MPD2    N1 8192   3.147   0.377  12.758  0.0067  0.4471 -0.1331
  548MPD2    H7 8193   3.105   0.469  12.755 -2.4783 -0.6950 -0.5825
  549TMC3    C1 8194   2.933   0.284  12.761  0.4559  0.9156 -0.0119
  549TMC3    C2 8195   2.877   0.388  12.696  0.0122 -0.5074  0.3760
  549TMC3    C3 8196   2.739   0.387  12.681  0.3511 -0.1639 -0.1401
  549TMC3    C4 8197   2.857   0.188  12.818  0.3863 -0.5912  0.1290
  549TMC3    C5 8198   2.722   0.185  12.801  0.0555  0.5614  0.2581
  549TMC3    C6 8199   2.661   0.287  12.731 -0.8223  0.3526  0.2768
  549TMC3     C 8200   3.075   0.260  12.756 -0.2668  0.5093 -0.1789
  549TMC3     O 8201   3.110   0.138  12.767 -0.1888 -0.1538 -0.2622
  549TMC3     H 8202   2.946   0.452  12.642 -1.4021 -0.1758 -1.0458
  549TMC3    H1 8203   2.905   0.111  12.878  4.0698  2.0310  0.5359
  549TMC3    H2 8204   2.553   0.294  12.732 -0.8463  0.1046 -0.4203
  549TMC3    C7 8205   2.643   0.088  12.866 -0.2241  0.1427 -0.7949
  549TMC3    C8 8206   2.676   0.494  12.612 -0.6064  0.5225 -0.2347
  549TMC3    O1 8207   2.522   0.103  12.871  0.1907 -0.1435 -0.1503
  549TMC3    O2 8208   2.565   0.475  12.566 -0.3251  0.4459  0.1262
  550TMC3    C1 8209   2.075   3.258  12.314 -0.1460  0.0635  0.0092
  550TMC3    C2 8210   2.068   3.304  12.448  0.1071 -0.8679  0.4310
  550TMC3    C3 8211   2.124   3.427  12.482 -0.0163 -0.9928 -0.3259
  550TMC3    C4 8212   2.132   3.338  12.224  0.7258 -0.4671 -0.1081
  550TMC3    C5 8213   2.173   3.464  12.249 -0.1154  0.2632 -0.4248
  550TMC3    C6 8214   2.177   3.505  12.382  0.2874  0.6422  1.0841
  550TMC3     C 8215   1.965   3.182  12.268  0.1610 -0.3356 -0.0462
  550TMC3     O 8216   1.892   3.122  12.347  0.1958  0.0181  0.3592
  550TMC3     H 8217   2.029   3.233  12.519 -2.2100 -0.6457 -0.6184
  550TMC3    H1 8218   2.137   3.323  12.117  2.7687 -2.1116  0.2220
  550TMC3    H2 8219   2.189   3.609  12.412  2.0512  1.0739 -1.1977
  550TMC3    C7 8220   2.113   3.567  12.159  0.1605  0.8011 -0.3844
  550TMC3    C8 8221   2.019   3.501  12.550  0.5486 -0.1935 -0.3603
  550TMC3    O1 8222   2.026   3.539  12.082  0.4758  0.4462 -0.4399
  550TMC3    O2 8223   2.053   3.609  12.600 -0.1712 -0.1472 -0.1066
  551TMC3    C1 8224   4.347   1.167  13.102 -0.7071  0.4470 -0.2127
  551TMC3    C2 8225   4.402   1.239  12.999  0.0989 -0.6739  0.0341
  551TMC3    C3 8226   4.503   1.334  13.033 -0.0874 -0.8150  0.1009
  551TMC3    C4 8227   4.383   1.188  13.239  0.2289  0.5266 -0.4025
  551TMC3    C5 8228   4.481   1.280  13.265  0.2188  0.7072 -0.0670
  551TMC3    C6 8229   4.541   1.358  13.165  0.2330 -0.6223 -0.1292
  551TMC3     C 8230   4.234   1.078  13.074  0.1975 -0.1767  0.8252
  551TMC3     O 8231   4.224   1.042  12.958  0.5712 -0.2692  0.4180
  551TMC3     H 8232   4.376   1.222  12.895 -1.2700  0.3042  0.2190
  551TMC3    H1 8233   4.334   1.139  13.323 -1.7513  0.9205 -1.3176
  551TMC3    H2 8234   4.629   1.419  13.177  0.3559 -0.8573  0.1604
  551TMC3    C7 8235   4.464   1.336  13.391 -0.6809  0.1589 -0.4084
  551TMC3    C8 8236   4.547   1.430  12.931 -0.0217 -0.0471  0.7186
  551TMC3    O1 8237   4.481   1.264  13.491  0.5115  0.5669 -0.4035
  551TMC3    O2 8238   4.526   1.402  12.814  0.3990 -0.5308 -0.6835
  552MPD2     C 8239   1.519   3.195  14.046 -0.4070 -0.0744  0.0605
  552MPD2    C1 8240   1.466   3.103  14.135  0.1054 -1.1213 -0.3443
  552MPD2    C2 8241   1.544   3.069  14.245  0.0071 -0.1523 -0.1256
  552MPD2    C3 8242   1.667   3.132  14.267  0.0063  0.1493  0.5220
  552MPD2    C4 8243   1.718   3.225  14.175 -0.3375 -0.3623  0.3597
  552MPD2    C5 8244   1.638   3.255  14.072 -0.1162 -0.3221  0.4485
  552MPD2     H 8245   1.516   3.000  14.323  2.1364  0.1391  0.8844
  552MPD2    H1 8246   1.804   3.289  14.189  0.0438 -1.2572  2.0932
  552MPD2    H2 8247   1.473   3.219  13.951 -0.2032  0.6900  0.1541
  552MPD2    H3 8248   1.670   3.331  14.002  0.0288 -0.5550  0.2577
  552MPD2     N 8249   1.740   3.117  14.386 -0.1201  0.5453  0.5150
  552MPD2    H5 8250   1.825   3.171  14.395 -0.2240  0.5335  1.5153
  552MPD2    N1 8251   1.364   3.015  14.101  0.5091  0.2282  0.0030
  552MPD2    H7 8252   1.360   2.931  14.157  1.5936 -0.2948 -0.6951
  553TMC3    C1 8253   1.259   2.900  13.926  0.2527  0.0852 -0.1775
  553TMC3    C2 8254   1.304   2.923  13.794 -0.0095  0.4071  0.3339
  553TMC3    C3 8255   1.427   2.870  13.766 -0.2036 -0.6894  0.9248
  553TMC3    C4 8256   1.319   2.799  13.996  0.2208  0.0789  0.0464
  553TMC3    C5 8257   1.439   2.743  13.964  0.1652  0.1836  0.0522
  553TMC3    C6 8258   1.498   2.785  13.847  0.2023  0.1348  0.4756
  553TMC3     C 8259   1.273   3.028  14.000 -0.0342 -0.1210 -0.9616
  553TMC3     O 8260   1.256   3.127  13.929  0.3825 -0.0647  0.3077
  553TMC3     H 8261   1.253   2.991  13.727  0.5454  0.4471 -0.0418
  553TMC3    H1 8262   1.275   2.780  14.093  0.2378  2.3490  0.5109
  553TMC3    H2 8263   1.589   2.738  13.813 -1.2539 -2.0195 -0.4444
  553TMC3    C7 8264   1.521   2.736  14.085  0.6281 -0.3822 -0.2076
  553TMC3    C8 8265   1.480   2.878  13.624  0.2342  0.2139 -0.1261
  553TMC3    O1 8266   1.468   2.672  14.177  0.5506  0.3191  0.2915
  553TMC3    O2 8267   1.601   2.850  13.609 -0.0881  1.0897 -0.0070
  554TMC3    C1 8268   3.690   2.396  11.233 -0.4344  0.2183  0.5794
  554TMC3    C2 8269   3.657   2.341  11.112 -0.5519  0.4127  0.6130
  554TMC3    C3 8270   3.556   2.401  11.049  0.2306  0.3423 -0.1245
  554TMC3    C4 8271   3.637   2.512  11.287  0.0160  0.2236  0.7322
  554TMC3    C5 8272   3.546   2.580  11.212 -0.0145 -0.7636  0.3510
  554TMC3    C6 8273   3.502   2.515  11.100 -0.2589  0.0326  0.2955
  554TMC3     C 8274   3.758   2.306  11.329  0.1044  1.1496  0.1942
  554TMC3     O 8275   3.803   2.362  11.428 -0.2243 -0.7003 -0.1431
  554TMC3     H 8276   3.701   2.250  11.074 -0.5995  0.5014  0.3475
  554TMC3    H1 8277   3.670   2.550  11.383 -0.1557  0.8036  0.5604
  554TMC3    H2 8278   3.416   2.560  11.053 -1.5471  1.7050  4.2232
  554TMC3    C7 8279   3.540   2.724  11.212  0.2269 -0.0143 -0.6242
  554TMC3    C8 8280   3.530   2.396  10.903  0.1768 -0.1284  1.0246
  554TMC3    O1 8281   3.497   2.761  11.105 -0.1970  0.1383  0.4724
  554TMC3    O2 8282   3.501   2.502  10.845 -0.6195 -0.0089  0.1129
  555TMC3    C1 8283   2.028   2.114  15.517 -0.1940 -0.1006  0.4630
  555TMC3    C2 8284   2.072   2.175  15.632  0.9145 -0.6146 -0.4844
  555TMC3    C3 8285   2.142   2.104  15.718 -0.6455 -0.0034 -0.3141
  555TMC3    C4 8286   2.057   1.986  15.494  0.2810  0.4148  0.4098
  555TMC3    C5 8287   2.112   1.909  15.591 -0.3204 -0.7227  0.8908
  555TMC3    C6 8288   2.153   1.966  15.707 -0.8531 -0.9871 -0.8021
  555TMC3     C 8289   1.990   2.200  15.410 -0.3672 -0.1005 -1.1126
  555TMC3     O 8290   2.028   2.314  15.418  0.1434  0.8415 -0.0944
  555TMC3     H 8291   2.057   2.282  15.638  0.4765 -0.7194  0.2646
  555TMC3    H1 8292   2.030   1.951  15.394  1.1875 -3.4023  1.4883
  555TMC3    H2 8293   2.190   1.899  15.784 -0.6435 -0.5290 -0.5021
  555TMC3    C7 8294   2.123   1.761  15.574 -0.6166 -0.3520 -0.4584
  555TMC3    C8 8295   2.197   2.182  15.834 -0.2815 -0.3749 -0.5915
  555TMC3    O1 8296   2.114   1.692  15.673  0.6187 -0.1459  0.1487
  555TMC3    O2 8297   2.183   2.304  15.845  0.4896  0.3086 -0.1176
  556MPD2     C 8298   0.430   3.862  10.438 -0.2573  0.4986  0.4455
  556MPD2    C1 8299   0.415   3.743  10.504 -0.2857 -0.2418 -0.0132
  556MPD2    C2 8300   0.386   3.629  10.432  0.3553  0.2012 -0.0537
  556MPD2    C3 8301   0.396   3.631  10.294 -0.5883 -0.6106 -0.4359
  556MPD2    C4 8302   0.431   3.750  10.232  0.6413 -0.4838  0.3905
  556MPD2    C5 8303   0.445   3.858  10.305 -0.3092 -0.2381  0.9385
  556MPD2     H 8304   0.361   3.541  10.489 -1.9469 -0.1535 -1.5855
  556MPD2    H1 8305   0.452   3.761  10.126 -0.5669  0.1269  0.2096
  556MPD2    H2 8306   0.437   3.952  10.496 -0.0183  1.0836 -0.4894
  556MPD2    H3 8307   0.475   3.949  10.254  0.9102 -1.2856 -0.2215
  556MPD2     N 8308   0.379   3.509  10.225  0.4365  0.5920  0.0231
  556MPD2    H5 8309   0.373   3.431  10.291  1.0206  1.1654  0.7518
  556MPD2    N1 8310   0.447   3.731  10.641  0.2220  0.0719  0.5761
  556MPD2    H7 8311   0.419   3.645  10.688  0.7746  0.3773  1.4581
  557TMC3    C1 8312   0.348   3.344  10.060 -0.1969  0.9308 -0.0376
  557TMC3    C2 8313   0.376   3.310   9.932  0.5824  0.6446  1.0371
  557TMC3    C3 8314   0.388   3.179   9.898 -0.3059 -0.0137  0.3544
  557TMC3    C4 8315   0.305   3.249  10.156  0.3979  0.5320 -0.1003
  557TMC3    C5 8316   0.311   3.119  10.112  0.1651 -0.2926 -0.6641
  557TMC3    C6 8317   0.343   3.087   9.983  0.2022 -0.3509 -0.0400
  557TMC3     C 8318   0.384   3.482  10.093 -0.4971 -0.6655  0.4361
  557TMC3     O 8319   0.416   3.557   9.998 -0.2814 -0.1667 -0.2040
  557TMC3     H 8320   0.412   3.381   9.858  0.0012  1.1816  1.2707
  557TMC3    H1 8321   0.274   3.276  10.256 -0.2589  1.4193 -0.5354
  557TMC3    H2 8322   0.349   2.980   9.966 -0.3552 -0.4531  0.4052
  557TMC3    C7 8323   0.234   3.020  10.188  0.1252  0.4758  0.7404
  557TMC3    C8 8324   0.445   3.142   9.767  0.1188 -0.1711 -0.2998
  557TMC3    O1 8325   0.184   3.079  10.283  0.2878  0.2171  0.1823
  557TMC3    O2 8326   0.523   3.221   9.723 -0.4364  0.2351 -0.1286
  558TMC3    C1 8327   3.156   1.311  10.418 -0.2755 -0.5598  0.4147
  558TMC3    C2 8328   3.037   1.308  10.476 -0.1211  0.0881 -0.6187
  558TMC3    C3 8329   2.934   1.373  10.408 -0.1123 -0.1920 -0.7208
  558TMC3    C4 8330   3.164   1.356  10.289  0.4349 -0.5487 -1.4706
  558TMC3    C5 8331   3.061   1.413  10.221  0.3008  0.6147  0.0244
  558TMC3    C6 8332   2.944   1.422  10.286  0.6418  1.1845  0.0952
  558TMC3     C 8333   3.262   1.218  10.461 -0.0242 -0.3126  0.2837
  558TMC3     O 8334   3.366   1.210  10.398 -0.1309 -0.0645 -0.2025
  558TMC3     H 8335   3.018   1.257  10.570  1.1772  0.4637 -0.1567
  558TMC3    H1 8336   3.260   1.343  10.241  0.4309  0.4210 -1.7292
  558TMC3    H2 8337   2.850   1.450  10.240  0.5284  0.1902 -0.2621
  558TMC3    C7 8338   3.093   1.476  10.093  0.9468  0.4917  0.2667
  558TMC3    C8 8339   2.806   1.385  10.473 -0.3371  0.2651 -0.2361
  558TMC3    O1 8340   3.191   1.431  10.034 -0.8760  0.0188 -0.2669
  558TMC3    O2 8341   2.708   1.415  10.406  0.4910 -0.3621 -0.3540
  559MPD2     C 8342   3.142   1.880  10.222 -0.2892  0.2010  0.2914
  559MPD2    C1 8343   3.077   1.815  10.325  0.2129  0.1549 -0.1653
  559MPD2    C2 8344   3.153   1.728  10.403 -0.1286 -0.3461 -0.4483
  559MPD2    C3 8345   3.292   1.708  10.372 -1.0772  0.2333 -0.6781
  559MPD2    C4 8346   3.353   1.769  10.259  0.9201 -0.1671 -0.3651
  559MPD2    C5 8347   3.272   1.855  10.184  0.9210  0.0842  0.2076
  559MPD2     H 8348   3.102   1.684  10.488 -2.8738  0.5392 -1.6314
  559MPD2    H1 8349   3.450   1.740  10.220 -0.3103 -1.7922 -2.2244
  559MPD2    H2 8350   3.101   1.952  10.153  0.1431  0.2138  0.0490
  559MPD2    H3 8351   3.304   1.893  10.088  0.7463 -1.7636 -0.5865
  559MPD2     N 8352   3.372   1.655  10.477  0.3924 -0.3651 -0.2870
  559MPD2    H5 8353   3.313   1.607  10.544  2.4891 -2.1827  0.2613
  559MPD2    N1 8354   2.941   1.853  10.347  0.1079 -0.2057  0.5034
  559MPD2    H7 8355   2.898   1.927  10.292 -1.3704 -1.2802  0.2137
  560TMC3    C1 8356   3.572   1.599  10.590  0.0923  0.2589 -0.3376
  560TMC3    C2 8357   3.497   1.501  10.648 -0.3338 -0.2734  0.4240
  560TMC3    C3 8358   3.560   1.435  10.747  0.4964  0.5755  0.7990
  560TMC3    C4 8359   3.710   1.623  10.607  0.5306 -0.5731 -0.2818
  560TMC3    C5 8360   3.760   1.546  10.713 -0.1501 -0.2635 -0.1905
  560TMC3    C6 8361   3.690   1.460  10.785  0.6091  0.3893 -0.1758
  560TMC3     C 8362   3.511   1.676  10.485 -0.1887 -0.2084 -0.2599
  560TMC3     O 8363   3.590   1.737  10.411 -0.1027 -0.2816 -0.5105
  560TMC3     H 8364   3.390   1.491  10.640 -0.1257 -1.8452 -0.4062
  560TMC3    H1 8365   3.766   1.685  10.539  0.0302 -1.0942 -1.1758
  560TMC3    H2 8366   3.745   1.426  10.872 -0.7481  1.3568  1.0626
  560TMC3    C7 8367   3.896   1.512  10.715 -0.4572  0.1604 -0.4231
  560TMC3    C8 8368   3.480   1.357  10.838 -0.4872 -0.5644  0.8656
  560TMC3    O1 8369   3.929   1.398  10.750  0.1670  0.0738 -0.5078
  560TMC3    O2 8370   3.361   1.344  10.802 -1.0461 -0.4521  0.1107
  561TMC3    C1 8371   0.891   1.035  11.231 -1.1755 -0.1563  0.5013
  561TMC3    C2 8372   0.772   0.977  11.261 -0.5441 -0.3201  0.1270
  561TMC3    C3 8373   0.661   1.046  11.290 -0.0259 -0.3809 -0.2241
  561TMC3    C4 8374   0.890   1.169  11.218 -0.0921  0.3241 -0.1880
  561TMC3    C5 8375   0.776   1.240  11.242 -1.0012 -0.6219  0.0964
  561TMC3    C6 8376   0.657   1.187  11.286  0.1777 -0.2098 -0.6998
  561TMC3     C 8377   0.998   0.957  11.171 -0.6181  0.0773 -0.3882
  561TMC3     O 8378   0.975   0.840  11.150  0.3056  0.6607 -0.1504
  561TMC3     H 8379   0.762   0.870  11.267  2.0917 -0.5188  1.0051
  561TMC3    H1 8380   0.973   1.219  11.170 -0.2581 -0.7996 -1.6295
  561TMC3    H2 8381   0.563   1.235  11.312  0.6404 -1.2447  2.9046
  561TMC3    C7 8382   0.772   1.381  11.210 -0.3765 -0.4133 -0.7621
  561TMC3    C8 8383   0.564   0.971  11.364  0.3420 -0.8348  0.0094
  561TMC3    O1 8384   0.659   1.425  11.223  0.3227  0.5730 -0.0561
  561TMC3    O2 8385   0.585   0.851  11.385  0.4298 -0.3383  0.2779
  562TMC3    C1 8386   2.106   1.675  16.395  0.2299 -0.2266 -0.0590
  562TMC3    C2 8387   2.030   1.789  16.400 -0.1999  0.2219  0.0737
  562TMC3    C3 8388   2.037   1.873  16.289 -0.5074 -0.0881 -0.1794
  562TMC3    C4 8389   2.175   1.637  16.282 -0.5232  0.0190 -0.5952
  562TMC3    C5 8390   2.187   1.727  16.184  0.3185  0.2428  0.4594
  562TMC3    C6 8391   2.121   1.847  16.186 -0.4871 -0.3931 -0.5838
  562TMC3     C 8392   2.107   1.590  16.512  0.4450 -0.7221  0.3960
  562TMC3     O 8393   2.140   1.472  16.503 -0.8418  0.2478  0.0068
  562TMC3     H 8394   1.962   1.816  16.480 -0.4427  1.6157 -0.5983
  562TMC3    H1 8395   2.193   1.531  16.262  2.0249  0.2209  0.5733
  562TMC3    H2 8396   2.145   1.916  16.106 -0.1910  0.2188  0.0299
  562TMC3    C7 8397   2.265   1.693  16.064  0.4672 -0.5726  0.4592
  562TMC3    C8 8398   1.974   1.997  16.308  0.8830 -0.1944 -0.7048
  562TMC3    O1 8399   2.256   1.763  15.961  0.1958  0.3392  0.1301
  562TMC3    O2 8400   1.961   2.039  16.425  0.5030 -0.1623  0.2924
  563MPD2     C 8401   0.236   3.429  15.670 -0.0158 -0.5375  0.1453
  563MPD2    C1 8402   0.219   3.495  15.784  0.8248 -0.0972  0.6497
  563MPD2    C2 8403   0.332   3.550  15.844  0.7287  0.8793 -0.1326
  563MPD2    C3 8404   0.453   3.546  15.782 -0.3145 -0.0468  0.4581
  563MPD2    C4 8405   0.468   3.480  15.658  0.3975 -0.3413  0.3692
  563MPD2    C5 8406   0.355   3.421  15.608 -0.2698  0.0641 -0.0820
  563MPD2     H 8407   0.329   3.590  15.945  0.4943 -1.9916  0.9970
  563MPD2    H1 8408   0.568   3.478  15.616  0.2018 -0.0052 -0.1124
  563MPD2    H2 8409   0.155   3.382  15.614 -1.9422 -0.6084  2.9988
  563MPD2    H3 8410   0.370   3.378  15.510  0.3032 -1.8036  0.8180
  563MPD2     N 8411   0.564   3.581  15.864 -0.0344 -0.2624 -0.2623
  563MPD2    H5 8412   0.549   3.612  15.959  0.1060  0.5316 -0.4956
  563MPD2    N1 8413   0.090   3.498  15.845  0.6174  0.3618 -0.8091
  563MPD2    H7 8414   0.020   3.434  15.809  0.9879 -1.4558  1.7401
  564TMC3    C1 8415   4.696   3.507  16.040  0.7938 -0.5826 -0.5037
  564TMC3    C2 8416   4.624   3.395  15.995  0.2209 -0.7690  0.2522
  564TMC3    C3 8417   4.556   3.323  16.090 -0.3249  0.0908  0.1401
  564TMC3    C4 8418   4.720   3.528  16.175  0.2456  0.0641 -0.0390
  564TMC3    C5 8419   4.647   3.448  16.268  0.2269  0.0903  0.4727
  564TMC3    C6 8420   4.561   3.348  16.225 -0.1213 -0.2979  0.8998
  564TMC3     C 8421   0.060   3.569  15.960 -0.4286 -0.8067  0.3739
  564TMC3     O 8422   0.119   3.666  16.011 -0.2994 -0.2634 -0.0179
  564TMC3     H 8423   4.621   3.368  15.890 -0.0990  3.1582 -0.7375
  564TMC3    H1 8424   0.030   3.616  16.215 -0.5312  0.2439  0.4967
  564TMC3    H2 8425   4.497   3.300  16.298  1.8444 -1.6810  1.7048
  564TMC3    C7 8426   4.702   3.439  16.400 -0.3287 -1.0006  0.1965
  564TMC3    C8 8427   4.496   3.198  16.051  0.0522 -0.5811 -0.0494
  564TMC3    O1 8428   0.047   3.528  16.430  0.0866  0.4660  0.1659
  564TMC3    O2 8429   4.454   3.140  16.150  0.7575 -0.1152 -0.1928
  565TMC3    C1 8430   0.913   0.391  10.207  0.8882  0.1209  0.1492
  565TMC3    C2 8431   0.826   0.368  10.305 -0.9682 -0.1892  0.3746
  565TMC3    C3 8432   0.817   0.239  10.355  0.5043 -0.2943 -0.4628
  565TMC3    C4 8433   0.983   0.297  10.146 -0.0647 -1.0946 -0.9232
  565TMC3    C5 8434   0.963   0.170  10.194 -0.6733  0.2357  0.1112
  565TMC3    C6 8435   0.891   0.135  10.300  0.6239 -0.3855  0.5754
  565TMC3     C 8436   0.933   0.527  10.146 -0.4812  0.1379  0.2645
  565TMC3     O 8437   0.973   0.543  10.029 -0.5633  0.2629 -0.2021
  565TMC3     H 8438   0.756   0.447  10.329 -0.2309  0.6953 -0.4106
  565TMC3    H1 8439   1.067   0.314  10.080  1.1304  0.0949  0.9072
  565TMC3    H2 8440   0.856   0.034  10.318 -0.5687  0.2501  1.7676
  565TMC3    C7 8441   1.009   0.063  10.104 -0.6198 -0.1242  0.0098
  565TMC3    C8 8442   0.729   0.213  10.471  0.1760  0.5488 -0.2394
  565TMC3    O1 8443   1.022   0.087   9.984 -0.5825  0.3416 -0.1036
  565TMC3    O2 8444   0.706   0.098  10.506 -0.3931 -0.3141  0.4096
  566MPD2     C 8445   1.663   2.027  14.139  0.4953  0.2932  0.1471
  566MPD2    C1 8446   1.757   2.085  14.061 -0.4597 -0.3337 -0.2153
  566MPD2    C2 8447   1.723   2.102  13.928  0.3466  0.0154 -0.2362
  566MPD2    C3 8448   1.610   2.044  13.872  1.1967 -0.1654  0.2906
  566MPD2    C4 8449   1.520   1.977  13.954  0.8449 -0.4919  0.3045
  566MPD2    C5 8450   1.548   1.972  14.088  0.3066  0.6543 -0.0477
  566MPD2     H 8451   1.795   2.140  13.857  0.3898 -0.4410 -0.4336
  566MPD2    H1 8452   1.427   1.933  13.919 -0.0065  1.1094  0.5544
  566MPD2    H2 8453   1.688   2.005  14.243  4.0580  0.3080 -0.7015
  566MPD2    H3 8454   1.482   1.920  14.156  0.3799 -0.7001 -1.0213
  566MPD2     N 8455   1.597   2.039  13.731  0.3389 -0.1331  0.0850
  566MPD2    H5 8456   1.667   2.092  13.680  0.6492  0.9986  1.6655
  566MPD2    N1 8457   1.876   2.121  14.116  0.2513 -0.5754  0.3304
  566MPD2    H7 8458   1.876   2.103  14.216 -0.2931  3.1029  0.9935
  567TMC3    C1 8459   2.112   2.171  14.108  0.3068  0.5126 -0.7316
  567TMC3    C2 8460   2.214   2.169  14.021  0.4477  0.0310 -0.1113
  567TMC3    C3 8461   2.332   2.138  14.063  0.2637 -0.1720 -0.6655
  567TMC3    C4 8462   2.121   2.161  14.243 -0.8073  0.8142 -0.4002
  567TMC3    C5 8463   2.254   2.151  14.289 -0.0754  0.1609 -0.3947
  567TMC3    C6 8464   2.362   2.131  14.202  0.0002  0.3282  0.3589
  567TMC3     C 8465   1.978   2.177  14.041 -0.4472 -0.3629  0.3210
  567TMC3     O 8466   1.980   2.235  13.935  0.0609 -0.5169  0.0958
  567TMC3     H 8467   2.192   2.186  13.916 -0.3410 -1.3406 -0.1726
  567TMC3    H1 8468   2.036   2.175  14.310  0.5709  2.5912  0.9603
  567TMC3    H2 8469   2.461   2.115  14.241 -0.2882  1.2554  1.4665
  567TMC3    C7 8470   2.288   2.184  14.430  0.1871  0.5687  0.0258
  567TMC3    C8 8471   2.428   2.117  13.957 -0.9009 -0.5930  0.1377
  567TMC3    O1 8472   2.389   2.252  14.453  0.1748  0.3793 -0.3286
  567TMC3    O2 8473   2.388   2.148  13.844 -0.4378  0.3573 -0.2190
  568MPD2     C 8474   3.969   1.729  16.259  0.0838 -0.6851 -0.0575
  568MPD2    C1 8475   3.898   1.826  16.322  0.0735 -0.7630  0.6417
  568MPD2    C2 8476   3.898   1.961  16.282  0.0725  0.0640 -0.4568
  568MPD2    C3 8477   3.980   1.991  16.175 -0.1891  0.1775  0.3224
  568MPD2    C4 8478   4.049   1.889  16.107  0.5659  0.2319 -0.2995
  568MPD2    C5 8479   4.041   1.760  16.152  0.6122 -0.1146 -0.3592
  568MPD2     H 8480   3.853   2.042  16.338 -0.2358  0.3745 -1.1474
  568MPD2    H1 8481   4.104   1.901  16.014  0.2670 -3.1198 -0.9033
  568MPD2    H2 8482   3.970   1.625  16.291 -1.2700  0.1358  2.6788
  568MPD2    H3 8483   4.093   1.681  16.099  1.4325 -1.2360  2.0944
  568MPD2     N 8484   3.990   2.127  16.147 -0.2738  0.1884 -0.1716
  568MPD2    H5 8485   3.908   2.182  16.173  0.8614  1.8058 -0.0320
  568MPD2    N1 8486   3.832   1.781  16.438  0.0727 -0.3659  0.1465
  568MPD2    H7 8487   3.853   1.685  16.465  1.0498 -0.2904 -0.3398
  569TMC3    C1 8488   4.071   2.325  16.058 -0.5285  1.0486 -0.0259
  569TMC3    C2 8489   3.994   2.397  16.150  0.3825  0.2635 -1.2563
  569TMC3    C3 8490   4.018   2.526  16.168 -0.8835  0.0998 -0.0029
  569TMC3    C4 8491   4.170   2.389  15.985  0.2153  0.1856 -0.2142
  569TMC3    C5 8492   4.187   2.520  16.012 -0.0553  0.5458 -0.3514
  569TMC3    C6 8493   4.109   2.598  16.096 -0.3845 -0.5422 -0.1022
  569TMC3     C 8494   4.072   2.182  16.058  0.6113  0.1064  0.5698
  569TMC3     O 8495   4.161   2.128  15.991 -0.0999 -0.2544 -0.2655
  569TMC3     H 8496   3.934   2.348  16.226  1.2787 -1.6815 -1.7793
  569TMC3    H1 8497   4.235   2.329  15.923 -0.4787 -0.6023 -0.1804
  569TMC3    H2 8498   4.112   2.706  16.106 -1.0396 -0.6463  1.2127
  569TMC3    C7 8499   4.286   2.591  15.923  0.5379  0.4133  0.5931
  569TMC3    C8 8500   3.965   2.587  16.291  0.6125 -0.8334  0.1313
  569TMC3    O1 8501   4.356   2.522  15.855  0.3249  0.7601 -0.1150
  569TMC3    O2 8502   3.873   2.535  16.352 -0.0241 -0.0898  0.3289
  570TMC3    C1 8503   3.385   1.030  15.979 -0.2283 -0.3790 -0.3114
  570TMC3    C2 8504   3.449   1.064  15.866 -0.4203  0.2779 -0.0963
  570TMC3    C3 8505   3.547   1.162  15.873  0.5342 -0.0699  0.0711
  570TMC3    C4 8506   3.409   1.099  16.094 -0.5094 -1.1614  0.1507
  570TMC3    C5 8507   3.512   1.196  16.100  0.1765  0.0532 -0.7583
  570TMC3    C6 8508   3.581   1.226  15.987  1.3939  0.5788  0.1694
  570TMC3     C 8509   3.278   0.933  15.967 -0.2371 -0.6552  0.3319
  570TMC3     O 8510   3.227   0.915  15.858 -0.3159 -0.5781  0.0939
  570TMC3     H 8511   3.438   0.998  15.781 -0.3270  1.1306 -0.7700
  570TMC3    H1 8512   3.351   1.081  16.184 -0.8522 -0.0677  0.1471
  570TMC3    H2 8513   3.667   1.292  15.995 -0.1098  2.5859 -0.5039
  570TMC3    C7 8514   3.496   1.303  16.201 -0.1356  0.6011  0.1984
  570TMC3    C8 8515   3.626   1.197  15.758  0.1592  0.4267 -0.3984
  570TMC3    O1 8516   3.455   1.276  16.316 -0.0791  0.5031 -0.0859
  570TMC3    O2 8517   3.715   1.280  15.776 -0.3177  0.3738  0.1344
  571MPD2     C 8518   1.659   2.944   0.568  0.1038  0.1307 -0.4509
  571MPD2    C1 8519   1.540   3.013   0.569 -0.0284  0.3393  0.0907
  571MPD2    C2 8520   1.531   3.152   0.593  0.6304 -0.4906 -0.1781
  571MPD2    C3 8521   1.647   3.221   0.607 -0.7738  0.0163  0.0995
  571MPD2    C4 8522   1.769   3.158   0.590 -0.8114 -0.5632 -0.1676
  571MPD2    C5 8523   1.770   3.024   0.581 -0.1043 -0.0781  0.0439
  571MPD2     H 8524   1.437   3.204   0.585  0.5195 -0.6019  0.4643
  571MPD2    H1 8525   1.863   3.212   0.584 -2.0096  1.5697  0.2668
  571MPD2    H2 8526   1.661   2.838   0.545  0.4814  0.0968 -0.2568
  571MPD2    H3 8527   1.865   2.972   0.580 -0.0449  0.0321 -0.0194
  571MPD2     N 8528   1.648   3.357   0.636  0.9256 -0.0125  0.2083
  571MPD2    H5 8529   1.742   3.393   0.649  0.9078 -0.5615  1.8438
  571MPD2    N1 8530   1.424   2.937   0.530  0.0726 -0.0002  0.6663
  571MPD2    H7 8531   1.448   2.845   0.494  1.4275  1.1282 -1.3153
  572TMC3    C1 8532   1.567   3.581   0.656  0.0893  0.1668  0.6103
  572TMC3    C2 8533   1.484   3.665   0.727 -0.6751 -0.1931 -0.4952
  572TMC3    C3 8534   1.478   3.796   0.701 -0.1994  0.3995  0.0295
  572TMC3    C4 8535   1.650   3.639   0.559 -1.0325  0.1815  0.6957
  572TMC3    C5 8536   1.639   3.772   0.530  0.7835  0.2376  0.5573
  572TMC3    C6 8537   1.556   3.857   0.599  0.0316  0.0837  0.1737
  572TMC3     C 8538   1.541   3.438   0.662  0.6179 -0.1851  0.0938
  572TMC3     O 8539   1.427   3.403   0.686  0.1832  0.0551 -0.0608
  572TMC3     H 8540   1.401   3.625   0.784  1.0194 -2.9415 -0.0050
  572TMC3    H1 8541   1.705   3.571   0.494 -1.5563 -0.5232  0.9880
  572TMC3    H2 8542   1.562   3.964   0.589  2.4683 -0.3087 -2.6634
  572TMC3    C7 8543   1.691   3.806   0.405  0.5112 -0.5329 -0.0149
  572TMC3    C8 8544   1.388   3.884   0.770 -0.2326  0.4116  0.0419
  572TMC3    O1 8545   1.779   3.733   0.353 -0.8134 -0.0453 -0.8580
  572TMC3    O2 8546   1.403   4.002   0.742  0.2922 -0.1048  0.0971
  573MPD2     C 8547   2.333   3.149   0.353  0.4010 -0.1199 -0.3015
  573MPD2    C1 8548   2.260   3.248   0.412 -0.0262 -0.4476  0.0566
  573MPD2    C2 8549   2.127   3.260   0.389 -0.4083  0.2386 -0.1044
  573MPD2    C3 8550   2.063   3.175   0.298 -0.0448 -0.1478 -0.0146
  573MPD2    C4 8551   2.134   3.068   0.244  0.6886 -0.0209 -0.2093
  573MPD2    C5 8552   2.268   3.051   0.273 -0.1510  0.2292  0.7373
  573MPD2     H 8553   2.080   3.349   0.429 -0.3137 -0.1072  0.7637
  573MPD2    H1 8554   2.097   3.003   0.165  0.5258 -0.0721 -0.0922
  573MPD2    H2 8555   2.436   3.135   0.382  0.1868  0.4361  0.7494
  573MPD2    H3 8556   2.334   2.978   0.227  0.0196  1.0057 -0.2347
  573MPD2     N 8557   1.930   3.202   0.256 -0.0204 -0.1741  0.4344
  573MPD2    H5 8558   1.890   3.134   0.192  2.9307  0.3651 -2.0072
  573MPD2    N1 8559   2.330   3.343   0.491 -0.3819 -0.0637 -0.2261
  573MPD2    H7 8560   2.431   3.342   0.478 -0.8524  0.5840 -3.8233
  574TMC3    C1 8561   1.715   3.307   0.237 -0.6816 -0.2696 -0.3910
  574TMC3    C2 8562   1.651   3.426   0.245 -0.3435  0.3562  0.4101
  574TMC3    C3 8563   1.516   3.422   0.263  0.4638 -0.6180 -0.3841
  574TMC3    C4 8564   1.654   3.184   0.245  0.1590 -0.1082 -0.1445
  574TMC3    C5 8565   1.517   3.190   0.262 -0.1094  0.6731  0.0304
  574TMC3    C6 8566   1.451   3.303   0.276 -0.3485  0.1602 -0.3610
  574TMC3     C 8567   1.855   3.315   0.283  0.0056  0.4134 -0.1376
  574TMC3     O 8568   1.885   3.410   0.353 -0.0363 -0.0116 -0.1242
  574TMC3     H 8569   1.708   3.518   0.249  0.0455  0.1351 -0.0457
  574TMC3    H1 8570   1.710   3.094   0.269  1.3300  1.2418  2.1429
  574TMC3    H2 8571   1.342   3.302   0.280 -0.3000  1.7084  1.0683
  574TMC3    C7 8572   1.433   3.080   0.203 -0.3122 -0.3045 -0.3464
  574TMC3    C8 8573   1.434   3.524   0.193 -0.0710 -0.8050  0.6658
  574TMC3    O1 8574   1.314   3.096   0.208 -0.3804  0.1926  0.1357
  574TMC3    O2 8575   1.313   3.519   0.185 -0.3882  0.5273  0.6138
  575TMC3    C1 8576   0.497   4.604  11.207 -0.2103 -0.7160 -0.2695
  575TMC3    C2 8577   0.442   4.477  11.190  0.0952  0.7499  0.1641
  575TMC3    C3 8578   0.373   4.451  11.078  0.3035  0.0340 -0.0594
  575TMC3    C4 8579   0.471   4.713  11.126 -0.4339 -0.4791 -0.1647
  575TMC3    C5 8580   0.404   4.676  11.006  0.1552 -0.3570  0.3680
  575TMC3    C6 8581   0.358   4.547  10.977  0.0539 -0.7971 -0.1250
  575TMC3     C 8582   0.625   4.607  11.273  0.6878 -0.1284 -0.3591
  575TMC3     O 8583   0.662   4.717  11.305  1.0424 -0.5753 -0.3611
  575TMC3     H 8584   0.467   4.395  11.256  0.8426 -0.2890 -1.4131
  575TMC3    H1 8585   0.526   0.067  11.140  0.7903 -1.2361  0.0437
  575TMC3    H2 8586   0.302   4.524  10.887  2.7889  1.3343 -2.3640
  575TMC3    C7 8587   0.428   0.018  10.885  0.2585 -0.5798  0.2360
  575TMC3    C8 8588   0.324   4.317  11.066  0.0897 -0.5955 -0.2008
  575TMC3    O1 8589   0.457   4.689  10.783  0.5110  0.0069 -0.0499
  575TMC3    O2 8590   0.315   4.251  11.170 -0.0639 -0.1326  0.2463
  576MPD2     C 8591   4.252   1.388  12.307  0.0604  0.7598 -0.8901
  576MPD2    C1 8592   4.361   1.445  12.255 -0.2392 -0.7176  0.0889
  576MPD2    C2 8593   4.414   1.558  12.311 -0.3363  0.1447 -0.2166
  576MPD2    C3 8594   4.358   1.618  12.415  0.1692  0.0881 -0.3683
  576MPD2    C4 8595   4.245   1.560  12.470  0.1198  0.4528  0.6811
  576MPD2    C5 8596   4.196   1.447  12.416 -0.3159  0.3795 -0.2381
  576MPD2     H 8597   4.501   1.603  12.265  0.9514 -1.4675  0.6006
  576MPD2    H1 8598   4.192   1.616  12.547  0.6581  0.7075  0.8749
  576MPD2    H2 8599   4.202   1.301  12.264  0.1469  0.7376 -0.9460
  576MPD2    H3 8600   4.101   1.413  12.457 -0.2170  0.0113 -0.3082
  576MPD2     N 8601   4.411   1.739  12.466  0.0317 -0.0298  0.3421
  576MPD2    H5 8602   4.490   1.770  12.411 -0.3704  0.0074 -0.2155
  576MPD2    N1 8603   4.421   1.400  12.135  0.1831  0.0633 -0.0098
  576MPD2    H7 8604   4.491   1.459  12.092  0.1614  0.1857  0.1238
  577TMC3    C1 8605   4.464   1.293  11.935  0.2014 -0.8343 -0.4785
  577TMC3    C2 8606   4.512   1.170  11.886 -0.6765  0.3388  0.5279
  577TMC3    C3 8607   4.606   1.175  11.787 -0.6853  0.1550  0.3274
  577TMC3    C4 8608   4.511   1.411  11.889 -1.0174 -0.4870  0.3589
  577TMC3    C5 8609   4.599   1.413  11.783  0.9825  0.1447 -0.6151
  577TMC3    C6 8610   4.655   1.296  11.740  0.1509 -0.0777 -0.1321
  577TMC3     C 8611   4.382   1.288  12.054 -0.4239  0.0450  0.4957
  577TMC3     O 8612   4.311   1.193  12.084  0.2415  0.5092 -0.0872
  577TMC3     H 8613   4.486   1.071  11.919  0.4604 -0.3462 -0.6219
  577TMC3    H1 8614   4.469   1.506  11.920  1.0535  0.8728 -1.0047
  577TMC3    H2 8615   0.017   1.302  11.700 -0.6785  2.5946 -1.7831
  577TMC3    C7 8616   4.675   1.528  11.775 -0.0659 -0.2536 -0.4751
  577TMC3    C8 8617   4.691   1.063  11.761 -0.2499 -0.3342  0.4281
  577TMC3    O1 8618   4.678   1.598  11.876  0.0261  0.1931  0.5491
  577TMC3    O2 8619   4.691   0.983  11.854  0.0010  0.2743 -0.0235
  578MPD2     C 8620   2.990   1.727   1.190  0.2310  0.5689  0.4376
  578MPD2    C1 8621   3.048   1.635   1.105  0.0798  0.1025 -0.3799
  578MPD2    C2 8622   3.111   1.522   1.155  0.5143 -0.2489  0.0751
  578MPD2    C3 8623   3.117   1.498   1.292  0.6966 -0.1821 -0.0783
  578MPD2    C4 8624   3.049   1.587   1.376 -0.1230  0.2087 -0.1286
  578MPD2    C5 8625   2.986   1.698   1.321  0.9008  0.0562  0.5491
  578MPD2     H 8626   3.158   1.448   1.091 -0.4963 -0.9647  0.1649
  578MPD2    H1 8627   3.056   1.581   1.484  2.0388 -1.5755 -0.3781
  578MPD2    H2 8628   2.945   1.816   1.147 -0.3605  0.4533  0.8239
  578MPD2    H3 8629   2.951   1.776   1.388 -0.7901 -0.5478  0.3728
  578MPD2     N 8630   3.190   1.382   1.330 -0.2648  0.2179 -0.4778
  578MPD2    H5 8631   3.237   1.327   1.259 -2.7914 -2.0011 -0.4232
  578MPD2    N1 8632   3.045   1.674   0.965  0.0991 -0.2870 -0.1741
  578MPD2    H7 8633   3.001   1.764   0.948 -0.8349 -1.1030 -2.0055
  579TMC3    C1 8634   3.255   1.200   1.451  0.7217  0.3195  0.1032
  579TMC3    C2 8635   3.359   1.203   1.537 -0.4974 -0.1057 -0.5568
  579TMC3    C3 8636   3.470   1.145   1.486 -0.0890 -0.1281  0.0713
  579TMC3    C4 8637   3.247   1.129   1.336 -0.1985 -0.6765  0.4199
  579TMC3    C5 8638   3.353   1.049   1.324  0.1024 -0.5351 -0.1733
  579TMC3    C6 8639   3.463   1.048   1.399 -0.0243 -0.2806 -1.6104
  579TMC3     C 8640   3.196   1.333   1.456  0.0694 -0.1468  0.0750
  579TMC3     O 8641   3.162   1.378   1.566 -0.2689 -0.1024  0.0907
  579TMC3     H 8642   3.360   1.265   1.626 -2.1595 -0.5269 -0.2459
  579TMC3    H1 8643   3.155   1.120   1.280  0.5104  0.2780 -0.9103
  579TMC3    H2 8644   3.548   0.986   1.372  2.6646  2.7632 -0.2047
  579TMC3    C7 8645   3.340   0.935   1.240 -0.4803  0.1230 -0.3895
  579TMC3    C8 8646   3.598   1.172   1.546  0.1457 -0.2896  0.0841
  579TMC3    O1 8647   3.391   0.826   1.271 -0.3180  0.2728 -0.1691
  579TMC3    O2 8648   3.611   1.219   1.659 -0.2716  0.4355  0.1645
  580TMC3    C1 8649   2.857   4.680  12.172  0.0157  0.3532  0.3021
  580TMC3    C2 8650   2.791   4.647  12.053 -0.7137 -0.3472 -0.6213
  580TMC3    C3 8651   2.779   4.512  12.020 -0.1227  0.1131 -0.0428
  580TMC3    C4 8652   2.912   4.585  12.258 -0.2310 -0.3075 -0.4302
  580TMC3    C5 8653   2.893   4.456  12.218 -0.1063  0.7146  0.8928
  580TMC3    C6 8654   2.827   4.421  12.105 -0.5779 -0.6422 -0.3988
  580TMC3     C 8655   2.852   0.089  12.197 -0.9977 -0.2326 -0.1147
  580TMC3     O 8656   2.761   0.151  12.142  0.1120 -0.0603 -0.6378
  580TMC3     H 8657   2.736   4.723  11.998 -1.6784  0.9251  2.1295
  580TMC3    H1 8658   2.961   4.610  12.352 -1.9099  0.9198  0.1168
  580TMC3    H2 8659   2.818   4.317  12.076  2.0682 -1.1612  0.6017
  580TMC3    C7 8660   2.924   4.351  12.321 -0.6038  0.5091 -0.9062
  580TMC3    C8 8661   2.824   4.482  11.883 -0.4036 -0.3760 -0.5889
  580TMC3    O1 8662   3.019   4.370  12.390 -0.0492 -0.0135  0.3917
  580TMC3    O2 8663   2.840   4.363  11.860  0.3361 -0.7184 -0.3121
  581MPD2     C 8664   0.531   0.167  14.580 -0.1147  0.1884 -0.3526
  581MPD2    C1 8665   0.515   0.194  14.711 -0.5802 -0.1783  0.5794
  581MPD2    C2 8666   0.382   0.220  14.754  0.2733 -0.5015 -0.1023
  581MPD2    C3 8667   0.277   0.212  14.661  0.5107 -1.1267 -0.1051
  581MPD2    C4 8668   0.300   0.182  14.528  0.1800 -0.2021  0.5854
  581MPD2    C5 8669   0.426   0.150  14.492 -1.0411  0.1348 -0.1262
  581MPD2     H 8670   0.356   0.248  14.856  0.7990  1.2870 -0.4583
  581MPD2    H1 8671   0.228   0.193  14.447  1.6033 -0.1288 -0.6684
  581MPD2    H2 8672   0.630   0.161  14.536 -0.0862 -3.2730  0.2071
  581MPD2    H3 8673   0.440   0.124  14.388  3.3653  0.7321  0.3249
  581MPD2     N 8674   0.150   0.252  14.713  0.2721  0.2620 -0.6143
  581MPD2    H5 8675   0.150   0.293  14.806  0.7922 -0.2268 -0.3994
  581MPD2    N1 8676   0.631   0.199  14.793  0.2738  0.4787 -0.0987
  581MPD2    H7 8677   0.722   0.194  14.749  1.0225 -2.4069  1.7643
  582TMC3    C1 8678   0.754   0.168  14.983  0.6379  0.5651 -0.2718
  582TMC3    C2 8679   0.770   0.195  15.115  0.2401 -0.1054  0.5875
  582TMC3    C3 8680   0.795   0.090  15.198  0.3462  0.0712  0.5185
  582TMC3    C4 8681   0.765   0.039  14.942 -0.0838 -0.5195 -0.5715
  582TMC3    C5 8682   0.778   4.670  15.029 -0.9580  0.7948  0.8663
  582TMC3    C6 8683   0.804   4.694  15.161 -0.4753  0.5901  0.1980
  582TMC3     C 8684   0.634   0.220  14.927 -0.1543 -0.0919  0.4066
  582TMC3     O 8685   0.552   0.249  15.013 -0.1802 -0.5407 -0.2493
  582TMC3     H 8686   0.749   0.295  15.152  1.1141 -0.3114  1.6732
  582TMC3    H1 8687   0.746   0.010  14.839  0.1781 -0.1208 -0.7346
  582TMC3    H2 8688   0.820   4.605  15.221 -0.8346 -0.1558 -0.8126
  582TMC3    C7 8689   0.668   4.583  15.018 -0.2856  0.7789  0.2430
  582TMC3    C8 8690   0.812   0.121  15.345 -0.2831  0.7628  0.6272
  582TMC3    O1 8691   0.676   4.466  15.062  0.0230  0.4016  0.2098
  582TMC3    O2 8692   0.751   0.220  15.385 -0.2851 -0.2503 -0.4448
  583MPD2     C 8693   0.412   2.291  16.890  0.4600  1.0327  0.2051
  583MPD2    C1 8694   0.422   2.394  16.797 -0.0091 -0.0871 -0.3098
  583MPD2    C2 8695   0.407   2.521  16.845  0.2002 -0.0958 -0.5255
  583MPD2    C3 8696   0.365   2.547  16.974  0.7134  0.1183 -0.3974
  583MPD2    C4 8697   0.346   2.438  17.063  0.6051  0.0809  0.1364
  583MPD2    C5 8698   0.370   2.311  17.022  0.5013 -0.9552  0.1519
  583MPD2     H 8699   0.422   2.602  16.775 -1.5462  1.3952  0.7930
  583MPD2    H1 8700   0.325   2.457  17.168 -3.3293 -1.7528 -0.3014
  583MPD2    H2 8701   0.444   2.191  16.865 -0.2744  1.1511 -1.2565
  583MPD2    H3 8702   0.346   2.227  17.087 -0.0119  0.5094  1.8363
  583MPD2     N 8703   0.341   2.688  17.019 -0.1088  0.5247 -0.5499
  583MPD2    H5 8704   0.371   2.767  16.962  2.4214 -0.7406 -0.9732
  583MPD2    N1 8705   0.467   2.372  16.668 -0.4684 -0.0249 -0.2335
  583MPD2    H7 8706   0.468   2.451  16.603 -0.8558  0.1333 -0.0467
  584TMC3    C1 8707   0.250   2.862  17.153 -0.3266 -0.2938 -0.2723
  584TMC3    C2 8708   0.347   2.947  17.103 -0.0594  0.1114 -0.0787
  584TMC3    C3 8709   0.373   3.056  17.177  0.7273  0.1003 -0.4268
  584TMC3    C4 8710   0.191   2.882  17.275 -0.4963 -0.1866  0.1503
  584TMC3    C5 8711   0.236   2.988  17.349  0.1339 -0.1485  0.1008
  584TMC3    C6 8712   0.329   3.073  17.302 -0.1972 -0.4312  0.6018
  584TMC3     C 8713   0.259   2.723  17.121  0.1430 -0.4346 -0.4004
  584TMC3     O 8714   0.181   2.650  17.177 -0.3707 -0.1384  1.1682
  584TMC3     H 8715   0.379   2.953  17.000  0.9333  0.6756  0.2680
  584TMC3    H1 8716   0.145   2.802  17.334 -1.1431 -0.7120 -1.0572
  584TMC3    H2 8717   0.349   3.163  17.359  0.4326 -0.6186  0.6808
  584TMC3    C7 8718   0.221   2.965  17.497 -0.3378 -0.1576 -0.3443
  584TMC3    C8 8719   0.481   3.132  17.124 -0.3063  0.1277  0.0125
  584TMC3    O1 8720   0.121   2.908  17.531  0.1432  0.0421 -0.1623
  584TMC3    O2 8721   0.481   3.155  17.004  0.7880 -0.2103 -0.1472
  585MPD2     C 8722   3.933   1.393   0.231  0.3702 -0.0975 -0.1555
  585MPD2    C1 8723   3.946   1.441   0.110 -0.4163  0.2380  0.3617
  585MPD2    C2 8724   3.978   1.354   0.009 -0.2910 -0.0721 -0.2659
  585MPD2    C3 8725   4.001   1.216   0.039 -0.0209  0.4009 -0.6752
  585MPD2    C4 8726   3.987   1.175   0.169  0.3249 -0.3817  0.0967
  585MPD2    C5 8727   3.948   1.261   0.267 -0.0786  0.2920 -0.5877
  585MPD2     H 8728   3.984   1.374  17.653  0.1959  0.7523 -0.0816
  585MPD2    H1 8729   4.008   1.070   0.184  1.0580 -0.0756  1.2014
  585MPD2    H2 8730   3.912   1.457   0.316  2.2649  0.3280 -0.0096
  585MPD2    H3 8731   3.928   1.214   0.363 -0.3339 -0.3068 -0.9351
  585MPD2     N 8732   4.059   1.127  17.705 -0.2478 -0.0824  0.9708
  585MPD2    H5 8733   4.052   1.029  17.728 -0.3890 -0.6058 -1.3119
  585MPD2    N1 8734   3.924   1.575   0.093  0.1789 -0.0715 -1.2300
  585MPD2    H7 8735   3.909   1.633   0.175 -0.2451 -1.2292 -0.4876
  586TMC3    C1 8736   4.199   1.038  17.541 -0.2324 -0.4722  0.2798
  586TMC3    C2 8737   4.331   1.053  17.513  0.3829  0.4996  0.0333
  586TMC3    C3 8738   4.414   0.940  17.493 -0.2079 -0.3086  0.0692
  586TMC3    C4 8739   4.152   0.909  17.570  0.4533  0.7360 -0.0392
  586TMC3    C5 8740   4.244   0.802  17.580  0.1052 -0.4097 -0.3979
  586TMC3    C6 8741   4.369   0.821  17.535 -0.1787 -0.5424 -0.0130
  586TMC3     C 8742   4.130   1.152  17.588  0.1636  0.7646 -0.4527
  586TMC3     O 8743   4.162   1.263  17.543 -0.4991  0.2400  1.1663
  586TMC3     H 8744   4.368   1.153  17.490  1.1784  0.1612 -0.1727
  586TMC3    H1 8745   4.046   0.892  17.582  0.7852 -1.0461  0.5362
  586TMC3    H2 8746   4.431   0.732  17.533  0.7793  0.1470 -1.5162
  586TMC3    C7 8747   4.190   0.681  17.541 -1.1203  0.4958 -0.0546
  586TMC3    C8 8748   4.469   0.944  17.366  0.2545  0.4060 -0.4602
  586TMC3    O1 8749   4.169   0.592  17.623 -0.2328  0.2131 -0.4241
  586TMC3    O2 8750   4.464   1.043  17.295  0.1315  0.7561  0.1445
  587TMC3    C1 8751   1.952   4.211  16.185 -0.4017 -0.0286  0.2218
  587TMC3    C2 8752   1.936   4.327  16.119 -0.9471 -0.6833  0.0833
  587TMC3    C3 8753   2.046   4.391  16.069  0.0879 -0.0936 -0.2511
  587TMC3    C4 8754   2.076   4.166  16.211 -0.2350  0.0449  0.5315
  587TMC3    C5 8755   2.190   4.235  16.168  0.3407 -0.1053  0.5981
  587TMC3    C6 8756   2.173   4.349  16.096 -0.0959  0.2013 -0.0342
  587TMC3     C 8757   1.839   4.153  16.255 -0.9484 -0.1093  0.6274
  587TMC3     O 8758   1.870   4.086  16.355 -0.3004 -0.0269 -0.1971
  587TMC3     H 8759   1.838   4.353  16.082 -0.3817  0.6460 -0.4834
  587TMC3    H1 8760   2.085   4.084  16.281 -2.5649 -0.4984  0.1959
  587TMC3    H2 8761   2.259   4.405  16.061  0.7397 -0.7199  0.5497
  587TMC3    C7 8762   2.318   4.229  16.245  0.9574 -0.9213 -0.0636
  587TMC3    C8 8763   2.026   4.513  16.004  0.2196  0.3375  0.3841
  587TMC3    O1 8764   2.388   4.327  16.246 -0.3064 -0.0758  0.3598
  587TMC3    O2 8765   2.107   4.540  15.919  0.6135  0.1079  0.4231
  588TMC3    C1 8766   4.161   1.876   9.683  0.5341  0.4659 -0.0091
  588TMC3    C2 8767   4.130   1.745   9.707  0.3861  0.6135 -0.3546
  588TMC3    C3 8768   4.226   1.651   9.684  0.5198  0.0833  0.6259
  588TMC3    C4 8769   4.276   1.905   9.621  0.2890 -0.5437 -0.1492
  588TMC3    C5 8770   4.370   1.812   9.583  0.0831  0.5223  0.8841
  588TMC3    C6 8771   4.344   1.680   9.613  0.0105  0.1963  0.6415
  588TMC3     C 8772   4.088   1.986   9.760 -0.2951  0.0312  0.5101
  588TMC3     O 8773   4.006   1.954   9.846  0.0959  0.7712 -0.6861
  588TMC3     H 8774   4.039   1.719   9.759 -0.3122 -1.6465 -2.7593
  588TMC3    H1 8775   4.290   2.005   9.581  0.4590 -0.9714 -1.1706
  588TMC3    H2 8776   4.419   1.601   9.617 -0.5791 -0.1642  4.0942
  588TMC3    C7 8777   4.510   1.851   9.591 -0.2078  0.2482 -0.1459
  588TMC3    C8 8778   4.182   1.508   9.689  0.2437 -0.3969  0.1878
  588TMC3    O1 8779   4.589   1.763   9.567  0.1062 -0.3769 -0.1601
  588TMC3    O2 8780   4.065   1.483   9.695  0.3060  0.1588 -0.0971
  589TMC3    C1 8781   4.222   4.419   1.012  0.1205 -0.5241 -0.6383
  589TMC3    C2 8782   4.352   4.419   1.058 -0.3120  0.4299  0.0156
  589TMC3    C3 8783   4.416   4.303   1.093 -0.6234  0.0966  0.2465
  589TMC3    C4 8784   4.164   4.296   0.996 -0.5835  0.2244 -0.4292
  589TMC3    C5 8785   4.239   4.185   1.023 -0.3757  0.0237  0.0649
  589TMC3    C6 8786   4.367   4.183   1.065 -0.0723  0.2765 -0.4068
  589TMC3     C 8787   4.149   4.538   0.983  1.0378 -0.0417 -1.0363
  589TMC3     O 8788   4.029   4.532   0.970 -0.2828  0.0151 -0.1302
  589TMC3     H 8789   4.408   4.510   1.076 -1.7746  0.9003  2.1915
  589TMC3    H1 8790   4.063   4.294   0.955 -0.4564 -0.3159 -0.7095
  589TMC3    H2 8791   4.423   4.092   1.083  0.6506  0.7284 -0.3485
  589TMC3    C7 8792   4.179   4.061   0.969  0.2560  0.1247  0.6627
  589TMC3    C8 8793   4.558   4.322   1.138  0.6889  0.0521  0.3195
  589TMC3    O1 8794   4.062   4.053   0.990 -0.0256  0.1881  0.9568
  589TMC3    O2 8795   4.589   4.421   1.200 -0.1685 -0.2489  0.2162
  590MPD2     C 8796   2.998   2.287  16.488  0.2567  0.2409 -0.2905
  590MPD2    C1 8797   2.980   2.359  16.376 -0.2594 -0.1899  0.1718
  590MPD2    C2 8798   3.076   2.445  16.339  0.5700 -0.0611  0.2641
  590MPD2    C3 8799   3.186   2.473  16.418  0.7656  0.4106 -1.0382
  590MPD2    C4 8800   3.206   2.394  16.529 -0.1818  0.9388 -0.2640
  590MPD2    C5 8801   3.101   2.311  16.568  0.1170 -0.0693 -0.0906
  590MPD2     H 8802   3.066   2.518  16.259  2.2944 -0.2939 -0.1686
  590MPD2    H1 8803   3.281   2.408  16.606  0.2596 -0.6634 -0.4232
  590MPD2    H2 8804   2.925   2.213  16.520 -1.7496  1.1768 -2.6854
  590MPD2    H3 8805   3.109   2.252  16.658  0.3281  1.5030  0.9172
  590MPD2     N 8806   3.267   2.580  16.389 -0.7794 -0.2436  0.1306
  590MPD2    H5 8807   3.231   2.642  16.317  1.2195  3.6344  2.4737
  590MPD2    N1 8808   2.863   2.339  16.300  0.4071 -0.1972 -0.1045
  590MPD2    H7 8809   2.792   2.282  16.344  2.3773 -0.5597  2.5890
  591TMC3    C1 8810   3.429   2.744  16.399  0.2116  0.1179  0.5179
  591TMC3    C2 8811   3.559   2.740  16.343  0.1775 -0.2427  0.6330
  591TMC3    C3 8812   3.595   2.846  16.261 -0.5935  0.0072 -0.0816
  591TMC3    C4 8813   3.343   2.839  16.358 -0.3981  0.7207  0.0220
  591TMC3    C5 8814   3.376   2.935  16.266  0.2317  0.6398  0.5557
  591TMC3    C6 8815   3.507   2.940  16.216  0.4228 -0.4093  0.3665
  591TMC3     C 8816   3.376   2.618  16.458 -0.2215  0.3999 -0.6043
  591TMC3     O 8817   3.438   2.563  16.546  0.4043 -0.0365 -0.0784
  591TMC3     H 8818   3.619   2.650  16.355 -1.2614 -1.2883  0.1113
  591TMC3    H1 8819   3.243   2.841  16.399 -1.5623 -1.1392 -2.7104
  591TMC3    H2 8820   3.542   3.001  16.133  0.0216  0.5704  0.9164
  591TMC3    C7 8821   3.276   3.027  16.212  1.3487 -0.4278 -0.0482
  591TMC3    C8 8822   3.708   2.812  16.171  0.2185 -0.1362  0.4441
  591TMC3    O1 8823   3.159   3.001  16.250  0.1617  0.4468 -0.9232
  591TMC3    O2 8824   3.724   2.693  16.141  0.0553  0.0022  0.2473
  592MPD2     C 8825   3.519   4.195  11.785  0.3750 -0.0536 -0.4508
  592MPD2    C1 8826   3.512   4.246  11.914  0.4003 -0.7320 -1.2471
  592MPD2    C2 8827   3.471   4.165  12.017 -0.3843  0.2407 -0.9784
  592MPD2    C3 8828   3.411   4.042  11.996  0.0795 -0.1982  0.4850
  592MPD2    C4 8829   3.411   3.995  11.869  0.0046 -0.6673 -0.0400
  592MPD2    C5 8830   3.472   4.073  11.769 -0.0056 -0.1838  0.6573
  592MPD2     H 8831   3.480   4.201  12.119  1.0350  0.1933 -1.0848
  592MPD2    H1 8832   3.376   3.895  11.847 -1.6171  0.4098 -2.3907
  592MPD2    H2 8833   3.564   4.246  11.701 -1.2728 -1.6994 -2.3336
  592MPD2    H3 8834   3.469   4.038  11.667 -1.5581  2.3731 -0.1614
  592MPD2     N 8835   3.388   3.965  12.110 -0.5340  0.3716 -0.1289
  592MPD2    H5 8836   3.399   4.007  12.202 -0.6841  1.4787 -0.6232
  592MPD2    N1 8837   3.545   4.379  11.935  0.5766 -0.1998 -0.3769
  592MPD2    H7 8838   3.573   4.432  11.852  3.2915  0.5114  0.9778
  593TMC3    C1 8839   3.572   4.587  12.022 -0.4627 -0.4186  0.5929
  593TMC3    C2 8840   3.554   4.669  12.132 -0.0346  0.7012  0.7467
  593TMC3    C3 8841   3.588   0.067  12.114  0.5691  0.2087 -0.5413
  593TMC3    C4 8842   3.610   4.632  11.897 -0.1546  0.5725  0.3633
  593TMC3    C5 8843   3.623   0.026  11.879  0.2500 -0.5405 -0.2349
  593TMC3    C6 8844   3.633   0.114  11.986  0.1023  0.2051 -0.4082
  593TMC3     C 8845   3.547   4.449  12.048 -0.5871  0.2157 -0.1895
  593TMC3     O 8846   3.527   4.409  12.166  0.0902  0.2869  0.1620
  593TMC3     H 8847   3.542   4.627  12.231 -2.9265 -0.0439  0.0581
  593TMC3    H1 8848   3.667   4.564  11.834  1.5197  1.1105  1.2941
  593TMC3    H2 8849   3.640   0.221  11.973 -0.9160  0.1599 -1.3104
  593TMC3    C7 8850   3.705   0.069  11.770 -0.4715 -1.1773 -0.1241
  593TMC3    C8 8851   3.588   0.157  12.226 -0.4519 -0.1189  0.1876
  593TMC3    O1 8852   3.786   0.155  11.788 -0.2636 -0.5518 -0.3247
  593TMC3    O2 8853   3.510   0.142  12.321  0.2932 -0.5072 -0.2053
  594MPD2     C 8854   2.498   3.005  14.515  0.2892  0.2709 -0.7902
  594MPD2    C1 8855   2.406   3.099  14.559  0.1945  0.1688  0.2580
  594MPD2    C2 8856   2.445   3.230  14.589  0.2612  0.2545  0.1066
  594MPD2    C3 8857   2.578   3.267  14.574 -0.1735 -0.4626 -0.1379
  594MPD2    C4 8858   2.664   3.169  14.534  0.4695  0.0013  0.6505
  594MPD2    C5 8859   2.629   3.045  14.502  0.3030 -0.5878  0.5025
  594MPD2     H 8860   2.377   3.299  14.637 -0.6781 -2.2862  2.3948
  594MPD2    H1 8861   2.768   3.191  14.513  1.1872 -1.5329  2.6272
  594MPD2    H2 8862   2.475   2.905  14.479  4.5825 -1.2374  0.6403
  594MPD2    H3 8863   2.705   2.976  14.465  0.1481  1.4086 -3.5609
  594MPD2     N 8864   2.617   3.402  14.593  0.5195 -0.4439 -0.0131
  594MPD2    H5 8865   2.541   3.467  14.610  0.7267 -0.0326 -0.6623
  594MPD2    N1 8866   2.274   3.061  14.577 -0.8952  0.3471  0.0703
  594MPD2    H7 8867   2.250   2.963  14.563  1.2521  0.0237 -1.2945
  595TMC3    C1 8868   2.826   3.782  14.470  0.2224 -0.0436 -0.1805
  595TMC3    C2 8869   2.806   3.652  14.469 -0.3701 -0.8889  0.8522
  595TMC3    C3 8870   2.728   3.600  14.561 -0.5225  0.0338 -0.1073
  595TMC3    C4 8871   2.765   3.864  14.556 -0.1838 -0.4319 -1.2990
  595TMC3    C5 8872   2.677   3.809  14.651 -0.0995  0.2717 -0.4128
  595TMC3    C6 8873   2.653   3.673  14.652  0.1299  0.0767 -0.5178
  595TMC3     C 8874   2.958   3.832  14.438 -0.3931  0.0904 -0.0640
  595TMC3     O 8875   3.004   3.927  14.499  0.4927  0.3951  0.5203
  595TMC3     H 8876   2.861   3.584  14.405 -0.6307  0.7131 -1.1096
  595TMC3    H1 8877   2.775   3.972  14.547 -1.7646 -0.0268  1.5557
  595TMC3    H2 8878   2.591   3.624  14.726  0.5456 -0.3693 -0.4637
  595TMC3    C7 8879   2.577   3.897  14.709  0.3225  0.5424 -0.1957
  595TMC3    C8 8880   2.743   3.455  14.563 -0.1351  0.2698 -0.1396
  595TMC3    O1 8881   2.456   3.874  14.683 -0.6382 -0.0062 -0.0949
  595TMC3    O2 8882   2.851   3.404  14.528 -0.2900 -0.0865 -0.2799
  596MPD2     C 8883   1.196   1.800  16.677  0.3342 -0.1874 -0.1993
  596MPD2    C1 8884   1.282   1.895  16.625 -0.3475  0.0391  0.6357
  596MPD2    C2 8885   1.338   1.879  16.495 -0.7185  0.3185  0.3260
  596MPD2    C3 8886   1.288   1.773  16.420  0.3565  0.0088 -0.0424
  596MPD2    C4 8887   1.201   1.682  16.476 -1.0934 -0.2435  0.4674
  596MPD2    C5 8888   1.168   1.689  16.609  0.7947 -0.1258 -0.4566
  596MPD2     H 8889   1.408   1.954  16.460 -0.5584  1.0876  2.2573
  596MPD2    H1 8890   1.142   1.610  16.421 -0.0681 -1.9578  1.6243
  596MPD2    H2 8891   1.149   1.808  16.775  0.0478 -0.2924 -0.3297
  596MPD2    H3 8892   1.100   1.614  16.647 -0.5287  2.2740  1.8743
  596MPD2     N 8893   1.303   1.770  16.277 -0.3309  0.3092  0.4524
  596MPD2    H5 8894   1.242   1.706  16.227  0.9349 -2.0384  1.9100
  596MPD2    N1 8895   1.298   2.025  16.684  0.4332  0.3249  0.6984
  596MPD2    H7 8896   1.356   2.096  16.640 -1.1206  1.5449  0.5669
  597TMC3    C1 8897   1.252   2.199  16.844 -0.4542 -0.1034  0.0077
  597TMC3    C2 8898   1.326   2.285  16.765 -0.6302  0.3307  0.4453
  597TMC3    C3 8899   1.318   2.422  16.792  0.3208 -0.3782  0.4316
  597TMC3    C4 8900   1.178   2.244  16.949 -0.3665  0.7024 -0.2707
  597TMC3    C5 8901   1.172   2.376  16.968 -0.4458  0.1847 -0.4163
  597TMC3    C6 8902   1.238   2.471  16.890  0.5001 -0.4345  0.3830
  597TMC3     C 8903   1.239   2.061  16.800  0.4606  0.1734  0.3158
  597TMC3     O 8904   1.171   1.999  16.880 -0.0399 -0.0780 -0.0964
  597TMC3     H 8905   1.366   2.254  16.669 -1.7068 -2.0980  0.7840
  597TMC3    H1 8906   1.129   2.176  17.017 -0.2152 -1.8260 -2.7029
  597TMC3    H2 8907   1.239   2.577  16.912  2.6655 -0.2316 -0.7284
  597TMC3    C7 8908   1.082   2.412  17.077  0.1265  0.3872  0.4312
  597TMC3    C8 8909   1.429   2.504  16.750  0.1244  0.2541  0.3902
  597TMC3    O1 8910   1.034   2.337  17.164 -0.4592 -0.0571  0.2972
  597TMC3    O2 8911   1.409   2.623  16.752  0.5328 -0.1533 -0.1046
  598TMC3    C1 8912   4.194   3.214  15.418 -0.2679 -0.0563 -0.7097
  598TMC3    C2 8913   4.120   3.104  15.418  0.2887 -0.4448 -0.0757
  598TMC3    C3 8914   4.073   3.059  15.301  0.1332  0.3569  0.0740
  598TMC3    C4 8915   4.224   3.276  15.302  0.3847  0.0291  1.0067
  598TMC3    C5 8916   4.180   3.229  15.181  0.2344  0.0883 -0.4987
  598TMC3    C6 8917   4.105   3.115  15.183  0.5059 -0.4656 -0.7283
  598TMC3     C 8918   4.242   3.262  15.550 -0.3595  0.0674 -0.8132
  598TMC3     O 8919   4.187   3.203  15.641  0.4834 -0.2537  0.6475
  598TMC3     H 8920   4.101   3.044  15.506  1.0209 -2.1680 -1.0956
  598TMC3    H1 8921   4.295   3.358  15.300  0.6844 -0.2836 -0.5573
  598TMC3    H2 8922   4.081   3.064  15.090  1.2875  0.6982 -1.5710
  598TMC3    C7 8923   4.214   3.286  15.057  0.1768  0.0636  0.5550
  598TMC3    C8 8924   3.981   2.945  15.283  0.1342  0.7514  0.3196
  598TMC3    O1 8925   4.156   3.225  14.970  0.2367 -0.2083 -0.1124
  598TMC3    O2 8926   3.962   2.901  15.168  0.2778 -0.0850  0.4022
  599MPD2     C 8927   4.532   0.778  15.557  0.3631  0.0955 -0.0074
  599MPD2    C1 8928   4.495   0.664  15.611 -0.2355  0.1391 -0.3532
  599MPD2    C2 8929   4.370   0.652  15.669  0.3622  0.0026 -0.2676
  599MPD2    C3 8930   4.286   0.761  15.676  0.3892 -0.8481 -0.3218
  599MPD2    C4 8931   4.327   0.885  15.636  0.3198  0.2417  0.2153
  599MPD2    C5 8932   4.457   0.887  15.578 -0.4720 -0.9056  0.1196
  599MPD2     H 8933   4.351   0.559  15.722 -3.3190  0.7563 -0.2435
  599MPD2    H1 8934   4.265   0.972  15.649 -0.4369 -0.5572  1.9677
  599MPD2    H2 8935   4.631   0.793  15.514  1.6720 -0.0276  2.9328
  599MPD2    H3 8936   4.492   0.982  15.539  0.8935 -0.7129  1.8071
  599MPD2     N 8937   4.158   0.763  15.741  0.2270 -0.1198 -0.6342
  599MPD2    H5 8938   4.116   0.853  15.763 -1.0718 -0.9731  0.4043
  599MPD2    N1 8939   4.587   0.559  15.635  0.2148 -0.1677 -1.0219
  599MPD2    H7 8940   4.686   0.576  15.619  0.5897 -0.8310  0.6653
  600TMC3    C1 8941   3.970   0.680  15.860  0.9330 -0.4120 -0.0872
  600TMC3    C2 8942   3.879   0.580  15.857  0.2616  0.1749 -0.1955
  600TMC3    C3 8943   3.756   0.618  15.895  0.7907  0.9354  0.2752
  600TMC3    C4 8944   3.949   0.802  15.904  0.2886  0.4749 -0.2398
  600TMC3    C5 8945   3.818   0.839  15.939  0.2812  0.7797 -0.0925
  600TMC3    C6 8946   3.726   0.748  15.935  0.2018 -0.3594 -0.7439
  600TMC3     C 8947   4.086   0.648  15.779 -0.2204 -0.7154  0.1083
  600TMC3     O 8948   4.107   0.533  15.750  0.5487  0.0762  0.6131
  600TMC3     H 8949   3.906   0.480  15.826  0.8601 -0.0689  1.0895
  600TMC3    H1 8950   4.035   0.868  15.903 -0.7577  1.8313 -0.1639
  600TMC3    H2 8951   3.629   0.770  15.977 -0.0692  2.0818 -2.6436
  600TMC3    C7 8952   3.806   0.941  16.034  0.6236 -0.2407  0.0392
  600TMC3    C8 8953   3.660   0.522  15.932 -0.4123 -0.2829 -0.4278
  600TMC3    O1 8954   3.717   0.929  16.114 -0.5658 -0.3580  0.1487
  600TMC3    O2 8955   3.706   0.416  15.971 -0.5618  0.3039 -0.4249
  601MPD2     C 8956   1.726   4.167   0.035 -0.2477  0.0481  0.1903
  601MPD2    C1 8957   1.611   4.190   0.111  0.0349  1.1013 -0.0841
  601MPD2    C2 8958   1.587   4.104   0.216  0.6905  0.6420  0.4865
  601MPD2    C3 8959   1.668   3.998   0.243  0.4822  0.1133  0.4952
  601MPD2    C4 8960   1.768   3.969   0.163  0.0562  0.3121  0.3445
  601MPD2    C5 8961   1.798   4.058   0.067  0.1159  0.5547  0.1873
  601MPD2     H 8962   1.502   4.127   0.280  1.1439  1.6002  0.7472
  601MPD2    H1 8963   1.835   3.886   0.179 -0.1174 -0.0288 -0.6890
  601MPD2    H2 8964   1.767   4.222  17.701 -0.1235 -0.5726 -0.1525
  601MPD2    H3 8965   1.881   4.029   0.003 -1.3188 -1.1291 -0.9279
  601MPD2     N 8966   1.633   3.919   0.356  0.0422 -0.5564  0.2507
  601MPD2    H5 8967   1.563   3.956   0.420 -0.9556 -1.4354 -0.3414
  601MPD2    N1 8968   1.509   4.282   0.075 -0.0358 -0.3919  0.3152
  601MPD2    H7 8969   1.424   4.280   0.131 -1.0363 -1.7772 -1.2450
  602TMC3    C1 8970   1.359   4.405  17.691  0.1755 -0.7856  0.0857
  602TMC3    C2 8971   1.340   4.534  17.641  0.3673  0.2375  0.4850
  602TMC3    C3 8972   1.209   4.578  17.631 -0.2016  0.0375 -0.2340
  602TMC3    C4 8973   1.262   4.321  17.736 -0.5295 -0.5489  0.8963
  602TMC3    C5 8974   1.131   4.366  17.717 -0.4178 -0.2872  0.5285
  602TMC3    C6 8975   1.103   4.495  17.667  0.1818  0.0171 -0.4265
  602TMC3     C 8976   1.499   4.357  17.707  0.2004 -0.5561 -0.4513
  602TMC3     O 8977   1.589   4.396  17.637 -0.3377 -0.3267  0.0846
  602TMC3     H 8978   1.419   4.601  17.611  0.8941 -0.8338 -0.5233
  602TMC3    H1 8979   1.276   4.215   0.006 -1.6881 -0.4032  2.4127
  602TMC3    H2 8980   1.010   4.508  17.614  0.3472  1.8246 -0.2743
  602TMC3    C7 8981   1.017   4.279  17.741 -0.2068  1.3775  0.1642
  602TMC3    C8 8982   1.182   4.719  17.609  0.0327 -0.7817  0.4073
  602TMC3    O1 8983   1.035   4.156  17.743  1.0109  0.4311 -0.1198
  602TMC3    O2 8984   1.266   0.045  17.542  0.2399  0.0041 -0.3085
  603TMC3    C1 8985   4.627   4.304  10.848  0.3617 -0.5013  0.4883
  603TMC3    C2 8986   4.618   4.269  10.982 -0.0315  0.0364  0.1811
  603TMC3    C3 8987   4.667   4.358  11.077  0.2737 -0.2370  0.4324
  603TMC3    C4 8988   4.667   4.429  10.800  0.1756  0.4282 -0.2960
  603TMC3    C5 8989   4.710   4.511  10.906  0.6647  0.2981 -0.4708
  603TMC3    C6 8990   4.732   4.474  11.034  0.2348  0.0593 -0.0710
  603TMC3     C 8991   4.585   4.204  10.747  0.4552  0.7178 -0.2347
  603TMC3     O 8992   4.521   4.109  10.797  0.2010  0.2217  0.4988
  603TMC3     H 8993   4.589   4.170  11.017 -0.0809  0.4270  1.2381
  603TMC3    H1 8994   4.690   4.443  10.695 -0.6713  1.7288 -0.3019
  603TMC3    H2 8995   0.021   4.554  11.102  1.4289 -0.6825  0.3288
  603TMC3    C7 8996   0.009   4.648  10.878  0.4683 -0.0770  0.0262
  603TMC3    C8 8997   4.671   4.310  11.212  0.2502  0.3451  0.2903
  603TMC3    O1 8998   0.089   4.706  10.950  0.2266 -0.5388  0.0553
  603TMC3    O2 8999   4.597   4.221  11.236 -0.7398  0.8906 -0.2881
  604MPD2     C 9000   0.999   3.403  16.376  0.5270 -0.1094  0.0315
  604MPD2    C1 9001   0.879   3.329  16.400  0.5350  0.1899  0.2063
  604MPD2    C2 9002   0.813   3.274  16.288  0.2040  0.0605 -0.3873
  604MPD2    C3 9003   0.867   3.292  16.157 -0.8034  0.5577  0.2562
  604MPD2    C4 9004   0.985   3.371  16.140 -0.0752 -0.4466  0.3355
  604MPD2    C5 9005   1.052   3.424  16.251  1.1073  0.2532  0.6921
  604MPD2     H 9006   0.732   3.203  16.294  0.1332  0.3413  2.1640
  604MPD2    H1 9007   1.020   3.396  16.041  1.2875  2.4338  1.5622
  604MPD2    H2 9008   1.060   3.442  16.456  0.4857  1.3934 -0.6749
  604MPD2    H3 9009   1.140   3.484  16.231 -0.7899  2.8240  0.0499
  604MPD2     N 9010   0.799   3.232  16.047 -0.0639 -0.1455  0.2202
  604MPD2    H5 9011   0.707   3.189  16.057  1.1582 -2.6919  0.4623
  604MPD2    N1 9012   0.837   3.321  16.536  0.3728  0.4389 -0.0364
  604MPD2    H7 9013   0.890   3.382  16.597  1.1815 -0.7889  0.4770
  605TMC3    C1 9014   0.687   3.315  16.709  0.2333  0.2536  0.4664
  605TMC3    C2 9015   0.769   3.419  16.754  0.1358 -0.3968  0.3925
  605TMC3    C3 9016   0.713   3.518  16.827 -0.2359  0.4478 -0.8157
  605TMC3    C4 9017   0.552   3.314  16.729 -0.0627 -0.1773  0.2304
  605TMC3    C5 9018   0.501   3.424  16.784 -0.2865 -0.3608 -0.7921
  605TMC3    C6 9019   0.572   3.527  16.843 -0.9536 -0.0241 -0.0694
  605TMC3     C 9020   0.727   3.260  16.582  0.1320  0.0675  0.0856
  605TMC3     O 9021   0.652   3.178  16.530 -0.2007 -0.1664  0.0761
  605TMC3     H 9022   0.874   3.401  16.770  0.3991  0.2213 -0.6233
  605TMC3    H1 9023   0.491   3.240  16.679 -0.1828  1.3108 -1.8076
  605TMC3    H2 9024   0.529   3.607  16.902 -0.6673 -0.0909  0.2368
  605TMC3    C7 9025   0.359   3.431  16.769 -0.3516 -0.0421 -0.0925
  605TMC3    C8 9026   0.804   3.621  16.859 -1.6692  0.0989 -0.2703
  605TMC3    O1 9027   0.309   3.543  16.746  0.0694  0.6341  0.5432
  605TMC3    O2 9028   0.911   3.621  16.796 -0.2877  0.0264  0.1348
  606TMC3    C1 9029   1.429   2.409  17.331 -1.1742  0.2427  0.1592
  606TMC3    C2 9030   1.457   2.366  17.454 -0.1531 -0.0720 -0.0709
  606TMC3    C3 9031   1.539   2.256  17.472 -0.1086  0.4108 -0.4745
  606TMC3    C4 9032   1.459   2.331  17.217  1.1234  0.4314  0.3365
  606TMC3    C5 9033   1.512   2.207  17.247 -0.2370  1.0112 -0.5158
  606TMC3    C6 9034   1.558   2.164  17.371 -0.2758  0.5745 -0.0150
  606TMC3     C 9035   1.389   2.545  17.308 -0.3239 -0.0367  0.3902
  606TMC3     O 9036   1.337   2.608  17.403 -0.3297 -0.6052 -0.1060
  606TMC3     H 9037   1.444   2.427  17.543 -2.7381  1.1427 -1.2652
  606TMC3    H1 9038   1.417   2.361  17.122  1.2414  2.1019  0.8066
  606TMC3    H2 9039   1.628   2.082  17.383  0.1023  0.9710  0.4981
  606TMC3    C7 9040   1.495   2.117  17.142  0.2357  0.2481  0.1991
  606TMC3    C8 9041   1.599   2.213  17.597 -0.2321 -0.4210  0.3554
  606TMC3    O1 9042   1.495   2.164  17.027 -0.0795  0.6088 -0.7862
  606TMC3    O2 9043   1.668   2.112  17.590 -0.3373  0.5978 -0.2128
  607MPD2     C 9044   3.868   4.205  11.801  0.9178 -0.0631 -0.3923
  607MPD2    C1 9045   3.890   4.302  11.895  0.1357  0.2190  0.3486
  607MPD2    C2 9046   3.874   4.274  12.031 -0.0798 -0.4632  0.1756
  607MPD2    C3 9047   3.834   4.150  12.073 -0.0067 -0.0310  0.1767
  607MPD2    C4 9048   3.804   4.056  11.975  0.1213  0.2297  0.3615
  607MPD2    C5 9049   3.819   4.079  11.843 -0.3505  0.0364 -0.7089
  607MPD2     H 9050   3.885   4.357  12.099  0.8518 -1.0214  0.6940
  607MPD2    H1 9051   3.766   3.959  12.003 -0.5952  0.3757 -0.0955
  607MPD2    H2 9052   3.877   4.213  11.693 -0.0861  0.7818 -0.4139
  607MPD2    H3 9053   3.811   3.999  11.771 -0.8093 -0.0002 -0.6170
  607MPD2     N 9054   3.831   4.118  12.213  0.4043 -0.0356 -0.0348
  607MPD2    H5 9055   3.881   4.192  12.260 -1.6678  2.5009 -1.8387
  607MPD2    N1 9056   3.938   4.432  11.863 -0.5273 -0.2959  0.3303
  607MPD2    H7 9057   3.946   4.498  11.939 -1.2753  1.6631 -1.2903
  608TMC3    C1 9058   4.091   4.563  11.747 -0.0113  0.2753  1.0072
  608TMC3    C2 9059   4.138   4.606  11.868 -0.7090 -0.7217 -0.3332
  608TMC3    C3 9060   4.261   4.656  11.871 -0.1118 -0.5802 -0.2196
  608TMC3    C4 9061   4.163   4.584  11.635 -0.2613 -0.0643 -0.0133
  608TMC3    C5 9062   4.288   4.630  11.642  0.8169  0.4131  0.2340
  608TMC3    C6 9063   4.332   4.689  11.758  0.3013  0.1284  0.0980
  608TMC3     C 9064   3.987   4.462  11.738 -0.6566  0.4247  0.6663
  608TMC3     O 9065   3.956   4.423  11.622 -0.2906 -0.4091  0.0163
  608TMC3     H 9066   4.073   4.609  11.954 -0.0922 -0.6251  0.1327
  608TMC3    H1 9067   4.137   4.544  11.538 -1.7315  0.2742  0.2497
  608TMC3    H2 9068   4.431   4.733  11.771  0.0816  1.0917 -1.5802
  608TMC3    C7 9069   4.365   4.654  11.524  0.5923 -0.2795  0.0504
  608TMC3    C8 9070   4.326   4.668  12.005  0.1055  0.2383  0.0182
  608TMC3    O1 9071   4.306   4.675  11.421  0.1036  0.5078 -0.4872
  608TMC3    O2 9072   4.431   4.729  12.020  0.4173 -0.0023 -0.6454
  609TMC3    C1 9073   2.038   3.020   9.340 -0.5578 -0.2392  0.3264
  609TMC3    C2 9074   1.977   3.043   9.225  0.8176  0.0417 -0.0252
  609TMC3    C3 9075   2.029   2.987   9.107 -0.6162  0.6493 -0.4018
  609TMC3    C4 9076   2.160   2.960   9.347 -0.9533  0.8684 -0.2846
  609TMC3    C5 9077   2.214   2.913   9.232  0.1014  0.1460  0.0146
  609TMC3    C6 9078   2.148   2.921   9.111  0.2830 -0.2180  0.3198
  609TMC3     C 9079   1.990   3.093   9.462 -0.5494 -0.1825 -0.0428
  609TMC3     O 9080   2.064   3.091   9.562  0.2193  0.2279 -0.8135
  609TMC3     H 9081   1.877   3.084   9.226  0.1943 -1.4099 -3.0192
  609TMC3    H1 9082   2.217   2.960   9.439 -3.2639 -0.2975  1.1656
  609TMC3    H2 9083   2.189   2.870   9.023 -0.1545 -1.0326  0.5863
  609TMC3    C7 9084   2.361   2.919   9.237  0.0406 -0.2888 -0.2397
  609TMC3    C8 9085   1.968   3.020   8.974 -0.7269 -0.4400 -0.8157
  609TMC3    O1 9086   2.416   2.903   9.345 -0.1343 -0.0617  0.0743
  609TMC3    O2 9087   2.033   3.022   8.868  0.3548  0.2600 -0.0814
  610TMC3    C1 9088   0.213   4.593  11.918 -0.0644  0.0093 -0.3271
  610TMC3    C2 9089   0.093   4.573  11.856  0.3427 -0.4636  0.0132
  610TMC3    C3 9090   4.721   4.546  11.938  0.0115  0.5548  0.3559
  610TMC3    C4 9091   0.237   4.594  12.055  0.4561  0.1259  0.7858
  610TMC3    C5 9092   0.121   4.586  12.128  0.0650  0.3129  0.3356
  610TMC3    C6 9093   4.736   4.557  12.075 -0.6507 -0.2827 -0.3127
  610TMC3     C 9094   0.310   4.669  11.839  0.1315 -0.0079  0.3555
  610TMC3     O 9095   0.430   4.635  11.846 -0.0038  0.6039 -0.8309
  610TMC3     H 9096   0.090   4.572  11.748 -1.9373 -2.4648  0.0997
  610TMC3    H1 9097   0.329   4.632  12.098  0.9889 -0.1461 -0.1067
  610TMC3    H2 9098   4.642   4.555  12.130 -0.3748 -1.0419  0.1234
  610TMC3    C7 9099   0.130   4.563  12.276  1.3976 -0.3260 -0.8019
  610TMC3    C8 9100   4.622   4.463  11.886  1.1092  0.1848 -1.0656
  610TMC3    O1 9101   0.031   4.532  12.334  0.3327 -0.1948  0.2671
  610TMC3    O2 9102   4.586   4.479  11.770  0.3077 -0.1594  0.1244
  611MPD2     C 9103   3.963   4.380   9.940 -0.4360 -0.7325  0.5858
  611MPD2    C1 9104   3.984   4.436  10.062 -0.2778  0.3344 -0.4537
  611MPD2    C2 9105   4.050   4.556  10.076  0.1285 -0.0373  0.1652
  611MPD2    C3 9106   4.115   4.610   9.970 -0.4437 -0.1071  0.0827
  611MPD2    C4 9107   4.099   4.546   9.846 -1.0176  0.0006  0.4987
  611MPD2    C5 9108   4.019   4.435   9.830  0.1785 -0.2571  0.1152
  611MPD2     H 9109   4.063   4.600  10.174  1.5077  0.8071 -0.4034
  611MPD2    H1 9110   4.146   4.595   9.761 -1.4138 -0.9931 -0.3024
  611MPD2    H2 9111   3.904   4.291   9.919 -2.8175  0.5788  1.7681
  611MPD2    H3 9112   3.999   4.384   9.737 -1.3664  0.5472  0.0110
  611MPD2     N 9113   4.212   4.717   9.986 -0.5536 -0.5465  0.1621
  611MPD2    H5 9114   4.250   0.016   9.899 -0.2945  0.8286  0.8588
  611MPD2    N1 9115   3.928   4.364  10.175 -0.6558  0.0584 -0.7888
  611MPD2    H7 9116   3.875   4.281  10.152 -1.8014  1.4460 -3.1575
  612TMC3    C1 9117   4.358   0.135  10.063 -0.3488 -0.6848  0.2306
  612TMC3    C2 9118   4.455   0.149  10.160  0.2693  0.1812  0.1139
  612TMC3    C3 9119   4.559   0.231  10.130 -0.4061 -0.1800  0.1665
  612TMC3    C4 9120   4.361   0.201   9.943 -0.0409  0.2521 -0.3188
  612TMC3    C5 9121   4.467   0.285   9.923 -0.6121  0.4558  0.0827
  612TMC3    C6 9122   4.564   0.297  10.015  0.3113 -0.4487  0.2680
  612TMC3     C 9123   4.269   0.031  10.095 -0.1920  0.9007  0.5184
  612TMC3     O 9124   4.264   4.722  10.208 -0.8707 -0.5946 -0.5778
  612TMC3     H 9125   4.440   0.092  10.251  0.1233  1.2974  0.7939
  612TMC3    H1 9126   4.287   0.191   9.865  0.0766  0.1963 -0.4239
  612TMC3    H2 9127   4.640   0.372   9.995 -1.9115  1.3096 -1.5364
  612TMC3    C7 9128   4.444   0.406   9.848 -0.1351  0.0275 -0.0125
  612TMC3    C8 9129   4.652   0.258  10.238  0.5328 -0.0647  0.0872
  612TMC3    O1 9130   4.546   0.469   9.823 -0.3186 -0.6184 -0.1853
  612TMC3    O2 9131   4.709   0.364  10.231 -0.0966  0.4888  0.6108
  613MPD2     C 9132   2.874   1.365  16.770 -0.3874 -0.5569  0.1939
  613MPD2    C1 9133   2.838   1.414  16.642  0.3874 -0.2186  0.1050
  613MPD2    C2 9134   2.842   1.328  16.530 -0.1240 -0.3851 -0.7719
  613MPD2    C3 9135   2.895   1.200  16.552 -0.0085  0.3990  0.1009
  613MPD2    C4 9136   2.934   1.149  16.679  0.5612 -0.6720  0.4075
  613MPD2    C5 9137   2.921   1.240  16.783 -0.2844 -0.0480  0.0973
  613MPD2     H 9138   2.822   1.364  16.430 -0.4193 -0.6516 -0.8070
  613MPD2    H1 9139   2.972   1.049  16.697 -0.0507 -0.9869 -0.0384
  613MPD2    H2 9140   2.866   1.420  16.863 -0.2019  1.7387 -1.1657
  613MPD2    H3 9141   2.959   1.212  16.881  0.1742  2.8287  0.7444
  613MPD2     N 9142   2.894   1.101  16.444 -0.2590 -0.3481  0.2598
  613MPD2    H5 9143   2.976   1.042  16.449  0.8312  1.2675  1.2907
  613MPD2    N1 9144   2.807   1.550  16.635 -0.4569 -0.6987  0.0092
  613MPD2    H7 9145   2.813   1.605  16.719 -1.4501 -0.9996  0.2869
  614TMC3    C1 9146   2.785   1.768  16.549 -0.7569  0.0931 -0.2750
  614TMC3    C2 9147   2.920   1.795  16.541  0.1724 -0.1732 -0.5603
  614TMC3    C3 9148   2.980   1.869  16.446 -0.0758  0.0903  0.5184
  614TMC3    C4 9149   2.709   1.843  16.467  0.2833 -0.4006  0.0714
  614TMC3    C5 9150   2.764   1.935  16.373  0.5264 -0.3430  0.4941
  614TMC3    C6 9151   2.902   1.946  16.366 -0.6817  0.0112  0.4043
  614TMC3     C 9152   2.761   1.628  16.530  0.4238 -0.5546  0.7145
  614TMC3     O 9153   2.713   1.592  16.427  0.3743 -0.1168 -0.9009
  614TMC3     H 9154   2.992   1.741  16.601  1.5069  2.0923 -0.1376
  614TMC3    H1 9155   2.603   1.825  16.463  0.5041 -1.5953 -0.4844
  614TMC3    H2 9156   2.946   2.024  16.305  1.7031 -1.9388 -0.3845
  614TMC3    C7 9157   2.698   2.053  16.337  0.6638 -0.2243 -0.4143
  614TMC3    C8 9158   3.052   1.772  16.361  0.3161 -0.0155  0.2503
  614TMC3    O1 9159   2.695   2.141  16.421  0.0020 -0.7126  0.4851
  614TMC3    O2 9160   3.049   1.657  16.402 -0.4249  0.5091  0.3328
  615MPD2     C 9161   2.216   3.016  15.595 -0.2833 -0.2626  0.1743
  615MPD2    C1 9162   2.109   3.087  15.646  0.2255 -0.1652 -0.9550
  615MPD2    C2 9163   1.994   3.090  15.581 -1.0691 -0.5872  0.0859
  615MPD2    C3 9164   1.968   3.020  15.468  0.1248 -0.2370  0.5096
  615MPD2    C4 9165   2.073   2.949  15.407 -0.1717 -0.0155  0.2045
  615MPD2    C5 9166   2.196   2.955  15.471 -0.0286  0.0644 -0.6958
  615MPD2     H 9167   1.914   3.149  15.624  0.5498  0.3626  1.7586
  615MPD2    H1 9168   2.057   2.888  15.319  0.9030  1.9525 -1.3378
  615MPD2    H2 9169   2.310   3.005  15.646  0.1836  1.5784 -0.2666
  615MPD2    H3 9170   2.279   2.903  15.427  0.5206  1.5023 -1.3726
  615MPD2     N 9171   1.844   3.021  15.401  0.4635 -0.4122 -0.3060
  615MPD2    H5 9172   1.829   2.961  15.321 -0.9907 -3.1474  1.9791
  615MPD2    N1 9173   2.118   3.153  15.766  0.3046 -0.2126 -0.3243
  615MPD2    H7 9174   2.036   3.194  15.810  1.7209  1.7523  0.5174
  616TMC3    C1 9175   2.208   3.217  15.976  0.0357 -0.8843 -0.3145
  616TMC3    C2 9176   2.287   3.317  16.029  0.0998 -0.4127 -0.1544
  616TMC3    C3 9177   2.226   3.402  16.123  0.2716  0.4992 -0.3837
  616TMC3    C4 9178   2.084   3.192  16.028 -0.1654 -0.8587  0.1356
  616TMC3    C5 9179   2.034   3.269  16.126 -0.1109 -0.0733 -0.1565
  616TMC3    C6 9180   2.102   3.374  16.175  0.1454 -1.4379  0.6236
  616TMC3     C 9181   2.236   3.177  15.838  0.6683  0.4408  0.2581
  616TMC3     O 9182   2.357   3.153  15.815  0.3485 -1.0007  0.6065
  616TMC3     H 9183   2.390   3.340  16.001  0.7287 -3.1183 -0.0673
  616TMC3    H1 9184   2.029   3.104  15.999 -0.2341 -0.2595 -1.5379
  616TMC3    H2 9185   2.064   3.448  16.246  0.1246 -2.6897  1.9203
  616TMC3    C7 9186   1.909   3.230  16.186 -0.3683  0.4235  0.1588
  616TMC3    C8 9187   2.295   3.524  16.165 -0.4238 -0.1045  0.2092
  616TMC3    O1 9188   1.829   3.166  16.119 -0.1112  0.0318  0.5945
  616TMC3    O2 9189   2.225   3.621  16.197  0.2710 -0.2851 -0.0873
  617MPD2     C 9190   0.310   1.359  13.535  1.3666 -0.1668  0.0088
  617MPD2    C1 9191   0.313   1.293  13.653  0.8716  0.1465 -0.2571
  617MPD2    C2 9192   0.197   1.243  13.704 -0.2275 -0.0900 -0.3524
  617MPD2    C3 9193   0.076   1.258  13.634 -0.7219 -1.1217 -0.6226
  617MPD2    C4 9194   0.077   1.326  13.515 -0.6127  0.4950 -0.0310
  617MPD2    C5 9195   0.195   1.375  13.462  0.5848  0.0861  0.2166
  617MPD2     H 9196   0.195   1.196  13.802 -1.5154  1.6332  0.4490
  617MPD2    H1 9197   4.723   1.339  13.460  0.1847  0.2931 -1.4075
  617MPD2    H2 9198   0.401   1.405  13.499  1.6200 -0.6454  0.0398
  617MPD2    H3 9199   0.201   1.439  13.375  0.7761  0.8904  0.8194
  617MPD2     N 9200   4.699   1.221  13.691 -0.2001  0.0107 -0.7622
  617MPD2    H5 9201   4.619   1.245  13.634 -0.1212 -0.6573 -1.1475
  617MPD2    N1 9202   0.437   1.277  13.712 -0.0422  0.1965  0.3515
  617MPD2    H7 9203   0.506   1.347  13.688  1.8811 -2.1555 -0.9500
  618TMC3    C1 9204   0.616   1.224  13.849 -0.6279 -0.3700  0.0008
  618TMC3    C2 9205   0.713   1.131  13.812 -0.1289 -0.1993  0.4677
  618TMC3    C3 9206   0.833   1.178  13.780  0.1336 -0.1334 -0.5968
  618TMC3    C4 9207   0.643   1.355  13.827  0.3703 -0.3311  0.2820
  618TMC3    C5 9208   0.758   1.393  13.769 -0.0143 -0.3546 -0.2682
  618TMC3    C6 9209   0.865   1.309  13.747 -0.4168 -0.2601  0.1935
  618TMC3     C 9210   0.479   1.196  13.815  0.7193  0.4623  0.2943
  618TMC3     O 9211   0.441   1.084  13.836  0.2048  0.1157 -0.0518
  618TMC3     H 9212   0.692   1.025  13.820  0.7995 -0.3368  1.0546
  618TMC3    H1 9213   0.572   1.434  13.851  2.9984  1.9866  0.3952
  618TMC3    H2 9214   0.958   1.348  13.705 -0.4516 -1.5681 -1.0838
  618TMC3    C7 9215   0.716   1.486  13.667 -0.1216 -0.0671  0.5312
  618TMC3    C8 9216   0.939   1.083  13.778 -0.0933  0.0781 -0.1959
  618TMC3    O1 9217   0.599   1.473  13.638  0.1170 -0.1631 -0.1241
  618TMC3    O2 9218   0.925   0.981  13.849 -0.3606  0.3475 -0.1319
  619MPD2     C 9219   1.523   2.430  13.773  0.4995 -0.1161  0.5404
  619MPD2    C1 9220   1.489   2.513  13.668  0.4315 -0.1291  0.0032
  619MPD2    C2 9221   1.356   2.550  13.660 -0.2901  1.0476 -0.4246
  619MPD2    C3 9222   1.256   2.500  13.750  0.3166  0.0614  0.3446
  619MPD2    C4 9223   1.291   2.408  13.840 -0.4859  0.3082 -0.2665
  619MPD2    C5 9224   1.420   2.375  13.853  0.3863 -0.9437 -0.9113
  619MPD2     H 9225   1.335   2.606  13.570 -2.4292 -0.6322 -0.9919
  619MPD2    H1 9226   1.209   2.375  13.904  0.6825 -0.0052  1.0570
  619MPD2    H2 9227   1.626   2.404  13.796  0.7148 -0.3814 -0.7211
  619MPD2    H3 9228   1.454   2.302  13.925  1.0454 -0.8219 -1.0967
  619MPD2     N 9229   1.121   2.536  13.736  0.3991 -0.2729  0.1360
  619MPD2    H5 9230   1.062   2.486  13.801 -2.3456  0.1362 -2.0037
  619MPD2    N1 9231   1.581   2.569  13.578 -0.3849  0.3777  0.1614
  619MPD2    H7 9232   1.544   2.632  13.508 -1.5309  1.5298  1.8149
  620TMC3    C1 9233   1.792   2.646  13.498  0.1924 -0.9006 -0.1979
  620TMC3    C2 9234   1.739   2.664  13.375  0.0505 -0.0867 -0.9145
  620TMC3    C3 9235   1.799   2.761  13.301  0.2307 -0.8157 -0.5972
  620TMC3    C4 9236   1.897   2.715  13.556 -0.8364 -0.6906  0.8600
  620TMC3    C5 9237   1.960   2.808  13.475  0.4088  0.3656  0.0569
  620TMC3    C6 9238   1.914   2.830  13.343 -0.2733 -0.3416  1.0708
  620TMC3     C 9239   1.723   2.547  13.577  0.0450  0.0071 -0.0803
  620TMC3     O 9240   1.783   2.499  13.672  0.0207  0.0021  0.7351
  620TMC3     H 9241   1.649   2.613  13.343  0.1301 -0.4072 -0.6306
  620TMC3    H1 9242   1.933   2.699  13.657 -0.5546 -0.7857  0.7453
  620TMC3    H2 9243   1.962   2.898  13.274 -1.2523 -0.1774  0.5496
  620TMC3    C7 9244   1.968   2.936  13.544  0.7141 -0.1391 -0.0179
  620TMC3    C8 9245   1.766   2.788  13.164 -0.3873  0.0570 -0.1587
  620TMC3    O1 9246   2.015   2.919  13.658 -0.2271 -0.0762 -0.4846
  620TMC3    O2 9247   1.862   2.777  13.084 -0.5427 -0.2690 -0.4203
  621MPD2     C 9248   2.169   2.471  10.522  0.1253 -0.1017 -0.5489
  621MPD2    C1 9249   2.088   2.510  10.414  0.2896 -0.5303  0.1288
  621MPD2    C2 9250   2.115   2.632  10.353  0.1729 -0.0193  0.4231
  621MPD2    C3 9251   2.238   2.693  10.371 -0.3495 -0.1983  0.5361
  621MPD2    C4 9252   2.324   2.642  10.468  0.7885 -0.7219  0.0213
  621MPD2    C5 9253   2.283   2.537  10.541 -0.6184 -0.5780 -0.3280
  621MPD2     H 9254   2.045   2.661  10.275  1.4260  1.2171 -0.2488
  621MPD2    H1 9255   2.422   2.679  10.492 -1.0174  2.2910  2.7866
  621MPD2    H2 9256   2.151   2.395  10.597  2.3065 -0.2243 -0.1433
  621MPD2    H3 9257   2.334   2.495  10.626  1.6323  1.3230 -0.7451
  621MPD2     N 9258   2.277   2.809  10.298 -0.5250 -0.7774  0.5754
  621MPD2    H5 9259   2.199   2.855  10.252 -0.6072 -0.7471  0.7456
  621MPD2    N1 9260   1.975   2.442  10.362 -0.6367 -0.8167 -0.6651
  621MPD2    H7 9261   1.915   2.477  10.288 -1.7194 -2.4099 -0.5471
  622TMC3    C1 9262   1.828   2.260  10.312 -0.3847 -0.2969  1.1745
  622TMC3    C2 9263   1.784   2.132  10.349  0.5951 -0.2790 -0.1753
  622TMC3    C3 9264   1.705   2.057  10.260  0.3298 -0.3053  0.2497
  622TMC3    C4 9265   1.803   2.300  10.188  0.4011  0.4437  0.4771
  622TMC3    C5 9266   1.744   2.211  10.099 -1.3052  0.2436 -0.3826
  622TMC3    C6 9267   1.687   2.092  10.131  0.0191  0.1240 -0.3623
  622TMC3     C 9268   1.936   2.312  10.395 -0.2289  0.0667 -0.0627
  622TMC3     O 9269   1.979   2.245  10.485 -0.3642 -0.6730  0.3480
  622TMC3     H 9270   1.798   2.090  10.448 -1.0758  1.7145  0.9059
  622TMC3    H1 9271   1.856   2.383  10.143 -2.3086  1.2780 -1.1739
  622TMC3    H2 9272   1.614   2.040  10.070 -1.5003  1.5161  0.2606
  622TMC3    C7 9273   1.769   2.245   9.961 -0.0131  0.0916  0.7155
  622TMC3    C8 9274   1.590   1.992  10.323 -0.5682 -0.0270 -0.0365
  622TMC3    O1 9275   1.779   2.364   9.926 -0.0930  0.5348  0.1694
  622TMC3    O2 9276   1.587   1.869  10.336  0.4449 -0.5276  0.0355
  623MPD2     C 9277   1.385   3.769  16.108  0.5573 -0.4545 -0.7648
  623MPD2    C1 9278   1.283   3.759  16.202 -0.4657  0.4625  0.6413
  623MPD2    C2 9279   1.320   3.789  16.335 -0.2479  0.3231 -1.1473
  623MPD2    C3 9280   1.447   3.807  16.378  0.0075  0.0472  0.1557
  623MPD2    C4 9281   1.550   3.808  16.281 -0.9548 -0.7467  0.3213
  623MPD2    C5 9282   1.515   3.798  16.149  0.3039  0.5028  0.1572
  623MPD2     H 9283   1.243   3.808  16.409  0.9524 -0.0004  0.1847
  623MPD2    H1 9284   1.651   3.821  16.320 -0.6082  0.5828 -1.0066
  623MPD2    H2 9285   1.371   3.770  16.000  0.2015 -0.8482 -0.7218
  623MPD2    H3 9286   1.600   3.807  16.081  0.0418 -1.2690 -0.4014
  623MPD2     N 9287   1.463   3.824  16.518  0.0910  0.2366  0.3035
  623MPD2    H5 9288   1.377   3.832  16.571  0.5110 -3.0778  1.4774
  623MPD2    N1 9289   1.149   3.752  16.172 -0.4358 -0.0441 -0.0529
  623MPD2    H7 9290   1.092   3.730  16.254 -1.3344  1.1713 -0.3635
  624TMC3    C1 9291   1.583   3.849  16.938  0.1444  0.6534 -0.0922
  624TMC3    C2 9292   1.456   3.907  16.969  0.5571  0.2867 -0.9102
  624TMC3    C3 9293   1.379   3.958  16.866 -0.5434  0.1165 -0.4543
  624TMC3    C4 9294   1.628   3.852  16.810  0.4120  0.8220 -0.0357
  624TMC3    C5 9295   1.551   3.904  16.711 -0.0193  0.0332 -0.4450
  624TMC3    C6 9296   1.422   3.956  16.737  0.3724  0.4725  0.2006
  624TMC3     C 9297   1.666   3.794  17.045  0.3139 -0.2307 -0.1028
  624TMC3     O 9298   1.622   3.816  17.159 -0.3638 -0.0599  0.1475
  624TMC3     H 9299   1.414   3.887  17.067 -0.5034  0.1628 -1.3887
  624TMC3    H1 9300   1.730   3.826  16.785  0.4189  1.3380 -0.5421
  624TMC3    H2 9301   1.353   3.992  16.662 -0.3296  2.1831  1.6633
  624TMC3    C7 9302   1.578   3.855  16.579 -0.0572 -0.2295  0.1232
  624TMC3    C8 9303   1.241   3.920  16.888 -0.7645  0.4618  0.1810
  624TMC3    O1 9304   1.696   3.828  16.553  0.4140  0.3981 -0.2707
  624TMC3    O2 9305   1.187   3.870  16.788 -0.9104  0.0063 -0.2204
  625MPD2     C 9306   0.989   0.374   0.656 -0.2783  0.0993  0.0507
  625MPD2    C1 9307   1.028   0.438   0.539 -0.5353  1.3227 -0.1373
  625MPD2    C2 9308   1.148   0.406   0.482 -0.3997 -0.6300 -0.3671
  625MPD2    C3 9309   1.226   0.305   0.531 -0.4852 -0.2478  0.8919
  625MPD2    C4 9310   1.184   0.243   0.648  0.1542  0.0549 -0.0365
  625MPD2    C5 9311   1.072   0.276   0.713  0.2344 -0.4977 -0.4065
  625MPD2     H 9312   1.179   0.466   0.397  2.6067 -0.2817  0.9829
  625MPD2    H1 9313   1.253   0.178   0.701 -0.8534 -2.1149 -1.4032
  625MPD2    H2 9314   0.904   0.408   0.713  0.2379  1.4630  0.0049
  625MPD2    H3 9315   1.058   0.225   0.808  0.1676  3.3579  1.6336
  625MPD2     N 9316   1.354   0.279   0.477 -0.0829  0.5862  0.0726
  625MPD2    H5 9317   1.380   0.333   0.395  2.0369 -1.5401 -0.6542
  625MPD2    N1 9318   0.944   0.539   0.481  0.7833 -0.2991 -0.3485
  625MPD2    H7 9319   0.975   0.587   0.397 -0.4046  0.2911 -0.4529
  626TMC3    C1 9320   0.762   0.704   0.458  0.7419 -0.7412 -0.4770
  626TMC3    C2 9321   0.716   0.660   0.333 -0.7040  0.4348 -0.2577
  626TMC3    C3 9322   0.608   0.727   0.283 -0.3663  1.0518 -0.4671
  626TMC3    C4 9323   0.700   0.798   0.539 -0.0248  0.4195 -0.4998
  626TMC3    C5 9324   0.590   0.854   0.486  0.3509  0.9165 -0.1683
  626TMC3    C6 9325   0.548   0.820   0.365 -0.0458  0.2722 -0.0452
  626TMC3     C 9326   0.834   0.607   0.542  0.3709  0.8509 -0.3569
  626TMC3     O 9327   0.800   0.593   0.660 -0.3119 -0.1267 -0.0584
  626TMC3     H 9328   0.751   0.571   0.281 -1.8007 -0.9672  1.4151
  626TMC3    H1 9329   0.734   0.821   0.639 -0.3141  0.6850 -0.4616
  626TMC3    H2 9330   0.464   0.874   0.324 -0.2201 -0.2580 -0.3822
  626TMC3    C7 9331   0.489   0.887   0.585  0.0101  0.1271 -0.2381
  626TMC3    C8 9332   0.507   0.656   0.205  0.1179 -0.1901 -0.4074
  626TMC3    O1 9333   0.521   0.936   0.692 -0.4248  0.5082  0.6132
  626TMC3    O2 9334   0.393   0.655   0.244  0.3013  0.0452 -0.9074
  627MPD2     C 9335   4.087   0.250  14.381  0.0663  0.2377 -0.2758
  627MPD2    C1 9336   4.148   0.187  14.485 -0.3659  0.3286 -0.1195
  627MPD2    C2 9337   4.100   0.060  14.521 -0.1790  0.1217 -0.4703
  627MPD2    C3 9338   3.989   0.003  14.457  0.2987 -0.0809 -0.0967
  627MPD2    C4 9339   3.930   0.071  14.350 -0.4665 -0.3750 -0.1397
  627MPD2    C5 9340   3.988   0.190  14.310 -0.0287  0.0880  0.3864
  627MPD2     H 9341   4.140   0.005  14.604 -0.5272 -0.0312 -0.4025
  627MPD2    H1 9342   3.841   0.041  14.297 -1.1783  0.7311  0.4395
  627MPD2    H2 9343   4.118   0.349  14.349  3.3353 -0.5842  0.2830
  627MPD2    H3 9344   3.943   0.250  14.231 -1.2441  0.7646  1.5828
  627MPD2     N 9345   3.936   4.624  14.516 -0.5303  0.2812  0.0819
  627MPD2    H5 9346   3.993   4.573  14.583 -0.6470  2.0781  1.5681
  627MPD2    N1 9347   4.256   0.230  14.552  0.3145 -0.5177  0.0199
  627MPD2    H7 9348   4.272   0.169  14.632  0.9760  0.5701  0.7144
  628TMC3    C1 9349   4.442   0.377  14.620 -0.0422 -0.1994 -0.5681
  628TMC3    C2 9350   4.527   0.271  14.658 -0.2605 -0.1656  0.1306
  628TMC3    C3 9351   4.652   0.304  14.705  0.0905  0.0613 -0.1990
  628TMC3    C4 9352   4.462   0.506  14.648  0.5368  0.0918 -0.2493
  628TMC3    C5 9353   4.582   0.535  14.706  0.5254 -0.3257 -0.4976
  628TMC3    C6 9354   4.674   0.435  14.729 -0.2468  0.4294  0.1265
  628TMC3     C 9355   4.324   0.349  14.535  0.1109 -0.1194 -0.0088
  628TMC3     O 9356   4.291   0.438  14.458 -0.2274 -0.2757  0.2492
  628TMC3     H 9357   4.505   0.167  14.638  0.5887 -0.7502  2.2905
  628TMC3    H1 9358   4.390   0.579  14.616  1.3870  0.4752 -1.2707
  628TMC3    H2 9359   0.039   0.465  14.723  1.0248 -3.8041  0.5636
  628TMC3    C7 9360   4.632   0.665  14.690  0.3454 -0.5646 -0.1623
  628TMC3    C8 9361   0.032   0.239  14.643  0.4870 -0.1259  0.0621
  628TMC3    O1 9362   4.710   0.702  14.775 -0.1344 -0.1627 -0.1388
  628TMC3    O2 9363   0.012   0.176  14.543 -0.0302 -0.0674  0.3441
  629MPD2     C 9364   2.718   3.803  16.166  0.3473 -0.1606 -0.6454
  629MPD2    C1 9365   2.755   3.675  16.187  0.3549 -0.3501 -0.2077
  629MPD2    C2 9366   2.657   3.577  16.193 -0.4574  0.2079  0.3350
  629MPD2    C3 9367   2.528   3.612  16.169 -0.7563  0.0139  0.5211
  629MPD2    C4 9368   2.497   3.744  16.142  0.5961  0.5129 -0.3267
  629MPD2    C5 9369   2.594   3.839  16.148  0.0601 -0.0977 -0.8915
  629MPD2     H 9370   2.672   3.472  16.214  1.3321  0.6630  1.3307
  629MPD2    H1 9371   2.398   3.772  16.108 -0.6014 -0.9018  1.9510
  629MPD2    H2 9372   2.788   3.886  16.161 -0.2650  0.3587 -0.7164
  629MPD2    H3 9373   2.575   3.945  16.147  1.0463  0.0808 -0.9332
  629MPD2     N 9374   2.432   3.510  16.164  0.2944  0.2617  0.5112
  629MPD2    H5 9375   2.466   3.414  16.173  1.3946  0.7961  2.0421
  629MPD2    N1 9376   2.890   3.652  16.207 -0.0762  0.1528 -0.2185
  629MPD2    H7 9377   2.945   3.735  16.187 -0.2656  0.3270 -0.0090
  630TMC3    C1 9378   3.088   3.569  16.301 -0.3834 -0.4123  0.2679
  630TMC3    C2 9379   3.163   3.650  16.219 -0.4462  0.3993 -0.6371
  630TMC3    C3 9380   3.291   3.672  16.273 -0.6202  0.3096 -0.3187
  630TMC3    C4 9381   3.126   3.529  16.427 -0.3530 -0.2341 -0.6076
  630TMC3    C5 9382   3.248   3.575  16.477  0.2684  0.1893 -0.7392
  630TMC3    C6 9383   3.334   3.641  16.398  0.1096  0.2167  0.2954
  630TMC3     C 9384   2.952   3.543  16.269  0.0159 -0.5395 -0.1784
  630TMC3     O 9385   2.886   3.450  16.321  0.2042  0.5431 -0.3722
  630TMC3     H 9386   3.130   3.669  16.118  0.6765  0.0688 -1.0645
  630TMC3    H1 9387   3.050   3.504  16.500 -1.7121 -2.0719 -2.6392
  630TMC3    H2 9388   3.433   3.668  16.435  0.4980 -0.1990 -0.4624
  630TMC3    C7 9389   3.257   3.606  16.622  0.1423 -0.7344 -0.1371
  630TMC3    C8 9390   3.369   3.773  16.213  0.0080 -0.1288 -1.0815
  630TMC3    O1 9391   3.184   3.525  16.684  0.2689  0.4253 -0.3102
  630TMC3    O2 9392   3.493   3.774  16.219 -0.2964 -0.2534  0.3242
  631MPD2     C 9393   1.048   3.578  15.571  0.0573 -0.7460  0.2057
  631MPD2    C1 9394   1.122   3.617  15.461 -0.4919  0.6631 -0.6590
  631MPD2    C2 9395   1.205   3.524  15.397 -0.7687  0.0969  0.0596
  631MPD2    C3 9396   1.210   3.396  15.443  0.1288 -0.4829 -0.9039
  631MPD2    C4 9397   1.132   3.358  15.551  0.4071  0.1401 -1.2584
  631MPD2    C5 9398   1.052   3.448  15.617 -0.1651 -0.3421 -0.6816
  631MPD2     H 9399   1.257   3.547  15.305 -1.0568  0.2444 -0.0670
  631MPD2    H1 9400   1.142   3.257  15.589 -0.3150  0.1612 -1.0081
  631MPD2    H2 9401   0.977   3.644  15.620  0.7043  0.4213 -0.4224
  631MPD2    H3 9402   0.979   3.418  15.692 -0.0618 -1.5531 -1.0682
  631MPD2     N 9403   1.287   3.291  15.387  0.2991  0.4580 -0.3763
  631MPD2    H5 9404   1.288   3.197  15.428  1.7764  0.9185  0.6635
  631MPD2    N1 9405   1.105   3.760  15.413 -0.5721 -0.1963  0.3682
  631MPD2    H7 9406   1.033   3.816  15.457 -0.9541  0.5244 -1.1960
  632TMC3    C1 9407   1.120   3.929  15.246  0.3671  0.6562 -0.0575
  632TMC3    C2 9408   0.986   3.948  15.251 -0.1552  0.5509 -0.5064
  632TMC3    C3 9409   0.930   4.023  15.152  0.0147  0.3358  0.4648
  632TMC3    C4 9410   1.193   3.978  15.142  0.4441  0.2360 -0.4581
  632TMC3    C5 9411   1.130   4.052  15.043  0.0089  0.1108  0.2315
  632TMC3    C6 9412   0.994   4.067  15.046  0.7892 -0.1383  0.4831
  632TMC3     C 9413   1.179   3.812  15.308  0.2489 -0.2451  0.2583
  632TMC3     O 9414   1.291   3.772  15.272 -0.2078 -0.1203 -0.0810
  632TMC3     H 9415   0.931   3.904  15.333 -0.7806 -0.0745 -1.2662
  632TMC3    H1 9416   1.299   3.958  15.148  0.4423  0.0690 -0.9385
  632TMC3    H2 9417   0.942   4.099  14.956 -2.9163 -1.0367  2.3195
  632TMC3    C7 9418   1.192   4.065  14.915 -0.1220  0.3510  0.4544
  632TMC3    C8 9419   0.778   4.031  15.154  0.7024  0.8110 -0.3859
  632TMC3    O1 9420   1.129   4.109  14.817 -0.0256  0.8440 -0.7840
  632TMC3    O2 9421   0.723   3.965  15.245  0.5302 -0.8169  0.2550
  633MPD2     C 9422   0.796   2.033  17.462 -0.0451  0.7470 -0.9979
  633MPD2    C1 9423   0.815   1.965  17.347 -0.1509  0.3694 -0.5680
  633MPD2    C2 9424   0.864   1.831  17.353 -0.6041  0.2081 -0.4687
  633MPD2    C3 9425   0.883   1.774  17.474 -0.5224  0.1137 -0.1549
  633MPD2    C4 9426   0.888   1.849  17.587  0.2245  0.7775 -0.0491
  633MPD2    C5 9427   0.846   1.982  17.578 -0.3029  0.4953  0.3300
  633MPD2     H 9428   0.875   1.786  17.255  2.1090  0.0173 -0.0585
  633MPD2    H1 9429   0.915   1.799  17.679  4.1679 -1.1298 -2.1975
  633MPD2    H2 9430   0.753   2.131  17.477  0.7231  0.7923  0.8769
  633MPD2    H3 9431   0.845   2.045  17.666 -1.2766 -0.5922  1.1055
  633MPD2     N 9432   0.920   1.641  17.474  0.2124  0.0341 -0.7959
  633MPD2    H5 9433   0.956   1.602  17.560 -2.6082 -2.3876 -0.6885
  633MPD2    N1 9434   0.791   2.025  17.226 -0.2939 -0.4845  0.1865
  633MPD2    H7 9435   0.825   1.974  17.145  2.0420  2.6685 -0.7842
  634TMC3    C1 9436   0.719   2.157  17.050  0.6631  0.0245 -0.0939
  634TMC3    C2 9437   0.748   2.050  16.969 -0.0601  0.3065 -0.5112
  634TMC3    C3 9438   0.799   2.068  16.841 -0.3443  0.3042  0.8295
  634TMC3    C4 9439   0.746   2.284  16.997 -0.5682 -0.0129 -0.8003
  634TMC3    C5 9440   0.793   2.300  16.864 -0.6164  0.0493  0.0595
  634TMC3    C6 9441   0.817   2.185  16.785 -0.3636  0.8212  0.0742
  634TMC3     C 9442   0.731   2.145  17.198 -0.0617  0.8881 -0.0122
  634TMC3     O 9443   0.704   2.244  17.266  0.4857  0.0950 -0.5281
  634TMC3     H 9444   0.736   1.949  17.005  1.6663  0.5519  0.7571
  634TMC3    H1 9445   0.753   2.370  17.063 -1.4888 -1.5168  1.2548
  634TMC3    H2 9446   0.860   2.202  16.687  1.2406 -3.0546  0.1314
  634TMC3    C7 9447   0.770   2.426  16.794 -1.0792  0.6979 -0.2790
  634TMC3    C8 9448   0.802   1.950  16.750 -0.0787  0.1203 -0.6701
  634TMC3    O1 9449   0.808   2.425  16.678  0.2369 -0.9259 -0.8129
  634TMC3    O2 9450   0.712   1.869  16.758 -0.0654  0.1969 -0.1341
  635TMC3    C1 9451   1.202   2.900   0.440 -0.2600 -0.5216  0.1797
  635TMC3    C2 9452   1.210   2.765   0.432  0.0773 -0.2967  0.6270
  635TMC3    C3 9453   1.133   2.690   0.347 -0.0837 -0.4248  0.4563
  635TMC3    C4 9454   1.102   2.966   0.370 -0.1202  0.7249  0.1343
  635TMC3    C5 9455   1.025   2.888   0.286 -0.0998  0.1371 -0.1505
  635TMC3    C6 9456   1.033   2.752   0.279  0.1862 -0.2985  0.6965
  635TMC3     C 9457   1.296   2.984   0.517  0.0093 -0.3840  0.4564
  635TMC3     O 9458   1.255   3.098   0.546 -0.0021  0.3029  0.1884
  635TMC3     H 9459   1.286   2.711   0.488  1.4362  0.6855 -0.2796
  635TMC3    H1 9460   1.093   3.071   0.397  0.7236  1.5394 -2.8022
  635TMC3    H2 9461   0.970   2.704   0.206 -1.1154  1.4262  0.6955
  635TMC3    C7 9462   0.948   2.950   0.185  0.5881 -0.4846 -0.3361
  635TMC3    C8 9463   1.162   2.549   0.314  0.0692  0.6324 -0.0959
  635TMC3    O1 9464   0.834   2.900   0.171 -0.0576  1.0971  0.0490
  635TMC3    O2 9465   1.280   2.520   0.317  0.1979 -0.3304  0.1807
  636MPD2     C 9466   2.374   1.517  15.869 -0.3595  0.3265  1.0898
  636MPD2    C1 9467   2.412   1.504  15.997 -0.1871  0.6508 -0.5097
  636MPD2    C2 9468   2.505   1.413  16.034  0.0307 -0.1230  0.1422
  636MPD2    C3 9469   2.582   1.347  15.945 -0.2087  0.5131 -0.4795
  636MPD2    C4 9470   2.549   1.363  15.809  0.3276  0.3132  0.1177
  636MPD2    C5 9471   2.448   1.444  15.777 -0.0762 -0.3775 -0.3641
  636MPD2     H 9472   2.525   1.404  16.140  0.4129 -0.9578 -0.0022
  636MPD2    H1 9473   2.599   1.320  15.724 -0.9435  0.2934 -0.6139
  636MPD2    H2 9474   2.293   1.573  15.824 -0.1538 -0.4135 -0.1901
  636MPD2    H3 9475   2.421   1.449  15.673 -1.1058  2.6119  0.0538
  636MPD2     N 9476   2.681   1.258  15.991 -0.2380 -0.7269 -0.5465
  636MPD2    H5 9477   2.688   1.236  16.089  1.0274 -0.0145 -0.4841
  636MPD2    N1 9478   2.349   1.586  16.095 -0.1261  0.0094 -0.2658
  636MPD2    H7 9479   2.366   1.575  16.195  0.0703 -0.0593 -0.3080
  637TMC3    C1 9480   2.867   1.122  15.979 -0.4292 -0.5968 -0.4006
  637TMC3    C2 9481   2.829   1.067  16.095 -0.4222 -0.2031  0.3374
  637TMC3    C3 9482   2.902   1.070  16.211 -0.0225  0.2256 -0.0640
  637TMC3    C4 9483   2.985   1.191  15.974 -0.0259 -0.2660 -0.4711
  637TMC3    C5 9484   3.068   1.184  16.082 -0.0013 -0.2730 -0.4424
  637TMC3    C6 9485   3.031   1.120  16.198  0.0618 -0.3218 -0.4251
  637TMC3     C 9486   2.770   1.197  15.905  0.5843 -0.8321  0.8554
  637TMC3     O 9487   2.794   1.205  15.786  0.1955  0.1680  0.6955
  637TMC3     H 9488   2.728   1.027  16.098 -0.9961  1.2372  0.4201
  637TMC3    H1 9489   3.003   1.256  15.889 -0.6709 -0.2562 -0.6019
  637TMC3    H2 9490   3.094   1.121  16.286 -1.0588  0.9384  0.3679
  637TMC3    C7 9491   3.127   1.310  16.123  0.4404 -0.2238  0.2271
  637TMC3    C8 9492   2.830   1.119  16.323  0.0664 -0.0979 -0.0263
  637TMC3    O1 9493   3.106   1.342  16.238  0.0555  0.3988  0.1578
  637TMC3    O2 9494   2.729   1.182  16.290  0.3245  0.4222 -0.7495
  638MPD2     C 9495   1.919   0.854  14.713  0.1848 -0.1257  0.3472
  638MPD2    C1 9496   1.869   0.758  14.635 -0.0005 -0.0439  0.4688
  638MPD2    C2 9497   1.852   0.635  14.689  0.0372  0.2102 -0.1543
  638MPD2    C3 9498   1.875   0.606  14.827  0.3494 -0.0002  0.1903
  638MPD2    C4 9499   1.924   0.711  14.905 -0.0748 -0.7766  0.0424
  638MPD2    C5 9500   1.947   0.828  14.848 -0.4868 -0.6059  0.0444
  638MPD2     H 9501   1.807   0.554  14.632  0.8188 -0.2841 -0.0816
  638MPD2    H1 9502   1.931   0.709  15.013  1.5900  0.3533 -0.0406
  638MPD2    H2 9503   1.934   0.951  14.668  1.2447 -0.0463  0.8703
  638MPD2    H3 9504   1.984   0.911  14.908 -0.8191 -0.5480  0.1656
  638MPD2     N 9505   1.845   0.482  14.879  0.0461  0.0708  0.3585
  638MPD2    H5 9506   1.800   0.412  14.821 -1.1207 -0.3528  1.7737
  638MPD2    N1 9507   1.855   0.785  14.494 -0.3210  0.5797 -0.4934
  638MPD2    H7 9508   1.876   0.879  14.462 -0.7555  0.7992 -0.1270
  639TMC3    C1 9509   1.878   0.299  15.016  0.2497 -0.4480 -0.6773
  639TMC3    C2 9510   1.761   0.237  14.982  0.0474 -0.7040 -0.5635
  639TMC3    C3 9511   1.748   0.099  15.001  0.0472 -0.7957  0.3751
  639TMC3    C4 9512   1.978   0.223  15.080 -0.1169  0.1929  0.8289
  639TMC3    C5 9513   1.962   0.087  15.080 -0.0508  0.0116 -0.0292
  639TMC3    C6 9514   1.849   0.024  15.045 -0.1616  0.6338 -0.3432
  639TMC3     C 9515   1.898   0.438  14.999  0.2736  0.5310  0.7015
  639TMC3     O 9516   1.991   0.493  15.058 -0.0452 -0.1822  0.8336
  639TMC3     H 9517   1.682   0.297  14.940 -0.5359  0.1652  1.8000
  639TMC3    H1 9518   2.070   0.275  15.104 -1.2466  2.2632  0.6048
  639TMC3    H2 9519   1.846   4.657  15.073  2.4167  0.1385 -1.9322
  639TMC3    C7 9520   2.083   0.009  15.106  0.4248  0.4353 -1.4763
  639TMC3    C8 9521   1.660   0.030  14.919  0.4458 -0.3018  0.0044
  639TMC3    O1 9522   2.073   4.642  15.170 -0.8294 -0.4978  0.2049
  639TMC3    O2 9523   1.716   4.686  14.852  0.0298  0.2434 -0.0760
  640MPD2     C 9524   2.667   3.934  10.095  0.2797 -1.0642  0.2354
  640MPD2    C1 9525   2.555   3.900  10.025  0.5797  0.1624  0.7115
  640MPD2    C2 9526   2.458   3.992  10.001  0.4363 -0.3644  0.2443
  640MPD2    C3 9527   2.477   4.123  10.037 -0.4514  0.0878 -0.1772
  640MPD2    C4 9528   2.585   4.154  10.117 -0.0768 -0.2999 -0.6310
  640MPD2    C5 9529   2.685   4.063  10.138 -0.5437  0.2625  0.6602
  640MPD2     H 9530   2.372   3.964   9.941  0.7053 -0.9356  0.1256
  640MPD2    H1 9531   2.597   4.255  10.155  1.0685 -0.2756 -1.0688
  640MPD2    H2 9532   2.743   3.859  10.107  1.8900  0.6669  0.8174
  640MPD2    H3 9533   2.785   4.083  10.175 -0.5723  1.8861 -0.1390
  640MPD2     N 9534   2.383   4.225  10.013  0.6997  0.8172  0.1490
  640MPD2    H5 9535   2.404   4.321  10.040  1.8620  0.6178 -0.0349
  640MPD2    N1 9536   2.556   3.770   9.965 -0.0401  0.8540 -0.2221
  640MPD2    H7 9537   2.630   3.706   9.991 -1.1032 -1.2199 -2.2493
  641TMC3    C1 9538   2.490   3.589   9.819  0.0059  0.5474 -0.3752
  641TMC3    C2 9539   2.619   3.546   9.789 -0.3030  0.2792  0.0971
  641TMC3    C3 9540   2.630   3.461   9.685  0.0164 -0.0131 -0.5842
  641TMC3    C4 9541   2.379   3.550   9.751  0.0518  0.1518 -0.1729
  641TMC3    C5 9542   2.390   3.469   9.643 -0.1841  0.4528  0.0074
  641TMC3    C6 9543   2.520   3.430   9.607 -0.4459  0.6690 -0.8476
  641TMC3     C 9544   2.465   3.721   9.871  0.1221 -0.3224 -0.4653
  641TMC3     O 9545   2.364   3.777   9.833  0.1878 -0.4227 -0.0449
  641TMC3     H 9546   2.697   3.573   9.859 -1.5305  0.7999  1.2577
  641TMC3    H1 9547   2.277   3.571   9.783  0.3618  1.8071 -0.3008
  641TMC3    H2 9548   2.529   3.387   9.508 -0.2246 -0.9437 -0.1168
  641TMC3    C7 9549   2.289   3.481   9.539  0.4358 -0.2824 -0.0675
  641TMC3    C8 9550   2.766   3.431   9.630 -0.8189 -0.2109  0.7714
  641TMC3    O1 9551   2.205   3.573   9.544 -0.1877  0.2352 -0.3456
  641TMC3    O2 9552   2.755   3.374   9.525  0.0948  0.2657  0.7388
  642TMC3    C1 9553   3.784   0.018  12.778 -0.4282 -0.0996 -0.4002
  642TMC3    C2 9554   3.918   0.018  12.816 -0.3182  0.0327  0.3169
  642TMC3    C3 9555   3.982   4.640  12.839 -0.1399 -0.3954  0.4339
  642TMC3    C4 9556   3.722   4.635  12.755 -0.4136 -0.5493 -0.5117
  642TMC3    C5 9557   3.798   4.524  12.778 -0.5533  0.2790 -0.5874
  642TMC3    C6 9558   3.926   4.521  12.820  0.1692  0.0408 -0.1113
  642TMC3     C 9559   3.709   0.141  12.808 -0.6913  0.2173  0.4600
  642TMC3     O 9560   3.779   0.221  12.871 -0.4163 -0.0707  0.2919
  642TMC3     H 9561   3.971   0.111  12.835  2.4017 -1.8349  1.8501
  642TMC3    H1 9562   3.615   4.638  12.736 -0.0835  0.9845 -2.0419
  642TMC3    H2 9563   3.983   4.429  12.825 -1.1860 -0.7614  0.5398
  642TMC3    C7 9564   3.735   4.400  12.728 -0.0665  0.0985 -0.4840
  642TMC3    C8 9565   4.120   4.629  12.871  0.3263 -0.1992  0.5066
  642TMC3    O1 9566   3.627   4.416  12.672  0.4498  0.2255 -0.1330
  642TMC3    O2 9567   4.194   4.720  12.842 -0.6678  0.1342  0.8107
  643TMC3    C1 9568   2.266   4.628   0.291  0.7706  0.2143 -0.1418
  643TMC3    C2 9569   2.238   0.024   0.319 -0.1413 -0.3512 -0.5689
  643TMC3    C3 9570   2.280   0.109   0.218 -0.2089 -0.3904 -0.0733
  643TMC3    C4 9571   2.352   4.575   0.194 -0.0772 -0.5679  0.9069
  643TMC3    C5 9572   2.397   4.663   0.108 -0.1031  0.3644 -0.7561
  643TMC3    C6 9573   2.358   0.056   0.110 -0.4475  0.2511 -0.3617
  643TMC3     C 9574   2.240   4.552   0.411 -0.0377 -0.7019 -0.2134
  643TMC3     O 9575   2.129   4.552   0.459  0.2921  0.6487  0.5737
  643TMC3     H 9576   2.165   0.048   0.395 -1.8541 -0.2269 -2.2381
  643TMC3    H1 9577   2.364   4.468   0.187  0.7545 -0.3835 -0.4237
  643TMC3    H2 9578   2.367   0.108   0.015  1.5920  0.8293  0.1511
  643TMC3    C7 9579   2.475   4.630  17.737 -0.1712  0.5320 -0.6757
  643TMC3    C8 9580   2.199   0.226   0.198  0.0838  0.7597  0.6459
  643TMC3    O1 9581   2.548   4.716  17.684  0.2493  0.0229  0.1710
  643TMC3    O2 9582   2.080   0.227   0.217  0.1728 -0.5744 -0.4850
  644MPD2     C 9583   2.374   4.451   9.590  0.4855  0.2573 -0.3656
  644MPD2    C1 9584   2.484   4.442   9.663  0.2725  0.0526  0.6748
  644MPD2    C2 9585   2.544   4.560   9.710 -0.1721 -0.5856 -0.5484
  644MPD2    C3 9586   2.490   4.684   9.689  0.3455 -0.5474  0.3169
  644MPD2    C4 9587   2.366   4.686   9.628 -0.1154  0.9676 -0.5052
  644MPD2    C5 9588   2.314   4.575   9.567 -0.5491  0.4984  0.3320
  644MPD2     H 9589   2.636   4.547   9.766  0.0818 -1.0499 -1.0727
  644MPD2    H1 9590   2.307   0.039   9.634  1.1309  1.7867 -0.7365
  644MPD2    H2 9591   2.337   4.360   9.544 -0.1907 -0.2112  1.1225
  644MPD2    H3 9592   2.217   4.581   9.519 -0.0347  0.3556 -0.7204
  644MPD2     N 9593   2.546   0.054   9.758  0.0975  0.0342 -0.2433
  644MPD2    H5 9594   2.629   0.033   9.813 -0.7530  0.2332  1.1309
  644MPD2    N1 9595   2.541   4.311   9.682  0.7839  0.2698  0.0446
  644MPD2    H7 9596   2.492   4.227   9.653 -1.0688  1.2035  0.4495
  645TMC3    C1 9597   2.542   0.254   9.878 -0.7613 -0.2091 -0.3335
  645TMC3    C2 9598   2.630   0.197   9.968 -0.6630 -0.6792 -0.1307
  645TMC3    C3 9599   2.677   0.276  10.075 -0.0087 -0.6409  0.2048
  645TMC3    C4 9600   2.500   0.386   9.889 -0.0618  0.1216 -0.1606
  645TMC3    C5 9601   2.541   0.458   9.995  0.5465 -0.6241  0.5765
  645TMC3    C6 9602   2.632   0.408  10.090 -0.3309 -0.1002 -0.3610
  645TMC3     C 9603   2.492   0.178   9.761  0.3722  0.5546 -0.1283
  645TMC3     O 9604   2.413   0.232   9.683  0.3564  0.5518  0.2405
  645TMC3     H 9605   2.682   0.103   9.950 -0.2503 -0.1826 -1.5629
  645TMC3    H1 9606   2.428   0.425   9.818 -0.5354 -0.5449 -0.0397
  645TMC3    H2 9607   2.675   0.476  10.161  0.3143 -1.0727  0.1754
  645TMC3    C7 9608   2.512   0.596   9.999  0.0162 -0.0514 -0.3202
  645TMC3    C8 9609   2.794   0.218  10.152  0.2151 -0.0566  0.6919
  645TMC3    O1 9610   2.529   0.645  10.109 -0.5572  0.5876 -0.7230
  645TMC3    O2 9611   2.823   0.106  10.123 -0.5453 -0.0241 -0.1896
  646MPD2     C 9612   2.109   3.875  14.523 -0.2847  0.3756 -0.6448
  646MPD2    C1 9613   2.080   3.971  14.618 -0.0692 -0.3616 -0.1047
  646MPD2    C2 9614   1.971   4.053  14.598  0.0524 -0.3974 -0.3407
  646MPD2    C3 9615   1.908   4.066  14.479 -0.1202 -0.1685 -0.6036
  646MPD2    C4 9616   1.952   3.973  14.379 -0.4360 -0.4967 -0.1633
  646MPD2    C5 9617   2.047   3.874  14.401  0.3727 -0.0889  0.2034
  646MPD2     H 9618   1.947   4.132  14.668  2.0892 -0.2954  0.2431
  646MPD2    H1 9619   1.916   3.980  14.277 -1.8171 -3.4044  0.1223
  646MPD2    H2 9620   2.194   3.811  14.544 -0.0401  0.0708 -2.5634
  646MPD2    H3 9621   2.078   3.801  14.327  2.8888  1.1050  0.0609
  646MPD2     N 9622   1.798   4.155  14.459 -1.0047  0.4407 -0.3801
  646MPD2    H5 9623   1.765   4.215  14.534 -1.3733 -0.8684  0.5212
  646MPD2    N1 9624   2.151   3.957  14.742  0.2426 -0.1151  0.3348
  646MPD2    H7 9625   2.221   3.882  14.745  0.7036  0.3345  0.7264
  647TMC3    C1 9626   2.177   3.952  14.974 -0.4930  0.0427 -0.1344
  647TMC3    C2 9627   2.092   3.897  15.065  0.0266  0.0336 -0.7671
  647TMC3    C3 9628   2.145   3.834  15.176 -0.4199  0.5452 -0.0505
  647TMC3    C4 9629   2.315   3.945  14.991 -0.6801  0.6147 -0.5552
  647TMC3    C5 9630   2.361   3.885  15.101  0.2968  0.6051 -0.1523
  647TMC3    C6 9631   2.280   3.839  15.198 -0.0694  0.0377 -0.0083
  647TMC3     C 9632   2.106   4.005  14.862  0.8619  0.2414 -0.2544
  647TMC3     O 9633   2.031   4.100  14.882  0.0099  0.3722  0.2226
  647TMC3     H 9634   1.984   3.898  15.049 -0.3712  0.3323  1.8068
  647TMC3    H1 9635   2.385   3.957  14.909  0.5385 -0.7889  0.2835
  647TMC3    H2 9636   2.331   3.779  15.272 -1.4659 -0.6206  0.4227
  647TMC3    C7 9637   2.476   3.809  15.109 -0.0893 -0.3823  0.4333
  647TMC3    C8 9638   2.088   3.700  15.203 -0.1873  0.1075  0.5833
  647TMC3    O1 9639   2.556   3.832  15.200 -0.6591 -0.0370  0.3083
  647TMC3    O2 9640   2.137   3.649  15.301  0.1043  0.3995 -0.2652
  648TMC3    C1 9641   1.340   1.844  16.053 -1.0095  0.2811 -0.5247
  648TMC3    C2 9642   1.298   1.720  16.008  0.0233 -0.4325  0.1977
  648TMC3    C3 9643   1.234   1.709  15.888  0.2860 -0.5459 -0.6823
  648TMC3    C4 9644   1.313   1.958  15.981  0.3015  0.0157  0.2127
  648TMC3    C5 9645   1.235   1.943  15.870 -0.0278  0.7732  0.5343
  648TMC3    C6 9646   1.189   1.823  15.822 -0.7448 -0.7873 -0.2857
  648TMC3     C 9647   1.365   1.863  16.197 -0.2574 -0.2284 -0.4300
  648TMC3     O 9648   1.428   1.960  16.231  0.5657 -0.0552  0.0303
  648TMC3     H 9649   1.335   1.633  16.061  1.1979  1.2397  2.1692
  648TMC3    H1 9650   1.350   2.054  16.016 -4.1979  2.2031 -1.1028
  648TMC3    H2 9651   1.117   1.824  15.741 -0.2657 -3.2575 -0.7493
  648TMC3    C7 9652   1.186   2.052  15.791  0.3067  0.5230 -0.1735
  648TMC3    C8 9653   1.191   1.576  15.847 -0.2920 -0.1230 -0.2299
  648TMC3    O1 9654   1.155   2.035  15.674  0.0317  0.3332 -0.1259
  648TMC3    O2 9655   1.094   1.565  15.775 -0.1276 -0.2268 -0.4015
  649TMC3    C1 9656   0.574   2.908  12.611 -0.5614  0.2233 -0.2234
  649TMC3    C2 9657   0.704   2.929  12.638 -0.2367  0.8906 -0.1062
  649TMC3    C3 9658   0.747   2.925  12.766  0.0750  0.0789 -0.4787
  649TMC3    C4 9659   0.480   2.878  12.709  0.1063  0.0929  0.2754
  649TMC3    C5 9660   0.530   2.868  12.838  0.3841  0.6755 -0.2190
  649TMC3    C6 9661   0.661   2.883  12.866 -0.2343 -0.3270  0.0836
  649TMC3     C 9662   0.524   2.936  12.479  0.4510  0.5658 -0.0190
  649TMC3     O 9663   0.405   2.954  12.477  0.2229 -0.1196  0.1567
  649TMC3     H 9664   0.754   2.976  12.554 -0.2316 -0.7850 -1.0609
  649TMC3    H1 9665   0.377   2.858  12.682 -0.0762  1.1908  0.1375
  649TMC3    H2 9666   0.698   2.878  12.968 -1.8650  1.2659  0.7608
  649TMC3    C7 9667   0.449   2.783  12.923  0.0078  0.5283 -0.7786
  649TMC3    C8 9668   0.889   2.936  12.798 -0.2766 -0.5537  0.3374
  649TMC3    O1 9669   0.344   2.735  12.875 -0.2661 -0.2486 -0.2078
  649TMC3    O2 9670   0.927   2.894  12.906 -0.2996 -0.1251 -0.2052
  650TMC3    C1 9671   3.052   3.900  13.164 -0.1564 -0.9387 -0.1031
  650TMC3    C2 9672   3.001   4.013  13.217  0.1391 -0.0953  0.2758
  650TMC3    C3 9673   2.934   4.099  13.130  0.4355 -0.6785 -0.0178
  650TMC3    C4 9674   3.041   3.873  13.032  0.2738 -0.7504 -0.3490
  650TMC3    C5 9675   2.995   3.968  12.947 -0.0293  0.5793  0.0052
  650TMC3    C6 9676   2.938   4.079  12.991  0.2646 -0.5079 -1.1769
  650TMC3     C 9677   3.109   3.814  13.261  0.7633 -0.4280 -0.1665
  650TMC3     O 9678   3.148   3.867  13.365  1.1318 -0.4288 -0.1558
  650TMC3     H 9679   3.009   4.030  13.324  2.0144  0.1008  0.1046
  650TMC3    H1 9680   3.080   3.781  12.990  1.0007  0.3572 -2.0619
  650TMC3    H2 9681   2.888   4.149  12.925 -0.0483 -1.5947 -2.0905
  650TMC3    C7 9682   2.974   3.925  12.814  0.0215 -0.2354 -0.4099
  650TMC3    C8 9683   2.866   4.211  13.187 -0.4172  0.0346  0.1995
  650TMC3    O1 9684   3.001   3.812  12.786  0.1488 -0.5695 -1.0379
  650TMC3    O2 9685   2.826   4.206  13.301  0.4448  0.4308 -0.0571
  651MPD2     C 9686   1.863   1.725  10.503 -0.5753 -0.7181  0.2490
  651MPD2    C1 9687   1.895   1.812  10.609 -0.5083  0.1191  0.4377
  651MPD2    C2 9688   2.029   1.845  10.633 -0.1024 -0.1239  0.0203
  651MPD2    C3 9689   2.136   1.797  10.553 -0.0991  0.0203 -0.5509
  651MPD2    C4 9690   2.093   1.713  10.448 -0.2796  0.0339 -0.0762
  651MPD2    C5 9691   1.962   1.673  10.427 -0.2008 -0.0898  0.5212
  651MPD2     H 9692   2.040   1.912  10.718 -2.0567 -1.9114  1.6847
  651MPD2    H1 9693   2.159   1.682  10.368 -1.1544 -2.0217 -0.0111
  651MPD2    H2 9694   1.760   1.707  10.472  0.6638 -2.0503 -3.1443
  651MPD2    H3 9695   1.951   1.604  10.344  2.3729 -0.8777  0.8469
  651MPD2     N 9696   2.269   1.839  10.581  0.2287  0.2753 -0.6219
  651MPD2    H5 9697   2.270   1.899  10.663  2.7015 -0.9332  0.2243
  651MPD2    N1 9698   1.792   1.867  10.697  0.5079 -0.0406  0.4414
  651MPD2    H7 9699   1.819   1.938  10.765 -0.9940  2.6794 -1.7996
  652TMC3    C1 9700   2.732   1.873  10.454 -1.1957  0.2052  0.4870
  652TMC3    C2 9701   2.615   1.804  10.474  0.0884 -0.1279  0.6440
  652TMC3    C3 9702   2.511   1.850  10.551 -0.0961 -0.1674  0.2948
  652TMC3    C4 9703   2.743   1.997  10.515 -0.1178  0.2560  0.6540
  652TMC3    C5 9704   2.632   2.042  10.581 -0.0889 -0.0923 -0.0094
  652TMC3    C6 9705   2.517   1.971  10.599 -0.3911  0.5440  0.2375
  652TMC3     C 9706   2.853   1.802  10.436 -0.3939 -0.3214 -0.5555
  652TMC3     O 9707   2.863   1.693  10.488 -0.3583 -0.1343 -0.5070
  652TMC3     H 9708   2.618   1.712  10.415 -2.0360  0.7160 -0.8075
  652TMC3    H1 9709   2.840   2.045  10.517  0.5588 -0.9893 -1.5197
  652TMC3    H2 9710   2.441   2.012  10.664  0.7625  2.6443  0.2616
  652TMC3    C7 9711   2.658   2.122  10.697 -0.1156 -0.9860  0.1969
  652TMC3    C8 9712   2.381   1.780  10.524 -0.1375  0.3453 -0.3499
  652TMC3    O1 9713   2.625   2.072  10.802 -0.8328 -0.3334  0.0915
  652TMC3    O2 9714   2.387   1.689  10.441  0.7412 -0.4875  0.2027
  653MPD2     C 9715   0.519   1.874  17.565 -0.3631  0.1766 -0.4979
  653MPD2    C1 9716   0.438   1.967  17.497 -0.5558  0.2214 -0.0967
  653MPD2    C2 9717   0.344   1.915  17.406 -0.0236 -0.0949 -0.2060
  653MPD2    C3 9718   0.327   1.777  17.389 -0.9251 -0.7948 -0.2512
  653MPD2    C4 9719   0.425   1.695  17.448  0.0516 -0.5464  0.1907
  653MPD2    C5 9720   0.518   1.741  17.541  0.1173 -0.9609 -0.6206
  653MPD2     H 9721   0.276   1.985  17.360 -0.8497 -0.7573 -0.0028
  653MPD2    H1 9722   0.423   1.589  17.424 -0.7727 -0.4726 -0.0775
  653MPD2    H2 9723   0.578   1.899  17.653 -0.8358 -1.4720  0.3002
  653MPD2    H3 9724   0.588   1.674  17.589 -0.0926  0.0783  1.1378
  653MPD2     N 9725   0.225   1.717  17.301  0.2072  0.5083 -0.2487
  653MPD2    H5 9726   0.177   1.778  17.235 -1.2124 -0.3494 -0.0109
  653MPD2    N1 9727   0.451   2.110  17.514 -0.5766 -0.2215  0.6234
  653MPD2    H7 9728   0.389   2.166  17.458 -0.8085 -1.0833  0.0206
  654TMC3    C1 9729   0.111   1.551  17.183 -0.1608  0.3134  0.7337
  654TMC3    C2 9730   0.035   1.643  17.116 -0.1852 -0.4368  0.3226
  654TMC3    C3 9731   4.705   1.606  17.000  0.3610  0.5243  0.0065
  654TMC3    C4 9732   0.139   1.425  17.132  0.3329 -0.4875  0.2735
  654TMC3    C5 9733   0.077   1.397  17.013  0.0305 -0.3249  0.1478
  654TMC3    C6 9734   4.722   1.478  16.950 -0.0961 -0.5109  0.2856
  654TMC3     C 9735   0.190   1.589  17.298  1.4119 -0.2180  0.3343
  654TMC3     O 9736   0.243   1.494  17.350  0.0572 -0.2108 -0.4468
  654TMC3     H 9737   4.730   1.726  17.171  1.3753  0.3265  0.4192
  654TMC3    H1 9738   0.217   1.360  17.171 -0.2973 -1.3227  0.1294
  654TMC3    H2 9739   4.668   1.446  16.862 -1.2780 -0.1214  0.8578
  654TMC3    C7 9740   0.081   1.257  16.981  0.9705  0.8215  0.0035
  654TMC3    C8 9741   4.570   1.667  16.970  0.0233 -1.5111 -0.2466
  654TMC3    O1 9742   0.122   1.185  17.072  0.0909  0.4790 -0.0685
  654TMC3    O2 9743   4.498   1.603  16.896 -0.4724 -0.1515 -0.0481
  655MPD2     C 9744   1.624   1.764  15.783  0.0405  0.0789  0.7617
  655MPD2    C1 9745   1.647   1.866  15.700  0.4457  0.2048 -0.0474
  655MPD2    C2 9746   1.704   1.836  15.568  0.6735 -0.3156  0.4751
  655MPD2    C3 9747   1.720   1.708  15.520  0.1030  0.0325 -0.3497
  655MPD2    C4 9748   1.701   1.608  15.619  0.2043 -0.2329  0.3610
  655MPD2    C5 9749   1.649   1.639  15.740  0.3756 -0.3484  0.2191
  655MPD2     H 9750   1.711   1.921  15.503 -2.9321  1.2717  2.1366
  655MPD2    H1 9751   1.730   1.506  15.598 -0.6590 -0.1014 -1.4849
  655MPD2    H2 9752   1.595   1.779  15.887 -1.8063  0.6420  0.1705
  655MPD2    H3 9753   1.623   1.553  15.801 -1.4392  0.1528  0.1406
  655MPD2     N 9754   1.775   1.671  15.398 -0.6509 -0.2003  0.3151
  655MPD2    H5 9755   1.766   1.572  15.377 -2.6065 -0.0533  0.4467
  655MPD2    N1 9756   1.626   1.997  15.738 -0.1425 -0.1076  0.0904
  655MPD2    H7 9757   1.597   2.053  15.658 -1.1619 -0.2358  0.3675
  656TMC3    C1 9758   1.578   2.186  15.891 -0.6410  0.0369  0.0114
  656TMC3    C2 9759   1.546   2.232  16.011 -0.0982  0.1968  0.5316
  656TMC3    C3 9760   1.490   2.361  16.024  0.2710  0.0103  0.6203
  656TMC3    C4 9761   1.544   2.266  15.785 -0.4473  0.1710 -0.1078
  656TMC3    C5 9762   1.498   2.391  15.795  0.0043  0.2196  0.0395
  656TMC3    C6 9763   1.471   2.448  15.915 -0.7263 -0.6189  0.5948
  656TMC3     C 9764   1.620   2.046  15.872  0.0025  1.0529 -0.2304
  656TMC3     O 9765   1.650   1.992  15.976  0.2854  0.2902 -0.0351
  656TMC3     H 9766   1.567   2.170  16.098 -0.0927 -2.2426 -1.2070
  656TMC3    H1 9767   1.577   2.240  15.685 -1.0966  1.2784 -0.6182
  656TMC3    H2 9768   1.415   2.540  15.927 -1.8663 -1.4377  1.5766
  656TMC3    C7 9769   1.455   2.459  15.675  0.4801 -0.7239 -0.4232
  656TMC3    C8 9770   1.375   2.360  16.114  0.9477  0.1410  0.1537
  656TMC3    O1 9771   1.526   2.446  15.572  0.1894  0.3548  0.4121
  656TMC3    O2 9772   1.310   2.259  16.120  0.1310 -0.0484  0.1343
  657TMC3    C1 9773   0.663   1.031  14.627 -0.3264  0.9061  0.4972
  657TMC3    C2 9774   0.668   1.071  14.764  1.4711 -0.6239  0.6734
  657TMC3    C3 9775   0.612   1.194  14.796 -0.0969 -0.0221 -0.2649
  657TMC3    C4 9776   0.593   1.098  14.532  0.1139  0.3712 -1.1802
  657TMC3    C5 9777   0.550   1.221  14.571  0.1642  0.1906  0.7866
  657TMC3    C6 9778   0.559   1.271  14.702 -0.4044 -0.7539 -0.5051
  657TMC3     C 9779   0.743   0.923  14.578  0.4239  0.2926  0.4957
  657TMC3     O 9780   0.695   0.862  14.483  0.0807 -0.7711 -0.0282
  657TMC3     H 9781   0.721   1.009  14.835  1.2837 -0.9608  0.5168
  657TMC3    H1 9782   0.615   1.082  14.427  2.4851 -2.2196 -0.2782
  657TMC3    H2 9783   0.518   1.368  14.726 -0.2344 -0.6779 -0.5208
  657TMC3    C7 9784   0.544   1.330  14.470 -0.0518  0.3379  0.2095
  657TMC3    C8 9785   0.596   1.225  14.937  0.0738  0.0771  0.9492
  657TMC3    O1 9786   0.581   1.436  14.518  0.0357 -0.4528  0.5247
  657TMC3    O2 9787   0.619   1.133  15.013  0.6270  0.4849 -0.2339
  658MPD2     C 9788   2.179   2.146  14.918 -0.2278  0.6687  0.1806
  658MPD2    C1 9789   2.098   2.053  14.852  0.9420  0.5968 -0.2391
  658MPD2    C2 9790   2.103   2.050  14.716 -0.3754 -0.5751  0.0600
  658MPD2    C3 9791   2.189   2.139  14.648  0.0906 -0.0362  0.8136
  658MPD2    C4 9792   2.271   2.227  14.717  0.0567  0.4977 -0.7544
  658MPD2    C5 9793   2.263   2.232  14.855  0.3318 -0.1556  0.2953
  658MPD2     H 9794   2.063   1.967  14.660 -0.0510 -2.6407  2.9373
  658MPD2    H1 9795   2.334   2.300  14.668  0.2331  2.4740  2.4565
  658MPD2    H2 9796   2.166   2.165  15.024 -1.1471  1.4112 -0.0678
  658MPD2    H3 9797   2.314   2.311  14.909 -0.0963  1.0272 -1.0273
  658MPD2     N 9798   2.195   2.127  14.509  0.2220  0.0369 -0.1990
  658MPD2    H5 9799   2.124   2.068  14.467  2.6893 -1.6295 -1.9977
  658MPD2    N1 9800   2.006   1.970  14.924 -0.3059  0.6591 -0.2334
  658MPD2    H7 9801   2.007   1.975  15.026 -0.7017  0.0114 -0.1957
  659TMC3    C1 9802   1.845   1.813  14.961 -0.3292  0.8646 -0.6904
  659TMC3    C2 9803   1.894   1.787  15.086  1.1750 -0.4672  0.0282
  659TMC3    C3 9804   1.831   1.694  15.162 -0.4510 -0.3965 -0.0762
  659TMC3    C4 9805   1.731   1.746  14.914  0.7289 -0.2296 -0.4791
  659TMC3    C5 9806   1.665   1.657  14.994  0.3061  0.3465  0.2205
  659TMC3    C6 9807   1.719   1.622  15.119  0.2159 -0.2628  0.2052
  659TMC3     C 9808   1.918   1.884  14.858 -0.0430 -0.7571 -0.2954
  659TMC3     O 9809   1.868   1.887  14.746  0.1966  0.7157 -0.6784
  659TMC3     H 9810   1.984   1.839  15.115  0.0657  0.3447  1.9821
  659TMC3    H1 9811   1.709   1.749  14.808  0.6999 -0.9739 -0.4976
  659TMC3    H2 9812   1.671   1.548  15.182  0.2865 -2.1073 -1.8997
  659TMC3    C7 9813   1.533   1.617  14.974 -0.8272 -0.3104  0.1665
  659TMC3    C8 9814   1.819   1.754  15.297  0.4791 -0.0451 -0.2565
  659TMC3    O1 9815   1.481   1.570  15.071 -0.1020  0.5888  0.0182
  659TMC3    O2 9816   1.839   1.871  15.306 -0.7208  0.0695  0.0228
  660MPD2     C 9817   4.697   0.456  12.698  0.0216  0.2062  0.4329
  660MPD2    C1 9818   4.560   0.467  12.695 -0.5266  0.2732 -0.3461
  660MPD2    C2 9819   4.478   0.402  12.785  0.6127 -0.2720 -0.9406
  660MPD2    C3 9820   4.542   0.317  12.878 -0.1037 -0.4934  0.5170
  660MPD2    C4 9821   4.676   0.306  12.884  0.5167  0.4491  0.0477
  660MPD2    C5 9822   0.016   0.374  12.794 -0.2640  0.1961 -0.3707
  660MPD2     H 9823   4.370   0.411  12.776  0.7174  0.3631 -1.5274
  660MPD2    H1 9824   4.723   0.244  12.959 -0.7425 -1.0577 -0.4335
  660MPD2    H2 9825   0.029   0.501  12.628  0.4818  0.0322  0.7818
  660MPD2    H3 9826   0.124   0.370  12.802 -0.2291 -0.3975 -1.1711
  660MPD2     N 9827   4.468   0.243  12.978  0.0040 -0.0066 -0.6441
  660MPD2    H5 9828   4.518   0.176  13.035  2.0947  1.4474 -0.7657
  660MPD2    N1 9829   4.486   0.537  12.591  0.3636 -0.5714 -0.3783
  660MPD2    H7 9830   4.385   0.540  12.600  0.6288  2.2785  1.4933
  661TMC3    C1 9831   4.453   0.641  12.380 -0.0899  0.4144 -0.6834
  661TMC3    C2 9832   4.491   0.637  12.248 -0.2013 -0.0254 -0.0874
  661TMC3    C3 9833   4.392   0.645  12.155 -0.1510 -0.0935  0.2757
  661TMC3    C4 9834   4.322   0.665  12.419  1.0360  0.0738 -0.1014
  661TMC3    C5 9835   4.229   0.666  12.319  0.1609  0.0513  0.4597
  661TMC3    C6 9836   4.260   0.651  12.186 -0.0706 -0.6917 -0.1210
  661TMC3     C 9837   4.546   0.599  12.479  0.5502  0.2096 -0.2385
  661TMC3     O 9838   4.667   0.614  12.461  0.0215 -0.6068 -0.4205
  661TMC3     H 9839   4.596   0.621  12.229 -0.2358 -0.3149 -0.0440
  661TMC3    H1 9840   4.296   0.685  12.522 -0.4963 -0.6156 -0.3564
  661TMC3    H2 9841   4.184   0.666  12.110 -1.2603 -1.0777  0.9789
  661TMC3    C7 9842   4.084   0.675  12.355 -0.4282  0.1344 -0.5878
  661TMC3    C8 9843   4.432   0.649  12.012  0.3849  0.7690  1.0467
  661TMC3    O1 9844   4.063   0.719  12.469  0.4417 -0.1665 -0.2411
  661TMC3    O2 9845   4.347   0.683  11.933  0.5737 -0.5551 -0.3124
  662MPD2     C 9846   4.708   0.701  16.981 -0.2373 -0.8029  0.0363
  662MPD2    C1 9847   4.713   0.621  17.100 -0.3630  0.3958  0.4102
  662MPD2    C2 9848   4.666   0.674  17.213  0.0629 -0.6489  0.3545
  662MPD2    C3 9849   4.610   0.798  17.223  0.3576 -0.0503  0.5250
  662MPD2    C4 9850   4.606   0.874  17.104 -0.0193  0.6150  0.0508
  662MPD2    C5 9851   4.658   0.824  16.987 -0.7247  0.6508  0.2809
  662MPD2     H 9852   4.657   0.606  17.296 -2.3996  0.0156  0.6520
  662MPD2    H1 9853   4.556   0.970  17.098  3.3613  2.3260 -1.3421
  662MPD2    H2 9854   0.000   0.671  16.881 -0.6048  0.6670 -0.5192
  662MPD2    H3 9855   4.661   0.888  16.899 -1.6147  0.0378 -0.1852
  662MPD2     N 9856   4.546   0.833  17.341  0.1454 -0.1201  0.4239
  662MPD2    H5 9857   4.562   0.772  17.420 -0.6168  0.5181  1.0752
  662MPD2    N1 9858   0.027   0.490  17.108 -0.4205 -0.2303 -0.6287
  662MPD2    H7 9859   0.021   0.441  17.197 -0.2539  0.1934 -0.3802
  663TMC3    C1 9860   0.088   0.281  17.043 -0.3252 -0.0947  0.8634
  663TMC3    C2 9861   0.075   0.265  17.180 -1.2937 -0.0207  0.3205
  663TMC3    C3 9862   0.024   0.151  17.235  0.9331  0.1761  0.6668
  663TMC3    C4 9863   0.032   0.188  16.960  0.0671 -0.2733  1.0502
  663TMC3    C5 9864   4.707   0.079  17.010 -0.5239  0.2517 -0.9330
  663TMC3    C6 9865   4.703   0.062  17.144  0.5841 -0.5719 -1.0494
  663TMC3     C 9866   0.074   0.416  17.000 -0.5969 -0.8390  0.1736
  663TMC3     O 9867   0.073   0.440  16.881  0.0392 -0.0048 -0.3770
  663TMC3     H 9868   0.147   0.319  17.241 -0.3638  0.9476 -1.6394
  663TMC3    H1 9869   0.048   0.204  16.853 -1.5340  0.4563  0.9226
  663TMC3    H2 9870   4.635   4.725  17.185 -0.8506  1.2325 -0.1073
  663TMC3    C7 9871   4.652   4.722  16.915 -0.5136 -0.2938  0.2343
  663TMC3    C8 9872   4.683   0.175  17.356 -0.5853 -0.0289 -0.4577
  663TMC3    O1 9873   4.621   0.026  16.806  0.5837  0.4783 -0.3162
  663TMC3    O2 9874   4.689   0.284  17.406  0.1873 -0.2830  0.1101
  664MPD2     C 9875   2.837   3.262  17.627  0.8610 -0.5158  0.4044
  664MPD2    C1 9876   2.911   3.378  17.613  0.3756 -0.9396 -0.4493
  664MPD2    C2 9877   2.978   3.431  17.717 -0.1015 -0.5992 -0.0877
  664MPD2    C3 9878   2.958   3.373   0.097  0.2473  0.4553 -0.6858
  664MPD2    C4 9879   2.892   3.253   0.107  0.3472  1.0115 -0.9483
  664MPD2    C5 9880   2.838   3.194  17.744  0.1117 -0.7645  0.6117
  664MPD2     H 9881   3.023   3.529  17.704  0.3973 -0.5139  2.2798
  664MPD2    H1 9882   2.873   3.201   0.200  0.6020  3.7593  0.6398
  664MPD2    H2 9883   2.784   3.214  17.546  0.0320  0.3045  0.4690
  664MPD2    H3 9884   2.797   3.093  17.746 -0.2864 -0.6935 -2.6702
  664MPD2     N 9885   3.008   3.428   0.211  0.1168  0.1866  0.3753
  664MPD2    H5 9886   3.058   3.514   0.192  2.2068 -1.1364  0.0021
  664MPD2    N1 9887   2.919   3.450  17.493 -0.1953 -0.1299 -0.2828
  664MPD2    H7 9888   2.982   3.529  17.493  0.0539 -0.3151  1.1825
  665TMC3    C1 9889   3.029   3.499   0.428 -0.1010 -0.0339  0.4955
  665TMC3    C2 9890   2.953   3.524   0.530 -0.0504  0.4287  0.0085
  665TMC3    C3 9891   2.985   3.622   0.617 -0.6532 -0.4732 -0.1732
  665TMC3    C4 9892   3.143   3.563   0.401  0.0709 -0.2546  0.0073
  665TMC3    C5 9893   3.172   3.667   0.493 -0.0984 -0.0475  0.5171
  665TMC3    C6 9894   3.092   3.697   0.598  0.2817  0.5037 -0.0250
  665TMC3     C 9895   2.974   3.399   0.341  0.3389 -0.0973 -0.4115
  665TMC3     O 9896   2.887   3.323   0.385  0.3051  0.3575 -0.1597
  665TMC3     H 9897   2.852   3.485   0.521  0.3362 -1.0771  2.1585
  665TMC3    H1 9898   3.213   3.531   0.325 -2.5391  1.5794 -3.1606
  665TMC3    H2 9899   3.113   3.775   0.670 -0.9522 -1.4058  2.3680
  665TMC3    C7 9900   3.300   3.730   0.480 -0.1077 -0.0592 -0.3132
  665TMC3    C8 9901   2.879   3.658   0.704  0.7091 -0.4696  0.0930
  665TMC3    O1 9902   3.375   3.692   0.387  0.3924  0.1959 -0.0064
  665TMC3    O2 9903   2.905   3.766   0.758  0.7763  0.0160 -0.2365
  666TMC3    C1 9904   2.408   2.968  10.187 -0.1447 -0.3195  0.0796
  666TMC3    C2 9905   2.529   3.006  10.143  0.0169 -0.7198  0.4078
  666TMC3    C3 9906   2.534   3.116  10.064 -0.8291 -0.5898 -0.8218
  666TMC3    C4 9907   2.289   3.032  10.157 -0.0196  0.0654 -0.2000
  666TMC3    C5 9908   2.299   3.144  10.078  0.0809  0.3653 -0.6538
  666TMC3    C6 9909   2.420   3.190  10.035 -0.4885 -0.3987  0.1656
  666TMC3     C 9910   2.408   2.855  10.281 -0.1469 -0.5478  0.5543
  666TMC3     O 9911   2.512   2.808  10.324  0.0034  0.5711  0.0724
  666TMC3     H 9912   2.614   2.941  10.162  0.0161 -0.7927  0.1620
  666TMC3    H1 9913   2.189   3.011  10.194 -0.7591  0.0668 -2.1663
  666TMC3    H2 9914   2.431   3.288   9.992 -0.1848  0.1217  1.4397
  666TMC3    C7 9915   2.193   3.240  10.083  0.1739 -0.5604  0.2755
  666TMC3    C8 9916   2.652   3.204  10.082 -0.3697 -0.1651  0.7238
  666TMC3    O1 9917   2.129   3.260  10.186 -0.2461  0.0668 -0.0457
  666TMC3    O2 9918   2.660   3.318  10.032  0.5407 -0.5264 -0.2914
  667MPD2     C 9919   3.769   3.244  14.537  0.3751  0.2996 -0.3512
  667MPD2    C1 9920   3.774   3.221  14.674  0.4695 -0.2435  0.2900
  667MPD2    C2 9921   3.683   3.132  14.730 -0.0428 -0.0628  0.6374
  667MPD2    C3 9922   3.596   3.061  14.648  0.2134 -0.4685 -0.5496
  667MPD2    C4 9923   3.593   3.077  14.515 -0.2382  0.3595  0.0087
  667MPD2    C5 9924   3.687   3.168  14.465  0.6700 -0.4718 -0.1783
  667MPD2     H 9925   3.684   3.126  14.838 -2.1510 -1.8172  0.5626
  667MPD2    H1 9926   3.518   3.028  14.455  0.0409  1.2570 -1.0600
  667MPD2    H2 9927   3.827   3.324  14.494  1.0118 -0.3072 -0.6236
  667MPD2    H3 9928   3.690   3.180  14.357 -0.2388  2.6392  0.1569
  667MPD2     N 9929   3.498   2.971  14.699  0.3416 -0.2940  0.5349
  667MPD2    H5 9930   3.436   2.926  14.632  0.8023  0.0352 -0.1043
  667MPD2    N1 9931   3.843   3.307  14.756  0.0268 -0.0281 -0.4743
  667MPD2    H7 9932   3.806   3.310  14.850 -1.5673  0.1348 -1.1015
  668TMC3    C1 9933   3.952   3.500  14.831  0.3295 -0.3538  0.3322
  668TMC3    C2 9934   4.011   3.623  14.812  0.0943 -0.4075 -0.8745
  668TMC3    C3 9935   4.050   3.696  14.919 -0.2974 -0.1493  0.5155
  668TMC3    C4 9936   3.932   3.453  14.961  0.6112 -0.8832  1.5052
  668TMC3    C5 9937   3.976   3.529  15.061  0.0106 -0.0103 -0.0774
  668TMC3    C6 9938   4.037   3.647  15.049  0.1904 -0.2837  0.7118
  668TMC3     C 9939   3.920   3.415  14.719  0.4017  0.2112 -0.0145
  668TMC3     O 9940   3.967   3.440  14.609  0.6398  0.3600 -0.1742
  668TMC3     H 9941   4.030   3.662  14.712 -2.3120  1.8026 -0.4659
  668TMC3    H1 9942   3.885   3.358  14.981 -3.5794  0.6544 -1.0523
  668TMC3    H2 9943   4.066   3.701  15.138 -1.5938 -0.8776  1.6501
  668TMC3    C7 9944   3.955   3.492  15.202 -0.1160  0.0972 -0.2422
  668TMC3    C8 9945   4.140   3.808  14.918  0.4340 -0.1605  0.3622
  668TMC3    O1 9946   4.045   3.526  15.283 -0.1109 -0.0114  0.3139
  668TMC3    O2 9947   4.191   3.833  15.025  0.2500  0.4688  0.0975
  669TMC3    C1 9948   1.932   2.897  14.743 -0.1200  0.1267  0.7979
  669TMC3    C2 9949   1.811   2.941  14.691 -0.0306  0.0664 -1.0355
  669TMC3    C3 9950   1.812   3.042  14.597  1.0934  0.2848  0.1334
  669TMC3    C4 9951   2.052   2.953  14.716 -0.7665  0.2362 -0.2029
  669TMC3    C5 9952   2.045   3.056  14.628 -0.1457 -0.5469 -0.6486
  669TMC3    C6 9953   1.934   3.097  14.564  0.6625 -0.3316  0.3448
  669TMC3     C 9954   1.923   2.826  14.864 -0.2160  0.8367  0.4013
  669TMC3     O 9955   1.811   2.780  14.885  0.4150  0.1054  0.1662
  669TMC3     H 9956   1.721   2.890  14.722  0.6345  0.7429  2.0213
  669TMC3    H1 9957   2.146   2.943  14.770 -1.7901  1.7114  1.8261
  669TMC3    H2 9958   1.933   3.194  14.516 -0.2900  0.0788  1.2083
  669TMC3    C7 9959   2.159   3.137  14.608 -0.1453 -0.4304 -0.1030
  669TMC3    C8 9960   1.705   3.042  14.496  0.8565 -0.5005  0.8497
  669TMC3    O1 9961   2.150   3.257  14.603 -0.2734 -0.6128  0.0781
  669TMC3    O2 9962   1.604   2.980  14.523  0.6036  0.2695  0.6251
  670MPD2     C 9963   4.705   1.008  13.123 -0.1567  0.2712 -0.1222
  670MPD2    C1 9964   0.050   1.078  13.202 -0.5189  0.0431 -0.1180
  670MPD2    C2 9965   0.069   1.043  13.333  0.4254  0.1317  0.2497
  670MPD2    C3 9966   4.731   0.940  13.392 -0.0600 -0.2321  0.8794
  670MPD2    C4 9967   4.643   0.875  13.309  0.6501 -0.0676  0.1544
  670MPD2    C5 9968   4.624   0.910  13.176  0.1625 -0.7568  0.2712
  670MPD2     H 9969   0.150   1.091  13.386 -1.3754  3.1710  0.2202
  670MPD2    H1 9970   4.594   0.784  13.342  0.1689  0.6529  1.4277
  670MPD2    H2 9971   4.681   1.030  13.020 -0.7262  2.1462  0.4131
  670MPD2    H3 9972   4.559   0.857  13.108 -1.3304 -0.2836  1.3391
  670MPD2     N 9973   0.011   0.917  13.532  0.2119  0.0291 -0.4308
  670MPD2    H5 9974   0.085   0.963  13.582 -0.6993  0.0313  0.9093
  670MPD2    N1 9975   0.134   1.171  13.139 -0.9876 -0.0356 -0.1295
  670MPD2    H7 9976   0.212   1.200  13.196 -1.6261  0.9230  0.2600
  671TMC3    C1 9977   4.707   0.829  13.742 -0.1350  0.2595 -0.0567
  671TMC3    C2 9978   0.093   0.834  13.796 -0.6948 -0.1247 -0.8351
  671TMC3    C3 9979   0.118   0.755  13.899  0.6424  0.8522  0.1207
  671TMC3    C4 9980   4.606   0.767  13.810  0.4729 -0.1568 -0.2561
  671TMC3    C5 9981   4.630   0.717  13.931  0.2364 -0.0108  0.3183
  671TMC3    C6 9982   0.018   0.700  13.974 -0.7589  0.1845  1.1604
  671TMC3     C 9983   4.672   0.830  13.601 -0.2544  0.5909  0.2820
  671TMC3     O 9984   4.585   0.762  13.562  0.3380 -0.3816 -0.4983
  671TMC3     H 9985   0.172   0.861  13.726  0.1738  0.0659  0.2180
  671TMC3    H1 9986   4.508   0.742  13.770  1.3018  0.0210 -2.4180
  671TMC3    H2 9987   0.047   0.650  14.066 -0.1836  1.1776  1.5102
  671TMC3    C7 9988   4.528   0.631  13.990 -0.0907  0.2547  0.5790
  671TMC3    C8 9989   0.251   0.700  13.935  0.3604 -0.1862 -0.1151
  671TMC3    O1 9990   4.567   0.526  14.041 -0.4586 -0.6311  0.3184
  671TMC3    O2 9991   0.249   0.590  13.993  0.3367 -0.7706  0.3928
  672MPD2     C 9992   0.550   1.886   0.815  0.0491 -0.4111 -0.3639
  672MPD2    C1 9993   0.601   1.823   0.703 -0.0585  0.6331 -0.1542
  672MPD2    C2 9994   0.717   1.869   0.643  0.3950 -0.0136  0.4714
  672MPD2    C3 9995   0.772   1.989   0.689  0.2614  0.5573  0.0184
  672MPD2    C4 9996   0.706   2.061   0.788  0.0540 -0.3009  0.0910
  672MPD2    C5 9997   0.602   2.007   0.852 -0.9147 -0.3292 -0.2367
  672MPD2     H 9998   0.774   1.814   0.570  0.1132  0.6527 -0.2475
  672MPD2    H1 9999   0.737   2.158   0.824  0.0232 -0.3681  0.3016
  672MPD2    H210000   0.457   1.852   0.859 -0.5119  0.0805 -1.1519
  672MPD2    H310001   0.559   2.058   0.937  2.3638  3.1983 -0.7463
  672MPD2     N10002   0.894   2.036   0.629  0.4399 -0.5988  0.3391
  672MPD2    H510003   0.921   2.130   0.656 -2.1381  0.0445  0.6546
  672MPD2    N110004   0.545   1.706   0.647 -0.3707  1.3678  0.1718
  672MPD2    H710005   0.586   1.665   0.564 -0.3976  2.6355 -0.4732
  673TMC3    C110006   0.379   1.574   0.569 -0.0491 -0.5934 -0.3617
  673TMC3    C210007   0.451   1.467   0.514 -0.1521  0.1037  0.3325
  673TMC3    C310008   0.388   1.394   0.413 -0.1988  0.7310 -0.3331
  673TMC3    C410009   0.251   1.603   0.530 -0.4780  0.4900 -1.0628
  673TMC3    C510010   0.204   1.538   0.416 -0.1762  0.9233  0.7374
  673TMC3    C610011   0.266   1.428   0.360  0.0253  0.4277 -0.5247
  673TMC3     C10012   0.423   1.650   0.686 -0.1577 -0.4885 -0.6653
  673TMC3     O10013   0.337   1.681   0.768  1.2300  0.2294 -0.2260
  673TMC3     H10014   0.551   1.441   0.546  0.0278 -2.2175 -2.0837
  673TMC3    H110015   0.192   1.678   0.581 -0.4558 -0.4870  0.3886
  673TMC3    H210016   0.225   1.368   0.279  3.0390 -1.2619 -0.7737
  673TMC3    C710017   0.105   1.606   0.337  0.0235  0.1108 -0.3899
  673TMC3    C810018   0.454   1.279   0.358 -0.4362 -0.0589  0.3945
  673TMC3    O110019   0.052   1.547   0.244  0.1608 -0.1824 -0.6618
  673TMC3    O210020   0.382   1.190   0.306  0.4283  0.1583  0.1978
  674MPD2     C10021   0.002   1.886  17.556  0.0854  0.2540 -0.1443
  674MPD2    C110022   4.670   1.765  17.591 -0.5540  0.5077  0.8226
  674MPD2    C210023   4.531   1.770  17.592 -0.3575  0.2040  0.2638
  674MPD2    C310024   4.465   1.892  17.587  0.1665 -0.2763 -0.5698
  674MPD2    C410025   4.540   2.005  17.551 -0.1402 -0.0543 -0.2797
  674MPD2    C510026   4.678   2.007  17.536 -0.4387  0.0209 -0.2133
  674MPD2     H10027   4.477   1.683  17.628 -2.3827  1.0541 -0.6958
  674MPD2    H110028   4.499   2.105  17.546  1.2481  0.6170  2.2903
  674MPD2    H210029   0.110   1.892  17.546  0.0192 -0.2642 -1.1905
  674MPD2    H310030   0.001   2.091  17.503 -1.2710  1.0279  0.8280
  674MPD2     N10031   4.335   1.882  17.624  0.3529  0.5995 -0.3569
  674MPD2    H510032   4.292   1.790  17.623 -0.3271  0.9088  0.2789
  674MPD2    N110033   0.013   1.656  17.618  0.0756  0.5921 -0.3104
  674MPD2    H710034   0.109   1.675  17.645  0.7081 -0.8628 -1.5729
  675TMC3    C110035   0.079   1.435  17.648 -0.5035  0.2452  0.1648
  675TMC3    C210036   0.050   1.302  17.659 -0.3418  0.1460  0.1013
  675TMC3    C310037   0.155   1.222  17.667 -1.3003 -0.1233  0.3645
  675TMC3    C410038   0.207   1.480  17.677 -0.3236 -0.3732  0.0419
  675TMC3    C510039   0.308   1.389  17.708  0.0460 -0.0991 -0.3760
  675TMC3    C610040   0.288   1.256  17.686  0.2595 -0.4060 -0.8603
  675TMC3     C10041   4.711   1.528  17.618 -0.4437 -1.0634 -0.6131
  675TMC3     O10042   4.603   1.487  17.578  0.5053  0.2372  0.3296
  675TMC3     H10043   4.699   1.273  17.605  0.5476 -0.3746 -1.0959
  675TMC3    H110044   0.243   1.581  17.663  1.4943 -1.1475 -0.9143
  675TMC3    H210045   0.367   1.182  17.679  0.7487  0.3173 -3.0584
  675TMC3    C710046   0.438   1.430   0.002 -0.0115  0.5518 -0.1743
  675TMC3    C810047   0.137   1.082  17.621 -0.3028 -0.7065  0.3370
  675TMC3    O110048   0.527   1.346  17.735 -0.5562 -0.6258  0.2849
  675TMC3    O210049   0.226   1.041  17.543 -0.5012 -0.0188 -0.6054
  676MPD2     C10050   3.385   4.132  11.383  0.0314  0.8571 -0.3156
  676MPD2    C110051   3.264   4.083  11.426 -0.2533  0.2367  0.5587
  676MPD2    C210052   3.182   3.998  11.352 -1.2007 -0.3577  0.2125
  676MPD2    C310053   3.224   3.974  11.219  0.2755  0.3323  0.4352
  676MPD2    C410054   3.346   4.010  11.178 -0.1330 -0.3776  0.2026
  676MPD2    C510055   3.430   4.082  11.255  0.4698 -0.0133 -0.1160
  676MPD2     H10056   3.088   3.958  11.389 -0.0753 -3.1229  0.1425
  676MPD2    H110057   3.386   3.963  11.089 -0.3275  1.4962 -0.8647
  676MPD2    H210058   3.441   4.202  11.443  2.0568  0.8923 -2.2550
  676MPD2    H310059   3.530   4.108  11.224 -0.3456  2.2122 -0.8646
  676MPD2     N10060   3.148   3.898  11.124  0.4354  0.0840 -0.1253
  676MPD2    H510061   3.192   3.897  11.032  2.5419  0.2340  0.8875
  676MPD2    N110062   3.210   4.132  11.546 -0.1182 -0.0060 -0.0147
  676MPD2    H710063   3.122   4.089  11.572 -0.8925  2.2193  1.0827
  677TMC3    C110064   3.180   4.267  11.740 -0.1261  0.1351 -0.6793
  677TMC3    C210065   3.127   4.162  11.815 -0.5834 -0.2627  0.4189
  677TMC3    C310066   3.106   4.182  11.950  0.1438 -0.5251  0.1995
  677TMC3    C410067   3.212   4.385  11.803 -0.0597  0.2069 -0.2811
  677TMC3    C510068   3.192   4.396  11.936 -0.0823 -0.9860  0.2774
  677TMC3    C610069   3.146   4.295  12.013 -0.0649  0.8532 -0.0809
  677TMC3     C10070   3.249   4.248  11.613  0.1447 -0.4829  0.2442
  677TMC3     O10071   3.331   4.333  11.584 -0.3243  0.5940 -0.2869
  677TMC3     H10072   3.128   4.063  11.770  0.7572 -0.2390  0.3727
  677TMC3    H110073   3.252   4.473  11.754  2.1817  0.2135  1.5518
  677TMC3    H210074   3.116   4.307  12.116 -0.3016  0.9161 -0.1575
  677TMC3    C710075   3.210   4.522  12.002  0.7505  0.2264  0.6430
  677TMC3    C810076   3.058   4.074  12.033 -0.3097 -1.1120 -0.0660
  677TMC3    O110077   3.197   4.535  12.123 -0.4968 -0.3304 -0.3005
  677TMC3    O210078   3.071   4.075  12.156 -0.3858  0.4503  0.3469
  678MPD2     C10079   0.326   4.219   1.058 -0.0268  0.1815  0.1337
  678MPD2    C110080   0.250   4.119   0.999 -0.2392 -0.4725  0.5857
  678MPD2    C210081   0.112   4.128   1.003  0.1223  0.0006 -0.2201
  678MPD2    C310082   0.043   4.219   1.074 -0.5894  0.2011 -0.1733
  678MPD2    C410083   0.120   4.309   1.141 -0.1320  0.6170 -1.1831
  678MPD2    C510084   0.256   4.314   1.127  0.2360  0.6929 -0.1529
  678MPD2     H10085   0.053   4.058   0.945  2.2623 -2.2490  0.3353
  678MPD2    H110086   0.080   4.385   1.207 -3.5472 -0.2813 -2.1952
  678MPD2    H210087   0.434   4.229   1.057  0.0189 -0.2996  0.0869
  678MPD2    H310088   0.302   4.391   1.187  1.7872  0.2294 -0.7546
  678MPD2     N10089   4.640   4.227   1.069  0.2880 -0.7883 -0.7490
  678MPD2    H510090   4.594   4.179   0.992 -0.1091 -1.3045 -0.1956
  678MPD2    N110091   0.307   4.019   0.913  0.5616 -0.4984 -0.3952
  678MPD2    H710092   0.238   3.954   0.875 -1.7926  1.3155  0.8233
  679TMC3    C110093   0.550   3.774   0.603 -0.3791 -0.2597  0.6447
  679TMC3    C210094   0.560   3.857   0.714 -0.2673 -0.2424 -0.3249
  679TMC3    C310095   0.443   3.927   0.751  0.5052  0.6721  0.4618
  679TMC3    C410096   0.440   3.768   0.521  1.0378  0.1898 -0.3882
  679TMC3    C510097   0.334   3.852   0.550 -0.2934 -0.0488  0.4811
  679TMC3    C610098   0.332   3.926   0.665 -0.3478 -0.4196 -0.0380
  679TMC3     C10099   0.643   3.668   0.596  0.4278  0.0857  0.4085
  679TMC3     O10100   0.590   3.562   0.569  0.0054 -0.3184  0.3425
  679TMC3     H10101   0.640   3.854   0.787  2.0432 -0.7990 -2.8961
  679TMC3    H110102   0.442   3.695   0.441  0.7756 -1.2068  0.8728
  679TMC3    H210103   0.243   3.983   0.689  0.2419 -0.2200  1.6343
  679TMC3    C710104   0.209   3.847   0.465 -0.2737  0.2182 -0.1108
  679TMC3    C810105   0.434   4.011   0.865  0.0324 -0.2073 -0.1725
  679TMC3    O110106   0.110   3.910   0.506  0.3459 -0.1061  0.1587
  679TMC3    O210107   0.531   4.061   0.917 -0.3396 -0.1638 -0.5000
  680MPD2     C10108   4.303   2.823  13.165 -0.0260 -0.7299 -0.6115
  680MPD2    C110109   4.408   2.782  13.251  0.1150 -0.6405 -0.1433
  680MPD2    C210110   4.472   2.880  13.326  0.3446  0.0860 -0.4863
  680MPD2    C310111   4.441   3.009  13.322  0.5382  0.4312  0.3102
  680MPD2    C410112   4.334   3.041  13.240  0.0337  0.3714  0.0618
  680MPD2    C510113   4.268   2.956  13.153 -0.1670 -0.1677 -0.4614
  680MPD2     H10114   4.552   2.854  13.394 -0.6749  2.1167  1.5077
  680MPD2    H110115   4.306   3.145  13.236 -0.3941  0.2303 -0.4867
  680MPD2    H210116   4.243   2.756  13.105 -1.1147 -2.0041  1.8905
  680MPD2    H310117   4.182   2.978  13.090  0.5477 -0.4915 -1.5549
  680MPD2     N10118   4.484   3.109  13.412  0.0910  0.0825  0.3134
  680MPD2    H510119   4.464   3.205  13.385  3.3574  1.2025  1.8677
  680MPD2    N110120   4.461   2.651  13.244 -0.0903  0.2463  0.4296
  680MPD2    H710121   4.531   2.624  13.313 -1.1737 -1.2754  0.9386
  681TMC3    C110122   4.481   2.427  13.172  1.3256  0.5756 -0.0835
  681TMC3    C210123   4.417   2.336  13.249 -0.3711 -0.7153 -0.0539
  681TMC3    C310124   4.491   2.273  13.345  0.8488 -0.4530  0.1658
  681TMC3    C410125   4.617   2.432  13.159 -0.2263  0.5830  0.0440
  681TMC3    C510126   4.687   2.364  13.258  0.4674  1.3906  0.6511
  681TMC3    C610127   4.624   2.283  13.350 -0.7262 -0.8507 -0.2412
  681TMC3     C10128   4.416   2.558  13.154 -0.1228 -0.1798  0.0478
  681TMC3     O10129   4.345   2.567  13.059  0.1495  0.3063 -0.5439
  681TMC3     H10130   4.311   2.349  13.268 -0.5973 -0.4571 -1.4721
  681TMC3    H110131   4.668   2.502  13.094  1.2769 -1.1070 -0.5795
  681TMC3    H210132   4.685   2.234  13.425 -0.5952  2.0040  1.5488
  681TMC3    C710133   0.078   2.403  13.300 -0.5167  0.1056  0.1356
  681TMC3    C810134   4.413   2.253  13.469 -0.5057  0.8574  0.0653
  681TMC3    O110135   0.122   2.342  13.392  0.5069  0.8739 -0.0631
  681TMC3    O210136   4.302   2.203  13.457 -0.2954 -0.1903 -0.0414
  682MPD2     C10137   1.993   4.338  10.524 -0.1606  1.1923 -0.0086
  682MPD2    C110138   1.956   4.221  10.596  0.0674  0.1220  0.3669
  682MPD2    C210139   1.972   4.219  10.738  0.1285 -0.0922 -0.2702
  682MPD2    C310140   2.031   4.325  10.807 -0.3052  0.2581 -0.1488
  682MPD2    C410141   2.063   4.437  10.736 -0.7814 -0.1261 -0.0221
  682MPD2    C510142   2.038   4.445  10.603  0.2139  0.6402 -0.8540
  682MPD2     H10143   1.940   4.127  10.784  0.2728 -0.4772 -0.9415
  682MPD2    H110144   2.104   4.523  10.787 -0.6136  1.4640 -2.8573
  682MPD2    H210145   1.970   4.345  10.418 -1.2437  3.1032  0.3604
  682MPD2    H310146   2.070   4.538  10.557 -1.4054  1.9012  0.5732
  682MPD2     N10147   2.062   4.330  10.943  0.6297 -0.0872 -0.0209
  682MPD2    H510148   2.083   4.423  10.979  0.0985  1.1275 -2.8494
  682MPD2    N110149   1.912   4.103  10.537  0.3605  0.7988 -1.0005
  682MPD2    H710150   1.885   4.032  10.604  1.4483  0.9199 -0.4417
  683TMC3    C110151   2.078   4.449  11.320 -0.0443  0.3727  0.0530
  683TMC3    C210152   1.986   4.392  11.395 -0.8895  0.3777 -0.9066
  683TMC3    C310153   1.932   4.273  11.361  0.2106  0.6802 -0.0502
  683TMC3    C410154   2.112   4.394  11.200 -0.3173  0.5157  0.4073
  683TMC3    C510155   2.055   4.277  11.166  0.8489 -0.2783  0.1420
  683TMC3    C610156   1.974   4.203  11.252  0.1426  0.5422 -1.1247
  683TMC3     C10157   2.171   4.532  11.384  0.7474  0.1208  0.2736
  683TMC3     O10158   2.127   4.633  11.438 -0.8173 -0.2056 -0.4170
  683TMC3     H10159   1.951   4.447  11.482 -2.5293 -1.3805 -0.4736
  683TMC3    H110160   2.182   4.458  11.148 -1.2753  0.6922 -0.6535
  683TMC3    H210161   1.933   4.111  11.212  1.0441 -0.9541  1.4016
  683TMC3    C710162   2.051   4.229  11.031  0.0462 -0.2357 -0.1383
  683TMC3    C810163   1.874   4.206  11.476 -0.7162  0.0875 -0.0634
  683TMC3    O110164   2.014   4.114  11.016 -0.7840 -0.2905 -0.1937
  683TMC3    O210165   1.875   4.273  11.578 -0.0154 -0.0035 -0.2669
  684MPD2     C10166   0.743   3.837  16.603 -0.3991  0.4607  0.2085
  684MPD2    C110167   0.663   3.813  16.503 -0.1907 -0.2452  0.6542
  684MPD2    C210168   0.530   3.849  16.513  0.2274 -0.4741  0.5559
  684MPD2    C310169   0.478   3.919  16.621 -0.4321  0.0440 -0.1780
  684MPD2    C410170   0.561   3.949  16.727  0.0451  0.0289  0.3176
  684MPD2    C510171   0.694   3.909  16.713 -0.4845 -0.2641 -0.0715
  684MPD2     H10172   0.473   3.823  16.424  0.1988 -1.3348  0.8266
  684MPD2    H110173   0.532   4.007  16.813  0.7000 -2.0684  1.9639
  684MPD2    H210174   0.845   3.802  16.595  0.3043  2.5383  0.0659
  684MPD2    H310175   0.749   3.930  16.804 -0.4619 -2.0480  0.3199
  684MPD2     N10176   0.353   3.983  16.607 -0.4141 -0.2977  0.5850
  684MPD2    H510177   0.330   4.050  16.679  1.2403  0.7786  0.1190
  684MPD2    N110178   0.729   3.753  16.394 -0.7834 -0.9507  0.3509
  684MPD2    H710179   0.828   3.731  16.398 -0.4239  0.7358  0.6581
  685TMC3    C110180   0.763   3.672  16.176  0.3610  0.2857 -0.6421
  685TMC3    C210181   0.711   3.597  16.074 -0.0940  0.3680 -0.0958
  685TMC3    C310182   0.777   3.601  15.951 -0.4137 -0.2733  0.8286
  685TMC3    C410183   0.890   3.719  16.174  0.3495 -0.1220  0.3697
  685TMC3    C510184   0.953   3.712  16.056  0.2869  0.6110 -0.7569
  685TMC3    C610185   0.898   3.661  15.937  0.4867  0.5793  0.1569
  685TMC3     C10186   0.675   3.734  16.273 -0.6716  0.2996 -0.2161
  685TMC3     O10187   0.561   3.748  16.230  0.3263  0.3218  0.0718
  685TMC3     H10188   0.625   3.533  16.087 -0.1233 -0.1379 -2.7394
  685TMC3    H110189   0.927   3.796  16.240  0.8363 -2.1319  2.4142
  685TMC3    H210190   0.959   3.654  15.848  1.4405  1.5830  0.7228
  685TMC3    C710191   1.096   3.746  16.044 -0.1015  0.0412  0.1168
  685TMC3    C810192   0.693   3.581  15.830 -0.4635 -0.1002 -0.0656
  685TMC3    O110193   1.147   3.744  15.937  0.0939  0.0781  0.3090
  685TMC3    O210194   0.744   3.557  15.722 -0.2970  0.6584  0.0420
  686MPD2     C10195   1.485   3.679  15.037  0.1099  0.2851 -0.2455
  686MPD2    C110196   1.555   3.603  15.130 -0.2849 -0.4443  0.1370
  686MPD2    C210197   1.624   3.490  15.088 -0.0549  0.3491 -0.3747
  686MPD2    C310198   1.606   3.455  14.952  0.5582  0.2532 -0.0639
  686MPD2    C410199   1.548   3.543  14.857  1.6507  0.2023  0.4891
  686MPD2    C510200   1.488   3.657  14.902 -0.4019  0.5033  0.3873
  686MPD2     H10201   1.691   3.431  15.150  0.1728 -1.0318 -1.9396
  686MPD2    H110202   1.537   3.513  14.753  0.5089 -0.1278  0.7062
  686MPD2    H210203   1.417   3.756  15.070 -1.6930 -1.5079  0.2417
  686MPD2    H310204   1.436   3.726  14.837 -1.8627 -1.0818 -0.1259
  686MPD2     N10205   1.655   3.335  14.890  0.3456  0.3655 -0.2339
  686MPD2    H510206   1.664   3.349  14.790  1.0142 -0.4227 -0.2889
  686MPD2    N110207   1.542   3.642  15.266  0.4282 -0.3036  0.0064
  686MPD2    H710208   1.482   3.724  15.277  0.1288 -0.6631  1.0657
  687TMC3    C110209   1.635   3.182  15.084 -0.4544 -0.7027 -0.5180
  687TMC3    C210210   1.512   3.235  15.117  0.1252  0.3161  0.1140
  687TMC3    C310211   1.454   3.222  15.241  0.6866 -1.2216 -0.5850
  687TMC3    C410212   1.703   3.125  15.184  0.3457 -0.0984  0.2614
  687TMC3    C510213   1.649   3.127  15.312  0.2992  0.2561  0.2202
  687TMC3    C610214   1.525   3.174  15.347  0.0328 -0.2408 -0.2336
  687TMC3     C10215   1.693   3.215  14.958  0.5707  0.2031 -0.1145
  687TMC3     O10216   1.749   3.119  14.911 -0.0847 -0.4125 -0.0675
  687TMC3     H10217   1.460   3.277  15.031 -1.2761  0.3019  0.9437
  687TMC3    H110218   1.803   3.088  15.164  0.9107  2.3311 -1.2655
  687TMC3    H210219   1.499   3.203  15.448  1.1683  0.4234 -0.1260
  687TMC3    C710220   1.739   3.113  15.424  0.0117 -0.0783 -0.4868
  687TMC3    C810221   1.338   3.306  15.262 -0.0643  0.4439  0.2090
  687TMC3    O110222   1.698   3.155  15.533  0.8410  0.2611  0.4772
  687TMC3    O210223   1.317   3.386  15.171 -0.0215 -0.1047  0.4250
  688MPD2     C10224   0.758   2.756  17.276 -0.6340  0.1607  0.0819
  688MPD2    C110225   0.759   2.622  17.287  0.5156  0.1878 -0.0103
  688MPD2    C210226   0.856   2.549  17.226 -0.3289 -0.1098  0.4128
  688MPD2    C310227   0.952   2.609  17.144  0.0643 -0.8539 -0.1496
  688MPD2    C410228   0.941   2.745  17.128  0.1082 -0.0091  0.0017
  688MPD2    C510229   0.840   2.819  17.189 -0.7853 -0.4335  0.3937
  688MPD2     H10230   0.844   2.442  17.238 -0.1753 -0.0868  0.7817
  688MPD2    H110231   1.000   2.802  17.058  0.1966 -0.0589  0.0362
  688MPD2    H210232   0.689   2.822  17.328 -0.6505 -0.0772  0.3640
  688MPD2    H310233   0.835   2.924  17.165 -1.4283 -0.3749  0.7880
  688MPD2     N10234   1.052   2.547  17.065 -0.8017 -0.0623  0.1127
  688MPD2    H510235   1.085   2.597  16.983 -0.1936 -0.1900  0.2821
  688MPD2    N110236   0.660   2.556  17.365  0.1564  0.0180  0.3360
  688MPD2    H710237   0.673   2.455  17.366  1.8532  0.1707 -4.2296
  689TMC3    C110238   0.495   2.519  17.528  0.3096 -0.3256 -0.0666
  689TMC3    C210239   0.458   2.584  17.643  0.0116 -0.3167  0.0846
  689TMC3    C310240   0.430   2.503   0.006 -0.4799  0.3386  0.8430
  689TMC3    C410241   0.496   2.385  17.510  0.0381  0.6563 -1.0445
  689TMC3    C510242   0.477   2.311  17.625 -0.7789 -0.0439 -0.0818
  689TMC3    C610243   0.447   2.368  17.749  1.0825 -0.4235  0.7694
  689TMC3     C10244   0.555   2.614  17.429 -0.2085 -0.3580 -0.3524
  689TMC3     O10245   0.502   2.723  17.412  0.4697 -0.3696 -0.3244
  689TMC3     H10246   0.476   2.690  17.657 -0.4051  0.0004 -1.7246
  689TMC3    H110247   0.523   2.338  17.416  4.4949  1.4955 -0.2219
  689TMC3    H210248   0.455   2.312   0.091  0.4306  2.1642  2.4068
  689TMC3    C710249   0.510   2.172  17.624 -0.4528 -0.4267 -0.7435
  689TMC3    C810250   0.457   2.561   0.139  0.0886 -0.6996 -0.4955
  689TMC3    O110251   0.558   2.131  17.726 -0.1763  0.6486 -0.0915
  689TMC3    O210252   0.523   2.665   0.136 -0.3585 -0.2825  0.1309
  690MPD2     C10253   2.889   4.399  15.839  0.3252 -0.2945 -0.1360
  690MPD2    C110254   2.859   4.306  15.745  0.1544 -0.1146  0.1047
  690MPD2    C210255   2.951   4.284  15.645  0.8419 -0.2659  0.2754
  690MPD2    C310256   3.066   4.356  15.633 -0.4246  0.0156  0.2578
  690MPD2    C410257   3.100   4.443  15.733  0.4060 -0.6502 -0.2057
  690MPD2    C510258   3.006   4.468  15.833  0.4873 -0.1122 -0.2933
  690MPD2     H10259   2.937   4.209  15.568 -0.2938 -0.3449  0.5581
  690MPD2    H110260   3.196   4.492  15.731 -0.2797  0.6256 -2.4717
  690MPD2    H210261   2.832   4.428  15.927 -0.7424 -0.7257 -0.6825
  690MPD2    H310262   3.026   4.550  15.900 -0.4961 -1.8350  2.0969
  690MPD2     N10263   3.153   4.318  15.534  0.1748 -0.0641  0.7654
  690MPD2    H510264   3.128   4.243  15.470  1.3716  3.0889 -3.4209
  690MPD2    N110265   2.743   4.217  15.741 -0.2258 -0.0002  0.3579
  690MPD2    H710266   2.745   4.144  15.671  1.1036 -0.9761  1.4429
  691TMC3    C110267   2.569   4.084  15.820  0.0723 -0.0744 -0.7891
  691TMC3    C210268   2.434   4.088  15.832 -0.3847 -0.1153  0.1196
  691TMC3    C310269   2.365   3.973  15.813  0.4947 -0.4715 -0.3105
  691TMC3    C410270   2.634   3.965  15.805  0.2336  0.4594 -0.8253
  691TMC3    C510271   2.563   3.855  15.790 -0.6589  0.1452 -0.4463
  691TMC3    C610272   2.428   3.854  15.789  0.0571  0.0786 -0.0169
  691TMC3     C10273   2.636   4.208  15.830  0.5170 -0.8286 -0.8143
  691TMC3     O10274   2.596   4.284  15.912 -0.4398  0.1644  0.0959
  691TMC3     H10275   2.381   4.179  15.856  0.8388  0.7522 -0.4413
  691TMC3    H110276   2.742   3.959  15.804  0.2137  0.2318 -1.3608
  691TMC3    H210277   2.368   3.766  15.768 -1.0034  0.4729  1.3407
  691TMC3    C710278   2.644   3.735  15.789  0.2064  0.4501  0.3421
  691TMC3    C810279   2.220   3.966  15.831  0.1192 -0.1732  0.0045
  691TMC3    O110280   2.742   3.734  15.858 -0.1107  0.1686 -0.3242
  691TMC3    O210281   2.178   3.853  15.870 -0.2039  0.1877 -0.3838
  692TMC3    C110282   4.651   0.342  15.690  0.8862  1.1159 -0.4368
  692TMC3    C210283   4.732   0.401  15.782 -0.1860 -0.0568 -0.1119
  692TMC3    C310284   0.107   0.329  15.824  0.4778 -0.1013  0.6026
  692TMC3    C410285   4.653   0.210  15.663  0.1017 -0.5768 -0.0641
  692TMC3    C510286   0.015   0.135  15.725  0.2251  0.7508 -0.3540
  692TMC3    C610287   0.109   0.192  15.811  0.0848  0.4112 -0.5051
  692TMC3     C10288   4.544   0.429  15.636  0.8170  0.2805  0.3011
  692TMC3     O10289   4.440   0.379  15.596  0.1917  0.0781 -0.1613
  692TMC3     H10290   4.730   0.504  15.815 -1.2867  0.5163 -1.9688
  692TMC3    H110291   4.579   0.168  15.597  0.3550 -2.3290  0.7689
  692TMC3    H210292   0.189   0.140  15.864 -1.2037 -0.0221  1.0176
  692TMC3    C710293   0.007   4.731  15.702  0.5799  0.0650 -0.1481
  692TMC3    C810294   0.153   0.384  15.954 -0.4067 -0.0936 -0.3115
  692TMC3    O110295   4.692   4.698  15.598  0.7952  0.1159  0.1630
  692TMC3    O210296   0.174   0.304  16.042  0.2849  0.0651  0.3030
  693MPD2     C10297   4.265   3.536  10.862  0.2881 -0.1058 -0.3562
  693MPD2    C110298   4.188   3.453  10.784  0.0286 -0.5574 -0.2731
  693MPD2    C210299   4.240   3.323  10.753 -0.2800 -0.2630 -0.0467
  693MPD2    C310300   4.356   3.275  10.809  0.4361  0.3660  0.5336
  693MPD2    C410301   4.414   3.350  10.910  0.7414 -0.1504 -0.1293
  693MPD2    C510302   4.371   3.487  10.932 -0.5210 -0.0770 -0.0663
  693MPD2     H10303   4.194   3.251  10.688  0.1349 -0.1423 -0.4745
  693MPD2    H110304   4.493   3.303  10.968  1.1082 -3.0905 -2.9804
  693MPD2    H210305   4.219   3.628  10.897  0.0645 -0.0153 -0.8818
  693MPD2    H310306   4.422   3.550  11.004  0.1228 -0.1461 -0.4590
  693MPD2     N10307   4.413   3.151  10.778 -0.0354 -0.1629 -0.2654
  693MPD2    H510308   4.469   3.118  10.856 -0.9870 -2.3015 -0.4920
  693MPD2    N110309   4.063   3.491  10.751  0.6258  0.7873 -0.3352
  693MPD2    H710310   4.026   3.577  10.789 -0.0616 -0.1350  1.0582
  694TMC3    C110311   3.845   3.455  10.734  0.2593 -0.2286 -0.0893
  694TMC3    C210312   3.754   3.411  10.633 -0.1046 -0.2720  0.6684
  694TMC3    C310313   3.642   3.344  10.675 -0.0005 -0.4126 -0.4780
  694TMC3    C410314   3.825   3.430  10.860  0.1194  0.3734  0.1001
  694TMC3    C510315   3.709   3.364  10.898 -0.4987 -0.1672  0.1833
  694TMC3    C610316   3.617   3.321  10.808  0.5930  0.0355  0.0977
  694TMC3     C10317   3.974   3.425  10.680  0.4475 -0.2221  0.1137
  694TMC3     O10318   3.980   3.329  10.602 -0.7380  0.0333 -0.7839
  694TMC3     H10319   3.782   3.411  10.529  0.0920 -3.6549  0.7041
  694TMC3    H110320   3.895   3.465  10.935  1.1098 -1.1434 -0.1249
  694TMC3    H210321   3.521   3.278  10.836  0.2034 -0.7415 -2.3764
  694TMC3    C710322   3.696   3.327  11.036 -0.4183 -0.1386 -0.1459
  694TMC3    C810323   3.560   3.268  10.580 -0.3520 -0.2507  0.2756
  694TMC3    O110324   3.758   3.391  11.122  0.3599 -0.0490  0.2327
  694TMC3    O210325   3.507   3.166  10.620  0.3645 -0.0634 -0.1988
  695MPD2     C10326   0.167   4.435  13.764 -0.7464  0.2909  0.0367
  695MPD2    C110327   0.181   4.571  13.758  0.6251 -0.1182 -0.0680
  695MPD2    C210328   0.070   4.654  13.731 -0.2594 -0.1751 -0.4146
  695MPD2    C310329   4.687   4.597  13.705  0.1551 -0.1648 -0.1664
  695MPD2    C410330   4.679   4.463  13.702  0.1619  0.4609  0.0359
  695MPD2    C510331   0.046   4.383  13.740 -0.2320  0.0674 -0.0866
  695MPD2     H10332   0.085   0.022  13.714 -0.6155 -0.2569 -1.2454
  695MPD2    H110333   4.583   4.413  13.690  0.7203 -0.7438  0.7122
  695MPD2    H210334   0.244   4.362  13.787 -0.2122  0.5190 -0.9989
  695MPD2    H310335   0.034   4.276  13.734  1.5515 -0.1863  0.9186
  695MPD2     N10336   4.569   4.678  13.691  0.6934 -0.3038  0.2216
  695MPD2    H510337   4.592   0.038  13.683  0.0197 -0.1306  0.3798
  695MPD2    N110338   0.304   4.641  13.779  0.2297 -0.2961  0.3351
  695MPD2    H710339   0.290   0.004  13.775  0.7194 -0.1724  1.7362
  696TMC3    C110340   4.332   0.004  13.721 -0.8999 -0.1117 -0.1870
  696TMC3    C210341   4.266   0.013  13.845  1.0853  0.0337  0.4177
  696TMC3    C310342   4.190   0.125  13.864  0.2452 -0.0390 -0.1311
  696TMC3    C410343   4.321   0.094  13.621  0.2731 -0.1920  0.3715
  696TMC3    C510344   4.242   0.208  13.642  0.0794  0.3936  0.3164
  696TMC3    C610345   4.166   0.214  13.760  0.2772  0.4025  0.4371
  696TMC3     C10346   4.437   4.636  13.710 -0.4600 -0.2539  0.4729
  696TMC3     O10347   4.395   4.528  13.761  0.0577 -0.4727  0.2758
  696TMC3     H10348   4.288   4.682  13.926  1.9639 -2.0533 -1.6004
  696TMC3    H110349   4.391   0.096  13.539 -2.6009  0.5217 -2.0906
  696TMC3    H210350   4.111   0.306  13.775 -2.3661 -0.6245 -3.0376
  696TMC3    C710351   4.281   0.319  13.562  0.4744 -0.0968  0.8373
  696TMC3    C810352   4.226   0.196  13.984 -0.3046 -0.0312  0.1739
  696TMC3    O110353   4.309   0.287  13.448 -0.2339 -0.5825  0.0228
  696TMC3    O210354   4.343   0.184  14.024  0.6580 -0.1162 -0.4357
  697MPD2     C10355   4.259   2.124  15.586  0.0873 -0.0663  0.2612
  697MPD2    C110356   4.253   2.104  15.453  0.1532  0.7815  0.2580
  697MPD2    C210357   4.307   2.205  15.378  0.3768 -0.2335 -0.2918
  697MPD2    C310358   4.359   2.320  15.438 -0.0259  0.3745  0.2538
  697MPD2    C410359   4.357   2.339  15.577 -0.1450 -0.2654 -0.3225
  697MPD2    C510360   4.307   2.229  15.650 -0.0869 -0.2450 -0.0230
  697MPD2     H10361   4.319   2.191  15.272  1.1473  0.0181 -0.2386
  697MPD2    H110362   4.406   2.422  15.627  1.9690 -1.4966 -0.3337
  697MPD2    H210363   4.226   2.050  15.659 -1.2726 -1.0891 -1.3796
  697MPD2    H310364   4.305   2.231  15.758 -0.7859 -0.7688 -0.0257
  697MPD2     N10365   4.422   2.417  15.350  0.5241 -0.7904  0.4110
  697MPD2    H510366   4.429   2.379  15.255  0.7611 -0.4745  0.3039
  697MPD2    N110367   4.203   1.987  15.388  0.1639  0.1810  0.1208
  697MPD2    H710368   4.200   1.985  15.287  1.0601 -3.1498  0.1576
  698TMC3    C110369   4.536   2.607  15.262  0.2022  0.2053  0.7973
  698TMC3    C210370   4.621   2.714  15.285  0.3233  0.0810  0.0157
  698TMC3    C310371   4.698   2.758  15.181 -0.4184 -0.1819  0.7138
  698TMC3    C410372   4.524   2.551  15.139 -0.0371 -0.8991  0.7941
  698TMC3    C510373   4.621   2.585  15.047 -0.4134 -0.0717 -0.1547
  698TMC3    C610374   4.701   2.692  15.063  0.0881  0.1852 -0.0045
  698TMC3     C10375   4.475   2.542  15.378 -0.2007 -0.1001 -0.5808
  698TMC3     O10376   4.478   2.605  15.481  0.5338  0.4132 -0.5822
  698TMC3     H10377   4.631   2.767  15.379  1.2172 -2.1588  1.1857
  698TMC3    H110378   4.447   2.478  15.119 -1.1346  0.5556 -0.3178
  698TMC3    H210379   0.029   2.727  14.985  0.7147 -0.8320  0.0676
  698TMC3    C710380   4.606   2.518  14.911  0.0811 -0.0665  0.0070
  698TMC3    C810381   0.060   2.862  15.214 -0.4422  0.6227  0.2311
  698TMC3    O110382   4.503   2.452  14.894  0.0971 -0.2175  0.6196
  698TMC3    O210383   0.104   2.861  15.326  0.7260  0.0095 -0.2780
  699TMC3    C110384   4.293   0.185  13.115  0.2056 -0.7777 -0.9525
  699TMC3    C210385   4.364   0.073  13.150  0.1236 -0.7434  0.3555
  699TMC3    C310386   4.300   4.730  13.241 -0.0328 -0.0870  1.5705
  699TMC3    C410387   4.167   0.213  13.161  0.7056 -0.1866 -0.7789
  699TMC3    C510388   4.112   0.133  13.257  0.1534 -0.7273 -1.0060
  699TMC3    C610389   4.178   0.019  13.291 -0.5246 -0.5976 -0.2841
  699TMC3     C10390   4.336   0.271  13.013 -0.8189 -0.1513 -0.0923
  699TMC3     O10391   4.265   0.363  12.982  0.0189  0.6961  0.3090
  699TMC3     H10392   4.449   0.032  13.096  1.3529  0.6305  1.2383
  699TMC3    H110393   4.116   0.307  13.145  0.2421  0.3524  3.6691
  699TMC3    H210394   4.119   4.689  13.351 -1.3940 -0.0558 -0.5076
  699TMC3    C710395   3.991   0.163  13.330 -0.2882 -0.5413  0.0696
  699TMC3    C810396   4.372   4.625  13.323 -0.0144 -0.0609  0.1286
  699TMC3    O110397   3.922   0.078  13.388 -0.2253 -0.4184  0.1636
  699TMC3    O210398   4.295   4.551  13.392  0.2384 -0.5918 -0.2252
  700TMC3    C110399   3.164   2.698  16.846  0.3497  0.3953 -0.0470
  700TMC3    C210400   3.204   2.575  16.847  0.6578 -0.1639 -0.0375
  700TMC3    C310401   3.206   2.496  16.956 -0.4220 -0.0587 -0.3660
  700TMC3    C410402   3.123   2.760  16.960  0.0472  0.4025  0.0792
  700TMC3    C510403   3.140   2.684  17.069 -0.7426 -0.0698 -0.8717
  700TMC3    C610404   3.179   2.554  17.079  0.2516 -0.2512  0.0045
  700TMC3     C10405   3.186   2.776  16.726  0.2529 -0.5849  0.1395
  700TMC3     O10406   3.102   2.763  16.637  0.1501  0.6125 -0.3869
  700TMC3     H10407   3.222   2.542  16.745 -0.6893  4.1963 -1.6679
  700TMC3    H110408   3.070   2.854  16.956  3.1859  2.1310 -1.3508
  700TMC3    H210409   3.185   2.502  17.174 -0.1469  1.6560  1.0842
  700TMC3    C710410   3.128   2.750  17.190 -0.0793  0.2382 -0.0245
  700TMC3    C810411   3.263   2.362  16.949  0.2157 -0.2455 -0.6022
  700TMC3    O110412   3.078   2.687  17.283  0.3018  0.8899  0.4232
  700TMC3    O210413   3.314   2.335  16.844  0.0186  0.3856 -0.3125
  701TMC3    C110414   3.484   1.469  15.247 -0.8163 -0.3469  0.0338
  701TMC3    C210415   3.470   1.487  15.116  0.0187 -0.4152  0.3164
  701TMC3    C310416   3.532   1.594  15.055 -0.1966 -0.1582  0.5266
  701TMC3    C410417   3.570   1.549  15.318  0.5835 -0.2001  0.6310
  701TMC3    C510418   3.630   1.648  15.258  0.2709  0.4612  0.3133
  701TMC3    C610419   3.612   1.684  15.127  0.3055 -0.7787 -1.1697
  701TMC3     C10420   3.364   1.447  15.324  0.1350  0.5971 -1.9312
  701TMC3     O10421   3.342   1.524  15.416 -0.2813  0.2115  0.2915
  701TMC3     H10422   3.410   1.413  15.063 -0.9199 -0.3491  1.3011
  701TMC3    H110423   3.593   1.533  15.423 -1.4767  1.4562  1.3384
  701TMC3    H210424   3.642   1.778  15.081  0.8703  0.1252  1.0533
  701TMC3    C710425   3.699   1.746  15.331 -0.0445  0.4176 -0.6384
  701TMC3    C810426   3.492   1.642  14.927  0.3140  0.5217  0.5001
  701TMC3    O110427   3.775   1.818  15.269 -0.2107 -0.4500  0.0653
  701TMC3    O210428   3.577   1.690  14.852  0.1865  0.6680 -0.1165
  702MPD2     C10429   3.051   3.907  10.418  0.0654  1.1225  0.3752
  702MPD2    C110430   3.129   3.892  10.532  0.9887  0.8570 -0.3151
  702MPD2    C210431   3.262   3.948  10.528 -0.1783  0.0175  0.3334
  702MPD2    C310432   3.310   4.011  10.419  0.0530 -0.1566 -0.0010
  702MPD2    C410433   3.227   4.029  10.311  0.0985 -0.2589  0.6804
  702MPD2    C510434   3.104   3.972  10.309 -0.1733  0.5781 -0.0656
  702MPD2     H10435   3.325   3.934  10.615 -1.0421 -1.7501  0.6876
  702MPD2    H110436   3.251   4.090  10.224  1.9600 -1.3229  0.4434
  702MPD2    H210437   2.953   3.864  10.404  0.9134  0.8315 -4.4036
  702MPD2    H310438   3.033   3.992  10.230 -1.1979 -0.2816  0.6229
  702MPD2     N10439   3.435   4.077  10.441 -0.5784 -0.3839  0.0240
  702MPD2    H510440   3.479   4.086  10.532  1.0803  1.8265 -0.9902
  702MPD2    N110441   3.084   3.834  10.656 -0.1925 -0.6215  0.2519
  702MPD2    H710442   3.149   3.846  10.733  0.6682  1.2965 -0.7745
  703TMC3    C110443   3.615   4.208  10.404  0.6887  0.0080  0.0424
  703TMC3    C210444   3.587   4.280  10.519 -0.0651 -0.4734  0.3320
  703TMC3    C310445   3.682   4.365  10.563 -0.6630  0.2123 -0.9712
  703TMC3    C410446   3.728   4.238  10.333 -0.1913  0.3624  1.1897
  703TMC3    C510447   3.822   4.331  10.384  0.0320  0.4632  0.1181
  703TMC3    C610448   3.794   4.395  10.497  0.3256  0.2533 -0.0944
  703TMC3     C10449   3.501   4.142  10.346 -0.7878  0.2902  0.2163
  703TMC3     O10450   3.490   4.137  10.222  0.0758  0.6552 -0.5200
  703TMC3     H10451   3.483   4.277  10.549 -0.5447 -3.1898 -1.6367
  703TMC3    H110452   3.756   4.183  10.244 -1.4692  3.4930 -1.1792
  703TMC3    H210453   3.869   4.456  10.547 -0.3014 -0.0933  1.2680
  703TMC3    C710454   3.930   4.400  10.307  0.6907 -0.1906 -0.1340
  703TMC3    C810455   3.647   4.444  10.681 -0.5878  0.0437  0.3363
  703TMC3    O110456   3.978   4.500  10.356 -0.3796  0.2603  0.2769
  703TMC3    O210457   3.711   4.541  10.707  0.3870 -0.1924  0.0630
  704TMC3    C110458   1.147   2.029  12.450 -0.3747  0.5445 -0.1598
  704TMC3    C210459   1.234   2.041  12.348 -0.3174 -0.0668 -0.6670
  704TMC3    C310460   1.327   1.943  12.322 -0.4915 -0.2272  0.6012
  704TMC3    C410461   1.145   1.922  12.542 -1.0844 -0.4954 -0.3933
  704TMC3    C510462   1.231   1.822  12.510 -0.0572  0.6566 -0.4172
  704TMC3    C610463   1.316   1.832  12.401 -0.4614  0.6018  0.2571
  704TMC3     C10464   1.022   2.091  12.438 -0.0864 -0.0921  0.2975
  704TMC3     O10465   0.943   2.109  12.532  0.1963  0.1929  0.0498
  704TMC3     H10466   1.233   2.129  12.285  0.7011 -0.5338 -1.3451
  704TMC3    H110467   1.063   1.899  12.610 -0.9950 -0.6613 -0.3423
  704TMC3    H210468   1.373   1.750  12.359 -0.8797  0.3820  0.1154
  704TMC3    C710469   1.212   1.685  12.548  0.5358  0.4835  0.8595
  704TMC3    C810470   1.334   1.896  12.188 -0.2796 -0.0898  0.3980
  704TMC3    O110471   1.234   1.603  12.458 -0.2478 -0.0712  0.1577
  704TMC3    O210472   1.266   1.801  12.160 -0.0949  0.6015 -0.0808
  705MPD2     C10473   0.119   0.048  16.389  0.3757  0.5218 -0.1774
  705MPD2    C110474   0.164   0.181  16.407 -0.5723 -0.0656  0.4253
  705MPD2    C210475   0.076   0.270  16.466  0.5091  0.3013  0.3986
  705MPD2    C310476   4.686   0.232  16.518 -0.0928 -0.3586 -0.1093
  705MPD2    C410477   4.648   0.102  16.499 -0.3940  0.8335 -0.2556
  705MPD2    C510478   4.734   0.017  16.436  0.4004  0.3371 -0.2679
  705MPD2     H10479   0.097   0.376  16.475  0.4939  0.3080  0.3526
  705MPD2    H110480   4.550   0.066  16.526  0.5459 -0.2188  1.7257
  705MPD2    H210481   0.177   4.698  16.367 -2.2735 -0.6746 -2.4074
  705MPD2    H310482   4.699   4.653  16.441 -1.9837  1.1113 -1.1458
  705MPD2     N10483   4.597   0.318  16.590 -0.1818  0.0343  0.6688
  705MPD2    H510484   4.513   0.283  16.636  0.6669 -1.8311  0.7843
  705MPD2    N110485   0.291   0.229  16.363  0.1434 -0.2534 -0.3546
  705MPD2    H710486   0.324   0.321  16.389 -2.0040  1.3903 -3.4226
  706TMC3    C110487   0.647   0.222  16.067  0.2243  0.1953 -0.2341
  706TMC3    C210488   0.634   0.353  16.031  0.0034  0.3081  0.1154
  706TMC3    C310489   0.533   0.415  16.098  0.0050  0.2413  0.7540
  706TMC3    C410490   0.575   0.153  16.158  0.6708 -0.1281 -0.6291
  706TMC3    C510491   0.484   0.231  16.230  0.7910 -0.2163 -0.0381
  706TMC3    C610492   0.454   0.360  16.197 -0.0179  0.8975  0.2696
  706TMC3     C10493   0.755   0.142  16.000  0.5060 -0.8126 -0.1021
  706TMC3     O10494   0.814   0.068  16.075 -0.5553  0.3205 -0.3449
  706TMC3     H10495   0.702   0.408  15.967 -0.2352 -0.0933 -0.4937
  706TMC3    H110496   0.587   0.049  16.183 -2.4046 -0.4715 -0.6455
  706TMC3    H210497   0.370   0.413  16.241 -0.9459  1.0068 -1.5943
  706TMC3    C710498   0.380   0.148  16.288 -0.0311  0.6736 -0.1738
  706TMC3    C810499   0.529   0.559  16.089 -0.1996 -0.0173  0.0370
  706TMC3    O110500   0.373   0.028  16.266 -0.0331  0.8274 -0.0915
  706TMC3    O210501   0.546   0.602  15.976  0.1275 -0.0217 -0.0083
  707TMC3    C110502   1.623   4.108   0.970  0.0774 -0.6528  0.2048
  707TMC3    C210503   1.633   4.245   0.978 -0.2545 -0.8012 -0.4554
  707TMC3    C310504   1.558   4.300   1.078  0.0140 -0.8213 -0.3675
  707TMC3    C410505   1.549   4.030   1.049  0.1590 -0.2777 -0.3577
  707TMC3    C510506   1.458   4.091   1.131  0.3453  1.2053  0.1829
  707TMC3    C610507   1.461   4.228   1.146 -0.2545  0.2213  0.0596
  707TMC3     C10508   1.695   4.036   0.868 -0.0276  0.0921  0.2099
  707TMC3     O10509   1.712   3.914   0.884  0.2301  0.3340 -0.2386
  707TMC3     H10510   1.694   4.311   0.917  1.2416 -0.2505  1.6501
  707TMC3    H110511   1.542   3.923   1.038 -2.7666 -0.0644 -0.6147
  707TMC3    H210512   1.425   4.274   1.238  2.5722  0.3323  1.1079
  707TMC3    C710513   1.401   4.012   1.235 -0.2610  0.1000 -0.2490
  707TMC3    C810514   1.625   4.402   1.157  0.8632  0.3015 -0.6867
  707TMC3    O110515   1.439   3.894   1.249 -0.1049  0.1215 -0.5507
  707TMC3    O210516   1.560   4.486   1.215 -0.1222 -0.3596 -0.0796
  708MPD2     C10517   3.065   2.546  14.039 -0.9244  0.2674  0.1260
  708MPD2    C110518   3.156   2.611  14.122 -0.2697 -0.2826 -0.8730
  708MPD2    C210519   3.115   2.689  14.227 -0.2291 -0.3498 -0.4048
  708MPD2    C310520   2.977   2.715  14.251 -0.3629 -0.2316  0.9140
  708MPD2    C410521   2.891   2.662  14.156  0.7478 -0.4606  0.2772
  708MPD2    C510522   2.935   2.581  14.057  0.4087 -0.2643 -0.3141
  708MPD2     H10523   3.191   2.752  14.273 -0.1621  0.1910 -1.2470
  708MPD2    H110524   2.785   2.677  14.173  0.9977  2.5685 -0.7706
  708MPD2    H210525   3.094   2.500  13.945  1.2569  1.1879  0.3587
  708MPD2    H310526   2.857   2.545  13.991 -0.2947 -1.5836  1.2230
  708MPD2     N10527   2.931   2.816  14.335 -0.6645  0.0268  0.3466
  708MPD2    H510528   2.835   2.846  14.321 -0.9434 -2.0328 -2.1037
  708MPD2    N110529   3.289   2.600  14.072  0.3667  0.0940  0.6536
  708MPD2    H710530   3.299   2.567  13.976  0.2678 -1.5013  1.1884
  709TMC3    C110531   3.457   2.757  14.050 -0.4415  0.4278  0.1341
  709TMC3    C210532   3.460   2.734  13.919 -0.0365  0.4431 -0.7708
  709TMC3    C310533   3.485   2.844  13.840  0.1345 -0.3890  0.4845
  709TMC3    C410534   3.447   2.888  14.094 -0.0539 -0.5156  0.0866
  709TMC3    C510535   3.437   2.991  14.010 -0.4055 -0.5404 -0.1368
  709TMC3    C610536   3.469   2.967  13.879 -0.2777  0.1191 -1.0480
  709TMC3     C10537   3.400   2.659  14.136  0.0758 -0.0419 -0.4637
  709TMC3     O10538   3.415   2.680  14.257 -0.6577 -0.5892 -0.7260
  709TMC3     H10539   3.479   2.635  13.879 -1.6911 -1.0967  2.2189
  709TMC3    H110540   3.424   2.899  14.200 -2.1649 -2.0223 -0.1913
  709TMC3    H210541   3.459   3.046  13.806 -0.0334 -0.7057 -1.9743
  709TMC3    C710542   3.345   3.089  14.039  0.8274 -0.1948  0.0264
  709TMC3    C810543   3.514   2.829  13.703 -0.2276  0.5639  0.3958
  709TMC3    O110544   3.287   3.082  14.143 -0.1229 -0.1220 -0.8337
  709TMC3    O210545   3.450   2.912  13.637  0.5610  0.0319 -0.3876
  710TMC3    C110546   4.290   4.173   0.158 -0.2263  0.2341  0.8377
  710TMC3    C210547   4.288   4.284   0.084 -0.3393  0.4027  0.3965
  710TMC3    C310548   4.359   4.275  17.715 -0.6912 -0.2435 -0.0854
  710TMC3    C410549   4.364   4.067   0.111  0.1344  0.0054 -0.2224
  710TMC3    C510550   4.427   4.066  17.744 -0.0826 -0.5516 -0.1916
  710TMC3    C610551   4.421   4.169  17.661 -0.4209  0.4251 -0.4806
  710TMC3     C10552   4.175   4.144   0.247  0.0272 -0.2148 -0.6126
  710TMC3     O10553   4.131   4.029   0.241  0.0909  0.8044  0.4046
  710TMC3     H10554   4.214   4.364   0.088 -0.7425  0.0623 -0.4258
  710TMC3    H110555   4.371   3.979   0.173  0.7470 -0.3508 -0.7992
  710TMC3    H210556   4.480   4.165  17.570  1.9449 -0.5052  1.1137
  710TMC3    C710557   4.533   3.975  17.725  0.0507 -0.6982 -0.3617
  710TMC3    C810558   4.390   4.399  17.642 -0.1041 -0.5984  0.3701
  710TMC3    O110559   4.581   3.957  17.614 -0.1801 -0.1944  0.2766
  710TMC3    O210560   4.414   4.382  17.523 -0.5397 -0.1499 -0.2576
  711TMC3    C110561   4.140   1.131  14.812  0.2688 -0.4751 -0.4463
  711TMC3    C210562   4.145   1.187  14.941 -0.4890  0.2962  0.4701
  711TMC3    C310563   4.256   1.156  15.014 -0.1316  0.4568  0.3115
  711TMC3    C410564   4.241   1.048  14.768  0.3220  0.9811 -0.3346
  711TMC3    C510565   4.344   1.007  14.851  0.1253  0.7272  0.5340
  711TMC3    C610566   4.348   1.062  14.977 -0.1346 -0.1090 -0.2926
  711TMC3     C10567   4.024   1.046  14.798  0.3307  0.4811  0.0540
  711TMC3     O10568   4.026   0.956  14.718  0.9528 -0.6738 -1.0053
  711TMC3     H10569   4.070   1.259  14.972 -0.9166 -0.7931  1.9485
  711TMC3    H110570   4.245   1.021  14.664  3.7044  0.2734 -0.0168
  711TMC3    H210571   4.431   1.025  15.036 -1.6013 -1.0200  1.1957
  711TMC3    C710572   4.382   0.866  14.851 -0.5365 -0.4331  0.2528
  711TMC3    C810573   4.239   1.190  15.151  0.2954 -0.6428 -0.1871
  711TMC3    O110574   4.465   0.827  14.927  0.0419 -0.4166 -0.0309
  711TMC3    O210575   4.125   1.180  15.191 -0.4054  0.3008 -0.0853
  712MPD2     C10576   0.572   1.999  13.978 -0.0133 -0.1588 -0.6388
  712MPD2    C110577   0.559   2.035  13.843  0.6925 -0.6936 -0.8747
  712MPD2    C210578   0.574   2.166  13.802  0.0511 -0.6136  0.1836
  712MPD2    C310579   0.618   2.261  13.894  0.3185 -0.1700  0.2972
  712MPD2    C410580   0.629   2.220  14.031  0.2550 -0.3475  0.5884
  712MPD2    C510581   0.612   2.090  14.070 -1.0577 -0.1770 -0.1102
  712MPD2     H10582   0.575   2.188  13.696  0.4744 -1.9525 -0.0923
  712MPD2    H110583   0.673   2.288  14.104  0.2202 -2.1770  2.3203
  712MPD2    H210584   0.571   1.897  14.014 -0.0400  0.1484  0.2237
  712MPD2    H310585   0.626   2.059  14.173  1.2260  1.5660  0.1041
  712MPD2     N10586   0.668   2.384  13.857 -0.3735 -0.4340 -0.0964
  712MPD2    H510587   0.710   2.444  13.927  1.7612 -0.6177 -1.2358
  712MPD2    N110588   0.541   1.936  13.742  0.0127  0.0531  0.0597
  712MPD2    H710589   0.522   1.971  13.649  1.8618 -0.7656 -0.6208
  713TMC3    C110590   0.719   2.560  13.712  0.4534  0.0729  0.1218
  713TMC3    C210591   0.853   2.546  13.722 -0.1529  0.0591  0.1651
  713TMC3    C310592   0.927   2.638  13.653 -0.1071  0.1930 -0.0320
  713TMC3    C410593   0.659   2.659  13.640  0.1003  0.4699 -0.4853
  713TMC3    C510594   0.737   2.764  13.593 -0.1097 -0.5381 -0.5091
  713TMC3    C610595   0.874   2.752  13.597  0.3539  0.7457  0.2229
  713TMC3     C10596   0.633   2.449  13.742 -0.6981 -0.0914 -0.1246
  713TMC3     O10597   0.538   2.428  13.666  0.5918  0.4146 -0.7041
  713TMC3     H10598   0.888   2.465  13.786 -0.2903 -0.2946 -0.2015
  713TMC3    H110599   0.551   2.656  13.632 -0.0463  0.2041  1.6069
  713TMC3    H210600   0.933   2.838  13.568  3.2235 -1.5709 -0.8397
  713TMC3    C710601   0.685   2.896  13.582  0.4040 -0.3973  0.6519
  713TMC3    C810602   1.069   2.637  13.661 -0.2034 -0.0514  0.2397
  713TMC3    O110603   0.755   2.998  13.580 -0.7703  0.0193 -0.9033
  713TMC3    O210604   1.133   2.724  13.605 -0.7807 -0.5332 -0.2239
  714MPD2     C10605   2.975   0.973   1.567  0.6925  0.3075  0.3410
  714MPD2    C110606   2.987   0.914   1.438 -0.3292  0.0282 -0.3750
  714MPD2    C210607   2.941   0.982   1.330 -0.0212 -0.2951  0.1474
  714MPD2    C310608   2.884   1.111   1.344 -0.9962 -0.3334 -0.0008
  714MPD2    C410609   2.866   1.168   1.468 -0.7317  0.5384 -0.2679
  714MPD2    C510610   2.914   1.097   1.581 -0.5975 -0.2070 -0.0350
  714MPD2     H10611   2.946   0.942   1.229 -0.4055 -1.1249  0.4598
  714MPD2    H110612   2.806   1.257   1.476 -0.6639  0.3890  1.9256
  714MPD2    H210613   2.999   0.915   1.655  1.3914 -2.7914 -1.8811
  714MPD2    H310614   2.889   1.136   1.679 -3.5044 -1.6633 -0.1966
  714MPD2     N10615   2.840   1.178   1.230 -0.3975 -0.0596  0.2690
  714MPD2    H510616   2.855   1.133   1.140 -0.8531 -2.3392  1.3329
  714MPD2    N110617   3.043   0.787   1.435  0.1374 -0.1710 -0.2543
  714MPD2    H710618   3.103   0.756   1.512  0.4246 -1.6944 -1.0971
  715TMC3    C110619   3.129   0.591   1.333 -0.1396 -0.4630 -0.1516
  715TMC3    C210620   3.107   0.488   1.246 -0.6771  0.0936  0.2814
  715TMC3    C310621   3.202   0.397   1.229  0.0456  0.5576 -0.8459
  715TMC3    C410622   3.248   0.609   1.397 -0.1352  0.3431  0.0843
  715TMC3    C510623   3.343   0.508   1.386  0.4015  0.0551 -0.6585
  715TMC3    C610624   3.326   0.411   1.288  0.0462 -0.6953 -0.3376
  715TMC3     C10625   3.043   0.713   1.318  0.2112 -0.7267 -0.0217
  715TMC3     O10626   2.976   0.719   1.216  0.3987 -0.3837 -0.1240
  715TMC3     H10627   3.014   0.489   1.191 -0.6326  0.6778  0.2120
  715TMC3    H110628   3.272   0.703   1.446  3.4885 -0.3048 -0.4255
  715TMC3    H210629   3.402   0.337   1.264  1.0262 -0.0157  0.6809
  715TMC3    C710630   3.474   0.536   1.442 -0.6406  0.2430 -0.7781
  715TMC3    C810631   3.189   0.307   1.120 -0.2080  0.4025 -0.2214
  715TMC3    O110632   3.571   0.500   1.377 -0.3999 -0.1807 -0.2873
  715TMC3    O210633   3.077   0.270   1.090 -0.4678 -0.4107  0.1992
  716MPD2     C10634   3.082   3.422   9.812 -0.0595  0.2818  0.0651
  716MPD2    C110635   2.987   3.382   9.721  0.6469 -0.0698  0.8508
  716MPD2    C210636   3.009   3.268   9.647  0.1396  1.2263 -0.0937
  716MPD2    C310637   3.124   3.190   9.670 -0.6336  0.2088 -0.8604
  716MPD2    C410638   3.219   3.226   9.765  0.0789  0.7479  0.1718
  716MPD2    C510639   3.200   3.351   9.826  0.0739 -0.4277 -0.1270
  716MPD2     H10640   2.935   3.251   9.569 -1.0136  0.4415  1.1745
  716MPD2    H110641   3.304   3.164   9.793  1.1081  1.9605 -0.2813
  716MPD2    H210642   3.065   3.510   9.873 -2.6635  0.3083 -0.6891
  716MPD2    H310643   3.275   3.394   9.891  0.7513 -0.4117 -0.9173
  716MPD2     N10644   3.123   3.069   9.596 -0.1394  0.3650 -0.0234
  716MPD2    H510645   3.043   3.062   9.534  0.2122  1.7969 -0.6396
  716MPD2    N110646   2.874   3.463   9.708  0.4450  1.6151 -0.2743
  716MPD2    H710647   2.865   3.542   9.771  0.1848  0.2259  1.4357
  717TMC3    C110648   3.180   2.854   9.523 -0.5304 -0.0405  0.0009
  717TMC3    C210649   3.049   2.832   9.481 -0.1260 -0.1724 -0.5383
  717TMC3    C310650   3.023   2.771   9.363 -0.2493 -0.0729 -0.5293
  717TMC3    C410651   3.287   2.810   9.445  0.2020 -0.3313  0.2678
  717TMC3    C510652   3.249   2.739   9.333  0.4627 -0.5107  0.0140
  717TMC3    C610653   3.123   2.728   9.283  0.4220  0.0698 -0.0867
  717TMC3     C10654   3.210   2.963   9.614 -0.4723  0.8299 -0.0942
  717TMC3     O10655   3.309   2.956   9.685  0.1286  0.0854 -0.5559
  717TMC3     H10656   2.970   2.875   9.540  1.1388 -1.1528  1.8470
  717TMC3    H110657   3.389   2.821   9.481 -0.3270  3.9582  0.4756
  717TMC3    H210658   3.108   2.665   9.196  4.3441 -1.4776  0.3452
  717TMC3    C710659   3.365   2.684   9.260 -0.1725 -0.3473  0.3700
  717TMC3    C810660   2.891   2.788   9.322 -0.8001 -0.4602 -0.6270
  717TMC3    O110661   3.463   2.666   9.335 -0.2713  0.4287  0.2508
  717TMC3    O210662   2.799   2.802   9.403 -0.1699 -0.0375  1.2882
  718MPD2     C10663   2.372   2.649  12.464  0.4451 -0.4974 -0.4194
  718MPD2    C110664   2.282   2.601  12.372 -0.1511 -0.5123  0.1740
  718MPD2    C210665   2.169   2.536  12.410 -0.2037 -0.0391 -0.4362
  718MPD2    C310666   2.142   2.521  12.541  0.4239  0.2221  0.0077
  718MPD2    C410667   2.224   2.578  12.640 -0.7042 -0.4251  0.2610
  718MPD2    C510668   2.344   2.636  12.593  0.2294 -0.3525 -0.4893
  718MPD2     H10669   2.113   2.471  12.345 -0.6307 -0.9256  0.8211
  718MPD2    H110670   2.202   2.575  12.746  0.5349 -1.2371  0.4976
  718MPD2    H210671   2.469   2.692  12.439 -0.5779  1.1178 -1.6444
  718MPD2    H310672   2.413   2.673  12.668 -0.4094 -1.7154  0.7666
  718MPD2     N10673   2.040   2.433  12.582  0.2152 -0.5342 -0.7495
  718MPD2    H510674   1.980   2.399  12.507  1.2254  1.2840 -2.3608
  718MPD2    N110675   2.323   2.604  12.236  0.1574 -0.6056 -0.2023
  718MPD2    H710676   2.420   2.621  12.211  0.3898 -1.9131 -0.2297
  719TMC3    C110677   2.343   2.488  12.039  0.0435  0.3177  0.0708
  719TMC3    C210678   2.277   2.392  11.972 -0.0292  0.8450  0.2321
  719TMC3    C310679   2.312   2.261  11.974  0.0750  0.7777 -0.0337
  719TMC3    C410680   2.473   2.448  12.078 -0.2102  0.1239 -0.2424
  719TMC3    C510681   2.511   2.315  12.064 -0.5630  0.4536  0.3806
  719TMC3    C610682   2.441   2.224  12.008 -0.6088 -0.3233 -0.5135
  719TMC3     C10683   2.252   2.554  12.136  0.1148 -0.1479 -0.0394
  719TMC3     O10684   2.131   2.546  12.121 -0.0331  0.4295  0.3304
  719TMC3     H10685   2.176   2.413  11.940 -0.6657 -1.0566  0.9931
  719TMC3    H110686   2.533   2.530  12.116 -0.8076  0.1751  0.5849
  719TMC3    H210687   2.477   2.123  11.995  0.9390  0.1861 -0.2891
  719TMC3    C710688   2.647   2.284  12.105  0.2186 -0.1114 -0.1207
  719TMC3    C810689   2.205   2.172  12.032 -0.1731 -0.2639 -0.8418
  719TMC3    O110690   2.710   2.192  12.052 -0.0171  0.0029 -0.4175
  719TMC3    O210691   2.241   2.092  12.114  0.0862 -0.2591 -0.0512
  720MPD2     C10692   0.721   4.186  13.866 -0.5617  0.5154  0.2852
  720MPD2    C110693   0.813   4.158  13.767 -0.0932 -1.0385 -0.2718
  720MPD2    C210694   0.932   4.104  13.807  0.5675 -0.1118 -0.9599
  720MPD2    C310695   0.941   4.043  13.930  0.0820 -0.6078 -0.7530
  720MPD2    C410696   0.836   4.049  14.022  1.0084 -0.0284 -0.4063
  720MPD2    C510697   0.727   4.128  13.989 -0.2076  0.6290  0.1777
  720MPD2     H10698   1.013   4.079  13.739  1.4833  0.1402  0.0373
  720MPD2    H110699   0.853   4.009  14.121  1.1349 -1.2063 -0.9063
  720MPD2    H210700   0.641   4.256  13.849 -1.3968  0.2263  2.9402
  720MPD2    H310701   0.648   4.150  14.060  0.9402  1.9075  1.0485
  720MPD2     N10702   1.068   3.992  13.963  0.2449 -0.1965 -0.1665
  720MPD2    H510703   1.149   4.013  13.905  0.0715 -0.5275 -0.5295
  720MPD2    N110704   0.798   4.207  13.642  0.5299  0.9678  0.7711
  720MPD2    H710705   0.884   4.209  13.587  0.6831 -2.6937  0.8755
  721TMC3    C110706   1.247   3.906  14.086  0.0675  0.0338 -0.7543
  721TMC3    C210707   1.295   3.907  14.213 -0.6135 -0.4372 -0.1769
  721TMC3    C310708   1.432   3.922  14.219 -0.1192 -0.8487 -0.0075
  721TMC3    C410709   1.327   3.927  13.976  0.1724  0.3688  0.2254
  721TMC3    C510710   1.464   3.942  13.989 -0.3273  0.8115  0.4276
  721TMC3    C610711   1.522   3.938  14.115 -0.2140  0.2365  0.0712
  721TMC3     C10712   1.099   3.909  14.066 -0.0553  0.3403 -0.4022
  721TMC3     O10713   1.028   3.873  14.157  0.2961  0.6135  0.8190
  721TMC3     H10714   1.229   3.896  14.297  0.3626 -0.5293  0.5788
  721TMC3    H110715   1.286   3.910  13.877 -2.3491 -1.3099  1.5706
  721TMC3    H210716   1.625   3.946  14.148 -0.4120  3.2468 -0.0729
  721TMC3    C710717   1.542   3.993  13.880 -0.6065 -0.3917  0.1000
  721TMC3    C810718   1.497   3.911  14.358  0.5402 -0.3334 -0.1800
  721TMC3    O110719   1.480   4.004  13.771 -0.1224 -0.3934 -0.1921
  721TMC3    O210720   1.604   3.855  14.366  0.4385  0.0778 -0.3548
  722MPD2     C10721   0.046   2.637  12.657  0.2639  0.7676  0.6265
  722MPD2    C110722   4.726   2.676  12.779 -0.0382 -0.0012  0.1505
  722MPD2    C210723   4.601   2.619  12.820  0.1388 -0.1869 -0.7094
  722MPD2    C310724   4.539   2.524  12.742 -0.9085 -0.2813  0.9230
  722MPD2    C410725   4.605   2.483  12.628  0.2591 -0.9782 -0.1215
  722MPD2    C510726   4.724   2.542  12.580 -0.7800  0.2057 -0.3384
  722MPD2     H10727   4.545   2.658  12.903  0.4267  0.7227 -0.9432
  722MPD2    H110728   4.573   2.396  12.572 -1.3742 -1.7826  2.0923
  722MPD2    H210729   0.142   2.677  12.629  0.1582 -0.9070 -2.1367
  722MPD2    H310730   0.026   2.520  12.482  3.7155  0.1853  1.5046
  722MPD2     N10731   4.416   2.471  12.792 -0.7868 -0.7015 -0.4322
  722MPD2    H510732   4.382   2.510  12.879  0.8919 -1.9892  0.8167
  722MPD2    N110733   0.039   2.784  12.855  0.0061  0.1941  0.0666
  722MPD2    H710734   0.096   2.844  12.797 -0.4458  0.5996  0.0472
  723TMC3    C110735   4.228   2.354  12.805  0.1548 -0.7993 -0.2505
  723TMC3    C210736   4.176   2.229  12.824 -0.0701  0.7100  0.3428
  723TMC3    C310737   4.060   2.225  12.897  0.1269  0.0582 -0.4359
  723TMC3    C410738   4.165   2.470  12.849  0.0939 -0.4440  0.6134
  723TMC3    C510739   4.043   2.462  12.909 -0.1553 -0.4348  0.2660
  723TMC3    C610740   3.992   2.339  12.932  0.1685 -0.1361 -0.5470
  723TMC3     C10741   4.353   2.367  12.742  0.1843 -0.1857  0.0454
  723TMC3     O10742   4.384   2.296  12.648 -0.0079 -0.3970  0.3643
  723TMC3     H10743   4.229   2.138  12.798  0.1867  0.7417  0.7497
  723TMC3    H110744   4.207   2.565  12.817 -4.3874  1.0978 -0.8661
  723TMC3    H210745   3.897   2.324  12.983 -0.4191 -0.4016 -1.7064
  723TMC3    C710746   3.995   2.583  12.975  0.4950 -0.0616  0.7000
  723TMC3    C810747   3.979   2.107  12.894  0.6990 -0.0086  0.6726
  723TMC3    O110748   3.919   2.557  13.067 -0.1699 -0.4407 -1.0444
  723TMC3    O210749   3.886   2.091  12.969  0.4503 -0.6422 -0.7732
  724TMC3    C110750   0.659   0.983  10.219 -0.2605  0.0269 -0.4406
  724TMC3    C210751   0.708   0.960  10.093 -0.5471  0.0223  0.0679
  724TMC3    C310752   0.722   1.072  10.015  0.1377  0.2604  0.2875
  724TMC3    C410753   0.637   1.109  10.260 -0.1376  0.4485  0.4242
  724TMC3    C510754   0.665   1.215  10.182  0.4442 -0.4297  0.3172
  724TMC3    C610755   0.704   1.199  10.051 -0.2773 -0.1638  0.1515
  724TMC3     C10756   0.593   0.869  10.288  0.5727 -0.3770 -0.9161
  724TMC3     O10757   0.550   0.897  10.397 -0.1194 -0.1926  0.2551
  724TMC3     H10758   0.720   0.861  10.051  2.2410  0.3782  0.0200
  724TMC3    H110759   0.616   1.126  10.365 -0.6929 -0.4141  0.4538
  724TMC3    H210760   0.713   1.284   9.985  0.8643 -0.6397 -0.2943
  724TMC3    C710761   0.630   1.350  10.217  0.1186  1.2774 -0.3723
  724TMC3    C810762   0.763   1.042   9.876  0.1292  0.0654  0.4862
  724TMC3    O110763   0.583   1.356  10.329 -0.3240  0.0731  0.4953
  724TMC3    O210764   0.750   0.926   9.841  0.9845 -0.1136 -0.7037
  725TMC3    C110765   1.771   4.334  12.514  0.1003 -0.1696  0.3781
  725TMC3    C210766   1.649   4.370  12.466  0.3329 -0.0686  0.3205
  725TMC3    C310767   1.554   4.268  12.434  1.1827 -0.3760 -0.4452
  725TMC3    C410768   1.805   4.199  12.533  0.1300  0.4074  0.0862
  725TMC3    C510769   1.703   4.107  12.516  0.8198 -0.4421  0.5326
  725TMC3    C610770   1.575   4.141  12.470 -0.6699 -0.4337 -0.6235
  725TMC3     C10771   1.858   4.435  12.578 -0.2570 -0.0244  0.5196
  725TMC3     O10772   1.809   4.545  12.604 -0.1579 -0.0782 -0.1049
  725TMC3     H10773   1.620   4.475  12.465 -0.9757 -0.4110  1.4481
  725TMC3    H110774   1.901   4.168  12.574  0.5721 -0.4170 -1.6066
  725TMC3    H210775   1.507   4.059  12.450 -1.9022  0.9325 -2.0132
  725TMC3    C710776   1.733   3.968  12.545  0.2107  0.3073  0.0420
  725TMC3    C810777   1.426   4.297  12.371 -0.1875 -0.3774 -0.4822
  725TMC3    O110778   1.855   3.960  12.562  0.4812  0.4860 -0.8505
  725TMC3    O210779   1.348   4.206  12.376  0.1450 -0.7883  0.1018
  726MPD2     C10780   4.465   0.915  10.400 -0.1410  0.0335 -0.5094
  726MPD2    C110781   4.337   0.946  10.358 -0.2184  0.1124  0.2026
  726MPD2    C210782   4.229   0.868  10.396 -0.0323  0.3600  0.1588
  726MPD2    C310783   4.245   0.765  10.485  0.3759  0.1003 -0.9343
  726MPD2    C410784   4.372   0.742  10.538  0.7903  0.6843 -0.2419
  726MPD2    C510785   4.481   0.815  10.496  0.3286 -0.2038  0.1092
  726MPD2     H10786   4.135   0.904  10.356  0.9004  1.4177 -1.1110
  726MPD2    H110787   4.393   0.666  10.613  0.2377 -0.0293 -0.8145
  726MPD2    H210788   4.551   0.972  10.367 -1.1317  1.7399 -0.1214
  726MPD2    H310789   4.583   0.794  10.528  0.2222 -1.0270 -0.1008
  726MPD2     N10790   4.141   0.679  10.524 -0.3225  0.2783 -0.2648
  726MPD2    H510791   4.151   0.602  10.588  0.9611  1.3177  0.7736
  726MPD2    N110792   4.311   1.055  10.284 -0.6736 -0.3048 -0.2225
  726MPD2    H710793   4.216   1.073  10.253 -0.7478  2.0209  1.2910
  727TMC3    C110794   4.346   1.222  10.131 -0.4332 -0.1792  0.7076
  727TMC3    C210795   4.398   1.351  10.133  0.7019 -0.4978  0.1533
  727TMC3    C310796   4.329   1.459  10.077  0.8807  0.5129  0.2046
  727TMC3    C410797   4.215   1.205  10.088  0.4064  0.0940 -0.2827
  727TMC3    C510798   4.151   1.314  10.037 -0.2620 -0.9533  0.5327
  727TMC3    C610799   4.202   1.444  10.037 -0.2320 -0.3535 -0.3819
  727TMC3     C10800   4.410   1.131  10.223 -0.0180 -0.2573 -0.1296
  727TMC3     O10801   4.531   1.144  10.234 -0.0557  0.2815 -0.1829
  727TMC3     H10802   4.499   1.373  10.165 -0.0243  0.1210  2.0366
  727TMC3    H110803   4.187   1.103  10.063  1.3355 -0.8848  2.6419
  727TMC3    H210804   4.145   1.529  10.002  1.9528  1.1772 -0.2287
  727TMC3    C710805   4.014   1.290  10.004 -0.2170  0.3185 -0.1358
  727TMC3    C810806   4.395   1.586  10.098 -0.5710 -0.1703 -0.7764
  727TMC3    O110807   3.963   1.181  10.036 -0.0127  0.5789  0.2646
  727TMC3    O210808   4.505   1.593  10.157  0.1041 -0.3373 -0.2645
  728TMC3    C110809   3.351   4.244  15.451  0.0070  0.1257  0.1226
  728TMC3    C210810   3.484   4.213  15.474 -0.0123  0.6235  0.5738
  728TMC3    C310811   3.579   4.217  15.373  0.3143 -0.5123 -0.3450
  728TMC3    C410812   3.311   4.268  15.322 -0.1935 -0.2763  0.5433
  728TMC3    C510813   3.404   4.264  15.224  0.9836  0.2556 -0.0258
  728TMC3    C610814   3.540   4.238  15.243 -1.2021  0.5774  0.6992
  728TMC3     C10815   3.285   4.319  15.559  0.3949  0.2484  0.6606
  728TMC3     O10816   3.355   4.369  15.644 -0.1811  0.2282  0.7424
  728TMC3     H10817   3.519   4.192  15.574  1.6023 -1.5133 -0.4200
  728TMC3    H110818   3.209   4.303  15.305 -0.4351 -0.6924  1.1236
  728TMC3    H210819   3.617   4.229  15.167 -1.6829 -0.0943  0.2974
  728TMC3    C710820   3.360   4.297  15.093  0.0258 -0.2372  0.8646
  728TMC3    C810821   3.714   4.176  15.415 -0.0877  0.3289 -0.3130
  728TMC3    O110822   3.242   4.310  15.060 -0.4939 -0.4766  0.3922
  728TMC3    O210823   3.723   4.093  15.501 -0.2729 -0.3606 -0.4242
  729MPD2     C10824   0.450   1.479  16.818  0.3010 -0.5249  0.7232
  729MPD2    C110825   0.536   1.382  16.781 -0.0169  0.8372 -0.4093
  729MPD2    C210826   0.628   1.339  16.884  0.0270  0.1291  0.0491
  729MPD2    C310827   0.630   1.391  17.012 -0.7536  0.2136 -0.4163
  729MPD2    C410828   0.542   1.486  17.036 -0.0568  0.4398  0.0291
  729MPD2    C510829   0.450   1.531  16.944  0.8293  0.0773 -0.1045
  729MPD2     H10830   0.701   1.266  16.852 -1.8907 -2.3165  1.3240
  729MPD2    H110831   0.551   1.543  17.128  0.4902 -0.2679  0.4211
  729MPD2    H210832   0.389   1.524  16.740  1.8891  0.2220 -0.0902
  729MPD2    H310833   0.390   1.618  16.969 -1.2930 -1.3282 -0.2978
  729MPD2     N10834   0.725   1.356  17.101  0.0055  0.0474 -0.7730
  729MPD2    H510835   0.727   1.415  17.184 -1.6845  0.1457 -0.7951
  729MPD2    N110836   0.545   1.341  16.648  0.3466  0.9427  0.5755
  729MPD2    H710837   0.474   1.379  16.586 -0.2538  0.5333  1.0147
  730TMC3    C110838   0.929   1.272  17.211 -0.4252 -0.6065 -0.5522
  730TMC3    C210839   1.060   1.274  17.173  0.5755  0.0610  0.7112
  730TMC3    C310840   1.142   1.365  17.242  0.5174  0.3417 -0.2597
  730TMC3    C410841   0.880   1.334  17.321 -0.0202  0.9141  0.2107
  730TMC3    C510842   0.962   1.428  17.374 -0.2343 -0.4926 -0.0423
  730TMC3    C610843   1.100   1.433  17.352  0.1773 -0.2402  0.0312
  730TMC3     C10844   0.829   1.258  17.099 -0.0180  0.1169 -0.1225
  730TMC3     O10845   0.854   1.175  17.013 -0.3064 -0.0848 -0.2567
  730TMC3     H10846   1.098   1.241  17.077 -0.3128  0.5283  0.1968
  730TMC3    H110847   0.774   1.325  17.340  0.1441  0.8447  1.0954
  730TMC3    H210848   1.157   1.520  17.384 -1.0181  0.0904  1.3027
  730TMC3    C710849   0.895   1.562  17.364 -0.4495 -0.4571 -0.4962
  730TMC3    C810850   1.216   1.446  17.144 -0.7721 -0.5254 -0.0617
  730TMC3    O110851   0.801   1.565  17.284  0.0945 -0.4574 -0.5297
  730TMC3    O210852   1.197   1.420  17.029 -0.2338 -0.0436 -0.0124
  731MPD2     C10853   1.071   4.135  12.538  0.7772 -0.0606  0.0335
  731MPD2    C110854   1.050   4.021  12.463 -0.6639  0.2515  0.3301
  731MPD2    C210855   0.949   3.935  12.502 -0.5062  0.3690  0.7025
  731MPD2    C310856   0.869   3.968  12.607  0.4297  0.0424  0.7584
  731MPD2    C410857   0.885   4.082  12.682  0.5868  0.5453  0.3358
  731MPD2    C510858   0.984   4.162  12.639  0.0505  0.4707  0.2693
  731MPD2     H10859   0.915   3.846  12.449 -0.4113  0.0865  1.1122
  731MPD2    H110860   0.816   4.128  12.752  0.2219 -1.6441  1.3996
  731MPD2    H210861   1.157   4.200  12.521  0.9875 -0.3998 -0.1970
  731MPD2    H310862   0.999   4.245  12.707 -1.1798  1.2886 -0.4626
  731MPD2     N10863   0.769   3.876  12.635  0.6372  0.0295 -0.0925
  731MPD2    H510864   0.772   3.799  12.569 -2.9778  0.5372 -0.8167
  731MPD2    N110865   1.140   4.002  12.358  0.1059  0.4068 -0.5097
  731MPD2    H710866   1.212   4.073  12.343 -0.7327  1.2682 -0.4790
  732TMC3    C110867   1.243   3.895  12.167 -0.7058 -0.5156  0.2302
  732TMC3    C210868   1.224   3.816  12.060  0.7312 -0.7351  0.2270
  732TMC3    C310869   1.325   3.781  11.972 -0.1384 -0.4251 -0.4615
  732TMC3    C410870   1.367   3.955  12.178  0.1509  0.5158 -0.7626
  732TMC3    C510871   1.469   3.921  12.092 -0.5621  0.0550  0.0554
  732TMC3    C610872   1.449   3.836  11.988  0.3881  0.0669  0.5079
  732TMC3     C10873   1.140   3.893  12.276 -0.1221  0.0360  0.9915
  732TMC3     O10874   1.059   3.802  12.274  0.2023  0.4534  0.6639
  732TMC3     H10875   1.122   3.781  12.042  0.3731  0.8775 -0.8528
  732TMC3    H110876   1.401   4.010  12.265 -0.1458 -1.4076  0.5744
  732TMC3    H210877   1.526   3.803  11.918 -0.2623  2.2508 -1.2240
  732TMC3    C710878   1.601   3.980  12.117 -0.0748  0.0385  0.1512
  732TMC3    C810879   1.291   3.709  11.849  0.0948 -0.8689 -0.1095
  732TMC3    O110880   1.604   4.101  12.123 -0.3273  0.0877 -0.1005
  732TMC3    O210881   1.368   3.715  11.754  0.4926 -0.1798  0.0275
  733TMC3    C110882   1.737   2.174  12.818 -0.1447 -0.1308  0.3544
  733TMC3    C210883   1.826   2.281  12.819 -0.5316 -0.2555  0.4403
  733TMC3    C310884   1.885   2.310  12.703  0.0646 -1.0256 -0.0720
  733TMC3    C410885   1.709   2.105  12.701 -0.9157 -0.0250  0.3935
  733TMC3    C510886   1.763   2.150  12.587 -0.1237 -0.9342 -0.3889
  733TMC3    C610887   1.859   2.241  12.590  0.1266  0.3474  0.8694
  733TMC3     C10888   1.682   2.129  12.950  0.6054  0.0877  0.3534
  733TMC3     O10889   1.741   2.179  13.046 -0.4057  0.1060 -0.1436
  733TMC3     H10890   1.839   2.326  12.916  0.1766 -1.1681  0.7710
  733TMC3    H110891   1.639   2.023  12.699 -2.4721  1.3100  0.1179
  733TMC3    H210892   1.888   2.283  12.494 -2.4039  0.0247 -0.0413
  733TMC3    C710893   1.719   2.076  12.459 -0.8121  1.1304 -0.2257
  733TMC3    C810894   1.995   2.404  12.711  0.0619  0.3233  0.1294
  733TMC3    O110895   1.603   2.039  12.442  0.1163 -0.0239  0.0071
  733TMC3    O210896   2.015   2.448  12.823 -0.1627 -0.4478  0.6134
  734MPD2     C10897   4.342   4.459  12.491  0.1399 -0.1945  0.5567
  734MPD2    C110898   4.242   4.407  12.417 -0.2275 -0.6904  1.0399
  734MPD2    C210899   4.223   4.442  12.281 -0.4423 -0.6334  0.0077
  734MPD2    C310900   4.308   4.532  12.223 -0.0969 -0.1082 -1.0555
  734MPD2    C410901   4.415   4.591  12.302 -0.1114 -0.3500 -0.9001
  734MPD2    C510902   4.436   4.544  12.430 -0.3686 -0.1232  0.5310
  734MPD2     H10903   4.140   4.412  12.219 -0.5701  0.7187 -0.4799
  734MPD2    H110904   4.481   4.662  12.255  1.3919 -0.9189  0.3473
  734MPD2    H210905   4.361   4.432  12.594  2.8119  2.1971  0.6926
  734MPD2    H310906   4.513   4.587  12.493 -0.2950 -0.4497  0.6608
  734MPD2     N10907   4.266   4.578  12.094  0.0363  0.0088  0.1705
  734MPD2    H510908   4.192   4.525  12.048  0.1279 -0.7037  0.8407
  734MPD2    N110909   4.155   4.311  12.478  0.8990 -0.8181 -0.6551
  734MPD2    H710910   4.177   4.295  12.576 -0.2057  0.1523 -0.2475
  735TMC3    C110911   3.980   4.155  12.496 -0.4928 -0.2971 -0.1139
  735TMC3    C210912   3.853   4.133  12.447  0.2444 -0.2992 -0.3412
  735TMC3    C310913   3.816   4.006  12.413 -0.2912 -0.4286 -0.7407
  735TMC3    C410914   4.070   4.055  12.506 -0.3560  0.4585 -0.2125
  735TMC3    C510915   4.032   3.927  12.466 -0.0364  0.5094 -0.6269
  735TMC3    C610916   3.906   3.902  12.423  0.4194  0.1473 -0.0582
  735TMC3     C10917   4.033   4.269  12.428  0.4646 -0.0134 -0.0903
  735TMC3     O10918   3.962   4.322  12.344 -0.1383 -0.0234 -0.2587
  735TMC3     H10919   3.789   4.220  12.437  2.2371  1.3957  1.5763
  735TMC3    H110920   4.165   4.080  12.552 -0.3880 -1.2199  0.7523
  735TMC3    H210921   3.872   3.803  12.394 -1.8730  1.0675 -0.5499
  735TMC3    C710922   4.139   3.832  12.440 -0.6272 -0.2987  0.0877
  735TMC3    C810923   3.776   4.001  12.275 -0.5135 -0.7933 -0.4121
  735TMC3    O110924   4.126   3.748  12.355 -0.1931  0.1544  0.1935
  735TMC3    O210925   3.740   3.891  12.236  0.1086 -0.5902 -0.2120
  736MPD2     C10926   4.468   3.838  12.600  0.3465 -0.0684  0.3177
  736MPD2    C110927   4.381   3.830  12.491 -0.4213  0.2099 -0.7222
  736MPD2    C210928   4.438   3.809  12.364 -0.0676  0.2702 -0.1390
  736MPD2    C310929   4.574   3.818  12.343  0.2035 -0.0338  0.4133
  736MPD2    C410930   4.648   3.822  12.449 -0.3729  0.2886  0.5232
  736MPD2    C510931   4.595   3.830  12.576  0.0227 -0.5045 -0.0923
  736MPD2     H10932   4.374   3.794  12.277  1.5795  0.5287 -1.3871
  736MPD2    H110933   0.016   3.811  12.426 -0.8432  1.4823 -2.2980
  736MPD2    H210934   4.439   3.862  12.702  1.4031 -0.8528  0.7975
  736MPD2    H310935   4.655   3.841  12.665 -0.2506 -0.1970  0.0538
  736MPD2     N10936   4.638   3.801  12.220  0.4837 -0.4197 -0.2877
  736MPD2    H510937   4.727   3.845  12.200 -0.5782  2.0249  0.3131
  736MPD2    N110938   4.244   3.852  12.521  0.4235  0.3799  0.6456
  736MPD2    H710939   4.222   3.896  12.609 -0.7575  0.9543  0.0575
  737TMC3    C110940   4.641   3.770  11.990  0.4817 -0.4050  0.4307
  737TMC3    C210941   4.676   3.897  11.962 -0.0091  0.0828 -0.1556
  737TMC3    C310942   4.716   3.923  11.838  0.7994  0.0195 -0.5947
  737TMC3    C410943   4.628   3.673  11.893  0.1467  0.0451  0.3913
  737TMC3    C510944   4.675   3.706  11.766 -0.0163 -0.4292  0.5392
  737TMC3    C610945   4.719   3.836  11.738 -0.2458  0.0122 -0.2701
  737TMC3     C10946   4.572   3.743  12.112  0.4945 -0.4748  0.6298
  737TMC3     O10947   4.477   3.667  12.106 -0.3895 -0.4046  0.0188
  737TMC3     H10948   4.659   3.982  12.028 -1.8691 -1.7456  1.6941
  737TMC3    H110949   4.598   3.573  11.921 -2.6599  0.1344 -2.3662
  737TMC3    H210950   0.021   3.861  11.640 -0.1362  1.0268  0.0427
  737TMC3    C710951   4.731   3.598  11.698  0.2898 -0.2741  0.2239
  737TMC3    C810952   0.011   4.066  11.813 -0.5768 -0.0461  0.2041
  737TMC3    O110953   4.716   3.490  11.748  0.1653  0.5139 -0.1691
  737TMC3    O210954   0.051   4.132  11.907  0.5961  0.4029  0.2902
  738MPD2     C10955   0.193   3.114  15.235 -0.0152 -0.5343  0.1327
  738MPD2    C110956   0.143   3.071  15.115  0.0723  0.4851 -0.3593
  738MPD2    C210957   0.178   3.137  15.004 -0.7704 -0.3777 -0.6648
  738MPD2    C310958   0.272   3.242  15.010 -0.1209  0.5762 -0.3822
  738MPD2    C410959   0.314   3.287  15.129 -0.1224 -0.7070  0.5082
  738MPD2    C510960   0.280   3.220  15.242  0.1453  0.4485 -0.6224
  738MPD2     H10961   0.133   3.098  14.913  0.8437  0.6003 -1.8764
  738MPD2    H110962   0.376   3.376  15.125  1.0997 -1.6677 -2.5129
  738MPD2    H210963   0.180   3.060  15.329 -0.4024 -1.3189 -0.3687
  738MPD2    H310964   0.326   3.245  15.337  0.0205  0.6402 -0.6128
  738MPD2     N10965   0.326   3.306  14.889  0.4397 -0.3589 -0.3534
  738MPD2    H510966   0.417   3.351  14.886  0.6316 -0.6897  0.7641
  738MPD2    N110967   0.071   2.951  15.112  0.5751 -0.4730 -0.1502
  738MPD2    H710968   0.029   2.928  15.022  0.2595  2.2194 -0.6908
  739TMC3    C110969   0.373   3.263  14.667  0.4689  0.4735 -0.0402
  739TMC3    C210970   0.336   3.297  14.536 -0.2127  0.0315 -0.5074
  739TMC3    C310971   0.437   3.295  14.447  0.3094 -0.2393 -0.2011
  739TMC3    C410972   0.501   3.240  14.702 -0.7028  0.0356  1.0124
  739TMC3    C510973   0.601   3.257  14.609 -0.5023 -0.1191  0.7744
  739TMC3    C610974   0.570   3.270  14.476  0.0778 -0.1796 -0.5942
  739TMC3     C10975   0.270   3.272  14.767  0.7994  0.3168 -0.2528
  739TMC3     O10976   0.152   3.256  14.738 -0.1081  0.3027  0.4148
  739TMC3     H10977   0.232   3.314  14.511  0.2556  1.1624 -1.6687
  739TMC3    H110978   0.521   3.205  14.803 -1.7882 -1.0434  0.8566
  739TMC3    H210979   0.641   3.266  14.394 -0.7107 -0.5586 -1.2558
  739TMC3    C710980   0.731   3.278  14.667  0.3675 -0.0098 -0.1062
  739TMC3    C810981   0.389   3.294  14.312 -0.5661  0.3873 -0.0675
  739TMC3    O110982   0.732   3.275  14.791 -0.3475 -0.1180  0.3490
  739TMC3    O210983   0.267   3.294  14.290 -0.6694 -0.3027 -0.0431
  740TMC3    C110984   0.821   4.292  14.344  0.2509  0.0811 -0.1727
  740TMC3    C210985   0.847   4.193  14.432  0.0754 -0.2722 -0.3551
  740TMC3    C310986   0.966   4.124  14.419 -0.0872  0.1623  0.4725
  740TMC3    C410987   0.913   4.336  14.254 -1.1876 -0.5485  0.4707
  740TMC3    C510988   1.029   4.262  14.243 -0.9059  0.1936  0.0578
  740TMC3    C610989   1.064   4.158  14.325 -0.7821 -0.0864  0.1965
  740TMC3     C10990   0.716   4.384  14.378 -0.7467  0.1137  0.3775
  740TMC3     O10991   0.747   4.504  14.361  0.0224 -0.5983  0.2406
  740TMC3     H10992   0.773   4.171  14.509 -0.1465 -1.6181 -0.9603
  740TMC3    H110993   0.879   4.410  14.183  1.6383  0.2676  0.0043
  740TMC3    H210994   1.155   4.100  14.322 -1.8259 -1.7403  0.9917
  740TMC3    C710995   1.129   4.290  14.137  0.4393  0.6914 -0.2854
  740TMC3    C810996   1.012   4.019  14.511 -0.4636  0.4675 -0.3117
  740TMC3    O110997   1.238   4.239  14.153 -0.2086 -0.0918  0.0639
  740TMC3    O210998   1.121   3.961  14.497  0.2719  0.1399  0.0321
  741TMC3    C110999   0.135   3.766  13.935  0.0639  0.2404  1.2154
  741TMC3    C211000   0.052   3.667  13.975 -0.2586  0.3423 -0.2038
  741TMC3    C311001   0.081   3.581  14.074  0.1194  0.8278  0.2366
  741TMC3    C411002   0.254   3.786  14.000 -0.9054 -0.1345 -0.3592
  741TMC3    C511003   0.275   3.716  14.112  0.2833  0.1900 -0.1425
  741TMC3    C611004   0.192   3.614  14.153  0.4779 -0.3373  0.1750
  741TMC3     C11005   0.079   3.886  13.894  0.5029  0.4970  0.0395
  741TMC3     O11006   0.160   3.976  13.888 -0.1756  0.1354  0.0331
  741TMC3     H11007   4.701   3.650  13.916 -0.5584 -1.1155  0.6811
  741TMC3    H111008   0.325   3.862  13.968 -0.7668 -0.8911 -1.8453
  741TMC3    H211009   0.228   3.553  14.234  0.1878  1.0053  1.3267
  741TMC3    C711010   0.408   3.736  14.167  0.1015 -0.2693  0.2790
  741TMC3    C811011   4.718   3.480  14.111  0.7909 -0.4961 -0.1233
  741TMC3    O111012   0.487   3.808  14.107  0.4449  0.3814  0.2232
  741TMC3    O211013   4.612   3.503  14.056 -0.7488 -0.4313 -0.0614
  742TMC3    C111014   0.304   2.349  14.994 -0.1408  0.2868  0.4242
  742TMC3    C211015   0.281   2.310  14.869 -0.0975  0.1024 -0.6598
  742TMC3    C311016   0.285   2.178  14.839  0.1965 -0.0786  0.1073
  742TMC3    C411017   0.320   2.259  15.100  0.4853  0.5582  0.0065
  742TMC3    C511018   0.324   2.128  15.061 -0.3374  0.0641  0.7334
  742TMC3    C611019   0.297   2.086  14.930 -0.1228 -0.3886 -0.1195
  742TMC3     C11020   0.312   2.492  15.012  0.3758  0.0775 -0.0990
  742TMC3     O11021   0.243   2.557  14.935  0.1758 -0.9708  1.0189
  742TMC3     H11022   0.267   2.389  14.796  1.6743  1.8982  0.9524
  742TMC3    H111023   0.328   2.295  15.202  0.5744 -3.2443  1.3517
  742TMC3    H211024   0.307   1.981  14.902  0.7610 -0.1847 -0.5501
  742TMC3    C711025   0.393   2.030  15.149  0.1131 -0.0740 -0.0513
  742TMC3    C811026   0.218   2.140  14.719  0.0611 -0.0441 -0.5752
  742TMC3    O111027   0.426   1.925  15.094  0.1485  0.4533 -0.4722
  742TMC3    O211028   0.285   2.084  14.629  0.2123 -0.3504 -0.2128
  743MPD2     C11029   2.737   4.459   1.607  0.7680 -0.2932  0.6697
  743MPD2    C111030   2.790   4.434   1.483  0.1009  1.5857 -0.5146
  743MPD2    C211031   2.926   4.425   1.465  0.5716  0.0243  0.1455
  743MPD2    C311032   3.014   4.438   1.570 -0.6518  0.4400 -1.0559
  743MPD2    C411033   2.960   4.452   1.697 -0.9321  0.6830  0.0397
  743MPD2    C511034   2.827   4.475   1.710 -0.1671 -0.3655 -0.0079
  743MPD2     H11035   2.975   4.412   1.370 -0.1126 -0.0531 -0.1988
  743MPD2    H111036   3.020   4.454   1.787  0.9213  1.5092 -1.2087
  743MPD2    H211037   2.631   4.477   1.624 -0.4414 -4.1809 -2.6910
  743MPD2    H311038   2.789   4.504   1.808 -0.0123  0.8364 -0.3001
  743MPD2     N11039   3.147   4.408   1.540 -0.2586 -0.0873 -0.0500
  743MPD2    H511040   3.162   4.379   1.444  2.5092  0.5733  0.1679
  743MPD2    N111041   2.701   4.410   1.377  0.1687 -0.5317  0.8193
  743MPD2    H711042   2.604   4.415   1.406 -0.4599  0.8289 -1.5311
  744TMC3    C111043   2.622   4.295   1.176  0.1106  0.1467 -0.3431
  744TMC3    C211044   2.490   4.321   1.204 -0.4132 -0.1114 -0.3707
  744TMC3    C311045   2.389   4.232   1.172  0.8438  0.5152 -0.2326
  744TMC3    C411046   2.641   4.186   1.100  0.0490  0.1620  0.8148
  744TMC3    C511047   2.545   4.098   1.083  0.5271  0.6397 -0.3025
  744TMC3    C611048   2.414   4.112   1.115 -0.0493  0.7882  0.7974
  744TMC3     C11049   2.733   4.363   1.246  0.3919  0.4641  0.0551
  744TMC3     O11050   2.839   4.342   1.187 -0.3239  0.0290 -0.2006
  744TMC3     H11051   2.463   4.423   1.230 -2.8252 -0.8816  0.1586
  744TMC3    H111052   2.744   4.162   1.076 -0.0087  0.8883 -0.1418
  744TMC3    H211053   2.337   4.049   1.071  0.8160  0.3180 -0.0523
  744TMC3    C711054   2.583   3.980   1.008  0.0554  0.4170 -0.2376
  744TMC3    C811055   2.252   4.265   1.183  0.2962  0.4848 -0.3650
  744TMC3    O111056   2.669   4.015   0.927 -0.0215 -0.0771 -0.2419
  744TMC3    O211057   2.176   4.207   1.105 -0.1161  0.0146 -0.1383
  745TMC3    C111058   0.479   1.732  13.651 -0.2272  0.3617 -0.0305
  745TMC3    C211059   0.349   1.693  13.666  0.6928 -0.2736  0.0740
  745TMC3    C311060   0.260   1.711  13.566 -0.1317  0.4482  0.5245
  745TMC3    C411061   0.518   1.789  13.529  0.5271 -0.0730  0.0549
  745TMC3    C511062   0.438   1.780  13.422  0.6913  0.8009 -0.1607
  745TMC3    C611063   0.301   1.752  13.442  0.5419 -0.1481  0.0612
  745TMC3     C11064   0.533   1.798  13.766 -0.0940  0.3411  1.3013
  745TMC3     O11065   0.533   1.731  13.870  0.0345  0.1324  0.4017
  745TMC3     H11066   0.320   1.637  13.754  1.8864 -0.5858  0.2680
  745TMC3    H111067   0.625   1.800  13.517  0.8371  0.7205  3.5362
  745TMC3    H211068   0.236   1.745  13.355  1.2866 -1.7148 -0.3721
  745TMC3    C711069   0.491   1.808  13.291 -0.1621 -0.5895  0.2013
  745TMC3    C811070   0.139   1.773  13.608 -0.4050 -0.2889 -0.4772
  745TMC3    O111071   0.424   1.769  13.195  0.0239  0.0718 -0.0999
  745TMC3    O211072   0.055   1.803  13.524 -0.2668  0.3358 -0.5168
  746TMC3    C111073   2.980   3.748  11.041  0.4077  0.5010  0.5522
  746TMC3    C211074   2.999   3.799  10.917 -0.3230  0.2884  0.2460
  746TMC3    C311075   2.941   3.724  10.812 -1.3071  0.3667  0.2347
  746TMC3    C411076   2.918   3.635  11.062  0.3253 -0.5214 -0.0951
  746TMC3    C511077   2.864   3.564  10.961 -0.2150  0.2487 -0.1758
  746TMC3    C611078   2.873   3.609  10.833  0.0363  0.2371  0.0874
  746TMC3     C11079   3.037   3.819  11.155  0.4221  0.2680  0.3753
  746TMC3     O11080   3.001   3.794  11.270 -0.1643 -0.3474  0.3170
  746TMC3     H11081   3.042   3.896  10.896 -2.6409  1.3309  0.3856
  746TMC3    H111082   2.901   3.605  11.165 -1.5154  3.1232  0.6455
  746TMC3    H211083   2.844   3.546  10.749 -0.2648 -0.4047  0.6753
  746TMC3    C711084   2.757   3.461  10.976  0.0916  0.0620  0.0808
  746TMC3    C811085   2.965   3.765  10.672  0.0555 -0.1578  0.2928
  746TMC3    O111086   2.679   3.451  10.881  0.1783 -0.0950 -0.7457
  746TMC3    O211087   2.882   3.727  10.592  0.0318  0.5596 -0.3764
  747TMC3    C111088   0.537   3.794  10.854 -0.7986 -0.2507  0.1883
  747TMC3    C211089   0.430   3.744  10.921  0.4071  0.5012 -0.6262
  747TMC3    C311090   0.443   3.732  11.056 -0.0271  0.6209  0.0040
  747TMC3    C411091   0.647   3.841  10.917 -0.6101 -0.3341  0.2870
  747TMC3    C511092   0.651   3.825  11.054 -0.3085  0.0284 -0.1283
  747TMC3    C611093   0.554   3.770  11.121  0.1082 -0.1212 -0.0516
  747TMC3     C11094   0.525   3.823  10.713 -0.5059  0.0449  0.1309
  747TMC3     O11095   0.602   3.907  10.673 -0.2284 -0.5594  0.2581
  747TMC3     H11096   0.329   3.729  10.885  0.4664 -3.7056  0.9430
  747TMC3    H111097   0.730   3.883  10.861 -1.0913 -0.1914 -0.3152
  747TMC3    H211098   0.573   3.738  11.223 -0.7706 -0.4970 -0.0075
  747TMC3    C711099   0.751   3.889  11.131  0.1648 -0.3387  0.7251
  747TMC3    C811100   0.340   3.667  11.132 -0.7615  0.4706  0.1847
  747TMC3    O111101   0.716   3.940  11.238 -0.1401 -0.9465  0.6136
  747TMC3    O211102   0.222   3.685  11.100 -0.4530 -0.3938 -0.9338
  748MPD2     C11103   1.964   0.180   1.262  0.1659 -0.0418 -0.5805
  748MPD2    C111104   1.973   0.099   1.151 -0.3797  0.3630 -0.5354
  748MPD2    C211105   2.098   0.049   1.113  0.2990 -0.0215  0.1076
  748MPD2    C311106   2.207   0.077   1.189 -0.3602 -0.5062 -0.9467
  748MPD2    C411107   2.199   0.154   1.305  0.5728  0.4247 -0.0502
  748MPD2    C511108   2.073   0.197   1.346 -0.3511 -0.1161 -0.6135
  748MPD2     H11109   2.100   4.715   1.033  2.7434 -1.8675  1.8128
  748MPD2    H111110   2.282   0.187   1.367  0.0974 -0.7126  1.1805
  748MPD2    H211111   1.876   0.237   1.291 -0.3624 -1.1903  0.0862
  748MPD2    H311112   2.065   0.269   1.427  2.5280 -0.9747  0.4472
  748MPD2     N11113   2.333   0.037   1.138 -0.3322 -0.1292  0.1961
  748MPD2    H511114   2.333   4.727   1.048 -2.9438  0.9886 -0.4014
  748MPD2    N111115   1.852   0.063   1.093 -0.1949 -0.3324 -0.4702
  748MPD2    H711116   1.770   0.096   1.143  0.0683 -0.9191  0.3404
  749TMC3    C111117   2.561   0.041   1.129 -0.8581 -0.6297  0.3539
  749TMC3    C211118   2.671   4.723   1.183 -0.2086  0.0547 -0.2281
  749TMC3    C311119   2.771   4.705   1.085  0.0791  0.3041  0.0677
  749TMC3    C411120   2.540   0.088   0.999 -0.7287 -0.0051  0.3430
  749TMC3    C511121   2.648   0.079   0.921 -0.5455 -0.6894 -0.0960
  749TMC3    C611122   2.764   0.023   0.961  0.5247  0.3584 -0.1205
  749TMC3     C11123   2.447   0.039   1.211  0.5209  0.5004 -0.7402
  749TMC3     O11124   2.471   0.039   1.334 -0.2016  0.3269  0.2017
  749TMC3     H11125   2.683   4.675   1.280 -0.1798 -2.0549 -1.2604
  749TMC3    H111126   2.453   0.146   0.972 -0.5022  2.2301  4.3136
  749TMC3    H211127   2.841   0.014   0.885 -0.4310  0.1199 -1.0689
  749TMC3    C711128   2.667   0.178   0.815 -0.1991  0.2637 -0.0742
  749TMC3    C811129   2.910   4.675   1.125  0.1278  0.0251  0.2826
  749TMC3    O111130   2.778   0.224   0.795 -0.0686 -0.0457  0.0956
  749TMC3    O211131   2.984   4.632   1.040 -0.0146  0.1547  0.3087
  750MPD2     C11132   3.217   0.785  11.296  0.9068 -0.5295 -0.2425
  750MPD2    C111133   3.119   0.702  11.350 -0.0757 -0.2343 -0.2793
  750MPD2    C211134   3.084   0.588  11.298  0.3270  0.0876  0.1780
  750MPD2    C311135   3.152   0.533  11.188 -0.2477 -0.5223  0.1149
  750MPD2    C411136   3.242   0.615  11.125 -0.5609  0.1219  1.2114
  750MPD2    C511137   3.275   0.736  11.183  0.1126  0.1049 -0.0876
  750MPD2     H11138   3.017   0.523  11.353 -0.4385 -0.0635 -0.9332
  750MPD2    H111139   3.311   0.587  11.046 -0.0252  2.0845  0.9810
  750MPD2    H211140   3.259   0.873  11.345  2.4183 -2.7395  2.4461
  750MPD2    H311141   3.348   0.801  11.137  0.9907 -1.7264 -1.2491
  750MPD2     N11142   3.143   0.398  11.134 -0.4431 -0.1320 -0.2864
  750MPD2    H511143   3.182   0.377  11.042 -1.1425  2.0843 -1.0987
  750MPD2    N111144   3.071   0.740  11.479 -0.0601 -0.1296  0.7184
  750MPD2    H711145   3.104   0.828  11.518 -1.5782  0.0624  1.5692
  751TMC3    C111146   3.052   0.183  11.112  0.3189  0.4803 -0.2798
  751TMC3    C211147   2.973   0.086  11.169 -0.2136 -0.5683  0.3440
  751TMC3    C311148   2.988   4.697  11.120  0.3158 -0.1238  0.6336
  751TMC3    C411149   3.149   0.155  11.020  0.3474  0.0459  0.3152
  751TMC3    C511150   3.155   0.028  10.971  0.0149 -0.6199  0.1810
  751TMC3    C611151   3.074   4.663  11.019  0.3081 -0.0804  0.3449
  751TMC3     C11152   3.056   0.303  11.184  0.4447  0.2779  0.1307
  751TMC3     O11153   2.981   0.313  11.281 -0.6822 -0.0884 -0.2603
  751TMC3     H11154   2.913   0.103  11.258 -0.2795  0.5371  0.0891
  751TMC3    H111155   3.216   0.232  10.983  0.6181 -1.1585 -1.6885
  751TMC3    H211156   3.079   4.559  10.989  1.1269 -0.2274  0.9892
  751TMC3    C711157   3.232   0.009  10.850  0.5869 -0.0609 -0.6049
  751TMC3    C811158   2.890   4.595  11.161 -0.4252  0.4313  0.3475
  751TMC3    O111159   3.332   0.077  10.842 -0.0732  0.0404  0.2584
  751TMC3    O211160   2.930   4.480  11.163  0.1832 -0.0532 -0.1498
  752TMC3    C111161   1.121   0.725  17.043 -0.3501 -1.0523  0.0450
  752TMC3    C211162   1.199   0.645  17.119  0.2755  0.0758 -0.7230
  752TMC3    C311163   1.152   0.601  17.238 -0.3671  0.0893 -0.8363
  752TMC3    C411164   0.993   0.756  17.085  0.5965  0.4030 -0.1919
  752TMC3    C511165   0.954   0.715  17.209 -0.0396 -0.0082 -0.5713
  752TMC3    C611166   1.023   0.620  17.285  0.0941  0.0295  0.0851
  752TMC3     C11167   1.162   0.760  16.910 -0.3626  0.4881 -0.3693
  752TMC3     O11168   1.251   0.701  16.858  0.0271  0.0125 -0.2626
  752TMC3     H11169   1.283   0.594  17.073  1.2181 -0.3333  1.4472
  752TMC3    H111170   0.930   0.813  17.017  2.0936 -0.8336 -2.6410
  752TMC3    H211171   0.983   0.578  17.377 -2.8877 -1.3556 -1.8442
  752TMC3    C711172   0.822   0.748  17.258  0.6085 -0.3159  0.7056
  752TMC3    C811173   1.236   0.524  17.325  0.4590 -0.6952 -0.2786
  752TMC3    O111174   0.773   0.661  17.330 -0.4679  0.1999  0.2540
  752TMC3    O211175   1.174   0.486  17.423  0.0955  0.2658  0.0168
  753TMC3    C111176   3.787   1.585  13.500  0.2557  0.0252  0.1308
  753TMC3    C211177   3.880   1.568  13.597  1.1566  0.0119  0.2310
  753TMC3    C311178   3.997   1.502  13.571  0.1205 -0.2171  0.6330
  753TMC3    C411179   3.810   1.532  13.376  0.6751  0.4697 -0.1988
  753TMC3    C511180   3.925   1.459  13.354  0.6088  0.7033 -0.0238
  753TMC3    C611181   4.022   1.449  13.451  0.1263  0.2542  0.2111
  753TMC3     C11182   3.666   1.650  13.538  0.2729  0.0382 -0.8991
  753TMC3     O11183   3.644   1.690  13.654 -0.0826  0.2627  0.1115
  753TMC3     H11184   3.864   1.610  13.695 -1.9977  2.0839 -1.1899
  753TMC3    H111185   3.741   1.556  13.296  0.0375 -0.3452  0.1101
  753TMC3    H211186   4.117   1.398  13.449  0.6834  1.4112 -1.8210
  753TMC3    C711187   3.967   1.423  13.219  0.1363 -0.6202 -0.6656
  753TMC3    C811188   4.103   1.479  13.668  0.1912  0.2763  0.0656
  753TMC3    O111189   4.087   1.414  13.191  0.0830  0.2853  0.2691
  753TMC3    O211190   4.156   1.371  13.671  0.3315 -0.6054 -0.1661
  754MPD2     C11191   2.900   0.644  13.027  0.2365 -0.0804  0.0609
  754MPD2    C111192   2.866   0.515  13.065  0.5512 -0.2877  0.4154
  754MPD2    C211193   2.733   0.472  13.034 -0.9926 -0.7403 -0.6609
  754MPD2    C311194   2.647   0.565  12.979 -0.1974  0.6278 -0.0234
  754MPD2    C411195   2.687   0.689  12.937 -0.2625  0.5114  0.0263
  754MPD2    C511196   2.810   0.724  12.966  0.5878 -0.3997 -0.5051
  754MPD2     H11197   2.711   0.367  13.049 -1.0945 -0.7635 -0.9869
  754MPD2    H111198   2.613   0.759  12.899 -0.9010 -0.2234 -0.0754
  754MPD2    H211199   3.002   0.680  13.032  0.0369  0.7109 -1.5330
  754MPD2    H311200   2.856   0.819  12.942 -1.8029  0.2997 -2.2861
  754MPD2     N11201   2.508   0.529  12.952 -0.2592  0.7344 -0.0940
  754MPD2    H511202   2.455   0.595  12.896 -0.7542 -0.6475 -1.2384
  754MPD2    N111203   2.973   0.440  13.120  0.4000 -0.2109  0.5054
  754MPD2    H711204   3.066   0.480  13.114  0.0524  0.2142 -1.8526
  755MPD2     C11205   2.008   1.118  12.818 -0.0588 -0.4468  0.0774
  755MPD2    C111206   1.921   1.035  12.888 -0.8554  0.1322 -0.2635
  755MPD2    C211207   1.941   0.900  12.886 -0.1181 -0.4542  0.1878
  755MPD2    C311208   2.046   0.843  12.818 -0.5784  0.4593  0.1245
  755MPD2    C411209   2.137   0.928  12.754  0.1230 -0.2895 -0.0701
  755MPD2    C511210   2.110   1.064  12.746 -0.0473  0.2905  0.2636
  755MPD2     H11211   1.881   0.836  12.950 -0.6407  0.7695  0.9291
  755MPD2    H111212   2.222   0.888  12.701 -0.8983 -0.5891 -1.4838
  755MPD2    H211213   1.998   1.226  12.826  1.4923 -0.3922  1.3237
  755MPD2    H311214   2.184   1.129  12.700 -0.6215  0.8803  0.1722
  755MPD2     N11215   2.097   0.710  12.832  0.1697 -0.2918  0.8819
  755MPD2    H511216   2.186   0.685  12.791 -0.8913 -2.3309 -0.1611
  755MPD2    N111217   1.826   1.099  12.971  0.1263 -0.4700 -0.1053
  755MPD2    H711218   1.785   1.039  13.042  1.1711 -0.5245  0.4554
  756MPD2     C11219   3.138   1.680   9.879 -0.0062 -0.0462  0.0084
  756MPD2    C111220   3.015   1.652   9.934 -0.4547 -0.8693 -0.4878
  756MPD2    C211221   2.909   1.715   9.882 -0.4399 -0.0901  0.2114
  756MPD2    C311222   2.926   1.800   9.768  0.3040 -0.4946  0.5365
  756MPD2    C411223   3.056   1.832   9.724 -0.1653 -0.1156  0.2007
  756MPD2    C511224   3.158   1.771   9.783 -0.2427 -0.0089 -0.5796
  756MPD2     H11225   2.807   1.681   9.900 -0.0691 -1.7301 -0.8298
  756MPD2    H111226   3.075   1.903   9.644 -3.7723 -1.5117 -1.9100
  756MPD2    H211227   3.227   1.626   9.908 -1.1043 -1.6629  0.3835
  756MPD2    H311228   3.258   1.796   9.748  0.3990 -0.2702  1.0726
  756MPD2     N11229   2.810   1.849   9.712 -0.0432 -0.3029  0.2213
  756MPD2    H511230   2.723   1.799   9.727  0.5707 -1.7758 -1.2997
  756MPD2    N111231   2.997   1.567  10.045 -0.4019 -0.5389  0.1995
  756MPD2    H711232   2.910   1.562  10.097 -1.2998 -0.4400 -1.2920
  757MPD2     C11233   2.045   1.490   9.753 -0.0978 -0.2017  0.2102
  757MPD2    C111234   2.171   1.478   9.796  0.1316 -0.5372 -0.0417
  757MPD2    C211235   2.269   1.562   9.750  0.2261 -1.0454  0.3634
  757MPD2    C311236   2.236   1.668   9.667 -0.0376 -0.4680 -0.4120
  757MPD2    C411237   2.109   1.680   9.612  0.1376 -0.0509  0.0614
  757MPD2    C511238   2.019   1.578   9.653  0.4868  0.0531  0.0320
  757MPD2     H11239   2.366   1.552   9.797 -0.4469 -1.0590  1.7395
  757MPD2    H111240   2.073   1.753   9.541 -1.6037 -0.6666  0.2942
  757MPD2    H211241   1.959   1.437   9.790 -0.5249 -0.0836 -0.5959
  757MPD2    H311242   1.917   1.591   9.619  1.1422 -1.9265 -2.6830
  757MPD2     N11243   2.345   1.757   9.625 -0.0628  0.0564  0.2401
  757MPD2    H511244   2.439   1.736   9.657 -0.0868 -0.2796  0.0917
  757MPD2    N111245   2.192   1.369   9.889  0.0721 -0.5830  0.2294
  757MPD2    H711246   2.115   1.307   9.914  0.1820 -1.2601 -1.0727
  758MPD2     C11247   2.789   0.248  15.469  0.0892  0.5048 -0.1347
  758MPD2    C111248   2.835   0.199  15.593  0.7461 -0.1292  0.3163
  758MPD2    C211249   2.742   0.201  15.695 -0.3340  0.5532 -0.0939
  758MPD2    C311250   2.610   0.246  15.677  0.8969  0.4113  0.1837
  758MPD2    C411251   2.570   0.303  15.561  0.0399  0.3553 -1.0252
  758MPD2    C511252   2.664   0.311  15.456  0.1425  0.8061  0.0312
  758MPD2     H11253   2.778   0.173  15.794  1.2554 -0.6493 -1.0235
  758MPD2    H111254   2.465   0.330  15.553  0.5999  2.3325 -1.6462
  758MPD2    H211255   2.858   0.267  15.388 -2.0387  2.3732 -1.4945
  758MPD2    H311256   2.631   0.341  15.357  1.0399 -1.4112 -0.9449
  758MPD2     N11257   2.511   0.227  15.780  0.3454  0.4042  0.0916
  758MPD2    H511258   2.416   0.248  15.752  0.6767  2.3070  0.3478
  758MPD2    N111259   2.972   0.155  15.615 -0.3646  0.3167  0.3915
  758MPD2    H711260   3.030   0.157  15.532 -1.2703  2.7591 -0.1823
  759MPD2     C11261   1.192   3.078  10.725  0.3299 -0.4609 -0.1410
  759MPD2    C111262   1.239   2.970  10.657 -0.1169  0.7139  0.9562
  759MPD2    C211263   1.347   2.989  10.579 -0.0816  0.1565  0.3569
  759MPD2    C311264   1.411   3.113  10.561  0.1515  0.5545 -0.1374
  759MPD2    C411265   1.358   3.224  10.621 -0.8733 -0.3596  0.5507
  759MPD2    C511266   1.249   3.204  10.703 -0.2809  1.0640  0.0422
  759MPD2     H11267   1.382   2.906  10.518 -2.2216 -0.9524  0.6353
  759MPD2    H111268   1.399   3.324  10.624 -2.2156  0.2677 -1.8510
  759MPD2    H211269   1.099   3.090  10.778 -0.3241 -2.4384 -0.8178
  759MPD2    H311270   1.202   3.281  10.762 -1.2242  0.6871 -0.2183
  759MPD2     N11271   1.525   3.130  10.479  0.2224  0.3661  0.8940
  759MPD2    H511272   1.553   3.048  10.425 -0.5172  0.3357  0.5652
  759MPD2    N111273   1.174   2.846  10.659 -0.1946  0.0312  0.2556
  759MPD2    H711274   1.204   2.773  10.595 -2.0516 -0.8401  0.3827
  760MPD2     C11275   0.972   0.970  11.537 -0.1104  0.4080  0.0957
  760MPD2    C111276   1.104   0.945  11.541 -0.4187 -0.6627  0.6820
  760MPD2    C211277   1.144   0.816  11.570 -0.3597  0.6347 -0.5162
  760MPD2    C311278   1.052   0.726  11.602  0.5710 -0.3527  0.3463
  760MPD2    C411279   0.917   0.744  11.603 -0.3361  0.2001  0.0208
  760MPD2    C511280   0.876   0.869  11.563 -0.0989  0.1587 -0.8573
  760MPD2     H11281   1.251   0.802  11.572 -0.3838  0.6301  0.9463
  760MPD2    H111282   0.849   0.667  11.636 -1.2260  0.6598 -0.7255
  760MPD2    H211283   0.935   1.069  11.514 -0.9159 -0.1325 -0.9195
  760MPD2    H311284   0.774   0.904  11.574  0.1502  0.2874  1.0083
  760MPD2     N11285   1.109   0.606  11.652 -0.0208  0.9508  0.6218
  760MPD2    H511286   1.211   0.606  11.648 -0.0228  1.2351  0.5940
  760MPD2    N111287   1.201   1.043  11.520  0.3570  0.6172 -0.1816
  760MPD2    H711288   1.299   1.018  11.521  0.1359 -0.3322 -1.7243
  761MPD2     C11289   2.439   4.469  10.989  0.0819 -0.5755  0.1269
  761MPD2    C111290   2.558   4.406  10.984 -0.1397  0.4426 -0.3830
  761MPD2    C211291   2.660   4.468  11.046 -0.7916  1.1669 -0.4183
  761MPD2    C311292   2.652   4.579  11.130  0.5612 -0.4697  0.1520
  761MPD2    C411293   2.523   4.635  11.134  0.2217 -0.2831 -0.1006
  761MPD2    C511294   2.424   4.579  11.064 -0.1167  0.2784  0.4633
  761MPD2     H11295   2.758   4.427  11.024 -0.7794  0.4444  0.9501
  761MPD2    H111296   2.494   4.717  11.199  1.4604 -0.0199  0.1250
  761MPD2    H211297   2.359   4.434  10.925 -0.6300  0.5469  0.3922
  761MPD2    H311298   2.325   4.621  11.067  0.2268  1.1658 -0.7567
  761MPD2     N11299   2.763   4.645  11.183 -0.0979  0.0672  0.7000
  761MPD2    H511300   2.756   0.006  11.207  0.9542  0.8703 -2.4247
  761MPD2    N111301   2.560   4.283  10.900  0.2115  0.1024 -0.8798
  761MPD2    H711302   2.472   4.266  10.853 -0.9457  1.6027  0.7234
  762MPD2     C11303   3.357   4.499  11.101 -0.1673 -1.2611 -0.0604
  762MPD2    C111304   3.309   4.392  11.025  0.3129 -0.1344  0.2742
  762MPD2    C211305   3.388   4.349  10.922 -0.0750 -0.4539 -0.9075
  762MPD2    C311306   3.485   4.429  10.876 -0.7138 -0.3241  0.0569
  762MPD2    C411307   3.526   4.542  10.934 -0.3057 -0.7399 -0.0772
  762MPD2    C511308   3.465   4.572  11.055  0.2368 -0.2957  0.9284
  762MPD2     H11309   3.359   4.261  10.866 -0.9098 -0.7994  0.0614
  762MPD2    H111310   3.601   4.606  10.890 -0.5941 -0.9903 -0.9360
  762MPD2    H211311   3.306   4.537  11.188 -0.3287 -2.9820  0.6034
  762MPD2    H311312   3.495   4.653  11.122  1.6196  1.0283 -1.2932
  762MPD2     N11313   3.552   4.384  10.758 -0.3971 -0.5491  0.3075
  762MPD2    H511314   3.514   4.296  10.726  2.8800 -0.4557 -3.8811
  762MPD2    N111315   3.185   4.333  11.062  0.0111  0.3380  0.1075
  762MPD2    H711316   3.148   4.368  11.150 -2.0824 -0.2589 -0.5397
  763MPD2     C11317   4.542   0.277  16.071 -0.0836  0.9188  0.4468
  763MPD2    C111318   4.434   0.313  15.988  0.0112 -0.0767 -0.1459
  763MPD2    C211319   4.391   0.442  16.005 -0.8044  0.5416 -0.0510
  763MPD2    C311320   4.465   0.533  16.085 -0.0828  0.1320  0.3014
  763MPD2    C411321   4.562   0.488  16.168 -0.2124 -0.6634 -0.1249
  763MPD2    C511322   4.590   0.356  16.172 -0.2510 -0.0480 -0.3124
  763MPD2     H11323   4.317   0.478  15.936 -0.8998  2.9672  1.3181
  763MPD2    H111324   4.621   0.552  16.231 -0.3197 -1.4637  0.7909
  763MPD2    H211325   4.585   0.177  16.068  0.1183  0.9750  1.5487
  763MPD2    H311326   4.679   0.325  16.224 -1.0190 -0.2667  0.8698
  763MPD2     N11327   4.445   0.671  16.077  0.3365 -0.3351  0.1888
  763MPD2    H511328   4.529   0.723  16.102  0.6438  0.3787 -2.3760
  763MPD2    N111329   4.375   0.228  15.894 -0.4388  0.3466  1.1155
  763MPD2    H711330   4.302   0.262  15.833 -0.7329  1.7443  2.2605
  764MPD2     C11331   1.743   1.260  17.641  0.3687  0.3180 -0.5489
  764MPD2    C111332   1.727   1.392  17.630 -0.0791 -0.1045  0.5105
  764MPD2    C211333   1.750   1.471  17.741 -0.6677 -0.5764 -0.1328
  764MPD2    C311334   1.786   1.424   0.116 -0.3571 -0.1386  0.9697
  764MPD2    C411335   1.799   1.287   0.131  0.0029 -1.0429 -0.4441
  764MPD2    C511336   1.770   1.211   0.019  0.0990  0.2039 -0.2483
  764MPD2     H11337   1.753   1.577  17.721 -0.3528 -0.1281  2.2712
  764MPD2    H111338   1.834   1.239   0.222 -0.0236  2.1648  1.2552
  764MPD2    H211339   1.738   1.191  17.557 -0.1857 -0.7963  0.4125
  764MPD2    H311340   1.774   1.103   0.029  1.6455  0.3305  0.5295
  764MPD2     N11341   1.806   1.525   0.219  0.1623 -0.1837 -0.1528
  764MPD2    H511342   1.802   1.625   0.206 -0.3824 -0.1325  0.4026
  764MPD2    N111343   1.686   1.457  17.516  0.4002  0.5278  0.0218
  764MPD2    H711344   1.669   1.557  17.521  1.3771  0.7262 -0.6445
  765MPD2     C11345   1.744   4.145  15.843  0.3640 -0.3786  0.6278
  765MPD2    C111346   1.826   4.246  15.800 -0.2558  0.6312  0.5861
  765MPD2    C211347   1.962   4.229  15.785 -0.6075 -0.2511 -0.2233
  765MPD2    C311348   2.019   4.102  15.816 -0.6822  0.0564 -1.0714
  765MPD2    C411349   1.931   3.999  15.863 -0.5686 -0.2594  1.0252
  765MPD2    C511350   1.798   4.024  15.871 -0.2951  0.3917 -0.0139
  765MPD2     H11351   2.020   4.314  15.751 -0.7985 -0.2845 -0.6301
  765MPD2    H111352   1.966   3.904  15.904 -0.9008  0.8755  3.9659
  765MPD2    H211353   1.636   4.158  15.846  0.7592  3.3972 -1.5110
  765MPD2    H311354   1.723   3.948  15.892  1.4337 -1.5396 -0.9026
  765MPD2     N11355   2.157   4.084  15.802 -0.4898  0.2994  0.7216
  765MPD2    H511356   2.211   4.168  15.781 -0.5317  0.0086 -0.5784
  765MPD2    N111357   1.758   4.360  15.748 -0.0587  0.2118  0.5245
  765MPD2    H711358   1.657   4.367  15.760  0.0655  0.5401  1.3373
  766MPD2     C11359   1.366   4.445  15.171  0.3139  0.2607 -0.1128
  766MPD2    C111360   1.501   4.463  15.208  0.2406 -0.5219  0.2483
  766MPD2    C211361   1.600   4.445  15.117 -0.8742 -0.4518  0.2207
  766MPD2    C311362   1.573   4.400  14.985 -0.1069  0.3415  0.7458
  766MPD2    C411363   1.439   4.384  14.956  0.2994 -0.4894 -0.1567
  766MPD2    C511364   1.334   4.396  15.045 -0.1781  0.2357 -0.1961
  766MPD2     H11365   1.701   4.468  15.151 -0.3025 -1.7776 -0.5493
  766MPD2    H111366   1.415   4.353  14.855 -2.2224  1.1240 -0.0542
  766MPD2    H211367   1.289   4.459  15.247 -0.1608  1.3474 -0.7978
  766MPD2    H311368   1.231   4.371  15.021 -0.3826 -0.0118  0.9377
  766MPD2     N11369   1.668   4.391  14.880  0.0994 -0.1181 -0.4734
  766MPD2    H511370   1.623   4.387  14.790  0.2938 -0.4463 -0.5550
  766MPD2    N111371   1.537   4.508  15.338  0.4963  0.7702 -0.1512
  766MPD2    H711372   1.635   4.502  15.361  0.6694 -1.7316 -1.4910
  767MPD2     C11373   1.298   0.042  14.906  0.4600 -0.2543  0.9431
  767MPD2    C111374   1.426   0.005  14.868  0.0450 -0.4645 -0.2057
  767MPD2    C211375   1.440   4.646  14.772  0.5671 -0.4240 -0.0764
  767MPD2    C311376   1.333   4.605  14.698  0.2171 -0.6622  1.0273
  767MPD2    C411377   1.212   4.661  14.724 -0.4602  0.5035  0.1466
  767MPD2    C511378   1.193   4.737  14.834  1.1040 -0.0710  0.2034
  767MPD2     H11379   1.537   4.602  14.750  0.8293  0.3094 -0.3831
  767MPD2    H111380   1.122   4.634  14.672 -0.8692  2.2960 -0.0774
  767MPD2    H211381   1.275   0.111  14.987  0.0796 -1.4129  1.8317
  767MPD2    H311382   1.095   0.044  14.849  1.0629  1.3761 -4.6753
  767MPD2     N11383   1.344   4.520  14.582 -0.5930  0.3104 -0.2881
  767MPD2    H511384   1.276   4.522  14.506  0.1179  1.9201 -0.8749
  767MPD2    N111385   1.530   0.066  14.940  0.6067 -0.3757 -0.2300
  767MPD2    H711386   1.513   0.144  15.002 -0.8643  1.1043 -2.4683
  768MPD2     C11387   2.719   3.135  10.577 -0.3969  0.0901 -0.1804
  768MPD2    C111388   2.693   3.028  10.657 -0.0027 -0.8954  0.0318
  768MPD2    C211389   2.774   2.998  10.760  0.0764 -0.2762  0.2252
  768MPD2    C311390   2.872   3.077  10.798 -0.1947  0.1229  0.1700
  768MPD2    C411391   2.904   3.187  10.719 -0.1757 -0.2076  0.0778
  768MPD2    C511392   2.821   3.220  10.615  0.2164  0.1585 -0.5964
  768MPD2     H11393   2.752   2.913  10.824 -0.3540 -0.5829 -0.3358
  768MPD2    H111394   2.981   3.257  10.747 -0.0253 -0.4759  0.3370
  768MPD2    H211395   2.673   3.153  10.480  1.2217  0.8711 -0.8072
  768MPD2    H311396   2.849   3.308  10.559  2.1819 -0.3049 -0.3613
  768MPD2     N11397   2.958   3.048  10.909  0.3772 -0.4132 -0.7557
  768MPD2    H511398   3.031   3.116  10.924  1.5376 -2.0463  0.9317
  768MPD2    N111399   2.575   2.951  10.636  0.4283  0.3379 -0.0241
  768MPD2    H711400   2.568   2.869  10.696  0.8663  0.5957  0.3814
  769MPD2     C11401   3.153   1.690  14.545 -0.6690 -0.0637  0.6001
  769MPD2    C111402   3.091   1.630  14.652 -0.0499 -0.5302  0.4126
  769MPD2    C211403   3.152   1.613  14.772 -0.5961  0.6454  0.2956
  769MPD2    C311404   3.281   1.656  14.779  0.3949 -0.9069 -0.1045
  769MPD2    C411405   3.342   1.726  14.672  0.3935 -0.1191 -0.0572
  769MPD2    C511406   3.272   1.744  14.560  0.0066  0.4568 -0.3616
  769MPD2     H11407   3.108   1.564  14.858  0.6674 -0.6231  0.2210
  769MPD2    H111408   3.441   1.770  14.665  0.5908 -0.4985  0.3122
  769MPD2    H211409   3.104   1.708  14.450 -0.8245  2.1587  1.1125
  769MPD2    H311410   3.310   1.794  14.472  1.9063  1.1982  0.8851
  769MPD2     N11411   3.354   1.622  14.900 -0.0700  0.1001  1.1008
  769MPD2    H511412   3.299   1.577  14.972 -0.8030 -2.3043 -0.9583
  769MPD2    N111413   2.955   1.585  14.635 -0.5129  0.1111 -0.3754
  769MPD2    H711414   2.926   1.593  14.538 -0.5887  1.0490 -0.2756
  770MPD2     C11415   2.649   0.635  15.016  0.2040  0.2921 -0.7924
  770MPD2    C111416   2.721   0.633  14.898  0.2206  0.6998 -0.5214
  770MPD2    C211417   2.735   0.751  14.827 -0.2712 -0.7037  0.2398
  770MPD2    C311418   2.674   0.865  14.871  0.0353 -0.0144  0.5187
  770MPD2    C411419   2.611   0.874  14.997 -0.1070 -0.1695 -0.7227
  770MPD2    C511420   2.602   0.754  15.057 -0.1173 -1.0210 -0.5109
  770MPD2     H11421   2.786   0.753  14.731 -0.7460 -0.1007 -0.0058
  770MPD2    H111422   2.571   0.963  15.045  0.5969  1.1956 -2.6797
  770MPD2    H211423   2.628   0.541  15.068  0.6399 -0.4258 -1.9117
  770MPD2    H311424   2.557   0.741  15.155  2.0654  2.2906  0.9547
  770MPD2     N11425   2.696   0.977  14.790 -0.4022  0.0166  0.3561
  770MPD2    H511426   2.747   0.966  14.703 -2.6219 -0.4504 -0.8788
  770MPD2    N111427   2.774   0.507  14.854  0.2953 -0.0082  0.3209
  770MPD2    H711428   2.748   0.422  14.904 -0.8160 -0.3992 -0.9107
  771MPD2     C11429   4.354   3.438  13.860  0.6000  0.3656 -0.8497
  771MPD2    C111430   4.248   3.499  13.791  0.2770  0.0975 -1.0995
  771MPD2    C211431   4.138   3.430  13.750 -0.4556  0.1383  0.2488
  771MPD2    C311432   4.124   3.293  13.779 -0.1053  0.1418  0.1216
  771MPD2    C411433   4.229   3.235  13.846  0.3653 -0.1625 -0.0872
  771MPD2    C511434   4.341   3.306  13.886  0.2702 -0.2549  0.4508
  771MPD2     H11435   4.071   3.486  13.685  0.9621  0.3870 -1.0012
  771MPD2    H111436   4.241   3.129  13.867 -2.0053 -0.3312  0.4043
  771MPD2    H211437   4.438   3.500  13.890 -1.0772  0.6722  3.1733
  771MPD2    H311438   4.422   3.251  13.931  0.9154  1.2341  1.1245
  771MPD2     N11439   4.010   3.225  13.729 -0.2853  0.3120 -0.3725
  771MPD2    H511440   3.940   3.279  13.678 -2.8786 -1.6324  1.0985
  771MPD2    N111441   4.253   3.632  13.738  0.0646 -0.7710  0.5356
  771MPD2    H711442   4.170   3.668  13.694  0.2071 -0.5609  0.4390
  772MPD2     C11443   3.840   4.132  13.410  0.4960 -0.5595 -0.1416
  772MPD2    C111444   3.884   4.121  13.541  0.5787 -0.0288  0.0486
  772MPD2    C211445   3.798   4.163  13.642  0.2286 -0.2967 -0.6064
  772MPD2    C311446   3.669   4.212  13.615  0.0483  0.0922 -0.0883
  772MPD2    C411447   3.632   4.224  13.484  0.5023 -0.8598  0.0900
  772MPD2    C511448   3.719   4.184  13.379  0.5875  0.7129  0.2617
  772MPD2     H11449   3.838   4.163  13.743 -1.5494  3.5408  0.0819
  772MPD2    H111450   3.532   4.261  13.463  1.0257 -0.2568 -1.3400
  772MPD2    H211451   3.904   4.126  13.323 -0.8420 -0.8614 -1.1153
  772MPD2    H311452   3.700   4.199  13.274  0.2800  0.2171  0.2476
  772MPD2     N11453   3.580   4.251  13.712  0.0506  0.6057  0.2445
  772MPD2    H511454   3.492   4.278  13.669 -1.5519 -0.3755  2.9221
  772MPD2    N111455   4.013   4.074  13.578 -0.7997  0.3761  0.4061
  772MPD2    H711456   4.039   4.070  13.676  0.0845  0.9948  0.2038
  773MPD2     C11457   2.928   0.882   0.042 -0.5165 -0.2568  1.0707
  773MPD2    C111458   2.891   0.756   0.010  0.8885  0.6895  0.0495
  773MPD2    C211459   2.913   0.656   0.100  0.2242  0.3345 -0.0090
  773MPD2    C311460   2.983   0.672   0.215  0.1584  0.3277  0.2823
  773MPD2    C411461   3.025   0.801   0.244 -0.1228 -0.1127 -0.5773
  773MPD2    C511462   2.989   0.900   0.166 -0.5234  0.1189  0.1526
  773MPD2     H11463   2.880   0.555   0.083  0.6648  0.3323 -0.8256
  773MPD2    H111464   3.097   0.821   0.323 -0.3478 -0.2149 -0.3444
  773MPD2    H211465   2.911   0.971  17.732 -0.2485 -0.2614  0.9876
  773MPD2    H311466   3.031   0.996   0.192  0.4446  0.0763 -1.2479
  773MPD2     N11467   3.012   0.556   0.294  0.0845  0.3988  0.2810
  773MPD2    H511468   2.982   0.466   0.258 -1.0169  1.1159 -0.5992
  773MPD2    N111469   2.821   0.733  17.641  0.0595 -0.0345  0.1364
  773MPD2    H711470   2.781   0.641  17.628 -1.8497  1.0837 -2.1525
  774MPD2     C11471   2.809   4.300  13.744 -0.5741 -0.1883  0.5392
  774MPD2    C111472   2.709   4.395  13.771 -0.1193  0.0067 -0.4194
  774MPD2    C211473   2.701   4.508  13.698 -0.0285 -0.0618 -0.2035
  774MPD2    C311474   2.784   4.523  13.586 -0.0971 -0.4933 -0.0869
  774MPD2    C411475   2.880   4.426  13.558 -0.1514  0.7874 -0.1109
  774MPD2    C511476   2.894   4.322  13.640 -0.2076  0.5728  0.2584
  774MPD2     H11477   2.630   4.586  13.720 -1.7281 -1.5979 -0.2560
  774MPD2    H111478   2.947   4.436  13.474 -0.6590 -0.8834 -0.7054
  774MPD2    H211479   2.820   4.222  13.817 -0.6009 -0.2897  0.4345
  774MPD2    H311480   2.975   4.252  13.626  0.6723  1.5645  0.3421
  774MPD2     N11481   2.759   4.635  13.509  0.2852  0.5733 -0.5857
  774MPD2    H511482   2.705   4.709  13.552  1.7495  0.3657  1.6232
  774MPD2    N111483   2.621   4.368  13.875  0.4846 -0.5041 -0.1982
  774MPD2    H711484   2.641   4.282  13.925  0.8837 -0.5671 -0.4648
  775MPD2     C11485   3.564   1.111  15.405 -0.3335 -0.2666  0.7315
  775MPD2    C111486   3.619   1.186  15.510 -0.1943 -0.3774 -0.2039
  775MPD2    C211487   3.722   1.277  15.486 -0.5509 -0.6370  0.3155
  775MPD2    C311488   3.771   1.293  15.358  0.0044 -0.0562 -0.1180
  775MPD2    C411489   3.730   1.207  15.257  0.3458  0.5609  0.0687
  775MPD2    C511490   3.627   1.112  15.279 -0.3475 -0.0728  0.1914
  775MPD2     H11491   3.747   1.342  15.569 -1.1208 -0.9797  0.7552
  775MPD2    H111492   3.763   1.213  15.154  1.2288 -3.3663  0.1180
  775MPD2    H211493   3.478   1.047  15.420 -1.0497  0.8333  1.3185
  775MPD2    H311494   3.595   1.044  15.200  1.8726 -0.7974 -0.1100
  775MPD2     N11495   3.865   1.390  15.330  0.0854  0.2799  0.0306
  775MPD2    H511496   3.865   1.426  15.235 -0.3202  0.1282 -0.0263
  775MPD2    N111497   3.579   1.147  15.639 -0.6054  0.0502  0.4279
  775MPD2    H711498   3.509   1.074  15.641 -2.1893  1.5666  0.2377
  776MPD2     C11499   2.609   1.212  11.965 -0.9394  0.3305  0.2507
  776MPD2    C111500   2.680   1.199  11.847  0.4475 -0.0145 -0.5154
  776MPD2    C211501   2.636   1.271  11.732  0.0942  0.2817  0.1563
  776MPD2    C311502   2.529   1.353  11.749 -0.2061  0.7772 -0.0737
  776MPD2    C411503   2.447   1.352  11.865 -0.5016 -0.1021  0.4709
  776MPD2    C511504   2.493   1.285  11.975  0.6247  0.8404 -0.1423
  776MPD2     H11505   2.690   1.269  11.638 -0.1277 -1.2408  0.0579
  776MPD2    H111506   2.361   1.418  11.870  0.6166  1.3890 -0.1552
  776MPD2    H211507   2.640   1.173  12.061 -0.9060 -0.9185 -0.2640
  776MPD2    H311508   2.451   1.284  12.075 -0.5694  2.8284 -0.6217
  776MPD2     N11509   2.507   1.429  11.633  0.1402  0.0115 -0.2609
  776MPD2    H511510   2.582   1.434  11.565 -1.4736  1.0400 -1.9765
  776MPD2    N111511   2.787   1.112  11.849 -0.0245 -0.3365  0.4185
  776MPD2    H711512   2.807   1.073  11.940 -2.2010 -0.9232  0.6578
  777MPD2     C11513   3.698   3.979   0.690  0.6998 -0.1069 -0.1898
  777MPD2    C111514   3.588   4.022   0.758 -0.2203 -0.8822  0.1044
  777MPD2    C211515   3.467   3.956   0.721  0.0991  0.7824 -0.2107
  777MPD2    C311516   3.461   3.862   0.621  0.3779  0.0460  0.2362
  777MPD2    C411517   3.578   3.822   0.555 -0.3244  0.8146 -0.2480
  777MPD2    C511518   3.693   3.877   0.593 -0.0208 -0.3421  0.6884
  777MPD2     H11519   3.376   3.975   0.776  0.1013  0.4181 -0.0843
  777MPD2    H111520   3.579   3.746   0.478 -4.4350  0.7836 -0.2551
  777MPD2    H211521   3.795   4.023   0.712 -0.0527  1.7178 -0.5400
  777MPD2    H311522   3.782   3.842   0.542  0.0422  0.2115  0.4203
  777MPD2     N11523   3.329   3.817   0.581  0.5176  0.2531 -0.5759
  777MPD2    H511524   3.250   3.852   0.635  2.0999  2.3499  0.3489
  777MPD2    N111525   3.584   4.113   0.862 -0.8153  0.4477  0.1691
  777MPD2    H711526   3.491   4.129   0.900 -0.6638  0.9687  0.3112
  778MPD2     C11527   4.228   4.077  14.868  0.4657 -0.7621  0.2113
  778MPD2    C111528   4.217   3.983  14.773 -0.0104  0.6579 -0.5551
  778MPD2    C211529   4.270   4.010  14.645  0.1441 -0.0468  0.1282
  778MPD2    C311530   4.333   4.136  14.617 -0.8434  0.3809 -0.6800
  778MPD2    C411531   4.329   4.231  14.718 -0.7470 -0.4795 -0.4563
  778MPD2    C511532   4.268   4.203  14.834  0.2246 -0.0394 -0.5232
  778MPD2     H11533   4.265   3.932  14.571 -3.8974  1.0806 -0.7381
  778MPD2    H111534   4.370   4.330  14.698  1.0007 -1.8692 -3.8679
  778MPD2    H211535   4.195   4.069  14.971  1.0576  0.4647  0.5098
  778MPD2    H311536   4.275   4.280  14.910  1.8538 -1.5264  0.8577
  778MPD2     N11537   4.403   4.145  14.490 -0.0407  0.1902 -0.1621
  778MPD2    H511538   4.405   4.053  14.448 -0.0864  0.7135 -1.3047
  778MPD2    N111539   4.160   3.857  14.799  0.1781 -0.1733 -0.2311
  778MPD2    H711540   4.141   3.794  14.722  0.6199  0.4140 -0.8240
  779MPD2     C11541   3.833   2.632  14.251 -0.0443 -0.1772 -0.7335
  779MPD2    C111542   3.968   2.651  14.222 -0.1040 -0.4195  0.0625
  779MPD2    C211543   4.011   2.784  14.197  0.0484  0.9209  0.4236
  779MPD2    C311544   3.915   2.887  14.192  0.6285 -0.7036 -0.4095
  779MPD2    C411545   3.784   2.864  14.210  0.2357 -0.3038  0.8353
  779MPD2    C511546   3.745   2.736  14.250  0.4493  0.1129  0.1241
  779MPD2     H11547   4.116   2.804  14.177  0.0705  0.5736  0.1971
  779MPD2    H111548   3.711   2.944  14.207 -0.5824 -1.1318 -1.8834
  779MPD2    H211549   3.802   2.532  14.278  0.5853 -0.0681  0.3802
  779MPD2    H311550   3.639   2.720  14.268  0.7040 -1.1466  0.4965
  779MPD2     N11551   3.965   3.024  14.184  0.5736  0.1312  0.0578
  779MPD2    H511552   4.065   3.035  14.196  0.3534  1.9768  0.1441
  779MPD2    N111553   4.065   2.541  14.217  0.2430 -0.3995  0.3932
  779MPD2    H711554   4.160   2.569  14.195  0.0376 -0.4767 -0.6001
  780MPD2     C11555   3.467   2.892   0.752  0.5307 -0.3933  0.2365
  780MPD2    C111556   3.338   2.860   0.701 -0.0181 -0.0484 -0.5040
  780MPD2    C211557   3.328   2.871   0.564  0.5239  0.3003  0.4725
  780MPD2    C311558   3.435   2.892   0.476  0.3373 -0.7036 -0.7764
  780MPD2    C411559   3.562   2.922   0.530  0.7866  0.0539  0.2153
  780MPD2    C511560   3.573   2.927   0.665  0.0338  0.1039  0.4673
  780MPD2     H11561   3.232   2.843   0.521  1.1857 -1.8632  0.3972
  780MPD2    H111562   3.647   2.940   0.465 -1.3774  0.8401 -2.4334
  780MPD2    H211563   3.483   2.888   0.859 -0.2457  1.7029  0.4315
  780MPD2    H311564   3.667   2.949   0.714 -0.1496 -1.2831  1.4484
  780MPD2     N11565   3.403   2.887   0.338 -0.5147 -0.2440  0.1939
  780MPD2    H511566   3.312   2.853   0.309 -0.2490  0.1207 -1.0931
  780MPD2    N111567   3.241   2.823   0.792 -0.0286 -0.8524  0.0015
  780MPD2    H711568   3.266   2.828   0.891 -1.2483 -0.8623  0.3008
  781MPD2     C11569   0.604   3.812  12.156 -0.2136 -0.0136 -0.0074
  781MPD2    C111570   0.678   3.923  12.201  0.5810  0.0192 -0.1261
  781MPD2    C211571   0.789   3.964  12.132  0.0347  0.2814 -0.4500
  781MPD2    C311572   0.824   3.905  12.008  1.4136  0.6149  0.4982
  781MPD2    C411573   0.747   3.800  11.960  0.0628 -0.0090 -0.6808
  781MPD2    C511574   0.639   3.755  12.036 -0.2806  0.0591 -0.1384
  781MPD2     H11575   0.847   4.042  12.181  1.2661 -1.5295  0.9938
  781MPD2    H111576   0.771   3.755  11.864 -0.0588  2.2267 -1.7603
  781MPD2    H211577   0.507   3.789  12.200  1.5343 -0.8835  3.3482
  781MPD2    H311578   0.570   3.677  12.005  0.7641  0.1176 -2.6352
  781MPD2     N11579   0.932   3.947  11.931 -0.4505  0.3831 -0.1938
  781MPD2    H511580   0.954   3.909  11.839 -0.3629  0.0476 -0.0362
  781MPD2    N111581   0.638   4.004  12.311 -0.6799  0.2979 -0.4000
  781MPD2    H711582   0.686   4.093  12.320  0.8752 -0.4962 -0.8761
  782MPD2     C11583   3.425   0.204  10.106  0.0201 -0.1051 -0.0959
  782MPD2    C111584   3.562   0.211  10.119 -1.0475  0.1948 -0.1209
  782MPD2    C211585   3.617   0.295  10.216  0.4026  1.1107  0.3707
  782MPD2    C311586   3.540   0.375  10.287  0.1052  0.2381  0.1245
  782MPD2    C411587   3.401   0.365  10.281  0.5864  0.0846 -0.1012
  782MPD2    C511588   3.340   0.277  10.192 -0.5118 -0.2480 -0.4582
  782MPD2     H11589   3.725   0.302  10.220  0.4435 -0.1366  1.3275
  782MPD2    H111590   3.335   0.427  10.339 -0.5647  0.2896 -1.6487
  782MPD2    H211591   3.373   0.141  10.034  0.4667  1.0890 -1.4546
  782MPD2    H311592   3.233   0.291  10.177 -0.6823 -0.2716  0.7008
  782MPD2     N11593   3.611   0.465  10.370  0.2812 -0.2186 -0.7764
  782MPD2    H511594   3.709   0.483  10.351  0.5884  0.3391  1.3773
  782MPD2    N111595   3.633   0.113  10.042 -0.3834  0.4427  0.0737
  782MPD2    H711596   3.579   0.049   9.985  0.0310  1.0496 -0.9785
  783MPD2     C11597   3.168   4.470  10.598 -0.2997  0.2723  0.0426
  783MPD2    C111598   3.234   4.578  10.652 -0.6453  0.0127 -0.6700
  783MPD2    C211599   3.344   4.621  10.593 -0.0850 -0.1689  0.2706
  783MPD2    C311600   3.381   4.566  10.474 -0.7034  0.2191  0.4907
  783MPD2    C411601   3.310   4.465  10.418 -0.5963  0.4892 -0.6348
  783MPD2    C511602   3.203   4.407  10.480 -0.6541  0.6183  0.4645
  783MPD2     H11603   3.407   4.691  10.647 -0.7311  0.7618 -0.1653
  783MPD2    H111604   3.339   4.418  10.325 -2.0537  0.8282 -1.2693
  783MPD2    H211605   3.078   4.432  10.645  0.5400 -0.2130  1.2804
  783MPD2    H311606   3.142   4.335  10.425 -0.6518  1.2751 -0.4043
  783MPD2     N11607   3.500   4.612  10.415  0.2024 -0.1208  0.1771
  783MPD2    H511608   3.534   4.700  10.454  0.0822  0.3488 -0.7619
  783MPD2    N111609   3.183   4.639  10.773 -0.7183 -0.1573 -0.2909
  783MPD2    H711610   3.094   4.600  10.801 -1.3974  2.1927  0.8334
  784MPD2     C11611   0.865   1.021   0.211  0.4480 -0.9674  0.6638
  784MPD2    C111612   0.906   1.111   0.304 -0.6043 -0.1055 -0.3496
  784MPD2    C211613   0.809   1.185   0.365 -0.5515 -0.2164  0.9103
  784MPD2    C311614   0.679   1.191   0.324  0.0296 -0.7153  0.3384
  784MPD2    C411615   0.637   1.102   0.225  0.1239 -0.0475  0.2516
  784MPD2    C511616   0.733   1.019   0.168  0.1170 -0.5064 -0.7629
  784MPD2     H11617   0.835   1.254   0.445  1.0782 -1.7150  1.6568
  784MPD2    H111618   0.534   1.096   0.191 -0.0599 -0.4302  0.8880
  784MPD2    H211619   0.925   0.954   0.152  1.2363 -0.4255  0.8565
  784MPD2    H311620   0.709   0.968   0.076 -0.5480 -0.8097 -0.4235
  784MPD2     N11621   0.586   1.275   0.389 -0.0349  0.0134  0.6544
  784MPD2    H511622   0.629   1.349   0.443  1.9980 -2.2822  2.2064
  784MPD2    N111623   1.043   1.119   0.346 -0.1472  0.1420 -0.1870
  784MPD2    H711624   1.076   1.189   0.412  0.5666 -2.2087  1.9557
  785MPD2     C11625   1.259   4.431  11.116  0.3467  0.0284 -0.2861
  785MPD2    C111626   1.145   4.432  11.046 -0.2866 -0.7307  0.2177
  785MPD2    C211627   1.119   4.320  10.966 -0.1472  0.1073  0.1184
  785MPD2    C311628   1.199   4.214  10.966 -0.6959  0.5333  0.5835
  785MPD2    C411629   1.316   4.212  11.039 -0.2647  0.1543 -0.5491
  785MPD2    C511630   1.333   4.322  11.118 -1.3768 -0.1207 -0.1755
  785MPD2     H11631   1.022   4.319  10.917 -0.2397  0.2693  0.2966
  785MPD2    H111632   1.382   4.126  11.043 -2.1094 -1.3800 -2.5715
  785MPD2    H211633   1.296   4.515  11.174 -0.0782  2.2393 -3.2019
  785MPD2    H311634   1.429   4.341  11.166 -2.1803  3.3807  0.0893
  785MPD2     N11635   1.159   4.114  10.878 -0.3845 -0.2062  0.2162
  785MPD2    H511636   1.073   4.128  10.825 -0.3994 -0.8919  0.0639
  785MPD2    N111637   1.053   4.539  11.034 -0.2443  0.3800  0.5103
  785MPD2    H711638   0.987   4.531  10.958 -2.6432  0.0721  2.6417
  786MPD2     C11639   4.526   1.999  14.480 -0.5784  0.1742  0.0190
  786MPD2    C111640   4.657   1.978  14.453  0.4469  0.1040  0.0763
  786MPD2    C211641   0.018   2.045  14.527  0.0824 -0.4367  0.0301
  786MPD2    C311642   4.724   2.125  14.634 -0.1257 -0.6201 -0.2222
  786MPD2    C411643   4.589   2.137  14.669 -0.2177 -0.1449 -0.3134
  786MPD2    C511644   4.492   2.076  14.589 -0.2914  0.2037 -0.0620
  786MPD2     H11645   0.116   2.008  14.500  0.5246  1.6848 -1.2709
  786MPD2    H111646   4.552   2.190  14.756 -2.5132  0.6861 -1.7887
  786MPD2    H211647   4.446   1.941  14.435  0.4927  0.8299 -2.7780
  786MPD2    H311648   4.388   2.089  14.617  0.2741  0.6516  1.7973
  786MPD2     N11649   0.084   2.176  14.722 -0.0312 -0.4569 -0.1598
  786MPD2    H511650   0.044   2.214  14.808  0.7665 -2.1907  0.9723
  786MPD2    N111651   4.705   1.898  14.348 -0.4903  0.4262  0.2894
  786MPD2    H711652   0.065   1.873  14.342 -1.1042 -2.4449  2.3239
  787MPD2     C11653   0.188   1.459  14.630 -0.3182  0.9105  0.1831
  787MPD2    C111654   0.168   1.390  14.515 -0.8251  0.7630 -0.1179
  787MPD2    C211655   0.198   1.253  14.516  0.7171  0.1394 -0.4133
  787MPD2    C311656   0.238   1.192  14.629  0.1596  0.2237  0.5632
  787MPD2    C411657   0.255   1.265  14.747  0.1078 -0.4362 -0.7485
  787MPD2    C511658   0.227   1.399  14.746  0.2073 -0.2783  0.2091
  787MPD2     H11659   0.173   1.197  14.427  1.5801 -0.5845 -0.1962
  787MPD2    H111660   0.292   1.224  14.840 -0.9632  1.1966  0.3863
  787MPD2    H211661   0.174   1.566  14.641 -1.6466  0.7516  0.0690
  787MPD2    H311662   0.233   1.454  14.840 -0.5217 -1.4672  0.9473
  787MPD2     N11663   0.271   1.057  14.613  0.5862 -0.4328 -0.0301
  787MPD2    H511664   0.258   1.018  14.520  0.6539  3.0790 -1.5370
  787MPD2    N111665   0.123   1.469  14.403  0.1398 -0.6755 -0.0810
  787MPD2    H711666   0.127   1.570  14.411 -0.6982 -0.2698 -4.5433
  788MPD2     C11667   2.019   0.626   0.326 -0.1826  0.4788 -0.4107
  788MPD2    C111668   1.898   0.594   0.278 -0.7984  0.6955  0.0438
  788MPD2    C211669   1.849   0.657   0.169  0.0566  0.4324  0.1819
  788MPD2    C311670   1.921   0.755   0.105  0.0405 -0.2060  0.2442
  788MPD2    C411671   2.051   0.779   0.152  0.1847  0.6536 -0.2221
  788MPD2    C511672   2.104   0.715   0.261 -0.0630  0.3595  0.0929
  788MPD2     H11673   1.755   0.618   0.133  1.2028 -0.4292 -1.9508
  788MPD2    H111674   2.118   0.852   0.107  1.0051 -0.9018 -1.5502
  788MPD2    H211675   2.055   0.587   0.421 -0.4878  1.0365 -0.0575
  788MPD2    H311676   2.203   0.738   0.299 -0.6573  0.1689  1.7529
  788MPD2     N11677   1.878   0.817  17.736 -0.1266 -0.1995  0.2856
  788MPD2    H511678   1.939   0.876  17.681 -2.0670  2.1210  0.6174
  788MPD2    N111679   1.819   0.495   0.342  0.3566  0.8850 -0.3617
  788MPD2    H711680   1.737   0.455   0.298 -0.1180 -0.8972  2.1805
  789MPD2     C11681   1.934   0.047  15.921 -0.5155  0.0496  0.7818
  789MPD2    C111682   1.891   4.720  16.037 -0.1959  0.4117  0.2713
  789MPD2    C211683   1.808   0.045  16.125 -0.3916  0.4832  1.1878
  789MPD2    C311684   1.750   0.165  16.089 -0.6612 -0.1197  0.0729
  789MPD2    C411685   1.776   0.219  15.967 -0.3044 -0.0914 -0.1742
  789MPD2    C511686   1.876   0.166  15.890 -0.1692 -0.0650  0.4117
  789MPD2     H11687   1.784   4.725  16.214 -2.0359 -1.6460 -0.6293
  789MPD2    H111688   1.734   0.316  15.943 -2.1489 -0.8040  0.1236
  789MPD2    H211689   1.999   0.003  15.847  0.0666  2.8718 -0.4099
  789MPD2    H311690   1.900   0.224  15.801 -1.3129  0.7692  0.6505
  789MPD2     N11691   1.660   0.234  16.173 -0.2344 -0.2543  0.0658
  789MPD2    H511692   1.623   0.325  16.145 -3.3144 -1.4354  0.3618
  789MPD2    N111693   1.926   4.585  16.066 -0.4632  0.5487  0.3058
  789MPD2    H711694   1.884   4.541  16.147 -0.1128  3.7056  2.2227
  790MPD2     C11695   3.089   1.926  13.182 -0.0878  0.1391 -0.7108
  790MPD2    C111696   3.115   1.797  13.168  0.4270 -0.2160  0.0249
  790MPD2    C211697   3.121   1.748  13.038 -0.8466 -0.4714 -0.1571
  790MPD2    C311698   3.100   1.823  12.927 -0.2722  0.5281 -0.3349
  790MPD2    C411699   3.094   1.965  12.939  0.2096 -0.0638  0.0960
  790MPD2    C511700   3.087   2.010  13.070  0.0433 -0.1550  0.6324
  790MPD2     H11701   3.139   1.643  13.021  0.1557 -0.7780  2.7094
  790MPD2    H111702   3.080   2.039  12.861  0.9976  0.5874  0.5589
  790MPD2    H211703   3.069   1.973  13.278  0.9730 -1.8704  0.4831
  790MPD2    H311704   3.078   2.115  13.096  0.8201  0.6534 -2.3122
  790MPD2     N11705   3.085   1.756  12.801  0.1330  0.1583  0.9995
  790MPD2    H511706   3.065   1.658  12.818  0.7067 -0.3115 -1.1060
  790MPD2    N111707   3.112   1.715  13.280 -0.5008 -0.2179 -0.1704
  790MPD2    H711708   3.080   1.762  13.365 -1.5525 -0.5797 -0.3570
  791MPD2     C11709   2.452   1.597  12.814  0.0476  0.3651 -0.2059
  791MPD2    C111710   2.490   1.580  12.683 -0.5037  0.1388  0.7076
  791MPD2    C211711   2.394   1.527  12.596  0.0284 -0.5073  0.0168
  791MPD2    C311712   2.271   1.487  12.637  0.1668 -0.2365  0.0415
  791MPD2    C411713   2.236   1.513  12.764  1.0288  0.1521  0.9040
  791MPD2    C511714   2.328   1.570  12.851  0.3484 -0.2251 -0.2438
  791MPD2     H11715   2.422   1.514  12.492  2.7218  1.2115  0.5051
  791MPD2    H111716   2.135   1.497  12.799  0.7465  1.0129  0.4994
  791MPD2    H211717   2.527   1.635  12.882  0.6879 -0.2681 -0.5534
  791MPD2    H311718   2.299   1.598  12.951  2.2149 -2.0994  0.8204
  791MPD2     N11719   2.185   1.443  12.534  0.5556 -0.2340  0.0371
  791MPD2    H511720   2.217   1.443  12.438  0.0277 -0.4678 -0.1368
  791MPD2    N111721   2.612   1.639  12.639 -0.6302  0.0981 -0.5176
  791MPD2    H711722   2.659   1.702  12.703  2.1948  1.6051 -4.0579
  792MPD2     C11723   3.578   1.262  11.171  0.4138 -0.5690  0.2025
  792MPD2    C111724   3.493   1.274  11.068  0.8258 -1.1645  0.6873
  792MPD2    C211725   3.355   1.237  11.078  0.5722 -0.2997 -0.8202
  792MPD2    C311726   3.311   1.188  11.202 -0.8280  0.0586 -1.1273
  792MPD2    C411727   3.402   1.159  11.302  0.5142 -0.2152 -0.2998
  792MPD2    C511728   3.531   1.205  11.288  0.1044  0.7797 -0.0210
  792MPD2     H11729   3.285   1.246  10.996 -0.3331  1.2000  0.1296
  792MPD2    H111730   3.374   1.124  11.401  0.2780 -0.7209 -0.5433
  792MPD2    H211731   3.677   1.303  11.185  1.0546 -1.8409 -0.5702
  792MPD2    H311732   3.608   1.180  11.360 -0.0596 -0.7692 -0.3960
  792MPD2     N11733   3.177   1.153  11.229 -0.2664 -0.2056  0.1646
  792MPD2    H511734   3.160   1.130  11.327  0.6730  0.7232  0.5435
  792MPD2    N111735   3.547   1.329  10.954  0.4491  0.0701 -0.0759
  792MPD2    H711736   3.645   1.357  10.959  0.7928 -0.4512 -4.1509
  793MPD2     C11737   2.615   1.472  10.696  0.5539  0.3539 -0.4683
  793MPD2    C111738   2.728   1.402  10.716 -0.7680 -0.1259 -0.2543
  793MPD2    C211739   2.750   1.351  10.841 -0.2210 -0.9551  0.0462
  793MPD2    C311740   2.664   1.375  10.943  0.3103 -0.6208  0.0427
  793MPD2    C411741   2.547   1.444  10.926  0.1818  0.1110 -0.4691
  793MPD2    C511742   2.529   1.499  10.798 -0.0837 -0.3007  0.4394
  793MPD2     H11743   2.833   1.283  10.860  0.8755  0.5912  0.8259
  793MPD2    H111744   2.491   1.474  11.014  1.6697 -0.5161  0.6867
  793MPD2    H211745   2.588   1.511  10.599 -1.1278  0.7701  0.1538
  793MPD2    H311746   2.442   1.560  10.783 -0.1566 -0.4519  0.2557
  793MPD2     N11747   2.716   1.330  11.068 -0.4633  0.5707  0.7027
  793MPD2    H511748   2.808   1.287  11.067 -1.9530 -2.5704  1.2683
  793MPD2    N111749   2.818   1.362  10.611 -0.3419 -0.2071 -0.6893
  793MPD2    H711750   2.909   1.327  10.643  0.8521  2.0762 -1.6252
  794MPD2     C11751   2.745   0.839  16.770  0.0886 -0.4626  0.3811
  794MPD2    C111752   2.629   0.853  16.845 -0.4609  0.4009  0.6097
  794MPD2    C211753   2.522   0.902  16.772 -0.5602 -0.4166  0.7836
  794MPD2    C311754   2.537   0.942  16.639 -0.3935  0.0099 -0.3678
  794MPD2    C411755   2.647   0.924  16.569 -0.2530  0.0713  0.0912
  794MPD2    C511756   2.751   0.866  16.628  0.3801  0.5933  0.2542
  794MPD2     H11757   2.427   0.903  16.824 -1.7515 -0.9942 -1.3700
  794MPD2    H111758   2.653   0.956  16.465 -1.6461 -0.4212 -0.1389
  794MPD2    H211759   2.838   0.801  16.811 -0.4905 -1.6959  0.5668
  794MPD2    H311760   2.839   0.850  16.566  0.1582 -1.2511  0.4252
  794MPD2     N11761   2.427   0.990  16.565 -0.6671 -0.0346 -0.7282
  794MPD2    H511762   2.447   0.999  16.466  1.0687 -0.5486 -0.4250
  794MPD2    N111763   2.615   0.810  16.981 -0.3202  0.4907  0.4230
  794MPD2    H711764   2.518   0.796  17.008  0.2627 -0.6589  1.9312
  795MPD2     C11765   0.312   3.232  13.478 -0.0860  0.5779 -0.1699
  795MPD2    C111766   0.273   3.107  13.435  0.0855  0.6088 -0.5664
  795MPD2    C211767   0.355   3.000  13.468 -0.2250 -0.2938 -0.1963
  795MPD2    C311768   0.472   3.012  13.548 -0.0975 -0.3885  0.3679
  795MPD2    C411769   0.505   3.142  13.597  0.0507 -0.2708 -0.5898
  795MPD2    C511770   0.429   3.245  13.556  0.3339 -0.0775  1.6420
  795MPD2     H11771   0.335   2.898  13.437  2.3486 -0.5177 -1.1358
  795MPD2    H111772   0.591   3.166  13.659 -0.9090  2.0266 -0.1268
  795MPD2    H211773   0.267   3.320  13.434  0.6028  1.0235  0.0320
  795MPD2    H311774   0.464   3.341  13.591 -1.7368  0.8990  0.9780
  795MPD2     N11775   0.546   2.896  13.572  0.4083  0.0857 -0.8542
  795MPD2    H511776   0.493   2.810  13.561  2.3357 -1.2518  0.2394
  795MPD2    N111777   0.175   3.077  13.338  0.2156  0.4609  0.2428
  795MPD2    H711778   0.170   2.980  13.309  2.0272  0.8163 -1.2774
  796MPD2     C11779   0.055   4.256  15.878 -0.8801 -0.1796  0.5133
  796MPD2    C111780   0.084   4.346  15.979 -0.1494  0.4740  0.0456
  796MPD2    C211781   0.089   4.483  15.959 -0.3561 -0.5944  0.3594
  796MPD2    C311782   0.041   4.527  15.837 -0.0973 -0.3872 -0.0279
  796MPD2    C411783   0.008   4.438  15.740  0.5241 -0.6649 -0.4285
  796MPD2    C511784   0.023   4.307  15.757 -0.3743 -0.1928  1.1219
  796MPD2     H11785   0.092   4.554  16.040 -0.4429  2.0089 -1.9173
  796MPD2    H111786   4.710   4.478  15.646 -0.2792 -2.8713 -1.0565
  796MPD2    H211787   0.055   4.148  15.887 -0.0947 -0.1998  0.2974
  796MPD2    H311788   4.733   4.256  15.666  2.4102  1.0310 -0.3951
  796MPD2     N11789   0.043   4.668  15.819 -0.5630  0.5447 -0.4305
  796MPD2    H511790   0.066   4.722  15.902  1.5596  1.8314 -1.8506
  796MPD2    N111791   0.107   4.296  16.107 -0.7459  0.4741  0.8568
  796MPD2    H711792   0.071   4.202  16.118  0.4925 -0.1111 -0.1273
  797MPD2     C11793   0.746   4.151  17.692 -0.2161 -0.5946 -0.1023
  797MPD2    C111794   0.769   4.285  17.722  0.1844 -0.4052 -0.5518
  797MPD2    C211795   0.665   4.366  17.729  0.5617 -0.3707  0.0541
  797MPD2    C311796   0.547   4.326  17.677  0.9031 -0.4647  0.2934
  797MPD2    C411797   0.519   4.198  17.637 -0.5502 -0.6820 -0.1346
  797MPD2    C511798   0.622   4.108  17.655  0.2521 -0.1449  0.0031
  797MPD2     H11799   0.672   4.472  17.748 -3.5640  0.2826 -2.1956
  797MPD2    H111800   0.430   4.164  17.585 -1.9558  1.3763  0.9209
  797MPD2    H211801   0.828   4.081  17.686 -0.0780 -0.2316 -2.3897
  797MPD2    H311802   0.605   4.007  17.620 -1.4371  0.6572 -1.5214
  797MPD2     N11803   0.456   4.431  17.656 -0.0317  0.2908 -0.5113
  797MPD2    H511804   0.488   4.524  17.681 -1.2108  1.1544 -2.2017
  797MPD2    N111805   0.895   4.341  17.749 -0.5049  0.4038  0.3455
  797MPD2    H711806   0.886   4.442   0.008  1.0734  0.4694  1.0427
  798MPD2     C11807   0.789   0.292  17.518 -0.4793 -0.1782 -0.3647
  798MPD2    C111808   0.745   0.192  17.594 -0.7359 -0.1168  0.3580
  798MPD2    C211809   0.842   0.100  17.633 -0.0755 -0.1700  0.5742
  798MPD2    C311810   0.973   0.107  17.592 -0.4540 -0.1409 -0.8273
  798MPD2    C411811   1.014   0.216  17.519 -0.4637 -0.7390 -0.6167
  798MPD2    C511812   0.917   0.298  17.472  0.4292  0.0833  0.1754
  798MPD2     H11813   0.816   0.007  17.682 -0.0993  0.7104  2.2555
  798MPD2    H111814   1.118   0.218  17.488 -0.7976 -0.6446 -1.7412
  798MPD2    H211815   0.718   0.363  17.477 -0.5587  1.8740  3.3696
  798MPD2    H311816   0.945   0.360  17.388  1.2927 -0.9350 -0.2970
  798MPD2     N11817   1.056   0.005  17.643  0.0534  0.5491 -0.8917
  798MPD2    H511818   1.009   4.683  17.709 -0.6470  1.0361 -0.9399
  798MPD2    N111819   0.603   0.174  17.590 -0.2462  0.7122  0.4753
  798MPD2    H711820   0.550   0.247  17.544 -0.1282 -1.4276 -3.0234
  799MPD2     C11821   4.639   0.962  14.645  1.0934  0.0344 -0.4243
  799MPD2    C111822   4.582   0.874  14.556  0.6028 -0.7656 -0.2883
  799MPD2    C211823   4.534   0.915  14.430 -0.8471 -0.2284  0.0934
  799MPD2    C311824   4.544   1.052  14.393  0.1990  1.1435 -0.3485
  799MPD2    C411825   4.608   1.130  14.484 -0.3751  0.6093 -0.6472
  799MPD2    C511826   4.645   1.092  14.608  0.2943 -0.4495  0.1066
  799MPD2     H11827   4.483   0.851  14.359  1.0998 -2.4288  0.7005
  799MPD2    H111828   4.619   1.236  14.463 -0.8675  1.1229  1.5631
  799MPD2    H211829   4.682   0.939  14.743  1.1864  0.1862 -0.4288
  799MPD2    H311830   4.687   1.161  14.681 -0.4602 -0.8772  0.9507
  799MPD2     N11831   4.503   1.112  14.266 -0.2646  0.2232 -0.7897
  799MPD2    H511832   4.516   1.213  14.261  1.3825 -0.0267 -1.6311
  799MPD2    N111833   4.573   0.734  14.582  0.3299  0.4361  0.4036
  799MPD2    H711834   4.533   0.674  14.511  3.2756 -0.8985 -0.1281
  800MPD2     C11835   4.659   2.117  13.923 -0.4108  0.4608 -0.9770
  800MPD2    C111836   0.041   2.073  13.971 -0.3994  0.5032  0.5571
  800MPD2    C211837   0.115   1.978  13.909 -0.4293  0.1726 -0.1020
  800MPD2    C311838   0.078   1.929  13.785  0.6435  0.4097  0.1171
  800MPD2    C411839   4.695   1.974  13.738  0.5804  0.1298 -0.9224
  800MPD2    C511840   4.611   2.059  13.809  0.3352  0.2869  0.1583
  800MPD2     H11841   0.215   1.950  13.943 -1.1260 -0.2442  1.6154
  800MPD2    H111842   4.662   1.953  13.637 -2.5164 -0.6340  0.2694
  800MPD2    H211843   4.596   2.192  13.970  1.5827  2.1146 -0.9801
  800MPD2    H311844   4.538   2.102  13.742  0.6601  0.8016  0.1375
  800MPD2     N11845   0.159   1.825  13.733  0.3305 -0.1383 -0.0408
  800MPD2    H511846   0.241   1.792  13.783  1.4057 -1.3779 -2.6183
  800MPD2    N111847   0.088   2.138  14.094 -0.3921  0.0021 -0.1763
  800MPD2    H711848   0.022   2.206  14.130  0.5492 -0.2566  2.0262
  801MPD2     C11849   0.448   2.725  13.917 -0.0503  0.0597 -0.1610
  801MPD2    C111850   0.324   2.668  13.954  0.3313  1.0897 -0.0060
  801MPD2    C211851   0.206   2.744  13.949  0.5555 -0.7862 -0.1602
  801MPD2    C311852   0.217   2.874  13.906 -0.0910  0.2888 -0.1162
  801MPD2    C411853   0.341   2.933  13.880  0.4917 -0.1176  0.1917
  801MPD2    C511854   0.454   2.856  13.882  0.4987  0.0710  0.1180
  801MPD2     H11855   0.118   2.699  13.992  0.4665  1.4625  2.0718
  801MPD2    H111856   0.348   3.038  13.855  2.0342 -0.6036 -1.3853
  801MPD2    H211857   0.543   2.674  13.923 -1.2149 -2.2693 -1.5887
  801MPD2    H311858   0.546   2.904  13.852 -0.3999  1.4300 -0.4718
  801MPD2     N11859   0.095   2.947  13.900  0.5018 -0.1292 -0.2307
  801MPD2    H511860   0.115   3.047  13.903 -1.5446  0.3843 -3.6414
  801MPD2    N111861   0.324   2.548  14.029 -0.5076  0.7666  0.1644
  801MPD2    H711862   0.236   2.505  14.054 -0.0321 -0.1067  0.3469
  802MPD2     C11863   4.311   3.749   0.277 -0.2547 -0.1888  0.1707
  802MPD2    C111864   4.295   3.705   0.148 -0.0078  0.0030 -0.0799
  802MPD2    C211865   4.386   3.606   0.106  0.0002 -0.5370  0.1284
  802MPD2    C311866   4.492   3.558   0.178 -0.6648  0.8301  0.4179
  802MPD2    C411867   4.513   3.618   0.301  0.1968 -0.1816  0.1038
  802MPD2    C511868   4.420   3.708   0.354  0.0044 -0.4924  0.5230
  802MPD2     H11869   4.365   3.558   0.012 -1.2275 -0.0630  0.1612
  802MPD2    H111870   4.598   3.592   0.363  0.6843  0.7160 -0.1847
  802MPD2    H211871   4.253   3.826   0.326 -0.3082  1.1111 -1.9647
  802MPD2    H311872   4.417   3.740   0.458 -0.8585 -1.1024  0.6800
  802MPD2     N11873   4.561   3.448   0.131 -0.1699 -0.0324 -0.3608
  802MPD2    H511874   4.527   3.417   0.040 -1.5443  1.9602 -0.5489
  802MPD2    N111875   4.200   3.760   0.064  0.6989  0.2151  0.5057
  802MPD2    H711876   4.126   3.821   0.097  1.7912  2.0093 -0.3775
  803MPD2     C11877   0.792   1.066  11.815  0.3910 -0.5123  0.3636
  803MPD2    C111878   0.881   1.155  11.868 -0.0381  0.5015 -0.2323
  803MPD2    C211879   0.938   1.125  11.989 -0.3104 -0.5345 -0.3334
  803MPD2    C311880   0.898   1.019  12.067  0.0292  0.0112 -0.4549
  803MPD2    C411881   0.798   0.937  12.014  0.4410 -0.0158 -0.2901
  803MPD2    C511882   0.755   0.955  11.887  0.1572 -0.1637 -0.2320
  803MPD2     H11883   1.013   1.196  12.023 -0.8181  0.7498 -1.9037
  803MPD2    H111884   0.751   0.853  12.064 -0.4385  1.3174  1.1203
  803MPD2    H211885   0.745   1.079  11.718 -0.9491 -2.2021  0.7832
  803MPD2    H311886   0.684   0.893  11.833 -1.7049  1.1486  0.7058
  803MPD2     N11887   0.970   0.991  12.184  0.0085 -0.0061 -0.5678
  803MPD2    H511888   1.039   1.062  12.209 -3.6571  3.9029 -1.5365
  803MPD2    N111889   0.912   1.277  11.801 -0.0244  0.6492 -0.5128
  803MPD2    H711890   0.976   1.338  11.850  0.1626  0.7323 -0.8561
  804MPD2     C11891   0.749   3.256  17.074 -0.2745  0.4955  0.3817
  804MPD2    C111892   0.712   3.200  17.191  0.4632  0.5512  0.3297
  804MPD2    C211893   0.803   3.176  17.289 -0.0741 -0.1367 -0.5067
  804MPD2    C311894   0.932   3.230  17.279 -0.0458 -0.2459  0.3401
  804MPD2    C411895   0.967   3.296  17.162 -0.2622 -0.6945 -0.2581
  804MPD2    C511896   0.875   3.302  17.062  0.4880  0.4836  0.2257
  804MPD2     H11897   0.771   3.121  17.376 -0.6710  0.3620 -0.4184
  804MPD2    H111898   1.064   3.340  17.140 -1.1208  1.6641  0.7664
  804MPD2    H211899   0.680   3.274  16.992 -0.8723 -3.7485 -0.0572
  804MPD2    H311900   0.902   3.355  16.972  1.1186 -0.8060 -0.3554
  804MPD2     N11901   1.020   3.214  17.393 -0.9574 -0.5260 -0.2027
  804MPD2    H511902   0.991   3.165  17.477 -2.5517  0.2914 -0.2704
  804MPD2    N111903   0.590   3.134  17.207 -0.1000  0.0709  0.0390
  804MPD2    H711904   0.576   3.086  17.295 -0.0432 -0.8943 -0.4720
  805MPD2     C11905   4.273   1.318  15.419  0.2492 -0.3015  0.6567
  805MPD2    C111906   4.373   1.267  15.341 -0.0039  0.4122  0.5072
  805MPD2    C211907   4.503   1.271  15.398 -0.0175 -0.6643  0.2809
  805MPD2    C311908   4.523   1.303  15.535  0.5408  0.0315  0.0597
  805MPD2    C411909   4.419   1.352  15.610  0.1266  0.5294 -0.4759
  805MPD2    C511910   4.298   1.352  15.548  0.4667 -0.7737 -0.5829
  805MPD2     H11911   4.582   1.240  15.332 -0.1881 -1.4853  0.4685
  805MPD2    H111912   4.429   1.386  15.712  0.6551  2.4195 -1.1582
  805MPD2    H211913   4.174   1.328  15.375 -0.2882 -2.3382  1.3807
  805MPD2    H311914   4.213   1.375  15.612  1.1097  1.6348 -0.5792
  805MPD2     N11915   4.656   1.284  15.587  0.6928 -0.0685 -0.7215
  805MPD2    H511916   4.724   1.241  15.525  0.7078 -0.7098 -0.2664
  805MPD2    N111917   4.356   1.215  15.212  0.0277  0.3179  0.2616
  805MPD2    H711918   4.440   1.207  15.155  1.1357  2.0547  1.6632
  806MPD2     C11919   4.663   0.626  17.652 -0.5584  0.6275 -0.3207
  806MPD2    C111920   4.610   0.694   0.010  0.2263  0.6050 -0.0133
  806MPD2    C211921   4.635   0.829   0.017 -0.1651 -0.4461 -0.1698
  806MPD2    C311922   4.731   0.890  17.679 -0.4375  0.0734 -0.6265
  806MPD2    C411923   0.037   0.818  17.577 -0.6868  1.2387  0.0747
  806MPD2    C511924   0.004   0.685  17.559 -0.6074  0.3166 -0.8437
  806MPD2     H11925   4.604   0.896   0.096 -3.6978  2.0871 -3.6686
  806MPD2    H111926   0.102   0.863  17.503  1.0755 -1.5203 -0.0706
  806MPD2    H211927   4.648   0.518  17.648  0.0979  0.5022  0.5783
  806MPD2    H311928   0.046   0.639  17.470 -2.2716 -3.7519  0.4943
  806MPD2     N11929   0.033   1.021  17.693  0.1794 -0.0662  0.0135
  806MPD2    H511930   4.721   1.085   0.004 -0.2706 -2.2968  1.9518
  806MPD2    N111931   4.541   0.620   0.108  0.6791 -1.0653 -0.3728
  806MPD2    H711932   4.534   0.519   0.109 -2.9597 -0.8137 -1.1684
  807MPD2     C11933   4.556   4.668   0.343 -0.1019 -0.7222 -0.3367
  807MPD2    C111934   4.631   0.025   0.419  0.8701 -0.6776 -0.2530
  807MPD2    C211935   0.004   4.720   0.492  0.2973  0.3650 -0.2240
  807MPD2    C311936   0.035   4.585   0.496  0.7520  0.6442  0.4527
  807MPD2    C411937   4.695   4.496   0.420  0.0776 -0.1002  0.6496
  807MPD2    C511938   4.588   4.539   0.343  0.3899 -0.7919 -0.3064
  807MPD2     H11939   0.062   0.057   0.544  0.3606 -0.7722  1.3235
  807MPD2    H111940   4.721   4.392   0.406 -1.7262 -0.3519 -0.7413
  807MPD2    H211941   4.479   4.693   0.271  0.9641 -2.3281 -2.0201
  807MPD2    H311942   4.535   4.469   0.279 -0.1848 -1.4578  0.8955
  807MPD2     N11943   0.147   4.557   0.568  0.0369 -0.0428  0.5504
  807MPD2    H511944   0.199   4.631   0.614 -1.0545 -0.8667  3.0948
  807MPD2    N111945   4.614   0.162   0.419 -0.5624 -0.3413  0.3465
  807MPD2    H711946   4.683   0.222   0.464 -1.8508  0.9181  0.6370
  808MPD2     C11947   0.586   2.057   9.478  0.1141 -0.6162 -0.2610
  808MPD2    C111948   0.704   2.106   9.429 -0.3892  0.5822  0.2121
  808MPD2    C211949   0.730   2.236   9.464  0.6000  0.3248 -0.2654
  808MPD2    C311950   0.639   2.316   9.535 -0.0988 -0.4062 -0.9886
  808MPD2    C411951   0.522   2.270   9.572 -0.0874 -0.8769  0.0470
  808MPD2    C511952   0.504   2.134   9.556  0.3807 -0.6027 -0.1449
  808MPD2     H11953   0.828   2.273   9.436  1.9724 -3.0170  0.0562
  808MPD2    H111954   0.454   2.318   9.641 -0.7610 -0.3421 -0.9922
  808MPD2    H211955   0.559   1.955   9.454 -1.7639 -0.0590 -0.4413
  808MPD2    H311956   0.415   2.090   9.599 -0.0170 -0.8507 -1.2126
  808MPD2     N11957   0.673   2.440   9.592  0.0078  0.6096  0.1829
  808MPD2    H511958   0.609   2.475   9.662  1.6534  0.6947  1.6205
  808MPD2    N111959   0.808   2.031   9.370 -0.9280  0.3090  0.3883
  808MPD2    H711960   0.900   2.070   9.352 -1.3686  1.9174  1.6602
  809MPD2     C11961   1.428   3.083   9.339 -0.1590  0.9578  0.5180
  809MPD2    C111962   1.408   2.943   9.342 -0.1127  0.4147 -0.3718
  809MPD2    C211963   1.286   2.903   9.388 -0.1043 -0.2483 -0.3071
  809MPD2    C311964   1.190   2.991   9.438  0.1624 -1.0722 -0.6110
  809MPD2    C411965   1.217   3.126   9.443 -0.4734  0.1168  0.1150
  809MPD2    C511966   1.334   3.168   9.399 -0.3391 -0.4620  0.1165
  809MPD2     H11967   1.265   2.798   9.369  0.3247 -0.3840 -0.0092
  809MPD2    H111968   1.147   3.200   9.478 -0.8406 -0.8673  1.4229
  809MPD2    H211969   1.526   3.123   9.316  0.0305 -0.4668 -1.1900
  809MPD2    H311970   1.349   3.275   9.397 -3.5140 -0.0927 -2.9573
  809MPD2     N11971   1.064   2.928   9.483 -0.2948  0.3280 -0.0208
  809MPD2    H511972   1.064   2.831   9.455  0.7125  1.2769 -3.3306
  809MPD2    N111973   1.501   2.840   9.317  0.4471  0.3291 -0.1166
  809MPD2    H711974   1.471   2.751   9.356 -0.1783  0.8949  0.6909
  810MPD2     C11975   0.511   1.344   9.749 -0.3998  0.4100  1.3709
  810MPD2    C111976   0.432   1.354   9.866 -0.7006  0.0215  0.1048
  810MPD2    C211977   0.398   1.480   9.919 -0.5527 -0.0211 -0.2462
  810MPD2    C311978   0.442   1.595   9.855  0.5067 -0.5716 -0.3735
  810MPD2    C411979   0.530   1.580   9.755 -0.1137  0.2609 -0.4259
  810MPD2    C511980   0.566   1.457   9.702  0.3284 -0.0244  0.0034
  810MPD2     H11981   0.334   1.494  10.006 -0.6807 -0.4159 -0.2737
  810MPD2    H111982   0.562   1.663   9.693 -1.6604  1.0352 -0.2037
  810MPD2    H211983   0.543   1.249   9.707  0.9037  0.1343  2.9890
  810MPD2    H311984   0.638   1.452   9.622 -0.1111 -2.3549 -0.2569
  810MPD2     N11985   0.395   1.719   9.907 -0.3609  0.0451 -0.3866
  810MPD2    H511986   0.332   1.713   9.987 -0.7151 -0.0304 -0.6744
  810MPD2    N111987   0.375   1.238   9.915  0.1404 -0.1839 -0.5276
  810MPD2    H711988   0.388   1.148   9.870  2.5803 -0.3036  0.3959
  811MPD2     C11989   4.298   1.020   9.814 -0.1815  0.2050  0.4315
  811MPD2    C111990   4.414   1.097   9.823 -0.5880  0.6734 -0.4035
  811MPD2    C211991   4.409   1.233   9.781  0.0677  0.2367 -0.2941
  811MPD2    C311992   4.290   1.289   9.731 -0.6347 -0.4121  0.4820
  811MPD2    C411993   4.175   1.206   9.714 -0.3462 -0.0673  0.6652
  811MPD2    C511994   4.182   1.074   9.757 -0.4061  0.0816 -0.0443
  811MPD2     H11995   4.492   1.298   9.754  2.1322 -1.7525  1.3215
  811MPD2    H111996   4.083   1.243   9.671  0.2942  1.8244  0.9187
  811MPD2    H211997   4.292   0.916   9.843  1.9224 -0.0532 -0.1086
  811MPD2    H311998   4.096   1.008   9.750  0.2784 -0.9336  1.0294
  811MPD2     N11999   4.292   1.429   9.708  0.2171 -0.1454  0.3824
  811MPD2    H512000   4.373   1.480   9.741  0.8298 -0.7655 -0.1689
  811MPD2    N112001   4.527   1.036   9.884 -0.1873 -0.0460  0.4828
  811MPD2    H712002   4.523   0.937   9.907  0.0121 -0.3232 -0.7000
  812MPD2     C12003   3.860   1.317  11.983 -0.2152 -0.4232 -0.1935
  812MPD2    C112004   3.728   1.290  11.969  0.1433  0.0136 -0.3112
  812MPD2    C212005   3.667   1.204  12.063 -0.5571 -0.3056 -0.6756
  812MPD2    C312006   3.742   1.154  12.171  0.2539  0.3738  0.3317
  812MPD2    C412007   3.881   1.180  12.172  0.1604  0.0141 -0.6306
  812MPD2    C512008   3.933   1.266  12.087  0.1436 -0.1835  0.2314
  812MPD2     H12009   3.563   1.172  12.060 -0.7140  0.2254 -0.8480
  812MPD2    H112010   3.949   1.137  12.244 -0.8843 -2.4371 -1.0934
  812MPD2    H212011   3.917   1.369  11.906  0.4303 -1.1224 -0.1917
  812MPD2    H312012   4.039   1.287  12.092  0.0784  0.6638 -2.0146
  812MPD2     N12013   3.674   1.077  12.272 -0.0261 -0.0411 -0.6734
  812MPD2    H512014   3.577   1.056  12.249 -0.0749 -1.2524  0.6632
  812MPD2    N112015   3.663   1.345  11.853 -0.2616 -0.0601 -0.0883
  812MPD2    H712016   3.714   1.403  11.787  0.4198  1.3955  1.7244
  813MPD2     C12017   2.947   2.893  12.699  0.0998 -0.2267  0.5142
  813MPD2    C112018   3.059   2.901  12.782 -0.5263 -0.0808 -0.7108
  813MPD2    C212019   3.039   2.944  12.914 -0.5539 -0.6364  0.8876
  813MPD2    C312020   2.922   3.003  12.947 -0.3814 -0.0427  0.0952
  813MPD2    C412021   2.812   3.001  12.859  0.4260 -0.4162  0.4736
  813MPD2    C512022   2.828   2.940  12.741  0.2184  0.0390  0.1143
  813MPD2     H12023   3.121   2.947  12.984  1.6957  0.1846 -1.7702
  813MPD2    H112024   2.719   3.046  12.891 -0.6232 -1.2361 -1.4757
  813MPD2    H212025   2.939   2.853  12.598  1.3263 -0.8327  0.6577
  813MPD2    H312026   2.745   2.926  12.674  0.5318  1.8511 -0.6560
  813MPD2     N12027   2.906   3.075  13.066  0.0632  0.0234 -0.4697
  813MPD2    H512028   2.813   3.115  13.076 -0.6630 -0.9036 -3.5176
  813MPD2    N112029   3.175   2.837  12.725 -0.0218  0.0720  0.8872
  813MPD2    H712030   3.168   2.788  12.636  1.1641  1.7228 -0.1070
  814MPD2     C12031   3.655   3.894  12.747 -0.0923  0.8009 -0.3796
  814MPD2    C112032   3.605   3.991  12.667  0.5579  0.5726 -0.0128
  814MPD2    C212033   3.643   4.122  12.677  0.4002 -0.0263 -0.0286
  814MPD2    C312034   3.741   4.157  12.765  0.3572 -0.5261 -0.3912
  814MPD2    C412035   3.799   4.053  12.839  0.9279  0.1104 -0.0173
  814MPD2    C512036   3.745   3.930  12.836  1.0882  0.0906  0.2669
  814MPD2     H12037   3.592   4.198  12.618  2.3504  0.6633 -0.8478
  814MPD2    H112038   3.879   4.064  12.911  0.6374 -0.1103  0.3340
  814MPD2    H212039   3.627   3.790  12.737  1.1121  0.7735 -3.4729
  814MPD2    H312040   3.784   3.841  12.886  0.4744  0.8072  2.0092
  814MPD2     N12041   3.789   4.285  12.784 -0.0317  0.4147 -0.4858
  814MPD2    H512042   3.867   4.303  12.847 -0.1666 -1.5929  0.2565
  814MPD2    N112043   3.505   3.962  12.579  0.7267 -0.7268 -0.3391
  814MPD2    H712044   3.500   4.026  12.500 -1.1435  1.4322  1.5046
  815MPD2     C12045   4.195   2.106  11.821 -0.1550 -0.1703 -0.4167
  815MPD2    C112046   4.131   2.194  11.737 -0.3612 -0.5986 -0.2697
  815MPD2    C212047   4.001   2.216  11.778  0.0764  0.2026  0.0572
  815MPD2    C312048   3.928   2.162  11.881 -0.0776 -0.0750 -0.6380
  815MPD2    C412049   3.994   2.083  11.962  0.0222  0.3755 -0.1712
  815MPD2    C512050   4.127   2.054  11.931 -0.2757  0.5084 -0.2748
  815MPD2     H12051   3.933   2.276  11.719  0.9319 -0.0480 -1.1977
  815MPD2    H112052   3.949   2.038  12.050 -0.2900  0.7671 -0.1237
  815MPD2    H212053   4.298   2.080  11.797  0.4458 -1.1022  3.1694
  815MPD2    H312054   4.180   1.982  11.992 -2.4978 -1.0675 -0.2185
  815MPD2     N12055   3.797   2.193  11.876 -1.1758 -0.0675  0.0301
  815MPD2    H512056   3.761   2.249  11.799 -1.5746 -2.4766 -1.5300
  815MPD2    N112057   4.201   2.252  11.627 -0.5059 -0.1868 -0.5028
  815MPD2    H712058   4.296   2.223  11.606 -0.5213 -1.9538  1.9989
  816MPD2     C12059   3.193   2.079  17.179  0.1756  0.2803 -0.4336
  816MPD2    C112060   3.261   2.145  17.079  0.3653 -0.1941  0.0340
  816MPD2    C212061   3.369   2.096  17.021 -0.7999  0.0892 -0.2200
  816MPD2    C312062   3.401   1.959  17.028  0.1249 -0.4508  0.5188
  816MPD2    C412063   3.335   1.887  17.120 -0.3821 -0.2246  0.2635
  816MPD2    C512064   3.232   1.942  17.196  0.6330  0.1026  0.6411
  816MPD2     H12065   3.428   2.156  16.952  1.2095 -0.7011  0.7949
  816MPD2    H112066   3.345   1.779  17.131  1.0804 -0.2246 -1.1311
  816MPD2    H212067   3.130   2.127  17.253  2.0977  1.5679  0.3869
  816MPD2    H312068   3.191   1.888  17.281 -2.6703  0.6338 -0.6075
  816MPD2     N12069   3.511   1.918  16.954  0.4290 -0.0078  0.7165
  816MPD2    H512070   3.547   1.987  16.889 -0.7700 -1.5751 -1.5932
  816MPD2    N112071   3.224   2.283  17.053  0.3632 -0.6264 -0.1737
  816MPD2    H712072   3.150   2.323  17.111 -0.7163  0.2032 -2.1240
  817MPD2     C12073   3.408   3.690   9.943 -0.4948 -0.2220  0.5163
  817MPD2    C112074   3.369   3.678   9.808 -0.3248 -0.1780  0.0347
  817MPD2    C212075   3.251   3.730   9.771 -0.0252  0.5913 -0.1903
  817MPD2    C312076   3.185   3.818   9.850 -0.2814  0.0910 -0.3627
  817MPD2    C412077   3.224   3.835   9.979 -0.3364  0.1370  0.5358
  817MPD2    C512078   3.329   3.766  10.028 -0.6331 -0.3935 -0.4600
  817MPD2     H12079   3.215   3.712   9.670 -1.1329 -1.0378  0.5089
  817MPD2    H112080   3.160   3.890  10.047  1.3400  1.2758  1.2201
  817MPD2    H212081   3.497   3.649   9.990  1.8006  1.0903 -2.7158
  817MPD2    H312082   3.368   3.787  10.126 -0.6528 -1.0377 -0.3113
  817MPD2     N12083   3.062   3.874   9.805 -0.0780  0.0615 -0.0753
  817MPD2    H512084   3.038   3.854   9.708 -0.5196  3.3357 -0.6636
  817MPD2    N112085   3.442   3.604   9.710 -0.0232 -0.5256  0.3053
  817MPD2    H712086   3.391   3.595   9.623 -2.3973  1.9850  1.4433
  818MPD2     C12087   1.904   3.613   9.871  0.2313 -0.0947 -0.4598
  818MPD2    C112088   1.913   3.574  10.006 -0.3315 -0.1561 -0.2931
  818MPD2    C212089   1.996   3.473  10.039  0.4618  0.7688 -0.4321
  818MPD2    C312090   2.058   3.398   9.939  0.5150 -1.0041  0.7121
  818MPD2    C412091   2.041   3.439   9.811 -0.3399 -0.2359  0.0688
  818MPD2    C512092   1.961   3.542   9.773  0.1962  0.2221  1.0831
  818MPD2     H12093   1.993   3.434  10.141 -1.6599  0.1625 -0.7368
  818MPD2    H112094   2.087   3.385   9.728 -0.7817 -0.8585  0.2294
  818MPD2    H212095   1.845   3.694   9.830  1.1314 -0.0195 -1.5913
  818MPD2    H312096   1.960   3.582   9.672  0.1791  0.1253  1.0447
  818MPD2     N12097   2.151   3.294   9.962  0.4988 -0.5611 -0.7305
  818MPD2    H512098   2.195   3.260   9.877  0.4825 -0.9102 -0.6008
  818MPD2    N112099   1.840   3.645  10.109  0.9859 -0.2242  0.4846
  818MPD2    H712100   1.843   3.607  10.203  2.3357 -1.1757  0.0716
  819MPD2     C12101   0.083   0.688  15.340 -0.2141  0.1771  0.0062
  819MPD2    C112102   0.128   0.554  15.358 -0.1682 -0.5161  0.3594
  819MPD2    C212103   0.257   0.521  15.392  0.8877 -0.2712 -0.5418
  819MPD2    C312104   0.348   0.629  15.409 -0.3853 -0.1672  0.0451
  819MPD2    C412105   0.301   0.751  15.384  0.7662 -0.1163  0.3755
  819MPD2    C512106   0.171   0.782  15.360  0.3206  0.5486  0.2873
  819MPD2     H12107   0.284   0.416  15.392  1.2797 -0.1734 -3.0811
  819MPD2    H112108   0.375   0.831  15.384  1.5242 -0.8172  2.2837
  819MPD2    H212109   4.726   0.725  15.304  1.0623  0.6024 -2.8828
  819MPD2    H312110   0.134   0.880  15.333  0.4033  0.2652 -0.8468
  819MPD2     N12111   0.478   0.597  15.446 -1.1029  0.1218  0.4845
  819MPD2    H512112   0.524   0.516  15.404 -1.8400 -0.8045  1.4545
  819MPD2    N112113   0.035   0.452  15.326 -0.1461  0.0697 -0.4553
  819MPD2    H712114   4.690   0.473  15.271 -0.6435 -1.7310 -0.3855
  820MPD2     C12115   4.121   0.625  14.797  0.5133  0.5973  0.4269
  820MPD2    C112116   4.246   0.662  14.839  0.1859 -0.1364  0.4616
  820MPD2    C212117   4.318   0.578  14.924 -0.6138 -0.6776  0.0850
  820MPD2    C312118   4.271   0.451  14.952 -0.2028 -0.1229  0.0419
  820MPD2    C412119   4.139   0.422  14.911 -0.0893  0.6147 -0.0873
  820MPD2    C512120   4.075   0.505  14.828 -0.7399 -0.5285 -0.0877
  820MPD2     H12121   4.423   0.590  14.950 -0.1460 -0.0091 -2.1117
  820MPD2    H112122   4.096   0.326  14.937  0.6968  1.4284  4.1526
  820MPD2    H212123   4.063   0.692  14.736  0.3090 -0.5279 -0.6277
  820MPD2    H312124   3.977   0.479  14.792 -1.4772  0.0349  1.4906
  820MPD2     N12125   4.333   0.357  15.028 -0.8251 -0.0228 -0.2485
  820MPD2    H512126   4.309   0.259  15.032  0.1888 -0.2729 -0.3952
  820MPD2    N112127   4.274   0.800  14.813  0.2066  0.6303 -0.2077
  820MPD2    H712128   4.201   0.846  14.759 -0.5171 -2.3594 -1.7712
  821MPD2     C12129   0.635   1.913  13.055  0.3318 -0.3169  0.0692
  821MPD2    C112130   0.670   1.951  13.183  0.3212 -0.3700 -0.5231
  821MPD2    C212131   0.776   2.042  13.205  0.3553 -0.4630  0.7407
  821MPD2    C312132   0.843   2.095  13.095  0.1883 -0.3266 -0.1788
  821MPD2    C412133   0.807   2.055  12.971  0.4302 -0.1050 -0.8284
  821MPD2    C512134   0.701   1.968  12.946 -0.2544 -0.2438  0.5935
  821MPD2     H12135   0.814   2.054  13.306  1.9052 -0.3478  0.1309
  821MPD2    H112136   0.859   2.084  12.881  0.2863  0.2704 -0.7878
  821MPD2    H212137   0.549   1.850  13.038  0.2227 -0.4503  1.1128
  821MPD2    H312138   0.670   1.925  12.851 -1.0071  0.1561  0.6642
  821MPD2     N12139   0.953   2.190  13.112 -0.9274 -0.5208  0.2410
  821MPD2    H512140   1.004   2.218  13.029 -0.4293  1.2592  1.1459
  821MPD2    N112141   0.597   1.900  13.294  0.3433 -0.7970  0.1993
  821MPD2    H712142   0.619   1.934  13.387 -0.9010 -1.4168  0.7317
  822MPD2     C12143   1.046   2.307  15.696 -0.6359 -0.1482  0.2704
  822MPD2    C112144   1.106   2.291  15.818 -0.5751  0.2902 -0.3062
  822MPD2    C212145   1.089   2.385  15.913  0.2782  0.4153 -0.2929
  822MPD2    C312146   1.027   2.505  15.884 -0.4941 -0.0764 -0.1968
  822MPD2    C412147   0.970   2.528  15.761 -0.4519  0.1879 -0.1080
  822MPD2    C512148   0.988   2.424  15.668  0.0653 -0.4820  0.9270
  822MPD2     H12149   1.130   2.363  16.011 -0.8528  1.8721  0.5134
  822MPD2    H112150   0.916   2.619  15.739  0.1924  2.1776  6.4961
  822MPD2    H212151   1.050   2.231  15.619 -1.7005  0.4236 -0.3387
  822MPD2    H312152   0.941   2.437  15.571 -1.4322 -0.8088  1.6196
  822MPD2     N12153   1.016   2.602  15.997 -0.7162 -0.3939  0.3837
  822MPD2    H512154   1.026   2.562  16.091 -0.7930 -0.7697  0.2332
  822MPD2    N112155   1.164   2.169  15.863 -0.2221  0.5217  0.2240
  822MPD2    H712156   1.184   2.170  15.963 -3.0939 -0.5274  0.7870
  823MPD2     C12157   0.699   2.917  16.753 -0.9235 -0.1734 -0.0071
  823MPD2    C112158   0.738   2.825  16.659 -0.1873  0.0543  0.0476
  823MPD2    C212159   0.737   2.696  16.698  0.3120  0.2536  0.1177
  823MPD2    C312160   0.719   2.666  16.832 -0.1230 -0.0991 -0.2984
  823MPD2    C412161   0.665   2.758  16.920  0.2462 -0.0740 -0.0098
  823MPD2    C512162   0.665   2.885  16.877  0.2595  0.5239 -0.2247
  823MPD2     H12163   0.765   2.624  16.623  1.5078  0.2086  0.5904
  823MPD2    H112164   0.633   2.749  17.023 -0.4595 -1.0502 -0.3192
  823MPD2    H212165   0.703   3.023  16.734 -0.1249 -0.2636 -0.3410
  823MPD2    H312166   0.640   2.962  16.950 -0.1425  1.2765 -1.1633
  823MPD2     N12167   0.739   2.531  16.877 -0.4337 -0.2574 -0.3382
  823MPD2    H512168   0.714   2.507  16.972 -0.4098  1.2828  0.0690
  823MPD2    N112169   0.774   2.869  16.530  0.3597 -0.1337  0.2563
  823MPD2    H712170   0.789   2.970  16.533  0.2480 -0.1344  0.8358
  824MPD2     C12171   1.165   1.290  15.766  0.2184  0.3538  0.3981
  824MPD2    C112172   1.279   1.345  15.817 -0.5485 -0.1233  0.6051
  824MPD2    C212173   1.394   1.269  15.809  0.2500  0.4725  0.2554
  824MPD2    C312174   1.410   1.155  15.732  0.3547 -0.2364  0.0937
  824MPD2    C412175   1.294   1.107  15.678  0.8416  0.3405  1.0527
  824MPD2    C512176   1.177   1.179  15.685 -0.7051 -0.5385 -0.3807
  824MPD2     H12177   1.475   1.320  15.858  1.2810 -0.4899 -0.4373
  824MPD2    H112178   1.294   1.012  15.625 -2.7889  2.7025 -3.1352
  824MPD2    H212179   1.070   1.343  15.766  0.8077  1.3919 -1.3983
  824MPD2    H312180   1.085   1.148  15.639 -0.7101 -1.4660  0.2643
  824MPD2     N12181   1.534   1.097  15.718  0.1128 -0.3156  0.1986
  824MPD2    H512182   1.605   1.148  15.768  1.4512 -0.1696 -1.8337
  824MPD2    N112183   1.290   1.480  15.872 -0.0830  0.2532 -0.2604
  824MPD2    H712184   1.373   1.507  15.923  0.9173 -0.7295 -1.3630
  825MPD2     C12185   2.154   1.350  15.281  0.2969 -0.0358  0.1964
  825MPD2    C112186   2.099   1.358  15.409  0.2977 -0.2459 -0.4832
  825MPD2    C212187   2.086   1.486  15.466  0.0493 -0.0273 -0.2469
  825MPD2    C312188   2.135   1.596  15.396 -0.8668  0.5090  0.2429
  825MPD2    C412189   2.175   1.586  15.263  0.3029 -0.2056 -0.4882
  825MPD2    C512190   2.193   1.461  15.212  0.6605 -0.2583 -0.1769
  825MPD2     H12191   2.044   1.505  15.564 -0.4338  1.1939 -0.6971
  825MPD2    H112192   2.213   1.665  15.198 -2.3941  1.2730 -0.2975
  825MPD2    H212193   2.159   1.255  15.229  0.9130  1.0410 -1.6844
  825MPD2    H312194   2.225   1.432  15.113 -0.2146  0.1838 -0.5887
  825MPD2     N12195   2.147   1.723  15.451  0.0209  0.0923 -0.2291
  825MPD2    H512196   2.166   1.798  15.385  0.6281  1.5932  1.6367
  825MPD2    N112197   2.060   1.236  15.472  0.4455  0.0790  0.1854
  825MPD2    H712198   2.050   1.157  15.410  0.6199 -0.2395  0.5670
  826MPD2     C12199   1.876   1.207  13.531  0.1219 -0.0836 -0.1324
  826MPD2    C112200   1.907   1.286  13.428 -0.1898 -0.0797  0.0878
  826MPD2    C212201   1.865   1.417  13.411 -0.5380  0.4930 -0.2175
  826MPD2    C312202   1.778   1.478  13.502 -0.6948 -0.0573  0.2233
  826MPD2    C412203   1.757   1.404  13.618 -0.5615 -0.5381 -0.0450
  826MPD2    C512204   1.805   1.269  13.629 -0.8496  0.1643 -0.0114
  826MPD2     H12205   1.895   1.473  13.324 -1.2925 -1.4305 -1.7080
  826MPD2    H112206   1.690   1.439  13.696  2.3160  2.5482  1.0566
  826MPD2    H212207   1.915   1.106  13.532 -2.9911 -1.2733 -0.2028
  826MPD2    H312208   1.773   1.210  13.714 -0.2717  0.4560  0.4114
  826MPD2     N12209   1.735   1.613  13.485  0.1590 -0.2255 -0.1342
  826MPD2    H512210   1.680   1.653  13.561 -0.2022 -0.3638 -0.3219
  826MPD2    N112211   1.999   1.230  13.342  0.0503  0.1416  0.1731
  826MPD2    H712212   2.044   1.143  13.368  0.7409  0.3976 -0.1770
  827MPD2     C12213   2.882   2.937   9.822  0.1769  0.6073 -0.0606
  827MPD2    C112214   2.858   2.827   9.904  0.3166  0.4296  0.1496
  827MPD2    C212215   2.730   2.783   9.926  0.1341 -0.6028  0.2207
  827MPD2    C312216   2.624   2.843   9.860  0.4665 -1.2372  0.3456
  827MPD2    C412217   2.651   2.952   9.780 -0.3429  0.2688  0.3585
  827MPD2    C512218   2.777   2.991   9.757  0.4371 -0.7533 -0.0508
  827MPD2     H12219   2.709   2.698   9.990 -0.3187 -0.1959  0.6084
  827MPD2    H112220   2.575   3.013   9.734  0.2160  0.8530  0.2090
  827MPD2    H212221   2.983   2.977   9.811 -0.0736  1.3082  0.1577
  827MPD2    H312222   2.794   3.075   9.691 -4.3689  0.8281  0.7397
  827MPD2     N12223   2.492   2.804   9.887 -0.6352  0.1996 -0.2450
  827MPD2    H512224   2.495   2.730   9.955 -0.6943  2.4737  2.2295
  827MPD2    N112225   2.967   2.787   9.980 -0.1876  0.3644 -0.1784
  827MPD2    H712226   3.056   2.835   9.969  0.6292 -1.5399 -1.8404
  828MPD2     C12227   1.420   2.411  12.301  0.0632 -0.2234 -0.2195
  828MPD2    C112228   1.333   2.416  12.195  0.3617  0.1427 -0.0312
  828MPD2    C212229   1.390   2.420  12.069  0.7096  0.1183 -0.8280
  828MPD2    C312230   1.527   2.421  12.051 -0.3518 -0.6455 -0.2383
  828MPD2    C412231   1.608   2.399  12.156 -0.1101  0.3494 -0.2991
  828MPD2    C512232   1.550   2.386  12.280  0.6120  0.1043  0.2315
  828MPD2     H12233   1.320   2.425  11.987  0.8497  0.5219 -0.9260
  828MPD2    H112234   1.714   2.381  12.147 -0.2282 -0.3371 -0.3513
  828MPD2    H212235   1.394   2.410  12.406 -0.4241  1.9195 -0.3175
  828MPD2    H312236   1.621   2.375  12.362  2.4594 -0.6435 -1.4558
  828MPD2     N12237   1.595   2.425  11.928  0.1418 -0.5431  0.0373
  828MPD2    H512238   1.694   2.444  11.936 -0.0671 -0.4107  2.2921
  828MPD2    N112239   1.191   2.425  12.201  0.4385  0.2887 -0.6784
  828MPD2    H712240   1.135   2.426  12.117 -0.5697 -0.1866 -0.0184
  829MPD2     C12241   0.587   2.565  11.609  0.0612 -0.7748 -0.2188
  829MPD2    C112242   0.509   2.593  11.718 -0.3934  0.3652  0.0637
  829MPD2    C212243   0.572   2.584  11.842  0.5163 -0.0571  0.2011
  829MPD2    C312244   0.705   2.546  11.855  0.2976  0.3163  0.5311
  829MPD2    C412245   0.781   2.525  11.739  0.1151  0.4839  0.7557
  829MPD2    C512246   0.723   2.535  11.620 -1.1636 -0.0443 -0.5364
  829MPD2     H12247   0.507   2.606  11.925 -0.2270 -1.5685  0.0200
  829MPD2    H112248   0.885   2.496  11.736  0.4446  1.6007  1.5184
  829MPD2    H212249   0.550   2.586  11.509  1.6487 -0.7070 -0.7963
  829MPD2    H312250   0.782   2.525  11.530 -1.0555  0.7616 -0.5617
  829MPD2     N12251   0.767   2.536  11.985  0.2309  0.1193  0.1476
  829MPD2    H512252   0.866   2.515  11.998  0.4298  0.5124 -0.7863
  829MPD2    N112253   0.375   2.629  11.704  0.2004 -0.4785 -0.5546
  829MPD2    H712254   0.336   2.655  11.614 -0.6862  1.2963  0.3267
  830MPD2     C12255   1.193   0.209  15.325 -0.4155 -0.0708 -0.2060
  830MPD2    C112256   1.144   0.338  15.320 -0.3264 -0.2444  0.5177
  830MPD2    C212257   1.218   0.432  15.259 -0.2208  0.7573 -0.0460
  830MPD2    C312258   1.342   0.406  15.201  0.2447  0.1850  0.6290
  830MPD2    C412259   1.400   0.282  15.214  0.5111  0.9526 -0.7473
  830MPD2    C512260   1.318   0.181  15.266  0.2105 -0.4361 -0.4207
  830MPD2     H12261   1.192   0.536  15.272  0.4730  1.0036 -0.6238
  830MPD2    H112262   1.496   0.249  15.177  0.7752  0.5127  0.3601
  830MPD2    H212263   1.149   0.124  15.376 -0.9906  0.0844 -0.4491
  830MPD2    H312264   1.353   0.078  15.264 -0.0831 -0.5552  0.3566
  830MPD2     N12265   1.407   0.515  15.137 -0.3642  0.0545  0.0342
  830MPD2    H512266   1.353   0.599  15.117  0.5174  0.4118 -0.8063
  830MPD2    N112267   1.020   0.371  15.383 -0.5830 -0.1658  0.4407
  830MPD2    H712268   0.991   0.329  15.471  0.3846 -0.8246  0.4388
  831MPD2     C12269   1.274   2.624  16.342  0.3726  0.0806 -0.5687
  831MPD2    C112270   1.255   2.509  16.266  0.5869  0.5019  0.6669
  831MPD2    C212271   1.136   2.440  16.284  0.5522  0.0546  0.4194
  831MPD2    C312272   1.038   2.482  16.372 -0.7345  0.2828 -0.0457
  831MPD2    C412273   1.060   2.596  16.447  0.5211 -0.6088  0.5976
  831MPD2    C512274   1.178   2.665  16.427  0.0230  0.1909 -0.2378
  831MPD2     H12275   1.115   2.352  16.224  0.3678  1.1025 -1.0532
  831MPD2    H112276   0.996   2.620  16.531  0.9202  0.0459  0.7136
  831MPD2    H212277   1.372   2.671  16.338  0.1810  0.3436 -2.6059
  831MPD2    H312278   1.201   2.736  16.504 -1.5294 -0.6375  0.9950
  831MPD2     N12279   0.915   2.401  16.397 -0.0165  0.8002 -0.0144
  831MPD2    H512280   0.858   2.425  16.478  1.0715  2.0363  0.3959
  831MPD2    N112281   1.363   2.475  16.179 -0.1330  0.2048  0.2864
  831MPD2    H712282   1.427   2.552  16.161  1.9625 -1.8001 -0.9171
  832MPD2     C12283   4.326   3.450  17.323  0.2705  0.2663 -0.7715
  832MPD2    C112284   4.362   3.508  17.198  0.2736 -0.2812 -0.3342
  832MPD2    C212285   4.281   3.488  17.092  0.4338  0.2669 -0.3369
  832MPD2    C312286   4.158   3.418  17.104  0.2153  1.0546 -0.2579
  832MPD2    C412287   4.132   3.352  17.222 -0.0241  0.5947  0.0446
  832MPD2    C512288   4.208   3.378  17.335 -0.2541  0.1169  0.8742
  832MPD2     H12289   4.314   3.514  16.992 -0.7945  1.4842 -0.4313
  832MPD2    H112290   4.039   3.299  17.240 -0.5074  0.6353 -2.4123
  832MPD2    H212291   4.381   3.455  17.417 -1.3853  1.6766  0.1282
  832MPD2    H312292   4.184   3.329  17.428 -0.3202 -1.3865  0.0500
  832MPD2     N12293   4.065   3.403  17.001  0.7063  0.5000  0.5768
  832MPD2    H512294   3.997   3.330  17.019 -0.6340  1.6376  0.0761
  832MPD2    N112295   4.469   3.595  17.195  0.0628  0.7469  0.3899
  832MPD2    H712296   4.516   3.601  17.285  2.0267  0.2517 -0.5946
  833MPD2     C12297   2.183   0.199  12.406 -0.0730 -1.1374  0.9051
  833MPD2    C112298   2.157   0.306  12.318  0.4035  0.2020  1.2010
  833MPD2    C212299   2.253   0.349  12.226 -0.1611 -0.4158 -0.0825
  833MPD2    C312300   2.382   0.288  12.232  0.4225 -0.3554  0.3936
  833MPD2    C412301   2.399   0.184  12.319 -0.1491 -0.2152  0.1792
  833MPD2    C512302   2.299   0.141  12.410 -0.7668  0.6015 -0.3632
  833MPD2     H12303   2.246   0.437  12.163 -0.2103  0.1706  0.7350
  833MPD2    H112304   2.494   0.130  12.312  0.0594  0.0542  0.9383
  833MPD2    H212305   2.097   0.163  12.461  0.1892 -4.0277 -0.6067
  833MPD2    H312306   2.324   0.060  12.477  1.3805 -0.8285 -2.8458
  833MPD2     N12307   2.487   0.314  12.138  0.0438 -0.0018 -0.3609
  833MPD2    H512308   2.569   0.256  12.151  0.8457  0.9066 -1.3196
  833MPD2    N112309   2.043   0.387  12.324 -0.0728 -0.4838  0.4029
  833MPD2    H712310   2.038   0.465  12.258 -0.5796  0.0882  1.1286
  834MPD2     C12311   2.521   4.457  11.437  0.6524  0.6460 -0.1685
  834MPD2    C112312   2.409   4.541  11.427 -0.5366 -0.2013  0.5278
  834MPD2    C212313   2.418   4.668  11.483  0.7906  0.8464  0.3348
  834MPD2    C312314   2.536   4.710  11.547  0.5685  0.1210  0.7203
  834MPD2    C412315   2.644   4.624  11.549 -0.4527 -0.2586  0.7170
  834MPD2    C512316   2.644   4.494  11.491 -0.2177  0.7554  0.4638
  834MPD2     H12317   2.332   4.733  11.482  0.1409 -0.0018  1.1122
  834MPD2    H112318   2.739   4.667  11.581 -0.2951 -0.7848  0.9528
  834MPD2    H212319   2.514   4.362  11.386 -1.4280  0.2477  0.8559
  834MPD2    H312320   2.733   4.431  11.486 -1.4674 -0.9595 -0.1189
  834MPD2     N12321   2.531   0.094  11.610 -0.1474 -0.4853 -0.2900
  834MPD2    H512322   2.452   0.142  11.569  0.5477  0.9419  0.0569
  834MPD2    N112323   2.295   4.483  11.374  0.0281 -0.2390  0.0283
  834MPD2    H712324   2.311   4.392  11.331 -0.3054 -0.1148 -0.3622
  835MPD2     C12325   2.008   2.790  10.802  0.5534 -0.2982  0.1502
  835MPD2    C112326   1.967   2.864  10.910 -0.2785  0.5800  0.1828
  835MPD2    C212327   2.027   2.847  11.031 -0.2997  0.0463 -0.2157
  835MPD2    C312328   2.129   2.755  11.050  0.6562 -0.3225  0.4886
  835MPD2    C412329   2.155   2.665  10.949 -0.2512 -0.0591 -0.4204
  835MPD2    C512330   2.085   2.675  10.835  0.1312 -0.3294 -0.7697
  835MPD2     H12331   2.000   2.919  11.108  0.2026  0.6214 -0.5788
  835MPD2    H112332   2.233   2.590  10.956  0.3240  0.3197 -2.6751
  835MPD2    H212333   1.986   2.797  10.696  1.9145  0.3801 -0.0865
  835MPD2    H312334   2.094   2.591  10.766  0.4443 -1.4692  0.6624
  835MPD2     N12335   2.199   2.748  11.177 -0.0120 -0.2502  0.1511
  835MPD2    H512336   2.258   2.666  11.188 -0.2327 -0.4104  0.1517
  835MPD2    N112337   1.867   2.968  10.900 -0.3428 -0.1096 -0.5945
  835MPD2    H712338   1.846   3.015  10.987  0.6282 -0.0939 -0.3653
  836MPD2     C12339   1.734   2.801  11.541  0.3044  0.2298 -0.1921
  836MPD2    C112340   1.814   2.776  11.647  0.0122 -0.8163  0.1587
  836MPD2    C212341   1.759   2.764  11.777  0.4845 -0.3633 -0.8116
  836MPD2    C312342   1.621   2.781  11.791 -0.8343 -0.1507 -0.8943
  836MPD2    C412343   1.545   2.801  11.679 -0.7674  0.1412  0.0571
  836MPD2    C512344   1.598   2.825  11.561 -0.2105  0.4932  0.5132
  836MPD2     H12345   1.820   2.740  11.863 -3.3663 -2.5334  1.3332
  836MPD2    H112346   1.438   2.811  11.685 -0.4283  3.3251  1.0619
  836MPD2    H212347   1.776   2.811  11.441  0.5679 -0.6709 -0.1717
  836MPD2    H312348   1.529   2.848  11.481  0.1297  1.7225  0.5712
  836MPD2     N12349   1.544   2.776  11.912 -0.3914  0.1206  0.9092
  836MPD2    H512350   1.443   2.778  11.906 -0.3030  0.9528 -0.2935
  836MPD2    N112351   1.950   2.751  11.611  0.4550 -0.2988 -0.6058
  836MPD2    H712352   1.966   2.765  11.512  1.6527  0.0354 -0.3568
  837MPD2     C12353   0.035   1.984   9.639  0.7357 -0.5147 -0.0547
  837MPD2    C112354   4.653   2.033   9.676  0.6137 -0.8992  0.3984
  837MPD2    C212355   4.645   2.160   9.726 -0.7602  0.0129  0.5894
  837MPD2    C312356   0.017   2.233   9.753 -0.0050 -0.7009 -0.7405
  837MPD2    C412357   0.138   2.182   9.720 -0.1555  0.4379  0.8144
  837MPD2    C512358   0.148   2.059   9.660 -0.2539  0.1047  0.1345
  837MPD2     H12359   4.547   2.197   9.754  0.3738  2.6409  1.0983
  837MPD2    H112360   0.225   2.246   9.732  0.0738  0.0140  1.4108
  837MPD2    H212361   0.053   1.891   9.585  1.4137  0.5197 -1.5918
  837MPD2    H312362   0.243   2.017   9.628 -0.3458  1.4741 -1.9485
  837MPD2     N12363   4.738   2.363   9.800  0.7204  0.0823 -0.3297
  837MPD2    H512364   4.644   2.400   9.809 -0.4086 -2.6104 -0.7476
  837MPD2    N112365   4.529   1.974   9.649 -0.2178  0.3523 -0.2905
  837MPD2    H712366   4.451   2.038   9.664  0.0208  0.7168 -0.6218
  838MPD2     C12367   3.109   4.590  11.467  0.3893  0.0513 -0.1224
  838MPD2    C112368   3.097   4.703  11.541  0.0387  0.2966  0.1691
  838MPD2    C212369   3.016   4.706  11.650 -0.6860 -0.3620  0.2760
  838MPD2    C312370   2.958   4.591  11.699 -0.1663 -0.1671  0.2593
  838MPD2    C412371   2.977   4.478  11.622 -0.6346 -0.3348 -0.0112
  838MPD2    C512372   3.042   4.478  11.504  0.3326  0.0048  0.1017
  838MPD2     H12373   3.011   0.058  11.710 -1.1088 -0.3502  0.2236
  838MPD2    H112374   2.932   4.382  11.644 -0.9106  0.0445  1.0240
  838MPD2    H212375   3.157   4.588  11.370  0.3807 -3.2653 -0.0644
  838MPD2    H312376   3.042   4.392  11.439 -0.8206  0.6208 -0.7083
  838MPD2     N12377   2.879   4.593  11.818  0.3827 -0.2227  0.7624
  838MPD2    H512378   2.849   4.683  11.856  0.2504  0.1848 -0.2940
  838MPD2    N112379   3.160   0.084  11.503  0.7829 -0.4048 -0.4414
  838MPD2    H712380   3.143   0.169  11.557 -2.7835  0.4637 -2.8679
  839MPD2     C12381   3.248   0.080  12.056 -0.0764 -0.3155 -0.3354
  839MPD2    C112382   3.259   0.023  11.939  0.3689 -0.3181 -0.8706
  839MPD2    C212383   3.289   0.101  11.830 -0.0253 -0.2195 -0.6195
  839MPD2    C312384   3.322   0.234  11.838  0.8266 -0.0487 -0.2987
  839MPD2    C412385   3.304   0.297  11.962  0.0676 -0.2712 -0.2956
  839MPD2    C512386   3.257   0.220  12.066  0.5652 -0.7480  0.2170
  839MPD2     H12387   3.296   0.045  11.738  0.3770 -0.7038 -0.2933
  839MPD2    H112388   3.331   0.400  11.983 -0.5878 -0.1724  0.0875
  839MPD2    H212389   3.230   0.018  12.143  1.6464 -2.4850 -1.5277
  839MPD2    H312390   3.252   0.266  12.164  3.2530  0.2447 -0.1118
  839MPD2     N12391   3.356   0.295  11.710 -0.3072 -0.5368 -0.0090
  839MPD2    H512392   3.355   0.230  11.632 -1.4121 -0.0014 -0.4460
  839MPD2    N112393   3.235   4.624  11.914 -0.1384 -0.6772 -0.0249
  839MPD2    H712394   3.238   4.595  11.817  1.2351  0.6847 -0.3821
  840MPD2     C12395   3.381   3.170  10.109 -0.4206 -0.1184  0.4906
  840MPD2    C112396   3.382   3.084  10.221  0.7457 -0.0692  0.2669
  840MPD2    C212397   3.446   3.137  10.335  0.1935 -0.0479  0.3217
  840MPD2    C312398   3.507   3.259  10.335  0.2897  0.4372 -0.1938
  840MPD2    C412399   3.503   3.335  10.225  0.3980 -0.1822 -0.3051
  840MPD2    C512400   3.440   3.293  10.110  0.2874  0.2877 -0.1779
  840MPD2     H12401   3.456   3.070  10.420  0.1471 -0.8706 -0.3162
  840MPD2    H112402   3.550   3.433  10.227  0.6846 -0.2952 -1.7237
  840MPD2    H212403   3.345   3.128  10.015  0.5973 -0.4002  0.2230
  840MPD2    H312404   3.448   3.357  10.023  0.1899  0.4031 -0.1026
  840MPD2     N12405   3.580   3.309  10.445 -0.0583 -0.2403 -0.1345
  840MPD2    H512406   3.626   3.399  10.430  0.3814 -0.3209  0.7783
  840MPD2    N112407   3.332   2.954  10.213 -0.2954 -0.0961 -0.8279
  840MPD2    H712408   3.297   2.938  10.119  2.0794 -2.6933 -1.2847
  841MPD2     C12409   2.507   2.863  14.788  0.2502  1.1474 -0.5593
  841MPD2    C112410   2.552   2.761  14.714 -0.0183  0.2081 -0.4309
  841MPD2    C212411   2.682   2.740  14.703 -0.2793 -0.1896 -0.3633
  841MPD2    C312412   2.783   2.809  14.766  0.0172 -0.2494 -0.4712
  841MPD2    C412413   2.735   2.917  14.835 -0.3084  1.0310 -0.1850
  841MPD2    C512414   2.604   2.944  14.842  0.1884 -0.1550  0.3589
  841MPD2     H12415   2.721   2.663  14.636  0.4879  0.1433 -0.3009
  841MPD2    H112416   2.803   2.992  14.874 -0.2379  1.0242 -0.2943
  841MPD2    H212417   2.402   2.890  14.789  0.1267  0.6417  0.4659
  841MPD2    H312418   2.584   3.041  14.886  0.4321  0.2761 -0.4839
  841MPD2     N12419   2.914   2.774  14.757 -0.1293 -0.3042  0.5590
  841MPD2    H512420   2.936   2.679  14.728  2.0427  0.3946 -0.0528
  841MPD2    N112421   2.462   2.673  14.642  0.3493 -0.7179  0.0674
  841MPD2    H712422   2.503   2.601  14.583 -0.3750 -0.7544 -0.3945
  842MPD2     C12423   3.417   3.896  16.791  0.8992  0.2390 -0.0451
  842MPD2    C112424   3.334   3.788  16.779 -0.2144  0.0456 -0.7341
  842MPD2    C212425   3.262   3.745  16.892 -0.0587 -0.3913  0.0981
  842MPD2    C312426   3.267   3.829  17.005  0.7109 -0.1082 -0.1080
  842MPD2    C412427   3.348   3.943  17.008  0.0951  0.2481 -0.6202
  842MPD2    C512428   3.416   3.979  16.904 -0.6357  0.2301  0.0431
  842MPD2     H12429   3.185   3.669  16.884  0.9998 -1.3708 -0.8676
  842MPD2    H112430   3.339   4.009  17.095 -3.3624 -0.5951 -0.3668
  842MPD2    H212431   3.469   3.928  16.701  4.1286 -4.3029  0.2038
  842MPD2    H312432   3.467   4.075  16.907 -1.1650  0.6391 -3.8886
  842MPD2     N12433   3.186   3.804  17.113  0.4003  0.5620  0.6344
  842MPD2    H512434   3.180   3.869  17.191 -0.9089  1.3933 -0.1672
  842MPD2    N112435   3.327   3.720  16.653 -0.4252  0.6055  0.1936
  842MPD2    H712436   3.373   3.768  16.577  0.2154  1.7071  1.2643
  843MPD2     C12437   0.210   0.094   0.271  0.1898  0.3527 -0.3210
  843MPD2    C112438   0.316   0.007   0.248  1.0491 -0.2711 -0.1297
  843MPD2    C212439   0.439   0.060   0.222 -0.1744 -0.2064 -0.6872
  843MPD2    C312440   0.468   0.198   0.227 -0.1682 -0.9386  0.3968
  843MPD2    C412441   0.359   0.275   0.233  0.3903 -0.2310 -0.2690
  843MPD2    C512442   0.229   0.230   0.260  0.3613  0.4841  0.2451
  843MPD2     H12443   0.511   4.726   0.185  4.3729  2.8027  2.2815
  843MPD2    H112444   0.387   0.380   0.227  1.1083 -0.4355 -0.4967
  843MPD2    H212445   0.112   0.049   0.283 -0.5722  1.5311 -2.1291
  843MPD2    H312446   0.144   0.297   0.271 -0.8760 -1.2583  1.2541
  843MPD2     N12447   0.595   0.254   0.203  0.2749  0.5603 -0.5564
  843MPD2    H512448   0.601   0.355   0.209 -1.5300  0.4856  2.6822
  843MPD2    N112449   0.290   4.606   0.264 -0.2845  0.4912  0.0601
  843MPD2    H712450   0.192   4.580   0.268 -0.4238  0.6315 -2.2114
  844MPD2     C12451   3.892   2.770  16.512  0.2137 -0.7897 -0.2233
  844MPD2    C112452   4.014   2.774  16.446 -0.1244 -1.0818 -0.3579
  844MPD2    C212453   4.104   2.869  16.479  0.0526  0.2690 -0.0417
  844MPD2    C312454   4.092   2.940  16.600  0.1574  0.0891 -0.0914
  844MPD2    C412455   3.969   2.939  16.655  0.1296 -0.5592  0.3775
  844MPD2    C512456   3.870   2.864  16.609  0.2572  0.3310 -0.3422
  844MPD2     H12457   4.202   2.864  16.433 -0.8462  1.9171 -2.1609
  844MPD2    H112458   3.952   3.007  16.737 -0.4911 -0.6050  0.2889
  844MPD2    H212459   3.811   2.712  16.468 -0.7366  0.2628  0.1342
  844MPD2    H312460   3.774   2.870  16.660 -0.2705 -0.0412 -1.2928
  844MPD2     N12461   4.204   3.010  16.646  0.1290 -0.4829 -0.2570
  844MPD2    H512462   4.282   3.007  16.582 -0.1246  2.6545 -0.6953
  844MPD2    N112463   4.046   2.688  16.334  0.2541  0.2942  0.0999
  844MPD2    H712464   4.138   2.692  16.292  0.8110 -1.9785  1.0643
  845MPD2     C12465   4.285   3.964  16.531  0.3018  0.1988 -0.3629
  845MPD2    C112466   4.286   3.954  16.669  0.2744 -0.9005 -0.0365
  845MPD2    C212467   4.321   3.825  16.720 -0.2271 -0.5659  0.0322
  845MPD2    C312468   4.352   3.720  16.636  0.2511 -0.3425 -0.5132
  845MPD2    C412469   4.349   3.732  16.502 -0.0335  0.1043 -0.4202
  845MPD2    C512470   4.322   3.856  16.455 -0.3782  0.3671 -0.2143
  845MPD2     H12471   4.318   3.810  16.827 -2.1992  0.4760  0.1227
  845MPD2    H112472   4.381   3.655  16.432  1.8922  0.0879  0.4640
  845MPD2    H212473   4.256   4.058  16.486  0.8887  1.1839  1.3202
  845MPD2    H312474   4.320   3.869  16.347 -0.8994 -0.3927 -0.2983
  845MPD2     N12475   4.379   3.591  16.692  0.9616  0.0944 -0.5264
  845MPD2    H512476   4.390   3.585  16.792  2.6955  1.2280 -0.6461
  845MPD2    N112477   4.249   4.065  16.748  0.3750 -0.4154 -0.4036
  845MPD2    H712478   4.223   4.147  16.695  0.2892 -1.0311 -1.3184
  846MPD2     C12479   1.246   4.315  13.627  0.4263 -0.0463  0.6241
  846MPD2    C112480   1.136   4.404  13.656 -0.0978 -0.1382 -0.0575
  846MPD2    C212481   1.075   4.404  13.783  0.5907 -0.7292  0.1041
  846MPD2    C312482   1.141   4.344  13.893 -0.5857 -0.1250  0.6141
  846MPD2    C412483   1.250   4.273  13.866 -0.1010 -0.9612 -0.1507
  846MPD2    C512484   1.307   4.264  13.740  0.0729 -0.5984  0.0949
  846MPD2     H12485   0.979   4.451  13.802  1.0826  1.5095 -2.9102
  846MPD2    H112486   1.295   4.209  13.942  0.5931  0.0357  0.2712
  846MPD2    H212487   1.296   4.322  13.531 -0.4040  0.0701  0.2024
  846MPD2    H312488   1.400   4.210  13.725  1.6570  1.9833  0.6014
  846MPD2     N12489   1.075   4.342  14.018 -0.0533 -0.0091 -0.1476
  846MPD2    H512490   0.984   4.386  14.025  0.6089  1.6354 -1.9235
  846MPD2    N112491   1.087   4.491  13.553 -0.2000 -0.4225 -1.0980
  846MPD2    H712492   1.023   4.567  13.571  1.5323  1.1459 -1.5346
  847MPD2     C12493   0.862   0.289  14.225  0.3726  0.1384  0.2079
  847MPD2    C112494   0.947   0.391  14.195  0.3610  0.9381 -0.1839
  847MPD2    C212495   1.084   0.371  14.221 -0.4257  0.3646  0.3544
  847MPD2    C312496   1.128   0.248  14.268  0.4536 -0.7591  0.1718
  847MPD2    C412497   1.039   0.146  14.297 -0.6710  1.0230  0.4410
  847MPD2    C512498   0.906   0.169  14.276  0.0379 -0.0033 -0.4916
  847MPD2     H12499   1.154   0.448  14.190 -2.7057  1.7840 -1.3613
  847MPD2    H112500   1.064   0.043  14.319 -0.4086  1.4781  2.2544
  847MPD2    H212501   0.756   0.297  14.207  0.6908  0.8003 -1.4091
  847MPD2    H312502   0.841   0.083  14.287 -0.3773  0.1407 -1.7664
  847MPD2     N12503   1.262   0.237  14.263  0.1958  0.8526  0.0790
  847MPD2    H512504   1.308   0.322  14.232 -0.9004  1.8680  1.2178
  847MPD2    N112505   0.914   0.516  14.136 -0.5336  0.0461  0.5590
  847MPD2    H712506   0.989   0.572  14.098  0.1253 -1.9903 -1.1116
  848MPD2     C12507   3.913   3.402  16.100 -0.2588  0.0672 -0.0796
  848MPD2    C112508   3.938   3.505  16.202 -0.3594  0.2126  0.2074
  848MPD2    C212509   3.987   3.628  16.160 -0.0744 -0.4340  0.9385
  848MPD2    C312510   3.979   3.663  16.027  0.4867  0.6625  0.0900
  848MPD2    C412511   3.952   3.571  15.931  0.7489  0.3627 -0.0628
  848MPD2    C512512   3.912   3.441  15.966  0.3894 -0.9648  0.9701
  848MPD2     H12513   4.002   3.709  16.230 -0.1526 -0.2676  0.7602
  848MPD2    H112514   3.954   3.584  15.824 -0.7362 -2.2265 -0.3891
  848MPD2    H212515   3.878   3.306  16.135 -1.7456  1.8025  3.2267
  848MPD2    H312516   3.893   3.367  15.890 -1.4710  0.5841 -0.0814
  848MPD2     N12517   4.013   3.793  15.987  0.1336 -0.2853  0.8069
  848MPD2    H512518   4.001   3.803  15.886  1.0526  0.1508  0.7465
  848MPD2    N112519   3.912   3.459  16.332  0.0855 -0.2899 -0.2288
  848MPD2    H712520   3.873   3.366  16.347  0.6460 -0.6569 -1.0381
  849MPD2     C12521   3.245   3.399  13.849 -0.5441  0.9983 -0.2558
  849MPD2    C112522   3.236   3.292  13.939 -0.4817  0.4858 -0.3099
  849MPD2    C212523   3.118   3.285  14.021  0.6591 -0.3620  0.5014
  849MPD2    C312524   3.021   3.380  14.018  0.0165  0.5468 -1.2917
  849MPD2    C412525   3.041   3.488  13.940  0.2894 -0.0411  0.5640
  849MPD2    C512526   3.153   3.504  13.868  0.6915  0.1416 -0.0385
  849MPD2     H12527   3.103   3.186  14.062 -1.9887 -1.2902 -2.6206
  849MPD2    H112528   2.969   3.570  13.944 -0.8684 -1.0637  0.7403
  849MPD2    H212529   3.330   3.412  13.783 -1.8022 -1.2438 -2.3254
  849MPD2    H312530   3.171   3.595  13.813 -0.8907  0.7025  0.3941
  849MPD2     N12531   2.899   3.376  14.087  0.0420 -0.8219 -0.0945
  849MPD2    H512532   2.832   3.441  14.045 -1.8505 -1.7572  1.4981
  849MPD2    N112533   3.337   3.194  13.946  0.7703  0.4718  0.4406
  849MPD2    H712534   3.413   3.219  13.885 -0.2348 -0.1417 -1.0581
  850MPD2     C12535   1.074   1.589  14.751 -0.3774 -0.3626 -0.4546
  850MPD2    C112536   1.109   1.587  14.885 -0.5660  0.1037  0.1602
  850MPD2    C212537   1.239   1.610  14.920  0.0538  0.8094  0.8459
  850MPD2    C312538   1.336   1.643  14.821  0.1726 -0.0169  0.3971
  850MPD2    C412539   1.300   1.646  14.685 -0.0312 -0.3815 -0.0115
  850MPD2    C512540   1.171   1.611  14.652 -0.5236 -0.5372  0.4103
  850MPD2     H12541   1.253   1.605  15.028  2.0083  1.5084  0.6268
  850MPD2    H112542   1.371   1.673  14.608 -3.1124 -0.3273 -2.8450
  850MPD2    H212543   0.969   1.574  14.727 -0.2982 -2.5822  0.5374
  850MPD2    H312544   1.133   1.601  14.551  0.4527  0.0556 -0.0155
  850MPD2     N12545   1.477   1.647  14.849 -0.0577 -0.3956 -0.4696
  850MPD2    H512546   1.532   1.671  14.767  1.6994  0.6414  1.0379
  850MPD2    N112547   1.012   1.561  14.986 -0.0477  0.0062  0.1726
  850MPD2    H712548   1.044   1.576  15.081  2.8728 -0.1458 -0.7799
  851MPD2     C12549   1.387   1.313  15.414 -0.4412  0.0690 -0.3303
  851MPD2    C112550   1.301   1.250  15.321 -0.2110 -0.3547 -0.3583
  851MPD2    C212551   1.344   1.155  15.239 -0.0333 -0.2970  0.2553
  851MPD2    C312552   1.473   1.114  15.237  0.2187  0.8095 -0.1312
  851MPD2    C412553   1.565   1.177  15.324  0.4351 -0.1148  1.1579
  851MPD2    C512554   1.519   1.270  15.413 -0.4022 -0.0229 -0.5147
  851MPD2     H12555   1.284   1.112  15.159  1.5265 -3.0450  0.5753
  851MPD2    H112556   1.672   1.158  15.330  0.4528 -0.8256 -1.3734
  851MPD2    H212557   1.359   1.382  15.493 -0.6865 -1.6341  1.0697
  851MPD2    H312558   1.592   1.309  15.483  0.6176 -0.8944 -1.0914
  851MPD2     N12559   1.516   1.015  15.146  0.0683  0.3655  0.3325
  851MPD2    H512560   1.444   0.984  15.081 -0.5718 -0.3876  1.3864
  851MPD2    N112561   1.173   1.297  15.322 -0.6920  0.6932 -0.1755
  851MPD2    H712562   1.156   1.383  15.373 -0.8158  0.2585  0.5129
  852MPD2     C12563   1.448   4.160  10.203 -0.6848  0.5638 -0.1035
  852MPD2    C112564   1.447   4.188  10.338  0.0292  0.7534 -0.0026
  852MPD2    C212565   1.532   4.276  10.392 -0.4287  0.9149  0.1569
  852MPD2    C312566   1.602   4.359  10.306 -0.3594 -0.6823 -0.0013
  852MPD2    C412567   1.611   4.327  10.172 -0.0147 -0.6653  0.1877
  852MPD2    C512568   1.533   4.227  10.121  0.2627 -0.2208 -0.0334
  852MPD2     H12569   1.531   4.281  10.501  0.3787  2.9687  0.0558
  852MPD2    H112570   1.682   4.378  10.107  0.7607 -0.3638  1.2772
  852MPD2    H212571   1.384   4.085  10.158  1.4849 -1.4746  0.2826
  852MPD2    H312572   1.540   4.198  10.017  1.5715 -1.4272  0.3967
  852MPD2     N12573   1.667   4.464  10.360 -0.1143 -0.3459  0.4990
  852MPD2    H512574   1.643   4.477  10.458  2.8538  1.4914  0.9903
  852MPD2    N112575   1.377   4.110  10.433  0.3844  0.8695 -0.0574
  852MPD2    H712576   1.377   4.136  10.531 -1.4936  0.5637  0.0086
  853MPD2     C12577   2.566   3.437  12.521 -0.0099  0.8254  0.4302
  853MPD2    C112578   2.525   3.553  12.456 -0.0917 -0.1427 -0.2981
  853MPD2    C212579   2.502   3.541  12.319  0.0478  0.1663  0.5295
  853MPD2    C312580   2.531   3.422  12.249  0.3029  0.2434 -0.4888
  853MPD2    C412581   2.581   3.313  12.314  1.1867  0.2505 -0.1857
  853MPD2    C512582   2.601   3.324  12.450 -0.2717  0.2818 -0.3348
  853MPD2     H12583   2.463   3.630  12.271 -2.0486 -0.4126  1.1525
  853MPD2    H112584   2.607   3.221  12.262  1.8504 -1.1130  2.5676
  853MPD2    H212585   2.571   3.437  12.630 -1.2560 -1.1181  0.4945
  853MPD2    H312586   2.641   3.239  12.504  0.6506  1.6463  1.1377
  853MPD2     N12587   2.518   3.414  12.109  0.5857 -0.1085 -0.1452
  853MPD2    H512588   2.539   3.324  12.066 -1.7023 -0.4088 -0.6317
  853MPD2    N112589   2.492   3.665  12.530 -0.2146 -0.2400  0.2133
  853MPD2    H712590   2.500   3.652  12.630 -0.7904 -0.4288  0.2331
  854MPD2     C12591   0.388   4.616  12.543  0.1058 -0.3036 -0.0053
  854MPD2    C112592   0.286   4.561  12.469 -0.0291  0.2132 -0.1562
  854MPD2    C212593   0.223   4.452  12.532 -0.2109  0.2156 -0.3214
  854MPD2    C312594   0.269   4.397  12.653 -0.3862  0.5768 -0.2687
  854MPD2    C412595   0.361   4.459  12.726  0.2285 -0.0051 -0.3579
  854MPD2    C512596   0.414   4.574  12.671 -0.8757  0.1584  0.3413
  854MPD2     H12597   0.156   4.389  12.475 -1.0854  0.8729 -0.0216
  854MPD2    H112598   0.386   4.425  12.826  1.6492 -2.5786 -1.5690
  854MPD2    H212599   0.436   4.702  12.495 -1.9249  1.4473  1.1060
  854MPD2    H312600   0.497   4.626  12.716  0.4770 -2.1844  0.5072
  854MPD2     N12601   0.215   4.273  12.703 -0.6676 -0.0274  0.2598
  854MPD2    H512602   0.245   4.251  12.798 -2.9341 -1.9466  0.5502
  854MPD2    N112603   0.250   4.599  12.334  0.1799 -0.6547 -0.1307
  854MPD2    H712604   0.312   4.662  12.283  1.3171 -1.9601 -0.3520
  855MPD2     C12605   4.360   3.716  13.306 -0.2081  0.7775 -0.5757
  855MPD2    C112606   4.488   3.673  13.327  0.6506 -0.5007 -0.0400
  855MPD2    C212607   4.584   3.708  13.237 -0.2764 -0.2904 -0.3913
  855MPD2    C312608   4.560   3.801  13.139  0.1264  0.3401  0.0643
  855MPD2    C412609   4.435   3.854  13.133  0.2615 -0.1200 -0.3770
  855MPD2    C512610   4.335   3.805  13.205 -0.2445 -0.0657  0.2303
  855MPD2     H12611   4.686   3.672  13.248 -0.2972 -0.3977 -0.5452
  855MPD2    H112612   4.417   3.928  13.056  0.5083 -1.2716 -1.5632
  855MPD2    H212613   4.283   3.671  13.367  0.7586  0.8092  0.6587
  855MPD2    H312614   4.230   3.829  13.193 -0.2507  1.6878  3.7997
  855MPD2     N12615   4.671   3.840  13.055 -0.5846  0.6882 -0.5193
  855MPD2    H512616   0.025   3.800  13.071 -1.0659  0.2222  1.0511
  855MPD2    N112617   4.497   3.589  13.436 -0.4745 -0.1185  0.1971
  855MPD2    H712618   4.413   3.540  13.468 -1.1825  2.3733  2.1439
  856MPD2     C12619   2.267   4.242  14.362  0.2638  0.2350  0.5481
  856MPD2    C112620   2.334   4.363  14.346 -0.5147 -0.1454  0.1232
  856MPD2    C212621   2.264   4.462  14.281 -0.9436 -0.0116  0.2337
  856MPD2    C312622   2.136   4.446  14.226  0.0625  0.3199 -0.5767
  856MPD2    C412623   2.075   4.322  14.234  0.5788 -0.4196 -0.3760
  856MPD2    C512624   2.148   4.226  14.294  0.0611 -0.1025 -0.3433
  856MPD2     H12625   2.315   4.557  14.281 -0.8714 -0.0522  1.5946
  856MPD2    H112626   1.989   4.295  14.174 -0.5749 -1.5309  1.7548
  856MPD2    H212627   2.315   4.155  14.406 -2.0320 -0.6619  1.2841
  856MPD2    H312628   2.106   4.126  14.298  2.2768 -1.0645 -0.8644
  856MPD2     N12629   2.086   4.546  14.133  0.7514 -0.6861 -0.0674
  856MPD2    H512630   2.006   4.514  14.079  1.4344 -0.6753 -1.0782
  856MPD2    N112631   2.463   4.389  14.391 -0.7702 -0.1097  0.1714
  856MPD2    H712632   2.500   4.483  14.378  0.1917 -0.5486 -0.3130
  857MPD2     C12633   3.840   1.678  12.641 -0.0390 -0.1506  0.2140
  857MPD2    C112634   3.909   1.766  12.557 -0.8938  0.1768 -0.7276
  857MPD2    C212635   3.956   1.883  12.613  0.5053 -0.3854  0.7032
  857MPD2    C312636   3.950   1.916  12.743  0.7945  1.3353  0.0446
  857MPD2    C412637   3.876   1.831  12.824  0.1905  0.7624 -0.2729
  857MPD2    C512638   3.830   1.712  12.774 -0.3023 -0.4491  0.5421
  857MPD2     H12639   4.012   1.945  12.544 -0.3657 -0.8398 -0.4042
  857MPD2    H112640   3.865   1.863  12.927  0.7836  0.8158 -0.2252
  857MPD2    H212641   3.809   1.577  12.615  4.9083 -1.7560  0.7033
  857MPD2    H312642   3.784   1.640  12.841 -1.7586  0.3022  0.3524
  857MPD2     N12643   4.010   2.038  12.779 -0.4910 -0.1092  0.0414
  857MPD2    H512644   4.057   2.084  12.702  0.9753 -1.2223  0.2801
  857MPD2    N112645   3.936   1.725  12.426 -0.1118 -0.0019 -0.0395
  857MPD2    H712646   3.883   1.646  12.390 -0.6755  0.0583  0.6701
  858MPD2     C12647   4.383   1.497  16.366 -0.0730 -0.7334 -0.7768
  858MPD2    C112648   4.380   1.360  16.389  0.5073 -0.4377 -0.5135
  858MPD2    C212649   4.360   1.311  16.522 -0.2043  0.4974  0.1857
  858MPD2    C312650   4.344   1.405  16.625 -0.3032 -0.3142  0.2466
  858MPD2    C412651   4.350   1.543  16.594  0.6146  0.3547 -0.1992
  858MPD2    C512652   4.365   1.586  16.467  0.3457 -0.1629  0.4393
  858MPD2     H12653   4.351   1.207  16.551  2.1479  0.6707  1.6135
  858MPD2    H112654   4.348   1.617  16.674 -0.8478  0.2534 -0.1414
  858MPD2    H212655   4.390   1.536  16.265 -0.5293 -2.9688 -1.6769
  858MPD2    H312656   4.349   1.690  16.443 -0.9545  0.0135  2.0322
  858MPD2     N12657   4.333   1.370  16.759 -0.2177 -0.2022 -0.2913
  858MPD2    H512658   4.312   1.449  16.820  2.1896 -0.8421  1.3898
  858MPD2    N112659   4.394   1.270  16.277 -0.3747  0.1061 -0.3849
  858MPD2    H712660   4.421   1.302  16.185 -0.0855 -2.2015 -1.0889
  859MPD2     C12661   3.408   3.028  15.809 -0.0441  0.0518 -0.1937
  859MPD2    C112662   3.293   2.995  15.744  0.4483 -0.3252 -0.0546
  859MPD2    C212663   3.252   2.863  15.745 -0.1233  0.5709  0.3656
  859MPD2    C312664   3.319   2.766  15.818  0.5613 -0.3401  0.2635
  859MPD2    C412665   3.437   2.800  15.876  0.0201 -0.5591 -0.1091
  859MPD2    C512666   3.480   2.929  15.879  0.2677 -0.1735 -0.2523
  859MPD2     H12667   3.171   2.834  15.678  0.2642 -0.0842  0.1771
  859MPD2    H112668   3.507   2.727  15.914  2.4054  1.6525 -0.2914
  859MPD2    H212669   3.435   3.133  15.810 -0.4685  0.1781 -1.4839
  859MPD2    H312670   3.572   2.954  15.930 -0.3608  0.9341  0.3391
  859MPD2     N12671   3.271   2.632  15.811  0.0652  0.2450  0.3175
  859MPD2    H512672   3.210   2.619  15.731  0.4736  3.3645 -0.5149
  859MPD2    N112673   3.230   3.107  15.681  0.2828  0.2001  0.3444
  859MPD2    H712674   3.274   3.197  15.698 -1.7138  1.2981 -0.1733
  860MPD2     C12675   1.131   3.623  11.613 -0.2245 -0.3679 -0.0451
  860MPD2    C112676   1.090   3.616  11.741  0.1608 -0.5345  0.3340
  860MPD2    C212677   0.962   3.573  11.763  0.8088  0.2621 -0.2172
  860MPD2    C312678   0.873   3.546  11.658  0.1388 -0.1233 -0.6646
  860MPD2    C412679   0.917   3.555  11.531 -0.5148  0.2799 -0.0462
  860MPD2    C512680   1.048   3.593  11.508 -0.0543  0.0044 -0.6389
  860MPD2     H12681   0.937   3.558  11.867  0.2385 -1.5359 -0.6114
  860MPD2    H112682   0.860   3.547  11.438  1.9284  2.2104 -1.7001
  860MPD2    H212683   1.230   3.659  11.588  0.1323 -2.3734 -1.4962
  860MPD2    H312684   1.087   3.586  11.407  0.4329 -0.0759 -0.4484
  860MPD2     N12685   0.736   3.521  11.695 -0.6564  0.1997 -0.4007
  860MPD2    H512686   0.723   3.503  11.794 -0.4793  0.5249 -0.3183
  860MPD2    N112687   1.167   3.656  11.852  0.0548  0.4306 -0.4464
  860MPD2    H712688   1.120   3.650  11.942 -1.5264  1.6910 -1.1854
  861MPD2     C12689   0.177   1.530  10.536  0.1830  0.2768  1.2313
  861MPD2    C112690   0.149   1.654  10.594 -0.0494 -0.4294  0.0986
  861MPD2    C212691   0.052   1.732  10.544 -0.1572  0.7528  0.5481
  861MPD2    C312692   4.701   1.686  10.447  0.1408  0.0657  0.0938
  861MPD2    C412693   4.723   1.556  10.400  0.5127  0.8522 -0.0759
  861MPD2    C512694   0.094   1.483  10.440  0.8127 -0.5163 -0.1146
  861MPD2     H12695   0.040   1.832  10.584 -1.2948  1.1548 -0.8070
  861MPD2    H112696   4.668   1.518  10.314 -1.2860  0.1386  1.3997
  861MPD2    H212697   0.261   1.467  10.563  0.2993 -0.2905 -0.4233
  861MPD2    H312698   0.112   1.387  10.393 -3.6270 -1.5242  0.2317
  861MPD2     N12699   4.582   1.755  10.407  0.9256  0.2014 -0.3965
  861MPD2    H512700   4.537   1.701  10.334 -1.0341  1.9754 -0.4941
  861MPD2    N112701   0.222   1.704  10.701 -0.3850 -0.6214 -0.3594
  861MPD2    H712702   0.215   1.804  10.715 -3.5066 -1.2048  2.2177
  862MPD2     C12703   3.876   1.578  10.293 -0.4222 -0.5105 -0.2262
  862MPD2    C112704   4.006   1.556  10.327  0.3371 -0.0509  0.0547
  862MPD2    C212705   4.041   1.431  10.381 -0.7847  0.5081 -0.1767
  862MPD2    C312706   3.950   1.330  10.381  0.1122 -0.2534  0.4500
  862MPD2    C412707   3.824   1.353  10.331  0.2720 -0.0318  0.1966
  862MPD2    C512708   3.786   1.475  10.292 -0.0268  0.5557 -0.2726
  862MPD2     H12709   4.141   1.422  10.423 -0.4829  1.6989 -0.6269
  862MPD2    H112710   3.761   1.266  10.317 -0.0956  0.4262 -1.0428
  862MPD2    H212711   3.829   1.674  10.273  2.0731  0.8963  0.6955
  862MPD2    H312712   3.682   1.498  10.270 -0.8392 -1.4853  1.3393
  862MPD2     N12713   3.963   1.209  10.452  0.5034 -0.2350 -0.0072
  862MPD2    H512714   3.881   1.149  10.457  1.8948 -2.0866  0.7111
  862MPD2    N112715   4.109   1.655  10.341  0.1924 -0.6455  0.7111
  862MPD2    H712716   4.194   1.617  10.380 -1.4499 -2.4071  2.5532
  863MPD2     C12717   2.226   4.468  16.482 -0.6335  0.2553  0.4677
  863MPD2    C112718   2.288   4.587  16.452  0.2829  1.2237  0.4107
  863MPD2    C212719   2.373   4.632  16.548 -0.2286 -1.0721 -0.0521
  863MPD2    C312720   2.402   4.566  16.666  0.1280  0.2592  0.4895
  863MPD2    C412721   2.332   4.449  16.697  0.0867 -0.3001  0.3077
  863MPD2    C512722   2.244   4.408  16.602  0.1206 -0.1482 -0.1124
  863MPD2     H12723   2.424   4.725  16.527  0.6570 -1.3249  0.9932
  863MPD2    H112724   2.342   4.400  16.793 -0.4439  0.7867  0.9209
  863MPD2    H212725   2.173   4.408  16.409 -1.1955  1.8038 -0.4062
  863MPD2    H312726   2.190   4.315  16.617 -1.6272  0.9248  0.1707
  863MPD2     N12727   2.497   4.611  16.762  0.5230 -0.2009  0.6538
  863MPD2    H512728   2.511   4.539  16.832 -1.6147 -0.4034  0.8694
  863MPD2    N112729   2.265   4.645  16.324  0.0957 -0.2907  0.0928
  863MPD2    H712730   2.173   4.623  16.286 -1.4219  1.0756  2.9476
  864MPD2     C12731   3.093   1.001  17.099  0.1919  0.4959 -0.4353
  864MPD2    C112732   3.155   0.948  16.985  0.9306  0.0642 -0.3776
  864MPD2    C212733   3.249   1.033  16.925  0.2197  0.0698 -0.4439
  864MPD2    C312734   3.290   1.151  16.985  0.6694 -0.2574 -0.0745
  864MPD2    C412735   3.231   1.200  17.099  0.4933  0.4655 -0.2016
  864MPD2    C512736   3.127   1.127  17.146  0.5964  0.4113 -0.3641
  864MPD2     H12737   3.281   1.003  16.826 -0.5701  1.3136 -1.0791
  864MPD2    H112738   3.265   1.289  17.151  1.6458  0.0928 -0.3250
  864MPD2    H212739   3.026   0.936  17.154  0.4535  0.2029 -0.4651
  864MPD2    H312740   3.086   1.162  17.240 -0.3133 -1.1833 -0.1509
  864MPD2     N12741   3.371   1.246  16.924  0.3824 -0.2668  0.4552
  864MPD2    H512742   3.375   1.335  16.971 -1.5197  0.0474  0.0220
  864MPD2    N112743   3.118   0.822  16.940 -0.1071 -0.7732  0.1882
  864MPD2    H712744   3.036   0.780  16.983 -0.2509  0.5958  1.2640
  865MPD2     C12745   3.544   1.663  16.143 -0.7465 -0.0113 -0.8662
  865MPD2    C112746   3.503   1.556  16.215 -0.7883 -0.6879  0.2759
  865MPD2    C212747   3.448   1.571  16.340 -0.5506 -0.5160  0.1316
  865MPD2    C312748   3.429   1.698  16.395  0.4299 -0.7086  0.2776
  865MPD2    C412749   3.472   1.808  16.321 -0.4295  0.9445  0.3633
  865MPD2    C512750   3.529   1.785  16.197 -0.1808 -0.9793 -0.1822
  865MPD2     H12751   3.418   1.483  16.395  0.2850 -1.3950 -0.8313
  865MPD2    H112752   3.457   1.908  16.360  2.5071  0.5600  2.4184
  865MPD2    H212753   3.591   1.668  16.045 -1.5824 -0.4770 -1.2960
  865MPD2    H312754   3.564   1.862  16.130  1.0966 -0.2539  1.3338
  865MPD2     N12755   3.372   1.730  16.527 -0.0716  0.4029  0.4295
  865MPD2    H512756   3.331   1.822  16.534  0.5739  0.7164  0.1153
  865MPD2    N112757   3.519   1.424  16.148  0.2260 -0.7037 -0.0955
  865MPD2    H712758   3.548   1.420  16.051  0.0607 -0.7727 -0.1428
  866MPD2     C12759   0.578   2.286  10.467  0.0610  0.3922  0.1674
  866MPD2    C112760   0.550   2.161  10.521 -0.1821 -0.5029 -0.2929
  866MPD2    C212761   0.429   2.148  10.591 -0.8117 -0.0133 -0.2894
  866MPD2    C312762   0.335   2.246  10.596 -0.0917  0.4447 -0.6838
  866MPD2    C412763   0.365   2.370  10.547 -0.0263 -0.7339 -0.4374
  866MPD2    C512764   0.488   2.387  10.481 -0.5431  0.0796  0.4787
  866MPD2     H12765   0.419   2.052  10.640 -0.0450  0.7974  1.4214
  866MPD2    H112766   0.303   2.457  10.566 -1.2256 -2.2672  2.7293
  866MPD2    H212767   0.674   2.324  10.434  1.2113 -2.7376 -0.0675
  866MPD2    H312768   0.508   2.489  10.448  1.9779 -0.9337 -1.0992
  866MPD2     N12769   0.208   2.232  10.658  0.3059  0.0302 -0.0736
  866MPD2    H512770   0.165   2.323  10.672  2.2747  0.6124  2.1350
  866MPD2    N112771   0.645   2.055  10.501  0.6519  0.3380  0.6114
  866MPD2    H712772   0.711   2.083  10.429 -0.4908 -1.4391 -1.1117
  867MPD2     C12773   1.769   1.566  16.429 -0.6812  0.0576 -0.5689
  867MPD2    C112774   1.795   1.454  16.510  0.0437 -0.3576  0.2205
  867MPD2    C212775   1.774   1.458  16.647  0.0753  0.0368  0.4882
  867MPD2    C312776   1.729   1.574  16.707 -0.6537  0.1642 -1.0266
  867MPD2    C412777   1.692   1.684  16.629 -1.1967 -0.5593  0.2234
  867MPD2    C512778   1.715   1.679  16.488 -0.5346 -0.2580 -0.2008
  867MPD2     H12779   1.806   1.376  16.711  0.5890 -0.6023 -0.5786
  867MPD2    H112780   1.656   1.777  16.671  0.5689  0.3303 -0.2322
  867MPD2    H212781   1.783   1.574  16.322  1.0316  0.8739 -0.2913
  867MPD2    H312782   1.686   1.763  16.426  1.0057  1.9406  2.0721
  867MPD2     N12783   1.714   1.595  16.845  1.0124 -0.1286 -0.3100
  867MPD2    H512784   1.697   1.690  16.876  2.2322 -0.7805  2.3283
  867MPD2    N112785   1.850   1.339  16.447 -0.6330  0.0371  0.3672
  867MPD2    H712786   1.871   1.340  16.348  0.1050  0.8351  0.5274
  868MPD2     C12787   3.891   0.506  13.417  0.3438 -0.4143 -0.4128
  868MPD2    C112788   3.874   0.370  13.407  0.1998  0.4610  0.3277
  868MPD2    C212789   3.758   0.312  13.465  0.2906 -0.2527  0.2896
  868MPD2    C312790   3.659   0.391  13.515 -0.8013 -0.3587  1.1735
  868MPD2    C412791   3.681   0.526  13.528  0.0443  0.2635 -0.3102
  868MPD2    C512792   3.794   0.577  13.483 -0.1060  0.3508 -0.3585
  868MPD2     H12793   3.743   0.205  13.475 -0.4841 -0.5101 -3.4811
  868MPD2    H112794   3.607   0.593  13.572  0.2572  0.5359 -0.3694
  868MPD2    H212795   3.976   0.556  13.372  3.1469 -4.2184  0.6852
  868MPD2    H312796   3.797   0.685  13.493 -1.3496  0.3895 -0.3714
  868MPD2     N12797   3.536   0.331  13.559  0.1635 -0.4639  0.1539
  868MPD2    H512798   3.534   0.230  13.550 -0.2420 -0.4014 -0.4338
  868MPD2    N112799   3.977   0.297  13.346 -0.2815 -0.4300  0.1448
  868MPD2    H712800   4.054   0.359  13.324  0.5223 -1.6392 -0.4066
  869MPD2     C12801   0.157   3.442   0.886  0.3457  0.0511  0.5386
  869MPD2    C112802   0.122   3.344   0.792  0.5665  0.2532  0.4299
  869MPD2    C212803   0.215   3.282   0.712 -0.1716 -0.3791  0.0454
  869MPD2    C312804   0.337   3.352   0.691  0.5940 -0.8886  0.2647
  869MPD2    C412805   0.368   3.459   0.774 -0.6472 -0.1255 -0.5071
  869MPD2    C512806   0.285   3.491   0.875  0.0444  0.0341  0.2553
  869MPD2     H12807   0.181   3.202   0.647  0.6977 -0.2959 -0.5207
  869MPD2    H112808   0.457   3.518   0.760 -1.6492  1.7782  1.2036
  869MPD2    H212809   0.088   3.487   0.957  0.1739  3.1589 -1.5823
  869MPD2    H312810   0.301   3.582   0.932  0.9589 -0.8330  1.3996
  869MPD2     N12811   0.428   3.322   0.591  0.3061 -0.6997  0.0266
  869MPD2    H512812   0.512   3.379   0.591 -0.8703  1.0172 -1.5008
  869MPD2    N112813   4.723   3.310   0.802 -0.0721  0.2736  0.0485
  869MPD2    H712814   4.672   3.369   0.867  1.1250 -0.4909  1.7039
  870MPD2     C12815   0.147   1.657   1.380 -0.0723 -0.5189  0.5017
  870MPD2    C112816   0.225   1.747   1.315 -0.0328 -0.2019  0.2319
  870MPD2    C212817   0.185   1.883   1.315  0.0202  0.2357 -0.8010
  870MPD2    C312818   0.071   1.919   1.389  0.1446 -0.2050  0.7663
  870MPD2    C412819   0.000   1.815   1.458 -0.6298 -0.3473 -0.2721
  870MPD2    C512820   0.041   1.687   1.451  0.1830  0.1401  0.2515
  870MPD2     H12821   0.230   1.965   1.260  0.5839 -0.3979 -1.2814
  870MPD2    H112822   4.648   1.841   1.512  0.0386  0.1743  0.6001
  870MPD2    H212823   0.176   1.553   1.378  2.2641  0.1746 -0.9149
  870MPD2    H312824   4.732   1.612   1.513  2.7656 -0.8707  0.9881
  870MPD2     N12825   0.036   2.058   1.406  0.4362 -0.5341 -0.0902
  870MPD2    H512826   0.095   2.123   1.355 -1.3700 -0.4381 -2.0903
  870MPD2    N112827   0.337   1.692   1.248  0.4923  0.1786 -0.2054
  870MPD2    H712828   0.354   1.593   1.261  0.4133  0.3085  0.8997
  871MPD2     C12829   0.982   1.964  16.431 -0.7779 -0.5077  0.5225
  871MPD2    C112830   0.897   1.903  16.524  0.6501  0.0981 -0.3018
  871MPD2    C212831   0.822   1.792  16.497  0.3601 -0.6222 -0.0248
  871MPD2    C312832   0.831   1.736  16.371  0.1988 -0.4159 -0.7596
  871MPD2    C412833   0.909   1.805  16.274  0.2128  0.4262 -0.3765
  871MPD2    C512834   0.977   1.917  16.302  0.2155 -0.5989  0.1902
  871MPD2     H12835   0.763   1.742  16.572 -0.1641  0.0387  0.0054
  871MPD2    H112836   0.920   1.761  16.176  0.4946 -3.2131  1.2891
  871MPD2    H212837   1.031   2.058  16.455  0.4613 -0.8592 -0.6149
  871MPD2    H312838   1.030   1.971  16.225 -0.5838 -1.8485 -1.2412
  871MPD2     N12839   0.776   1.598  16.357 -0.3237 -0.4056 -0.5018
  871MPD2    H512840   0.724   1.565  16.437 -2.5596  0.1695 -1.7204
  871MPD2    N112841   0.890   1.980  16.643  0.0772 -0.2355 -0.4832
  871MPD2    H712842   0.955   2.057  16.653  1.0490 -1.1664  0.4016
  872MPD2     C12843   1.952   4.209  13.666  0.5333  0.1337  0.4651
  872MPD2    C112844   1.983   4.173  13.794  0.4340  0.3866 -0.0893
  872MPD2    C212845   1.888   4.118  13.878 -0.3739 -0.0600 -0.4760
  872MPD2    C312846   1.760   4.100  13.828  0.4135 -0.5101  0.0779
  872MPD2    C412847   1.741   4.114  13.688 -0.3348 -0.2311 -0.0104
  872MPD2    C512848   1.835   4.170  13.608 -0.1544 -0.4101 -1.0830
  872MPD2     H12849   1.910   4.093  13.982  1.1072  1.6292 -0.3769
  872MPD2    H112850   1.646   4.089  13.643 -0.7533  1.2961  0.0038
  872MPD2    H212851   2.019   4.272  13.609  1.9888 -0.4283  1.5452
  872MPD2    H312852   1.828   4.203  13.505  1.1279  0.4589 -0.8878
  872MPD2     N12853   1.662   4.048  13.913 -0.3366  0.3851 -0.2849
  872MPD2    H512854   1.691   4.040  14.010 -0.6802  2.3815 -0.0204
  872MPD2    N112855   2.108   4.201  13.832 -0.1339  0.1619 -0.2114
  872MPD2    H712856   2.166   4.257  13.770 -0.6627  1.1112  0.1441
  873MPD2     C12857   4.357   3.793   0.783 -0.2196 -0.3375 -0.1209
  873MPD2    C112858   4.255   3.859   0.846 -0.2384 -0.5734 -0.2720
  873MPD2    C212859   4.131   3.803   0.830 -0.2070 -0.3649 -0.0936
  873MPD2    C312860   4.099   3.692   0.756  0.2826  0.3812  0.4886
  873MPD2    C412861   4.205   3.637   0.690  0.0488 -0.3854  0.0435
  873MPD2    C512862   4.334   3.681   0.708 -0.2449  0.0753  0.1347
  873MPD2     H12863   4.049   3.853   0.881 -0.5987  0.0782 -1.1492
  873MPD2    H112864   4.188   3.552   0.626  0.1946 -0.8274  0.5865
  873MPD2    H212865   4.455   3.838   0.780 -0.1337 -0.3427  3.5191
  873MPD2    H312866   4.408   3.628   0.649  0.2126 -0.8995  1.5856
  873MPD2     N12867   3.973   3.625   0.740 -0.1102  0.0187  0.5826
  873MPD2    H512868   3.964   3.552   0.670 -0.9040 -0.5982  1.3246
  873MPD2    N112869   4.275   3.981   0.904  0.3907 -0.3902 -0.3685
  873MPD2    H712870   4.367   4.024   0.892 -0.5431  1.8370  0.5266
  874MPD2     C12871   3.252   4.047  15.993 -0.1686  0.2878  0.0549
  874MPD2    C112872   3.338   3.968  16.061 -0.5093 -0.2521 -0.1252
  874MPD2    C212873   3.470   3.996  16.026  0.0819  0.0318 -1.0768
  874MPD2    C312874   3.512   4.079  15.924 -0.2577  0.2725 -0.3019
  874MPD2    C412875   3.423   4.158  15.866  0.6122  0.2794 -0.4135
  874MPD2    C512876   3.295   4.139  15.897 -0.2586  0.4351  0.5082
  874MPD2     H12877   3.551   3.943  16.074 -0.9297 -0.3343  0.2507
  874MPD2    H112878   3.446   4.236  15.794 -1.4253  1.0083 -0.2696
  874MPD2    H212879   3.146   4.028  15.996 -0.3782  1.1909 -2.0202
  874MPD2    H312880   3.215   4.197  15.852  0.1883  0.8351  0.2187
  874MPD2     N12881   3.658   4.080  15.895  0.6238  0.1550 -0.0809
  874MPD2    H512882   3.708   4.005  15.941 -0.3752 -0.2293  0.3900
  874MPD2    N112883   3.290   3.857  16.134 -0.0962 -0.1489  0.3094
  874MPD2    H712884   3.190   3.855  16.148  0.1451 -1.7497  1.8735
  875MPD2     C12885   0.016   2.465  14.417 -0.6056 -0.2654  0.2029
  875MPD2    C112886   4.629   2.439  14.473  0.0400  0.0660  0.1664
  875MPD2    C212887   4.608   2.472  14.606 -0.2282  0.2184 -0.2898
  875MPD2    C312888   4.714   2.517  14.682  0.1913 -0.2472  0.1030
  875MPD2    C412889   0.098   2.544  14.630 -0.0645 -0.2975 -0.0219
  875MPD2    C512890   0.105   2.536  14.491  0.8086  0.5251 -0.3765
  875MPD2     H12891   4.519   2.455  14.664  0.2357 -0.5717  0.1762
  875MPD2    H112892   0.168   2.603  14.688 -0.5594  1.5231 -1.2593
  875MPD2    H212893   0.040   2.446  14.313  2.8095  1.6181  0.6440
  875MPD2    H312894   0.194   2.580  14.447 -1.0690  3.6503 -1.0657
  875MPD2     N12895   4.705   2.545  14.823 -0.7265  0.2889  0.1429
  875MPD2    H512896   0.055   2.581  14.858 -0.1679  0.1491 -1.0984
  875MPD2    N112897   4.521   2.379  14.410 -0.3255  0.1625  0.2383
  875MPD2    H712898   4.441   2.356  14.468  0.7183 -0.1702  1.5411
  876MPD2     C12899   3.112   3.438  15.955 -0.1211  0.2294 -0.0086
  876MPD2    C112900   3.248   3.456  15.977  0.4457  0.7250  0.2476
  876MPD2    C212901   3.323   3.359  16.045  0.1037  0.3257 -0.5044
  876MPD2    C312902   3.262   3.243  16.093  0.1559  0.2775  0.3572
  876MPD2    C412903   3.125   3.233  16.076  0.1116 -0.0642 -0.5439
  876MPD2    C512904   3.059   3.325  16.004 -0.4630  0.1295 -0.1653
  876MPD2     H12905   3.424   3.386  16.073  0.1824 -0.4564 -0.0320
  876MPD2    H112906   3.066   3.145  16.099  0.3913  0.4335  2.1379
  876MPD2    H212907   3.048   3.515  15.914 -0.5107 -0.4442 -0.6637
  876MPD2    H312908   2.951   3.317  16.000 -0.3620 -1.6252  0.7026
  876MPD2     N12909   3.336   3.148  16.163  0.2150  0.5618  0.7285
  876MPD2    H512910   3.435   3.162  16.177  0.3740  0.9565 -0.8932
  876MPD2    N112911   3.305   3.573  15.919 -0.1554 -0.9986  0.1307
  876MPD2    H712912   3.243   3.632  15.864  2.2872  2.9374  1.5984
  877MPD2     C12913   3.144   3.901  15.344  0.7019 -0.2720 -0.2259
  877MPD2    C112914   3.283   3.901  15.348  0.5016  0.2958  0.0526
  877MPD2    C212915   3.354   3.907  15.227 -0.1175 -0.0414 -0.4132
  877MPD2    C312916   3.289   3.921  15.101 -0.8273 -0.2534 -0.4735
  877MPD2    C412917   3.148   3.926  15.103  0.0759 -0.5483  0.2678
  877MPD2    C512918   3.079   3.909  15.225 -0.3101 -0.3298  0.1426
  877MPD2     H12919   3.461   3.915  15.241  0.1573 -0.5569 -2.3026
  877MPD2    H112920   3.088   3.944  15.015 -0.4828  2.1537  1.2026
  877MPD2    H212921   3.079   3.908  15.431 -0.5871 -0.9999 -1.1379
  877MPD2    H312922   2.971   3.909  15.213 -0.2816 -2.4413 -0.0240
  877MPD2     N12923   3.361   3.938  14.979 -0.0687  0.4373 -0.3349
  877MPD2    H512924   3.305   3.928  14.894  0.2130 -1.2441 -0.3287
  877MPD2    N112925   3.354   3.899  15.461  0.6983  0.0013  0.4334
  877MPD2    H712926   3.456   3.893  15.456  0.7396  1.1331 -0.1996
  878MPD2     C12927   3.666   2.590  13.289 -0.4407 -0.3816  0.1651
  878MPD2    C112928   3.592   2.700  13.307  0.6155 -0.1400  0.4032
  878MPD2    C212929   3.566   2.742  13.437  0.3152  0.1356  0.3190
  878MPD2    C312930   3.615   2.676  13.547  0.7038 -0.2833 -0.1145
  878MPD2    C412931   3.690   2.563  13.524 -0.0680  0.3932 -0.1564
  878MPD2    C512932   3.715   2.518  13.402 -0.2761  0.7254 -0.0912
  878MPD2     H12933   3.495   2.823  13.451 -2.0067 -1.6811 -0.9695
  878MPD2    H112934   3.748   2.531  13.610 -2.9443 -0.7275  1.3689
  878MPD2    H212935   3.699   2.556  13.192  0.6345  1.4011 -0.1057
  878MPD2    H312936   3.768   2.424  13.386 -0.8316  0.2560  0.8034
  878MPD2     N12937   3.596   2.730  13.672 -0.0815  0.1044 -0.0711
  878MPD2    H512938   3.631   2.677  13.751  0.4990  1.7352  0.7656
  878MPD2    N112939   3.559   2.783  13.194 -0.6304 -0.6669 -0.0627
  878MPD2    H712940   3.588   2.753  13.101  0.2075 -2.2595  0.7192
  879MPD2     C12941   3.274   4.349  17.346  0.5834  0.8910 -1.1389
  879MPD2    C112942   3.377   4.394  17.272 -0.2321  0.7179 -0.6942
  879MPD2    C212943   3.366   4.375  17.132  0.1635  0.0717  0.6594
  879MPD2    C312944   3.259   4.314  17.077  0.0113 -0.3116  0.6524
  879MPD2    C412945   3.150   4.282  17.149  0.1168 -0.3243 -0.2806
  879MPD2    C512946   3.163   4.295  17.286 -0.2681  0.5098  0.3393
  879MPD2     H12947   3.452   4.408  17.075  0.9611  0.3649  2.0327
  879MPD2    H112948   3.058   4.249  17.102  0.3598 -1.1994 -0.1420
  879MPD2    H212949   3.273   4.369  17.452 -3.0952  1.8577 -1.3800
  879MPD2    H312950   3.079   4.277  17.352 -0.6141  0.6604 -0.0563
  879MPD2     N12951   3.253   4.269  16.938  0.7865 -0.1697 -0.2033
  879MPD2    H512952   3.170   4.221  16.906  0.0276  1.1645 -0.2250
  879MPD2    N112953   3.473   4.461  17.348 -0.5870 -0.5752  0.6455
  879MPD2    H712954   3.470   4.443  17.448  0.2410  1.2507  1.0073
  880MPD2     C12955   4.568   2.024   0.222  0.0380 -0.7558  0.6354
  880MPD2    C112956   4.667   2.061   0.312  0.4331 -0.0698  0.4732
  880MPD2    C212957   0.012   1.960   0.359 -0.6765  0.2660  0.7394
  880MPD2    C312958   0.001   1.830   0.315 -0.0970 -0.2694 -0.1113
  880MPD2    C412959   4.645   1.798   0.227 -0.5509 -0.4003  0.0103
  880MPD2    C512960   4.554   1.894   0.185 -0.4129 -0.2259  0.3696
  880MPD2     H12961   0.086   1.986   0.435  0.2852 -1.2481  0.3189
  880MPD2    H112962   4.623   1.695   0.201 -0.0276 -0.8178  1.2281
  880MPD2    H212963   4.502   2.093   0.170  1.1918 -1.4014 -1.6870
  880MPD2    H312964   4.466   1.867   0.127  0.8109 -2.2304 -0.5527
  880MPD2     N12965   0.096   1.739   0.371  0.3565  0.1161 -0.1601
  880MPD2    H512966   0.154   1.774   0.446  2.2508 -1.6256 -0.8374
  880MPD2    N112967   4.683   2.194   0.363  0.2456  0.0202 -0.4495
  880MPD2    H712968   0.010   2.211   0.439  0.4222  0.3343 -0.6714
  881MPD2     C12969   0.449   3.016   0.032 -0.5983 -0.6555 -0.7126
  881MPD2    C112970   0.336   2.985  17.719 -0.0369 -0.3392  0.6437
  881MPD2    C212971   0.248   2.911   0.046  0.3032  0.2336  0.3032
  881MPD2    C312972   0.270   2.887   0.177  0.0520 -0.0315  0.2979
  881MPD2    C412973   0.380   2.945   0.234  0.3779  0.3029 -0.8339
  881MPD2    C512974   0.477   3.009   0.161  0.0943  0.0949 -0.6373
  881MPD2     H12975   0.165   2.857   0.001  1.3310 -1.1273  0.0622
  881MPD2    H112976   0.397   2.913   0.336 -0.6442 -0.3370 -0.8637
  881MPD2    H212977   0.518   3.072  17.720 -2.1199  0.7456 -1.1147
  881MPD2    H312978   0.569   3.038   0.210  0.7238  1.9275 -2.9427
  881MPD2     N12979   0.182   2.814   0.259 -0.0988 -0.1970  0.2909
  881MPD2    H512980   0.207   2.809   0.357 -0.0362  1.0262  0.3320
  881MPD2    N112981   0.326   3.000  17.576 -0.2093 -0.4567  0.2343
  881MPD2    H712982   0.407   3.044  17.534 -2.2429  1.4113 -1.7166
  882MPD2     C12983   3.405   3.780  14.209 -0.3646  0.3664 -0.0337
  882MPD2    C112984   3.369   3.842  14.325  0.7246  0.4812  0.8378
  882MPD2    C212985   3.236   3.846  14.358 -0.3006 -0.8469  0.2969
  882MPD2    C312986   3.133   3.794  14.273  0.2068  0.5180  0.5166
  882MPD2    C412987   3.177   3.712  14.174 -0.5444 -0.0866 -0.1481
  882MPD2    C512988   3.310   3.693  14.149 -0.5676 -0.9642  0.3656
  882MPD2     H12989   3.209   3.903  14.446  0.8529 -0.0598  0.1336
  882MPD2    H112990   3.103   3.662  14.113 -2.1831  1.5688  0.4862
  882MPD2    H212991   3.505   3.765  14.171 -1.0072 -2.0653 -0.7719
  882MPD2    H312992   3.335   3.632  14.063  1.5730  0.2707  0.1038
  882MPD2     N12993   2.997   3.781  14.317 -0.4184 -0.2637 -0.0633
  882MPD2    H512994   2.928   3.723  14.271  1.7499 -1.8425 -1.2903
  882MPD2    N112995   3.470   3.894  14.413  0.3114  0.4140 -0.2454
  882MPD2    H712996   3.567   3.869  14.401  0.3326  0.9099 -1.1805
  883MPD2     C12997   0.217   3.882  15.840 -0.1507  0.5200 -0.4786
  883MPD2    C112998   0.292   3.882  15.728  0.1482  0.3443  0.0304
  883MPD2    C212999   0.427   3.915  15.739 -0.2011 -0.1986 -0.5303
  883MPD2    C313000   0.483   3.965  15.859 -0.2056  0.1150 -0.4700
  883MPD2    C413001   0.404   3.959  15.972 -0.2323  0.2117 -0.5614
  883MPD2    C513002   0.272   3.927  15.956  0.4422  0.2345 -0.5801
  883MPD2     H13003   0.489   3.911  15.651 -0.7954 -0.2162 -0.9478
  883MPD2    H113004   0.434   3.998  16.069 -5.1180  0.5064  0.8405
  883MPD2    H213005   0.113   3.853  15.840 -0.1757  0.6334  0.2382
  883MPD2    H313006   0.218   3.916  16.050 -0.2386 -0.6358 -1.0813
  883MPD2     N13007   0.614   4.023  15.862  0.0941  0.1951  0.3767
  883MPD2    H513008   0.654   4.025  15.768 -0.1966  0.2975  0.2544
  883MPD2    N113009   0.253   3.823  15.603  0.0811 -0.8094 -0.4086
  883MPD2    H713010   0.321   3.837  15.528 -1.5868  0.3423 -1.6950
  884MPD2     C13011   2.582   4.638  15.034  0.0409  0.2132 -0.1100
  884MPD2    C113012   2.553   0.007  14.959 -0.1601 -0.3347 -0.8767
  884MPD2    C213013   2.424   0.060  14.967 -1.1542 -0.4058 -0.3369
  884MPD2    C313014   2.327   0.009  15.052  0.0858  1.1994 -0.4419
  884MPD2    C413015   2.363   4.632  15.124  0.6081 -0.0513 -0.4595
  884MPD2    C513016   2.489   4.587  15.117 -0.2114 -0.0262  0.1112
  884MPD2     H13017   2.402   0.157  14.922 -0.1120 -0.7005 -1.4883
  884MPD2    H113018   2.299   4.572  15.188  0.9888  0.9660  0.8785
  884MPD2    H213019   2.677   4.586  15.033 -0.9115 -1.5433 -1.5435
  884MPD2    H313020   2.516   4.496  15.170  2.4440  1.2099  0.8742
  884MPD2     N13021   2.195   0.064  15.055  0.0476 -0.0612 -0.6041
  884MPD2    H513022   2.183   0.148  15.000  2.1815  0.2340 -0.5933
  884MPD2    N113023   2.649   0.070  14.875 -0.1133 -0.1973 -0.0342
  884MPD2    H713024   2.616   0.157  14.834 -0.0419 -0.1761 -0.0476
  885MPD2     C13025   0.348   0.509  17.742 -0.0089  0.8611  0.0914
  885MPD2    C113026   0.483   0.544  17.722  0.3820  0.0702 -0.1075
  885MPD2    C213027   0.532   0.547  17.590 -0.3562 -0.3180 -0.2191
  885MPD2    C313028   0.440   0.503  17.488 -0.2586 -0.1298 -0.3432
  885MPD2    C413029   0.323   0.448  17.520  0.6484 -0.2513 -0.2229
  885MPD2    C513030   0.272   0.465  17.639  0.5375  0.3422  0.5606
  885MPD2     H13031   0.629   0.588  17.564 -0.1468 -0.4387  0.3591
  885MPD2    H113032   0.260   0.401  17.445  0.0338 -0.7092  0.5710
  885MPD2    H213033   0.291   0.509   0.084 -0.1104  0.0178  0.0335
  885MPD2    H313034   0.168   0.441  17.661  0.6621 -1.0921 -0.5015
  885MPD2     N13035   0.489   0.510  17.351 -0.7850 -0.2896  0.0865
  885MPD2    H513036   0.584   0.542  17.333 -1.5585  0.9737 -1.6218
  885MPD2    N113037   0.557   0.603   0.088  0.1359 -0.1873 -0.2177
  885MPD2    H713038   0.652   0.625   0.058  1.4064  0.3031  4.2003
  886MPD2     C13039   2.113   3.264  14.945  0.0762  0.3918 -0.3524
  886MPD2    C113040   2.164   3.293  15.067 -0.6582 -0.0563  0.3914
  886MPD2    C213041   2.130   3.413  15.124  0.0793 -0.1468  0.1363
  886MPD2    C313042   2.055   3.509  15.058 -0.1403  0.1552 -0.3744
  886MPD2    C413043   1.993   3.463  14.946  0.2298  0.3253 -0.2984
  886MPD2    C513044   2.014   3.343  14.887 -0.3814  0.0831 -0.1577
  886MPD2     H13045   2.160   3.434  15.226 -0.0965 -0.6733  0.2942
  886MPD2    H113046   1.916   3.521  14.897  0.4477  0.4303 -0.5143
  886MPD2    H213047   2.129   3.170  14.895 -2.7227  0.8435 -2.0765
  886MPD2    H313048   1.964   3.313  14.795 -0.6152 -2.3889  0.7661
  886MPD2     N13049   2.032   3.645  15.092  0.1026  0.1044 -0.0227
  886MPD2    H513050   1.970   3.699  15.032  0.4750 -0.2877 -0.7600
  886MPD2    N113051   2.247   3.204  15.138 -1.0872 -0.4989  0.7141
  886MPD2    H713052   2.280   3.230  15.230  2.0208  0.7322 -0.7311
  887MPD2     C13053   2.742   3.244  15.667 -0.9244  0.0186 -0.0289
  887MPD2    C113054   2.660   3.299  15.574  0.7721 -0.0702 -0.7897
  887MPD2    C213055   2.617   3.428  15.587  0.1728  0.0736 -0.0002
  887MPD2    C313056   2.658   3.512  15.693  0.0943  0.1791 -0.6605
  887MPD2    C413057   2.742   3.454  15.791  0.1555 -0.1849  0.3837
  887MPD2    C513058   2.779   3.320  15.777  0.0677 -0.1657 -0.0282
  887MPD2     H13059   2.552   3.467  15.509  0.9178  0.7575 -0.2780
  887MPD2    H113060   2.758   3.506  15.885  0.9460  0.0519  0.1111
  887MPD2    H213061   2.764   3.139  15.681  2.6551  0.9574  1.3599
  887MPD2    H313062   2.818   3.260  15.859  0.1577  1.9666  1.5089
  887MPD2     N13063   2.602   3.637  15.702  0.1696  0.8311  0.4181
  887MPD2    H513064   2.527   3.654  15.636 -0.6888 -1.8944  0.6869
  887MPD2    N113065   2.606   3.230  15.464 -0.2395  0.2281 -0.2409
  887MPD2    H713066   2.539   3.277  15.405 -1.3786 -2.4546 -1.0793
  888MPD2     C13067   4.296   3.424  14.805 -0.1388  0.0207  0.1430
  888MPD2    C113068   4.329   3.472  14.929  0.5754 -0.2730  0.7675
  888MPD2    C213069   4.408   3.589  14.948 -0.2769  0.4058  0.6660
  888MPD2    C313070   4.443   3.661  14.834  0.3581  0.4340 -0.5429
  888MPD2    C413071   4.395   3.614  14.713  0.7716  0.1983  0.9451
  888MPD2    C513072   4.322   3.503  14.702  0.0228  0.1085  0.2597
  888MPD2     H13073   4.425   3.617  15.052  2.2195  1.1764  0.0372
  888MPD2    H113074   4.415   3.668  14.622  0.3632 -0.7927  0.2627
  888MPD2    H213075   4.233   3.337  14.791 -1.5012  1.0333 -0.0150
  888MPD2    H313076   4.292   3.470  14.604  1.5433 -0.7975  0.1086
  888MPD2     N13077   4.516   3.771  14.848 -0.4321 -0.7440 -0.3966
  888MPD2    H513078   4.532   3.798  14.944 -1.8587 -1.5012  0.0541
  888MPD2    N113079   4.292   3.400  15.049  0.1967 -0.6737 -0.1526
  888MPD2    H713080   4.330   3.440  15.134  1.3375 -0.7137 -0.6378
  889MPD2     C13081   3.959   2.924  12.860  0.2141 -1.0973  0.8853
  889MPD2    C113082   3.964   2.825  12.953 -0.1225  0.2390 -0.0721
  889MPD2    C213083   3.940   2.848  13.083  0.1138  0.5907 -0.9424
  889MPD2    C313084   3.884   2.968  13.121 -0.0593  0.1730  0.4882
  889MPD2    C413085   3.878   3.070  13.030  0.3277 -0.0710  0.4952
  889MPD2    C513086   3.915   3.046  12.897 -0.3827  0.1806  0.4673
  889MPD2     H13087   3.936   2.768  13.156 -1.3586 -1.1599 -2.9088
  889MPD2    H113088   3.843   3.169  13.057  1.7031  1.2764 -2.6523
  889MPD2    H213089   3.983   2.911  12.755  0.0195  1.7321  0.4960
  889MPD2    H313090   3.924   3.123  12.821 -2.9352  1.0143  0.9989
  889MPD2     N13091   3.848   2.979  13.256  0.2044  0.7236 -0.3297
  889MPD2    H513092   3.870   2.895  13.309  0.4897 -0.5010 -2.4000
  889MPD2    N113093   4.024   2.705  12.914 -0.3702  0.3423 -0.1950
  889MPD2    H713094   4.083   2.701  12.831 -1.8297  2.3920 -1.3317
  890MPD2     C13095   3.464   4.487  14.631  0.6499  0.0423 -1.1276
  890MPD2    C113096   3.530   4.564  14.723 -0.2041 -0.2464  0.2080
  890MPD2    C213097   3.535   4.517  14.852  0.2055  0.2971  0.3759
  890MPD2    C313098   3.467   4.401  14.889 -0.3841 -0.0604 -0.2890
  890MPD2    C413099   3.390   4.339  14.800  0.5733  0.0214  0.2142
  890MPD2    C513100   3.398   4.374  14.668 -0.2496 -0.3770 -0.1541
  890MPD2     H13101   3.587   4.575  14.928 -1.0163  1.3532  0.4085
  890MPD2    H113102   3.326   4.257  14.829  1.3231 -0.7216 -0.2223
  890MPD2    H213103   3.470   4.518  14.527  0.2364  1.5263 -0.7055
  890MPD2    H313104   3.351   4.314  14.591 -1.3279 -0.3385  0.4747
  890MPD2     N13105   3.465   4.358  15.026  0.1240  0.0701  1.3063
  890MPD2    H513106   3.545   4.393  15.078 -0.1698  3.1491 -0.2881
  890MPD2    N113107   3.590   4.689  14.678 -0.1224 -0.3823 -0.0273
  890MPD2    H713108   3.568   4.716  14.583 -2.1002  2.0432  1.1385
  891MPD2     C13109   1.852   3.658  17.235 -0.5534 -0.1964  0.0401
  891MPD2    C113110   1.841   3.627  17.100 -0.9748  1.0303  0.0402
  891MPD2    C213111   1.911   3.522  17.052  0.5093 -0.2521  0.1997
  891MPD2    C313112   1.999   3.456  17.130  0.4872 -0.1542 -0.4089
  891MPD2    C413113   2.011   3.483  17.265 -0.4018  0.4267 -0.4236
  891MPD2    C513114   1.938   3.584  17.311  0.0143  0.4971  0.6483
  891MPD2     H13115   1.913   3.488  16.949 -0.4195  1.9753 -0.5470
  891MPD2    H113116   2.086   3.431  17.323 -0.4378 -0.2623 -1.0008
  891MPD2    H213117   1.795   3.737  17.282  1.5298  1.5816 -0.4235
  891MPD2    H313118   1.963   3.608  17.413  2.0530  2.4000 -0.2998
  891MPD2     N13119   2.066   3.348  17.068  0.1676 -0.1314  0.2135
  891MPD2    H513120   2.041   3.328  16.972 -0.4097  3.0353 -0.2646
  891MPD2    N113121   1.758   3.705  17.008 -0.5191  0.2706 -0.0866
  891MPD2    H713122   1.785   3.692  16.911 -0.7625  0.5098 -0.1878
  892MPD2     C13123   2.510   4.412  14.788  0.5166  0.1219 -0.0140
  892MPD2    C113124   2.419   4.312  14.756 -0.9196 -0.0328 -0.5764
  892MPD2    C213125   2.453   4.180  14.747 -0.0674  0.5273 -0.1516
  892MPD2    C313126   2.588   4.149  14.759 -0.4382 -1.2317 -0.7576
  892MPD2    C413127   2.679   4.252  14.790 -0.0644  0.1181 -0.1042
  892MPD2    C513128   2.642   4.378  14.800  0.3586  0.5122  0.0211
  892MPD2     H13129   2.379   4.104  14.726 -0.4332  0.9343 -0.3297
  892MPD2    H113130   2.783   4.238  14.816  0.5432  2.2459 -1.4035
  892MPD2    H213131   2.493   4.519  14.781 -0.2810 -0.0736 -0.8975
  892MPD2    H313132   2.706   4.462  14.822  1.8772 -0.2339 -1.6073
  892MPD2     N13133   2.638   4.018  14.745 -0.0889  0.5550  0.3230
  892MPD2    H513134   2.738   4.022  14.760  0.0217  0.3340 -0.3573
  892MPD2    N113135   2.284   4.334  14.734 -0.1863 -0.1701 -0.3705
  892MPD2    H713136   2.216   4.259  14.726 -1.4862  0.9635 -0.0198
  893MPD2     C13137   0.493   4.337   1.341  0.5741 -0.2486  0.3756
  893MPD2    C113138   0.380   4.327   1.410 -0.3864 -0.5136  0.2235
  893MPD2    C213139   0.321   4.444   1.462 -0.0640 -0.5116  0.1389
  893MPD2    C313140   0.377   4.570   1.438  0.1211  0.4119 -0.1150
  893MPD2    C413141   0.495   4.575   1.367  0.3136 -0.1402  0.7041
  893MPD2    C513142   0.557   4.456   1.329  0.3970  0.5574  0.0344
  893MPD2     H13143   0.231   4.433   1.521 -0.0781  0.5265  0.3098
  893MPD2    H113144   0.534   4.672   1.339  0.6512 -0.2946  0.6320
  893MPD2    H213145   0.543   4.248   1.303  0.9212  0.1468 -0.0965
  893MPD2    H313146   0.652   4.452   1.278 -0.1399  1.9346 -1.0786
  893MPD2     N13147   0.325   4.694   1.483 -0.3647  0.2002  0.4053
  893MPD2    H513148   0.386   0.036   1.470  0.4580 -0.1552  2.0901
  893MPD2    N113149   0.327   4.201   1.420  0.1447 -0.0243 -0.7615
  893MPD2    H713150   0.381   4.122   1.385  1.0764 -0.2592  1.2090
  894MPD2     C13151   2.372   0.894   0.534  0.3518 -0.1757  0.7126
  894MPD2    C113152   2.400   0.856   0.665  0.5062 -0.2629 -0.1480
  894MPD2    C213153   2.483   0.938   0.740 -0.5760  0.2068  0.2624
  894MPD2    C313154   2.533   1.056   0.686  0.6127  0.0808  0.2630
  894MPD2    C413155   2.483   1.102   0.569 -0.0484 -0.1397 -0.1114
  894MPD2    C513156   2.410   1.014   0.490  0.6165  0.2254  0.5393
  894MPD2     H13157   2.506   0.906   0.841  0.4697 -0.9210 -0.3400
  894MPD2    H113158   2.505   1.196   0.520  0.6257 -0.1317  0.2039
  894MPD2    H213159   2.328   0.833   0.456 -3.3594 -0.6454  3.1397
  894MPD2    H313160   2.387   1.046   0.389 -1.9926  1.2295  1.4621
  894MPD2     N13161   2.618   1.131   0.764  0.6443  0.2314 -0.4284
  894MPD2    H513162   2.627   1.095   0.859  1.8233  2.0451  0.1378
  894MPD2    N113163   2.361   0.739   0.728 -0.6483  0.0697 -0.4295
  894MPD2    H713164   2.400   0.706   0.816 -0.4486  0.2521 -0.4474
  895MPD2     C13165   1.645   3.292  13.710 -0.1280  0.1559  0.1944
  895MPD2    C113166   1.594   3.232  13.599 -0.9737  0.2313  0.3922
  895MPD2    C213167   1.673   3.143  13.523 -0.4041 -0.0831  0.0253
  895MPD2    C313168   1.797   3.111  13.571  0.0624  0.6705 -0.3986
  895MPD2    C413169   1.848   3.177  13.685  0.5200 -0.3512 -0.5797
  895MPD2    C513170   1.767   3.265  13.754  0.5477 -0.3271  0.0525
  895MPD2     H13171   1.630   3.085  13.442  0.2423 -1.0317  0.3581
  895MPD2    H113172   1.944   3.150  13.728  0.3808  1.9375  1.1554
  895MPD2    H213173   1.589   3.360  13.773  1.5466 -0.2569  2.1315
  895MPD2    H313174   1.806   3.313  13.842  1.7419  0.5938 -0.9906
  895MPD2     N13175   1.867   3.016  13.499 -0.9211  0.5297 -0.0529
  895MPD2    H513176   1.827   2.977  13.414  0.4921 -0.5142 -0.2427
  895MPD2    N113177   1.464   3.254  13.550 -0.0523  0.5714 -0.0079
  895MPD2    H713178   1.445   3.213  13.460  0.0232 -0.7092  0.5502
  896MPD2     C13179   4.110   1.245   1.477 -0.1672  1.1297  0.5203
  896MPD2    C113180   4.045   1.252   1.353  0.0483 -0.2825 -0.5294
  896MPD2    C213181   3.909   1.215   1.344 -0.4475  0.3329  0.2794
  896MPD2    C313182   3.836   1.186   1.457  0.3229  0.2603  0.0508
  896MPD2    C413183   3.900   1.186   1.580 -0.4716 -0.0336  0.7870
  896MPD2    C513184   4.038   1.214   1.586  0.9893  0.8449  0.5577
  896MPD2     H13185   3.862   1.222   1.246 -1.6834 -1.6057  0.7309
  896MPD2    H113186   3.855   1.154   1.674 -0.2603 -0.0856  0.8700
  896MPD2    H213187   4.216   1.262   1.489  0.7632 -2.1488 -2.9818
  896MPD2    H313188   4.094   1.204   1.678 -0.4907 -0.4117  1.3319
  896MPD2     N13189   3.695   1.168   1.445  0.1684  0.0089  0.3557
  896MPD2    H513190   3.663   1.145   1.351  2.4481 -2.0904  0.0781
  896MPD2    N113191   4.131   1.277   1.239  0.0914 -0.5286  0.7179
  896MPD2    H713192   4.231   1.278   1.256 -0.1998  2.2367  2.2807
  897MPD2     C13193   0.251   2.656  10.224 -0.9757  0.2046 -0.8292
  897MPD2    C113194   0.200   2.783  10.232  0.1533  0.4007  0.1096
  897MPD2    C213195   0.093   2.810  10.319 -0.8952 -0.2283 -0.9252
  897MPD2    C313196   0.056   2.719  10.414 -0.9689  0.1820 -0.9144
  897MPD2    C413197   0.106   2.589  10.406 -0.0980  0.3729 -0.2347
  897MPD2    C513198   0.206   2.568  10.318 -0.4910  0.4027 -0.5127
  897MPD2     H13199   0.045   2.907  10.316  0.7593  0.6084 -0.5606
  897MPD2    H113200   0.055   2.515  10.466 -0.6145 -0.7628 -2.0559
  897MPD2    H213201   0.320   2.620  10.149  0.6034 -1.9098  1.5985
  897MPD2    H313202   0.245   2.468  10.301  1.6850  0.9870  1.1453
  897MPD2     N13203   4.696   2.759  10.506 -0.3276 -0.1609  0.2165
  897MPD2    H513204   4.651   2.848  10.486 -1.1417 -0.5085  0.4884
  897MPD2    N113205   0.254   2.890  10.155 -0.2777  0.7498 -0.3542
  897MPD2    H713206   0.315   2.863  10.078  0.7321  0.1510  0.6609
  898MPD2     C13207   1.337   3.777   0.069  0.1696  0.5947 -0.6194
  898MPD2    C113208   1.462   3.725   0.051  0.5345 -0.2982 -0.4310
  898MPD2    C213209   1.547   3.785  17.713 -0.0244 -0.6988 -0.4413
  898MPD2    C313210   1.510   3.897  17.631  0.3583 -0.2018 -0.1040
  898MPD2    C413211   1.390   3.954  17.663 -0.1208 -0.8319 -0.3917
  898MPD2    C513212   1.302   3.892  17.747  0.0743 -0.6992 -0.1003
  898MPD2     H13213   1.649   3.749  17.710  0.3941  0.3365  1.0311
  898MPD2    H113214   1.355   4.048  17.620  0.5730 -0.2801  0.2417
  898MPD2    H213215   1.267   3.728   0.135 -1.4543  0.2105 -2.6253
  898MPD2    H313216   1.211   3.941   0.030  1.3134  1.2677  0.4387
  898MPD2     N13217   1.604   3.949  17.545 -0.3015 -0.1175 -0.0527
  898MPD2    H513218   1.695   3.907  17.556  0.6198  1.8076 -0.2610
  898MPD2    N113219   1.512   3.613   0.124 -0.2338 -0.1460 -0.4162
  898MPD2    H713220   1.612   3.596   0.125  0.2808  2.9648  1.0987
  899MPD2     C13221   2.468   4.341  17.303  0.0300 -0.7066  0.8509
  899MPD2    C113222   2.519   4.468  17.327  0.5221  0.1155  0.3821
  899MPD2    C213223   2.508   4.535  17.448 -0.4017  0.2125  0.3978
  899MPD2    C313224   2.453   4.463  17.561  0.8330 -0.4110  0.0769
  899MPD2    C413225   2.411   4.328  17.540 -0.2859 -0.1319  0.2122
  899MPD2    C513226   2.416   4.280  17.415  0.1442 -0.5977  0.2419
  899MPD2     H13227   2.542   4.637  17.462 -1.9840  0.7994 -0.0401
  899MPD2    H113228   2.361   4.267  17.615  0.5468 -1.5977 -0.4227
  899MPD2    H213229   2.463   4.292  17.207  0.7842  0.4180  0.2347
  899MPD2    H313230   2.360   4.189  17.399  2.3931 -2.0446  0.7376
  899MPD2     N13231   2.435   4.513  17.692  0.2076 -0.2194 -0.4877
  899MPD2    H513232   2.382   4.453   0.005 -0.1663  2.3123  1.5723
  899MPD2    N113233   2.589   4.525  17.211 -0.0338 -0.1527 -0.3057
  899MPD2    H713234   2.577   4.480  17.121  2.7335  1.2917 -1.4149
  900MPD2     C13235   2.835   0.807  12.523 -0.0129  1.0787 -0.0423
  900MPD2    C113236   2.733   0.715  12.519 -0.2197 -0.4463  0.0357
  900MPD2    C213237   2.642   0.727  12.424 -0.5394 -0.4661 -0.0887
  900MPD2    C313238   2.657   0.821  12.322 -0.0366 -0.6047  0.0434
  900MPD2    C413239   2.769   0.906  12.328  0.0957 -0.6703 -0.8147
  900MPD2    C513240   2.848   0.907  12.439  0.0152  0.8281 -0.2167
  900MPD2     H13241   2.569   0.647  12.418 -0.7239 -0.3171  0.1970
  900MPD2    H113242   2.794   0.970  12.245  2.4276 -1.6087 -0.8569
  900MPD2    H213243   2.921   0.799  12.588 -2.2842 -0.5241  2.8005
  900MPD2    H313244   2.933   0.973  12.450  0.0738  0.5968  0.7330
  900MPD2     N13245   2.561   0.831  12.218 -0.4014 -0.1183 -0.1895
  900MPD2    H513246   2.474   0.781  12.230 -0.7490  0.3926 -0.5995
  900MPD2    N113247   2.747   0.613  12.613  0.1299  1.2180 -0.1657
  900MPD2    H713248   2.833   0.617  12.667 -1.7991 -3.7419  3.3676
  901MPD2     C13249   2.652   4.410  13.175 -0.0493  0.8277  0.0538
  901MPD2    C113250   2.760   4.407  13.080  0.1464 -0.0219 -0.8128
  901MPD2    C213251   2.771   4.504  12.989 -0.1178  0.0415 -0.2384
  901MPD2    C313252   2.690   4.612  12.995 -0.3547 -0.1583  0.5859
  901MPD2    C413253   2.579   4.619  13.080 -0.5955 -0.2007 -0.0287
  901MPD2    C513254   2.561   4.510  13.160 -0.3270 -0.1289  0.0817
  901MPD2     H13255   2.858   4.515  12.924  0.6346  0.8858  0.9125
  901MPD2    H113256   2.515   4.707  13.082  0.4779  0.4996  2.4707
  901MPD2    H213257   2.635   4.335  13.251 -0.7832  1.6476  0.6925
  901MPD2    H313258   2.475   4.508  13.225 -0.7901 -2.4155 -0.5881
  901MPD2     N13259   2.721   4.714  12.900  0.1754 -0.4575  0.1438
  901MPD2    H513260   2.816   4.714  12.865  1.0071 -0.8226  2.3490
  901MPD2    N113261   2.858   4.307  13.089 -0.3686 -0.3440  0.2849
  901MPD2    H713262   2.941   4.314  13.030 -0.4098 -1.4002  0.1009
  902MPD2     C13263   1.541   3.649  12.465  0.0978 -0.5672  0.4712
  902MPD2    C113264   1.655   3.722  12.501 -0.2553  0.6306  0.4514
  902MPD2    C213265   1.777   3.659  12.511  0.5819 -0.6957 -0.1263
  902MPD2    C313266   1.778   3.520  12.496 -0.2491 -0.6941 -0.3744
  902MPD2    C413267   1.666   3.449  12.459  0.6295 -0.3883  0.0353
  902MPD2    C513268   1.549   3.517  12.442  0.3990  0.1785 -0.2916
  902MPD2     H13269   1.863   3.718  12.541 -0.1935 -0.8290  2.3559
  902MPD2    H113270   1.679   3.341  12.463 -1.3451 -0.6314  0.0848
  902MPD2    H213271   1.445   3.693  12.441  2.5317  1.5197 -5.3246
  902MPD2    H313272   1.458   3.460  12.423  1.5228 -1.9392  0.6548
  902MPD2     N13273   1.893   3.445  12.515  0.0389  0.8411  0.2147
  902MPD2    H513274   1.888   3.350  12.481  1.5936  1.6249 -2.1990
  902MPD2    N113275   1.635   3.869  12.521  0.2100  0.1650  0.0195
  902MPD2    H713276   1.539   3.902  12.522 -0.2642 -1.2658  1.1793
  903MPD2     C13277   2.113   3.933  12.229  0.2567  0.2991  0.5611
  903MPD2    C113278   2.060   3.808  12.199 -0.3748  0.3972  0.1682
  903MPD2    C213279   1.927   3.799  12.169 -0.1023  0.8551 -0.7982
  903MPD2    C313280   1.844   3.912  12.157  0.2269 -0.0738 -0.2490
  903MPD2    C413281   1.898   4.038  12.187 -0.0170 -0.4217 -0.2490
  903MPD2    C513282   2.026   4.045  12.229 -0.5851  0.4231  0.2542
  903MPD2     H13283   1.875   3.705  12.154  0.0642  0.2986  2.1196
  903MPD2    H113284   1.833   4.124  12.178  0.6396  0.1877  0.7711
  903MPD2    H213285   2.216   3.941  12.262  0.4551 -0.4624  0.1183
  903MPD2    H313286   2.063   4.144  12.253 -0.0811  0.6865 -1.6263
  903MPD2     N13287   1.708   3.887  12.121 -0.5862 -0.0255 -0.4214
  903MPD2    H513288   1.672   3.792  12.126 -0.4641 -0.0039  0.8645
  903MPD2    N113289   2.148   3.697  12.195 -1.4050 -0.4779 -0.5008
  903MPD2    H713290   2.238   3.710  12.239 -1.9219 -1.8838  0.9839
  904MPD2     C13291   1.728   2.722  14.300 -0.0385 -0.4659  0.0774
  904MPD2    C113292   1.742   2.792  14.184  0.3219  0.3491 -0.3762
  904MPD2    C213293   1.849   2.874  14.166  0.4328  0.7628  0.0024
  904MPD2    C313294   1.951   2.872  14.261  0.0098 -0.0292  0.4686
  904MPD2    C413295   1.940   2.800  14.383 -0.2257 -0.0676 -0.2419
  904MPD2    C513296   1.823   2.725  14.395  0.4600 -0.3478  0.3550
  904MPD2     H13297   1.862   2.928  14.073 -2.1504  2.0387  0.3749
  904MPD2    H113298   2.022   2.793  14.453  0.5231  3.4447 -0.7707
  904MPD2    H213299   1.644   2.654  14.315  0.1069 -1.1633 -2.3501
  904MPD2    H313300   1.819   2.670  14.488 -0.3124  0.8678  1.0213
  904MPD2     N13301   2.063   2.951  14.229 -0.1611 -0.0485 -0.1493
  904MPD2    H513302   2.056   3.018  14.154 -0.1021 -0.5505 -0.6026
  904MPD2    N113303   1.646   2.797  14.077  0.0512 -0.7318 -0.2261
  904MPD2    H713304   1.670   2.854  13.997 -0.4211 -0.3350 -0.0848
  905MPD2     C13305   1.272   2.832  13.317 -0.4021  0.1566  0.1847
  905MPD2    C113306   1.382   2.858  13.394  0.8317 -0.4284 -0.1566
  905MPD2    C213307   1.501   2.849  13.330  0.2902  0.3523 -0.3261
  905MPD2    C313308   1.520   2.808  13.197 -0.2134 -0.0996  0.6185
  905MPD2    C413309   1.410   2.786  13.123 -0.0062  0.0372 -0.4607
  905MPD2    C513310   1.288   2.800  13.185  0.1490 -0.5463 -0.4786
  905MPD2     H13311   1.593   2.873  13.383  1.6338  1.4919 -3.1583
  905MPD2    H113312   1.409   2.757  13.018  1.1720 -2.6653  0.2925
  905MPD2    H213313   1.170   2.840  13.353 -0.6763 -2.2575 -0.0394
  905MPD2    H313314   1.197   2.789  13.128 -0.3782  0.8772  0.0927
  905MPD2     N13315   1.639   2.794  13.123  0.3622 -0.3530  0.0626
  905MPD2    H513316   1.620   2.781  13.024  1.8297  1.4194 -0.4526
  905MPD2    N113317   1.373   2.865  13.534 -0.4729  0.2523 -0.3271
  905MPD2    H713318   1.284   2.856  13.581  0.0278  0.2665  0.6291
  906MPD2     C13319   3.654   3.217  11.307 -0.1803 -0.1990  0.2201
  906MPD2    C113320   3.624   3.143  11.188  0.0064 -0.2906 -0.4101
  906MPD2    C213321   3.599   3.008  11.192  0.1912  1.0179  0.0337
  906MPD2    C313322   3.614   2.938  11.311 -0.6740  0.0008  0.2349
  906MPD2    C413323   3.649   3.015  11.425  0.2036 -0.4184  0.2362
  906MPD2    C513324   3.669   3.149  11.421 -0.2513 -0.5733  1.0632
  906MPD2     H13325   3.571   2.962  11.098 -1.7526  0.2322  0.9823
  906MPD2    H113326   3.670   2.969  11.521 -1.0944  0.6758  1.0404
  906MPD2    H213327   3.664   3.325  11.309  1.3277 -0.4347  3.6335
  906MPD2    H313328   3.689   3.213  11.506  0.7299  1.2166 -0.5175
  906MPD2     N13329   3.587   2.798  11.317  0.8095  0.0828  0.1006
  906MPD2    H513330   3.586   2.754  11.408  0.3151 -1.9765 -0.9017
  906MPD2    N113331   3.629   3.210  11.059 -0.2519  0.3179  0.0428
  906MPD2    H713332   3.597   3.155  10.980  0.2875 -0.3725  0.3124
  907MPD2     C13333   2.277   2.239  16.109  0.2075  0.5407 -0.1212
  907MPD2    C113334   2.328   2.131  16.044 -0.5570 -0.5665 -0.2501
  907MPD2    C213335   2.430   2.055  16.089 -0.8939  0.7150  0.2551
  907MPD2    C313336   2.498   2.095  16.202 -0.3379 -0.2816 -0.5288
  907MPD2    C413337   2.451   2.198  16.271 -0.2582 -0.0376  0.1410
  907MPD2    C513338   2.341   2.270  16.229  0.3111  0.7989 -0.3599
  907MPD2     H13339   2.462   1.968  16.033 -2.6063  1.3461 -1.6631
  907MPD2    H113340   2.495   2.251  16.355  0.2452 -0.3472  0.0709
  907MPD2    H213341   2.186   2.289  16.076 -0.5620  0.4852  1.8737
  907MPD2    H313342   2.313   2.355  16.289  0.6725  0.7691 -0.1494
  907MPD2     N13343   2.612   2.022  16.237  0.4386  0.2839  0.1092
  907MPD2    H513344   2.656   1.958  16.172 -0.7034 -2.1820  1.7797
  907MPD2    N113345   2.267   2.100  15.921 -0.1630 -0.1596  0.0204
  907MPD2    H713346   2.282   2.004  15.892 -0.0660  0.0421 -0.5898
  908MPD2     C13347   0.550   2.852   9.364  0.3566 -0.2907  0.5962
  908MPD2    C113348   0.466   2.778   9.446 -0.9734 -0.0608  0.2330
  908MPD2    C213349   0.406   2.842   9.557 -1.0321  1.1111 -0.6747
  908MPD2    C313350   0.456   2.963   9.598  0.0751 -0.3515 -0.3760
  908MPD2    C413351   0.538   3.034   9.513  0.1115  0.5429  0.4526
  908MPD2    C513352   0.580   2.986   9.392  0.1312 -0.4050 -0.1467
  908MPD2     H13353   0.340   2.782   9.619 -2.0008  2.0276 -0.8023
  908MPD2    H113354   0.578   3.132   9.539  0.9114  0.7333 -1.4941
  908MPD2    H213355   0.606   2.802   9.286 -0.3260 -0.5567  0.2727
  908MPD2    H313356   0.638   3.043   9.320  1.0386  0.8898  1.5848
  908MPD2     N13357   0.406   3.018   9.720 -1.1421  0.0848  0.4059
  908MPD2    H513358   0.332   2.969   9.769  0.1714 -2.5252 -0.2150
  908MPD2    N113359   0.433   2.649   9.400  0.0187 -0.3728  0.4032
  908MPD2    H713360   0.476   2.618   9.314  0.4301 -2.0470  1.2010
  909MPD2     C13361   0.408   0.901  11.603  0.3032  0.1145 -0.2590
  909MPD2    C113362   0.373   1.000  11.518 -0.1856  0.3943  0.4721
  909MPD2    C213363   0.254   1.061  11.542  0.1213 -0.2428  0.2949
  909MPD2    C313364   0.168   1.018  11.642 -0.3489  0.0793 -0.2103
  909MPD2    C413365   0.207   0.909  11.723 -0.9610  0.1701  0.3136
  909MPD2    C513366   0.329   0.857  11.703  0.0876 -0.3655 -0.2217
  909MPD2     H13367   0.231   1.144  11.477 -1.2811 -0.1008  0.9713
  909MPD2    H113368   0.137   0.862  11.790 -1.2487  1.9568  1.2757
  909MPD2    H213369   0.501   0.850  11.583  0.5753  0.5101  0.0057
  909MPD2    H313370   0.367   0.779  11.768 -2.2457  0.1650  1.7955
  909MPD2     N13371   0.042   1.090  11.655  0.3639 -0.1475 -0.0083
  909MPD2    H513372   0.034   1.163  11.585 -0.1688  0.0781  0.2929
  909MPD2    N113373   0.454   1.046  11.411  0.4049  0.5157  0.0997
  909MPD2    H713374   0.424   1.127  11.358 -0.0833  0.5409  0.4126
  910MPD2     C13375   1.821   2.251  16.298 -0.2850 -0.1101 -0.4236
  910MPD2    C113376   1.879   2.193  16.183  0.1322  0.7619  0.0735
  910MPD2    C213377   1.876   2.263  16.068 -0.6707 -0.2339 -0.0246
  910MPD2    C313378   1.830   2.392  16.063 -0.6103 -0.5435  0.2004
  910MPD2    C413379   1.782   2.451  16.184  0.1978  0.3991  0.7107
  910MPD2    C513380   1.775   2.378  16.298 -0.1738  1.0838  0.4920
  910MPD2     H13381   1.914   2.218  15.976 -2.0447  0.9652 -1.1668
  910MPD2    H113382   1.734   2.548  16.181  0.0145  0.2743 -0.6764
  910MPD2    H213383   1.814   2.200  16.393  1.8781  0.3334 -0.0372
  910MPD2    H313384   1.730   2.430  16.382  1.0425  2.3052  0.3916
  910MPD2     N13385   1.807   2.477  15.950  0.3494 -0.3250  0.6242
  910MPD2    H513386   1.774   2.571  15.968 -0.5561 -0.6608  0.7274
  910MPD2    N113387   1.937   2.061  16.193 -0.5163  0.2006 -0.9697
  910MPD2    H713388   1.974   2.018  16.109 -1.4724 -0.0604 -1.2619
  911MPD2     C13389   0.109   3.172  16.811 -0.2006  0.2430  0.1261
  911MPD2    C113390   0.172   3.278  16.749  0.4996  0.2213  0.1481
  911MPD2    C213391   0.113   3.337  16.641  0.5109 -0.7512 -0.1041
  911MPD2    C313392   4.732   3.287  16.591 -0.7063 -1.0097  0.0432
  911MPD2    C413393   4.672   3.179  16.650  0.0972 -0.2320 -0.4122
  911MPD2    C513394   4.725   3.133  16.771  0.0037  0.2542  0.3956
  911MPD2     H13395   0.155   3.422  16.588 -3.2989  0.5106 -1.0600
  911MPD2    H113396   4.574   3.142  16.620  0.3678 -1.2205 -0.0687
  911MPD2    H213397   0.151   3.121  16.897 -1.5657 -3.8710 -1.6571
  911MPD2    H313398   4.673   3.055  16.826  0.3379 -0.4393 -0.2732
  911MPD2     N13399   4.673   3.325  16.471 -0.2592  0.1468  0.1928
  911MPD2    H513400   4.600   3.269  16.427  0.4820 -1.5574  1.1304
  911MPD2    N113401   0.295   3.314  16.805 -0.1748  0.1461 -0.1893
  911MPD2    H713402   0.353   3.243  16.847  1.3431 -0.0212 -2.5804
  912MPD2     C13403   4.485   3.021  15.728  0.0064 -0.3998  0.2818
  912MPD2    C113404   4.451   3.043  15.859  0.8191  0.1953  0.3766
  912MPD2    C213405   4.392   2.938  15.932  0.6736 -0.2323  0.3730
  912MPD2    C313406   4.362   2.818  15.873  0.4724  0.5496 -0.5581
  912MPD2    C413407   4.401   2.796  15.744 -0.1030  0.3875 -0.0770
  912MPD2    C513408   4.463   2.895  15.677 -0.3264 -0.1946 -0.3589
  912MPD2     H13409   4.374   2.948  16.039  2.3509 -0.8280  0.7126
  912MPD2    H113410   4.384   2.702  15.693 -0.2756  1.9330 -2.8508
  912MPD2    H213411   4.549   3.087  15.670  0.7439 -2.0277 -0.7687
  912MPD2    H313412   4.500   2.878  15.576  1.3124 -1.7986  0.5104
  912MPD2     N13413   4.300   2.722  15.953  0.0605  0.3570  0.2023
  912MPD2    H513414   4.263   2.757  16.041 -1.4297 -1.2398  0.2103
  912MPD2    N113415   4.490   3.170  15.914 -0.4949 -0.4731 -0.7766
  912MPD2    H713416   4.528   3.246  15.858 -0.2483 -2.5905 -3.4664
  913MPD2     C13417   0.444   0.377  10.864  0.4679 -0.1944 -0.3111
  913MPD2    C113418   0.472   0.252  10.829  0.1196  0.7821 -0.0056
  913MPD2    C213419   0.552   0.229  10.718  0.7721 -0.2605  0.4795
  913MPD2    C313420   0.606   0.334  10.650  0.1069 -0.1724 -0.0287
  913MPD2    C413421   0.564   0.461  10.684 -0.2250 -0.3528 -0.5434
  913MPD2    C513422   0.490   0.484  10.795  0.0542  0.0616 -0.0549
  913MPD2     H13423   0.584   0.129  10.694  3.0639  0.5481  0.1560
  913MPD2    H113424   0.599   0.546  10.627  1.2774 -0.6609 -0.0816
  913MPD2    H213425   0.388   0.392  10.955  1.4081 -1.3165  0.4650
  913MPD2    H313426   0.471   0.586  10.825 -1.1699 -0.2200  0.0914
  913MPD2     N13427   0.689   0.332  10.537  0.0257 -0.6841  0.2785
  913MPD2    H513428   0.732   0.409  10.486 -0.0452  0.1123  1.4381
  913MPD2    N113429   0.423   0.154  10.912  0.6765  0.3117 -0.2144
  913MPD2    H713430   0.385   0.187  11.001  0.4481 -3.7846  1.2185
  914MPD2     C13431   2.785   4.004  12.347  0.2623 -0.1042  0.3052
  914MPD2    C113432   2.848   4.123  12.392  0.1030 -0.8155  0.0649
  914MPD2    C213433   2.912   4.114  12.511  0.4652  0.4638 -0.1418
  914MPD2    C313434   2.900   4.015  12.598  0.1107  0.0454 -0.2303
  914MPD2    C413435   2.835   3.900  12.551  0.5232 -0.0991 -0.3282
  914MPD2    C513436   2.778   3.897  12.428 -0.4180 -0.1912 -0.6776
  914MPD2     H13437   2.960   4.203  12.551  1.3884  1.1691 -2.8247
  914MPD2    H113438   2.827   3.813  12.615  0.1532  0.6604  0.6671
  914MPD2    H213439   2.755   3.994  12.243 -1.0950 -0.0812  0.6970
  914MPD2    H313440   2.745   3.805  12.380 -1.9577 -0.0136  0.0635
  914MPD2     N13441   2.957   4.026  12.722 -0.5165  0.2767  0.7833
  914MPD2    H513442   2.989   4.119  12.746 -1.3181 -0.0181  2.9778
  914MPD2    N113443   2.847   4.237  12.307  0.0572  0.2251  0.1507
  914MPD2    H713444   2.775   4.230  12.236 -2.0500 -0.0506  2.3283
  915MPD2     C13445   1.057   0.010  15.602 -0.2844  0.1431  0.2265
  915MPD2    C113446   0.939   0.060  15.553 -0.3107  0.7212 -0.9040
  915MPD2    C213447   0.851   0.115  15.643  0.1994  0.7291  0.7853
  915MPD2    C313448   0.870   0.111  15.780  0.8729 -0.0949  0.4103
  915MPD2    C413449   0.979   0.038  15.827 -0.9189 -0.5576 -0.3354
  915MPD2    C513450   1.076   0.001  15.740  0.3693  0.3470 -0.0316
  915MPD2     H13451   0.754   0.157  15.617 -0.8550 -1.4264  1.2062
  915MPD2    H113452   0.995   0.020  15.933 -1.1725  2.4183  0.2206
  915MPD2    H213453   1.129   4.690  15.545 -1.0384  0.4133 -0.9909
  915MPD2    H313454   1.159   4.681  15.777 -2.4824 -3.6657  0.1445
  915MPD2     N13455   0.771   0.169  15.867  0.0406  0.2326  0.3723
  915MPD2    H513456   0.703   0.233  15.826 -1.3917 -2.2923 -1.2070
  915MPD2    N113457   0.904   0.047  15.415  0.6382  0.0490 -0.3572
  915MPD2    H713458   0.976   4.734  15.365  2.1614  1.5507  0.3184
  916MPD2     C13459   3.934   3.044  15.990 -0.7146 -0.1369  0.1818
  916MPD2    C113460   3.868   2.924  16.016 -0.3819  0.1107 -0.2015
  916MPD2    C213461   3.883   2.820  15.924  0.2996 -0.1160 -0.3717
  916MPD2    C313462   3.974   2.829  15.820  0.4321 -0.2768  0.4348
  916MPD2    C413463   4.028   2.952  15.796  0.0703  0.4173 -0.5610
  916MPD2    C513464   4.009   3.056  15.876 -0.2313  0.6095 -0.0378
  916MPD2     H13465   3.814   2.736  15.919 -0.5894  0.5098  1.4716
  916MPD2    H113466   4.093   2.965  15.710 -3.1510 -1.0970 -3.2324
  916MPD2    H213467   3.919   3.133  16.050 -1.4311 -1.2111  1.5961
  916MPD2    H313468   4.067   3.148  15.869  2.0805 -0.9252 -1.2682
  916MPD2     N13469   3.996   2.713  15.735 -0.5535 -0.0838 -0.0488
  916MPD2    H513470   3.956   2.626  15.767  1.4485 -0.4109  1.6082
  916MPD2    N113471   3.779   2.920  16.128 -0.0724 -0.6187  0.3238
  916MPD2    H713472   3.761   3.008  16.177  2.8990 -0.1869  0.6237
  917MPD2     C13473   3.693   4.719  11.416 -0.4647  0.3994 -0.6792
  917MPD2    C113474   3.754   0.026  11.531 -0.0556  0.1086 -0.3633
  917MPD2    C213475   3.866   0.111  11.519  0.1100  0.2005  0.3086
  917MPD2    C313476   3.918   0.132  11.395 -0.4620  0.0257 -0.2218
  917MPD2    C413477   3.868   0.077  11.280 -0.2030  0.3212  0.3096
  917MPD2    C513478   3.750   0.014  11.290 -0.3528 -0.2566  0.4840
  917MPD2     H13479   3.913   0.147  11.609 -1.6468 -0.4928  1.5033
  917MPD2    H113480   3.916   0.084  11.183  1.4886  0.8000  1.1791
  917MPD2    H213481   3.603   4.660  11.415 -0.7152  0.7400  1.5376
  917MPD2    H313482   3.706   4.718  11.197 -2.1772  1.5144  0.6974
  917MPD2     N13483   4.050   0.188  11.377  0.2193 -0.1328 -0.3790
  917MPD2    H513484   4.093   0.184  11.285  0.3563  1.7755 -0.3989
  917MPD2    N113485   3.688   4.731  11.656 -0.1273 -0.1892  0.0421
  917MPD2    H713486   3.599   4.682  11.651 -1.9716  3.1699 -0.4724
  918MPD2     C13487   3.804   0.573  12.428  0.4663 -0.5255  1.2828
  918MPD2    C113488   3.879   0.542  12.317 -0.5057 -0.0784 -0.6489
  918MPD2    C213489   3.833   0.433  12.246 -0.0151  0.3555 -0.0720
  918MPD2    C313490   3.721   0.362  12.281  0.5117 -0.3198  0.6913
  918MPD2    C413491   3.644   0.406  12.385  0.4184 -0.4230 -0.7399
  918MPD2    C513492   3.688   0.505  12.463 -0.8787  0.4437 -0.4181
  918MPD2     H13493   3.897   0.403  12.164  0.2310  1.2226 -0.1904
  918MPD2    H113494   3.552   0.359  12.417 -1.2897  3.3894 -0.0760
  918MPD2    H213495   3.825   0.661  12.489 -0.1537 -0.1960  1.0194
  918MPD2    H313496   3.642   0.533  12.557  1.8223  2.4408  0.2883
  918MPD2     N13497   3.688   0.247  12.207 -0.0254  0.2302 -0.2624
  918MPD2    H513498   3.758   0.226  12.136 -0.9325 -0.8594 -0.8277
  918MPD2    N113499   4.013   0.582  12.290  0.4610  0.5397  0.0080
  918MPD2    H713500   4.064   0.526  12.223  0.7504  2.2366 -1.2034
  919MPD2     C13501   0.165   4.281  11.666  0.0445 -0.6454 -0.3536
  919MPD2    C113502   0.060   4.213  11.616 -0.0830 -0.4039 -0.1228
  919MPD2    C213503   0.012   4.247  11.493 -0.7439 -0.1538  0.6492
  919MPD2    C313504   0.073   4.342  11.412 -0.0043  0.9546  0.9902
  919MPD2    C413505   0.185   4.400  11.460 -0.2788  0.7058  0.5343
  919MPD2    C513506   0.236   4.369  11.586 -0.4293  0.7707 -0.2343
  919MPD2     H13507   4.667   4.186  11.461  0.1176  0.1229 -2.0569
  919MPD2    H113508   0.238   4.475  11.402  0.4749 -0.5201 -0.3408
  919MPD2    H213509   0.201   4.253  11.765 -0.7433 -2.4126 -0.5770
  919MPD2    H313510   0.330   4.411  11.620 -0.4480 -1.1327  2.1522
  919MPD2     N13511   0.035   4.372  11.284 -0.1863  0.0511 -0.7314
  919MPD2    H513512   0.084   4.449  11.241  1.6447  0.1469  1.5107
  919MPD2    N113513   4.736   4.102  11.680  0.2873 -0.5354  0.3169
  919MPD2    H713514   4.661   4.054  11.632  0.3148 -2.6529  2.4117
  920MPD2     C13515   0.074   0.251  10.500 -0.3405 -0.4620 -0.0667
  920MPD2    C113516   4.710   0.166  10.463 -0.0065 -0.0780 -0.3736
  920MPD2    C213517   4.674   0.071  10.551 -0.1244 -0.0206  0.1582
  920MPD2    C313518   4.736   0.049  10.676 -0.1304 -0.2284  0.4917
  920MPD2    C413519   0.110   0.129  10.701  0.1297  0.1105 -0.3035
  920MPD2    C513520   0.143   0.230  10.617 -0.2487  0.2055 -0.4358
  920MPD2     H13521   4.589   0.011  10.521 -2.1226  1.9760  1.8731
  920MPD2    H113522   0.170   0.109  10.789  1.8166  1.0988 -1.2478
  920MPD2    H213523   0.111   0.329  10.434 -2.2578 -0.7227 -1.4475
  920MPD2    H313524   0.233   0.290  10.627  0.3214 -0.3983 -1.9986
  920MPD2     N13525   4.697   4.679  10.758 -0.3297 -0.0556  0.2488
  920MPD2    H513526   4.617   4.625  10.726  2.3986 -2.7195 -2.1339
  920MPD2    N113527   4.643   0.163  10.339 -0.5319 -0.4303 -0.2670
  920MPD2    H713528   4.582   0.083  10.327  0.0150 -1.3411  2.9269
  921MPD2     C13529   1.000   4.008  17.149 -0.2281 -0.7397 -0.0244
  921MPD2    C113530   1.047   3.930  17.043  0.0863 -0.2166  0.6581
  921MPD2    C213531   0.974   3.827  16.985 -0.1694  0.3993 -0.5890
  921MPD2    C313532   0.848   3.805  17.026 -0.4658  0.2979  0.1369
  921MPD2    C413533   0.806   3.872  17.139  0.2058  0.4116  0.2996
  921MPD2    C513534   0.883   3.970  17.205 -0.1557  0.5687 -0.7227
  921MPD2     H13535   1.022   3.764  16.911  1.2718 -0.2707  0.9235
  921MPD2    H113536   0.706   3.852  17.176 -0.0091 -0.4172 -0.7336
  921MPD2    H213537   1.047   4.096  17.193  0.3464 -0.2353 -1.6484
  921MPD2    H313538   0.834   4.022  17.287 -0.1992  0.3097 -0.5868
  921MPD2     N13539   0.768   3.695  16.971 -0.1894  0.0618  0.1913
  921MPD2    H513540   0.677   3.678  17.012 -0.0276  0.6251  0.7753
  921MPD2    N113541   1.183   3.961  17.007  0.3041 -0.1304  0.0640
  921MPD2    H713542   1.236   4.017  17.073 -1.7801  1.9572 -0.0541
  922MPD2     C13543   1.461   1.865  16.987  0.3482 -1.3963 -0.1411
  922MPD2    C113544   1.431   1.878  17.118 -0.7068 -0.3758  0.0334
  922MPD2    C213545   1.381   1.769  17.190  0.0074  0.0537 -0.2628
  922MPD2    C313546   1.342   1.656  17.122  0.9345 -0.2494  0.3395
  922MPD2    C413547   1.370   1.646  16.989 -0.1622 -0.3065 -0.0069
  922MPD2    C513548   1.433   1.742  16.926  0.4949 -0.0114 -0.6323
  922MPD2     H13549   1.378   1.769  17.298 -1.6581 -2.3460 -0.3051
  922MPD2    H113550   1.344   1.558  16.930 -2.4642 -0.0888  0.6966
  922MPD2    H213551   1.509   1.943  16.928 -1.0782 -1.4712 -1.4045
  922MPD2    H313552   1.455   1.734  16.820  0.7223  2.1839 -0.7533
  922MPD2     N13553   1.281   1.555  17.196 -0.1175  0.0679  0.2091
  922MPD2    H513554   1.275   1.572  17.296  2.5984  0.7583  0.2707
  922MPD2    N113555   1.461   1.992  17.194  0.4641 -0.6686 -0.3892
  922MPD2    H713556   1.435   1.985  17.291 -0.0741  4.5328 -0.1603
  923MPD2     C13557   2.591   2.978   8.951  0.6287  0.3014 -0.2714
  923MPD2    C113558   2.558   2.939   9.078 -0.5406  0.3809 -0.2698
  923MPD2    C213559   2.653   2.877   9.161 -0.7812 -0.7513  0.3086
  923MPD2    C313560   2.783   2.875   9.118 -0.1077 -0.1531  0.1735
  923MPD2    C413561   2.812   2.922   8.995  0.6432 -0.0914 -0.2983
  923MPD2    C513562   2.718   2.973   8.913  0.1814 -0.8249 -0.2093
  923MPD2     H13563   2.616   2.845   9.258  1.6527  0.5939  1.6807
  923MPD2    H113564   2.913   2.916   8.956  0.5581  2.3035 -0.8777
  923MPD2    H213565   2.526   3.007   8.869 -1.3321 -0.5075  1.0041
  923MPD2    H313566   2.747   3.007   8.815  0.9096 -1.9764 -0.3841
  923MPD2     N13567   2.897   2.822   9.193  0.5523 -0.0914  0.0792
  923MPD2    H513568   2.990   2.815   9.153  0.8363  4.3862 -0.0947
  923MPD2    N113569   2.420   2.951   9.119 -0.0525 -0.0356 -0.6292
  923MPD2    H713570   2.359   2.995   9.050 -0.5759  0.0595 -0.1008
  924MPD2     C13571   3.269   1.596  15.931 -0.4535  0.6836  0.6237
  924MPD2    C113572   3.196   1.530  16.031  0.3107 -0.0468 -0.7537
  924MPD2    C213573   3.145   1.606  16.136  1.0857  0.5751 -0.5537
  924MPD2    C313574   3.153   1.743  16.141 -0.5432  0.1115 -0.0339
  924MPD2    C413575   3.220   1.811  16.035  0.2245 -0.0879  0.2995
  924MPD2    C513576   3.283   1.739  15.934  0.4822  0.7647  0.4836
  924MPD2     H13577   3.082   1.553  16.206  1.5551  1.1090  0.2654
  924MPD2    H113578   3.231   1.919  16.032  0.9574 -0.1738 -0.2216
  924MPD2    H213579   3.311   1.536  15.852  1.3381  1.5189  0.9285
  924MPD2    H313580   3.349   1.784  15.861  2.1032 -1.5648  0.5067
  924MPD2     N13581   3.103   1.825  16.245 -0.4739  0.0531 -0.0652
  924MPD2    H513582   3.083   1.920  16.216  0.8417 -0.0654 -1.3727
  924MPD2    N113583   3.172   1.387  16.022 -0.1993  0.2889  0.3630
  924MPD2    H713584   3.189   1.347  15.930  1.0144 -0.2680  0.8253
  925MPD2     C13585   1.605   3.964  14.625  0.0408  0.3921 -0.2105
  925MPD2    C113586   1.472   3.984  14.589  0.4094 -0.3669  0.7342
  925MPD2    C213587   1.379   4.021  14.688 -0.8384  0.4563  0.3022
  925MPD2    C313588   1.424   4.043  14.817 -0.5595 -0.4753  0.9300
  925MPD2    C413589   1.553   4.022  14.851 -0.2138  0.1793  0.2871
  925MPD2    C513590   1.645   3.986  14.757  0.6561 -0.0648  0.1007
  925MPD2     H13591   1.275   4.022  14.660 -0.8966 -1.6155  0.4107
  925MPD2    H113592   1.587   4.041  14.953 -0.3893 -1.9735  0.7374
  925MPD2    H213593   1.680   3.922  14.559 -0.0301 -0.8589  0.5156
  925MPD2    H313594   1.750   3.987  14.787  0.3457  0.2971  1.1722
  925MPD2     N13595   1.327   4.051  14.924 -0.0598 -0.0733  0.5573
  925MPD2    H513596   1.365   4.045  15.018 -0.7081  1.8067  0.9253
  925MPD2    N113597   1.420   3.962  14.458 -0.2686  0.5965  0.0754
  925MPD2    H713598   1.321   3.979  14.440 -0.5672 -1.1870  0.0363
  926MPD2     C13599   0.342   2.519  13.356  0.7812 -0.4775  0.1163
  926MPD2    C113600   0.260   2.559  13.248 -0.4043  0.5494 -0.5043
  926MPD2    C213601   0.307   2.644  13.150  0.4880  0.2877  0.5163
  926MPD2    C313602   0.435   2.697  13.165 -0.2425  0.0582  0.6787
  926MPD2    C413603   0.510   2.667  13.275 -0.4127  1.1977  0.3356
  926MPD2    C513604   0.473   2.565  13.360  0.2363 -0.2487 -0.9309
  926MPD2     H13605   0.239   2.663  13.068  2.3872  0.9177 -0.9176
  926MPD2    H113606   0.613   2.694  13.296  0.2112  0.1125 -1.3057
  926MPD2    H213607   0.317   2.446  13.432 -0.2066 -1.5325 -1.2270
  926MPD2    H313608   0.537   2.527  13.439  0.8811  1.1616 -0.7693
  926MPD2     N13609   0.493   2.775  13.059  1.0066 -0.4791 -0.1516
  926MPD2    H513610   0.576   2.827  13.084 -0.7297  1.7747  0.8985
  926MPD2    N113611   0.132   2.507  13.232  0.7068 -0.5142 -1.0974
  926MPD2    H713612   0.077   2.561  13.165 -1.1878  0.5203  1.3109
  927MPD2     C13613   4.407   0.002   0.018 -0.4942 -0.2241 -0.5086
  927MPD2    C113614   4.438   4.632  17.681 -0.1446  0.5711  0.4496
  927MPD2    C213615   4.510   4.663  17.562 -0.1875  0.1271 -0.5314
  927MPD2    C313616   4.564   0.048  17.536  0.5760 -0.6050 -0.3842
  927MPD2    C413617   4.544   0.149  17.627  0.4302  0.9830 -0.2245
  927MPD2    C513618   4.467   0.121  17.740 -0.0035 -0.3866  0.8251
  927MPD2     H13619   4.529   4.586  17.488 -0.2164 -0.2944 -0.1039
  927MPD2    H113620   4.571   0.252  17.610  0.2894  1.2579  1.2601
  927MPD2    H213621   4.349   4.735   0.109  0.5237  0.1652  0.1574
  927MPD2    H313622   4.435   0.206   0.050  0.1465 -2.1526  3.3855
  927MPD2     N13623   4.633   0.059  17.409 -0.0605 -0.2168 -0.0220
  927MPD2    H513624   4.647   4.721  17.342  1.8181  0.0154  0.1182
  927MPD2    N113625   4.391   4.511  17.722  0.4015 -0.0736 -0.3772
  927MPD2    H713626   4.364   4.503   0.070 -1.3334  0.2971 -0.8143
  928MPD2     C13627   2.455   3.640   0.991  0.1000 -0.8277  0.1197
  928MPD2    C113628   2.535   3.749   0.959 -0.0048  0.2941 -0.3123
  928MPD2    C213629   2.646   3.724   0.878 -0.7099  0.0805 -0.2616
  928MPD2    C313630   2.667   3.597   0.819  0.1761 -0.1171  0.1743
  928MPD2    C413631   2.587   3.499   0.858 -0.1324  0.1565 -0.3156
  928MPD2    C513632   2.484   3.518   0.939 -0.0338  0.3343 -0.7973
  928MPD2     H13633   2.714   3.807   0.866 -1.2570  0.8018  1.7752
  928MPD2    H113634   2.607   3.398   0.823 -0.5173 -0.2451  0.6412
  928MPD2    H213635   2.371   3.638   1.060  0.5187  2.1669  0.7103
  928MPD2    H313636   2.415   3.442   0.973 -0.3925  0.9398 -0.1520
  928MPD2     N13637   2.781   3.574   0.738 -0.7044  0.3534 -0.6063
  928MPD2    H513638   2.788   3.479   0.703 -0.4282 -0.3706  1.4470
  928MPD2    N113639   2.514   3.867   1.031  0.0869 -0.3245  1.1010
  928MPD2    H713640   2.428   3.874   1.084 -1.5958 -0.2684 -1.6051
  929MPD2     C13641   3.124   3.252  10.292 -0.2581 -0.6239  0.2420
  929MPD2    C113642   3.060   3.145  10.354  0.4837 -0.3153  0.4600
  929MPD2    C213643   2.935   3.110  10.302  0.6211  0.7206  0.3164
  929MPD2    C313644   2.874   3.188  10.201 -0.2229 -0.0573  0.5343
  929MPD2    C413645   2.938   3.290  10.143  0.1534  0.0682 -0.7313
  929MPD2    C513646   3.062   3.319  10.184 -0.5625  0.7499  0.0206
  929MPD2     H13647   2.878   3.035  10.356  0.5650  0.4002 -0.1858
  929MPD2    H113648   2.882   3.347  10.070 -2.2225 -1.8465 -0.3924
  929MPD2    H213649   3.218   3.292  10.329 -0.5098  2.5267 -2.4378
  929MPD2    H313650   3.111   3.398  10.129  0.0943  1.0941  1.1020
  929MPD2     N13651   2.741   3.142  10.169 -0.2090  0.0535 -0.2993
  929MPD2    H513652   2.710   3.055  10.210  0.1908 -1.1707 -2.6307
  929MPD2    N113653   3.127   3.074  10.455 -0.3430 -0.0912  0.2722
  929MPD2    H713654   3.219   3.111  10.477 -0.1485  0.5207 -1.5656
  930MPD2     C13655   4.179   0.687  14.055 -0.1524  0.1229 -0.2220
  930MPD2    C113656   4.292   0.620  14.017  0.2253  0.7242 -0.5257
  930MPD2    C213657   4.277   0.482  14.022 -0.0277 -0.1089  0.0038
  930MPD2    C313658   4.150   0.422  14.038  0.1322  0.3818  0.5792
  930MPD2    C413659   4.048   0.502  14.077  0.9642  0.4356 -0.2080
  930MPD2    C513660   4.062   0.635  14.081  0.1123 -0.1990 -0.4869
  930MPD2     H13661   4.360   0.424  13.984  0.1798 -0.2620  0.6935
  930MPD2    H113662   3.953   0.466  14.115  1.3169  0.8272  1.0563
  930MPD2    H213663   4.186   0.795  14.065 -2.6871  0.1789  0.9307
  930MPD2    H313664   3.980   0.695  14.117  0.6581  0.1276  0.2063
  930MPD2     N13665   4.132   0.290  14.008 -0.3230  0.0378  0.0768
  930MPD2    H513666   4.037   0.263  13.986 -0.4261  0.2439  0.2670
  930MPD2    N113667   4.404   0.682  13.971  0.5098 -0.2512 -0.1789
  930MPD2    H713668   4.395   0.781  13.951 -1.9527 -0.0338  2.0389
  931MPD2     C13669   0.018   3.775   0.001  0.7377  0.3983 -1.0087
  931MPD2    C113670   4.701   3.850   0.105  0.0774  0.5311  0.6121
  931MPD2    C213671   0.030   3.842   0.226  0.1684 -0.0045  0.2886
  931MPD2    C313672   0.148   3.776   0.234 -0.5379  0.3135 -0.0683
  931MPD2    C413673   0.198   3.702   0.136  0.4548 -0.1927  0.1574
  931MPD2    C513674   0.122   3.693   0.020 -0.5577  0.8642 -0.7573
  931MPD2     H13675   4.724   3.901   0.305 -1.2344  1.1800 -1.3928
  931MPD2    H113676   0.291   3.646   0.141 -0.1286 -1.1951 -0.1887
  931MPD2    H213677   4.704   3.774  17.656  3.0050 -2.1954 -2.2511
  931MPD2    H313678   0.157   3.621  17.697 -2.0751  0.4326 -1.0502
  931MPD2     N13679   0.231   3.778   0.350  0.2386 -0.2302 -0.2163
  931MPD2    H513680   0.314   3.721   0.348 -0.2418 -0.9180 -0.6220
  931MPD2    N113681   4.589   3.939   0.096 -0.6402 -0.8975  0.6721
  931MPD2    H713682   4.562   3.993   0.178 -1.4826 -0.9677  0.4444
  932MPD2     C13683   1.846   3.998  11.698 -0.0699  0.3794 -0.3112
  932MPD2    C113684   1.851   3.973  11.559 -0.4248 -0.5582 -0.6901
  932MPD2    C213685   1.834   3.841  11.520  0.0261 -0.1945  0.7327
  932MPD2    C313686   1.838   3.737  11.609  0.5280 -0.7385  0.2946
  932MPD2    C413687   1.847   3.764  11.741 -0.9093 -0.0525  0.6341
  932MPD2    C513688   1.835   3.891  11.784  0.0484  0.0246  0.4894
  932MPD2     H13689   1.817   3.816  11.416  1.2145  0.6625  0.3317
  932MPD2    H113690   1.849   3.686  11.816  1.7687 -2.0083 -1.4570
  932MPD2    H213691   1.852   4.101  11.731 -1.8773  0.4716 -0.2910
  932MPD2    H313692   1.835   3.912  11.891 -0.9798  0.6301  0.3810
  932MPD2     N13693   1.849   3.602  11.573  0.5193  0.0716  0.2389
  932MPD2    H513694   1.849   3.533  11.647  0.4506  0.3904  0.5323
  932MPD2    N113695   1.860   4.071  11.461  0.3803 -0.2777  0.1854
  932MPD2    H713696   1.859   4.028  11.369 -0.2615 -0.0183  0.0757
  933MPD2     C13697   2.065   4.498   1.395  0.6323 -0.3760  0.5226
  933MPD2    C113698   2.097   4.420   1.289  0.5442  0.2159  0.1039
  933MPD2    C213699   1.991   4.389   1.203 -0.0565  0.1356 -0.7290
  933MPD2    C313700   1.863   4.433   1.224  0.5949  0.1032 -0.1657
  933MPD2    C413701   1.838   4.513   1.336  0.0053 -0.5634  0.3926
  933MPD2    C513702   1.942   4.554   1.413  0.6081  0.1350  0.3755
  933MPD2     H13703   2.009   4.329   1.115  0.4651  1.2016 -1.3547
  933MPD2    H113704   1.739   4.552   1.356  0.2194 -0.7569  1.7964
  933MPD2    H213705   2.139   4.531   1.467  1.6513  0.6637 -1.0117
  933MPD2    H313706   1.907   4.606   1.501  0.3187 -0.4077  0.5799
  933MPD2     N13707   1.761   4.380   1.144  0.0911 -0.0982  0.0218
  933MPD2    H513708   1.793   4.305   1.084  1.8466  0.3043  0.4572
  933MPD2    N113709   2.223   4.368   1.264 -0.4099  0.2126  0.0438
  933MPD2    H713710   2.294   4.409   1.323  0.7534  0.7934 -1.7369
  934MPD2     C13711   3.766   0.833   1.745 -0.0992  0.1511  0.1077
  934MPD2    C113712   3.792   0.769   1.628 -1.1091  0.7105  0.0877
  934MPD2    C213713   3.696   0.685   1.580  0.0119 -0.2017  0.1704
  934MPD2    C313714   3.568   0.676   1.628  0.2660 -0.4373 -0.1679
  934MPD2    C413715   3.537   0.749   1.741 -0.2691  0.4275 -0.1906
  934MPD2    C513716   3.635   0.826   1.792  0.7308 -0.4355  0.4683
  934MPD2     H13717   3.718   0.618   1.498  1.0854 -0.3483  0.5809
  934MPD2    H113718   3.441   0.731   1.788 -1.0375 -2.3979 -2.8758
  934MPD2    H213719   3.834   0.899   1.799 -0.5445  0.8593 -0.1944
  934MPD2    H313720   3.613   0.885   1.881 -0.7303  0.1770 -0.2928
  934MPD2     N13721   3.463   0.604   1.568  0.0451  0.4017 -0.0260
  934MPD2    H513722   3.372   0.612   1.611 -0.7435 -0.4624 -1.5321
  934MPD2    N113723   3.918   0.785   1.557 -0.2875 -0.0726  0.2068
  934MPD2    H713724   3.927   0.742   1.466 -1.8121  1.1035 -0.4855
  935MPD2     C13725   3.361   4.712   0.754  0.0312  0.1940  0.0957
  935MPD2    C113726   3.255   4.700   0.843 -0.2064 -0.1128 -0.2897
  935MPD2    C213727   3.231   0.064   0.935 -0.0229  0.3488  0.0925
  935MPD2    C313728   3.322   0.171   0.949 -0.1548  0.8520  0.5254
  935MPD2    C413729   3.426   0.180   0.856  0.5509 -0.6361  0.1965
  935MPD2    C513730   3.442   0.084   0.763 -0.6948  0.1757  0.5709
  935MPD2     H13731   3.162   0.051   1.018  0.2581  0.8352  0.4076
  935MPD2    H113732   3.496   0.262   0.856 -0.5614  0.3134  0.3242
  935MPD2    H213733   3.386   4.635   0.682 -1.1028  0.1416 -0.2303
  935MPD2    H313734   3.524   0.093   0.693  0.2596 -0.9930  1.5350
  935MPD2     N13735   3.308   0.275   1.053 -0.2504  0.0357  0.0263
  935MPD2    H513736   3.390   0.329   1.080 -0.2048 -0.7990  1.5950
  935MPD2    N113737   3.171   4.586   0.838  0.4532  0.0304  0.3193
  935MPD2    H713738   3.091   4.589   0.901  0.2520  0.0876  0.0614
  936MPD2     C13739   1.714   2.082  12.161 -0.3745 -0.4313  0.6955
  936MPD2    C113740   1.829   2.085  12.238 -0.1738  0.5918 -0.5830
  936MPD2    C213741   1.954   2.116  12.183 -0.4538  0.1038  0.1308
  936MPD2    C313742   1.961   2.141  12.046  0.3002 -0.1500 -0.1162
  936MPD2    C413743   1.846   2.141  11.968 -0.2492 -0.4934 -0.0912
  936MPD2    C513744   1.728   2.117  12.030  0.5864  0.7183 -0.2359
  936MPD2     H13745   2.045   2.121  12.242 -1.1553  0.2674  1.1927
  936MPD2    H113746   1.858   2.168  11.864 -0.8330 -1.1727 -0.3291
  936MPD2    H213747   1.616   2.087  12.206 -0.5907  1.8998 -0.0464
  936MPD2    H313748   1.643   2.112  11.962  0.3247 -1.0584  0.2123
  936MPD2     N13749   2.077   2.192  11.981  0.4869  0.0949  0.3723
  936MPD2    H513750   2.067   2.249  11.898  1.4178 -1.4902 -0.8320
  936MPD2    N113751   1.826   2.066  12.376  0.2085 -0.3539  0.3428
  936MPD2    H713752   1.916   2.088  12.418  0.0290  0.2141  0.4332
  937MPD2     C13753   0.193   3.436  11.564 -0.0353 -0.5823  0.2380
  937MPD2    C113754   0.136   3.540  11.505  0.1548 -0.1819  0.2239
  937MPD2    C213755   0.206   3.594  11.397  0.2969  0.1791  0.3542
  937MPD2    C313756   0.319   3.530  11.345  0.2196 -0.1354 -0.8698
  937MPD2    C413757   0.360   3.409  11.398 -0.1946  0.2076 -0.3133
  937MPD2    C513758   0.296   3.365  11.509 -0.6387  0.4899 -0.1193
  937MPD2     H13759   0.180   3.692  11.359 -2.9088 -1.1597 -0.8999
  937MPD2    H113760   0.456   3.368  11.367  0.1185 -0.1362  1.1161
  937MPD2    H213761   0.160   3.383  11.652 -0.8839 -0.2862  0.0983
  937MPD2    H313762   0.330   3.280  11.567 -0.0248  0.5362 -0.4019
  937MPD2     N13763   0.386   3.572  11.225 -0.0542  0.5060 -0.0626
  937MPD2    H513764   0.485   3.549  11.224 -0.6279 -1.9361 -0.3030
  937MPD2    N113765   0.050   3.626  11.580 -0.0016  0.4019 -0.5591
  937MPD2    H713766   0.029   3.718  11.543  0.6817  0.0793 -1.7309
  938MPD2     C13767   2.453   0.488   0.478 -0.2967  0.3238 -0.4068
  938MPD2    C113768   2.573   0.499   0.544  0.0806 -0.7218 -0.3869
  938MPD2    C213769   2.620   0.396   0.625  0.2930 -0.4768  0.0014
  938MPD2    C313770   2.534   0.287   0.642 -1.0496 -0.0267  0.9142
  938MPD2    C413771   2.428   0.271   0.564  0.9221  0.4008 -1.1346
  938MPD2    C513772   2.383   0.368   0.482 -0.2428  0.2561 -0.1533
  938MPD2     H13773   2.718   0.405   0.670  0.5336 -2.5773 -0.1001
  938MPD2    H113774   2.364   0.183   0.565  1.0956  0.2980  0.6796
  938MPD2    H213775   2.401   0.566   0.422 -1.0407  0.4563  0.4711
  938MPD2    H313776   2.294   0.354   0.422 -0.0249 -1.6357 -0.0425
  938MPD2     N13777   2.554   0.187   0.741  0.6048 -0.3602  0.0704
  938MPD2    H513778   2.482   0.119   0.762  0.5841 -0.1965  0.5287
  938MPD2    N113779   2.656   0.610   0.524 -0.6517 -0.1481  0.3053
  938MPD2    H713780   2.727   0.616   0.596  1.9456  0.8139 -2.3001
  939MPD2     C13781   3.758   1.401   0.856  0.1661 -0.1311  0.5180
  939MPD2    C113782   3.656   1.483   0.827 -0.1852 -0.0869 -0.2808
  939MPD2    C213783   3.600   1.479   0.702  0.4119 -0.2049 -0.2734
  939MPD2    C313784   3.654   1.389   0.604  0.0228  0.2067 -0.6647
  939MPD2    C413785   3.754   1.299   0.642  1.1135  0.1711  0.7461
  939MPD2    C513786   3.804   1.305   0.767 -0.7716 -0.3600  0.2948
  939MPD2     H13787   3.515   1.536   0.666  0.2927  0.1470  0.5470
  939MPD2    H113788   3.791   1.220   0.578 -0.1979  0.0979  0.0837
  939MPD2    H213789   3.814   1.414   0.948  1.4100 -2.0945  0.0321
  939MPD2    H313790   3.884   1.238   0.794 -0.0558  0.6713  0.7345
  939MPD2     N13791   3.583   1.382   0.477 -0.4359 -0.0859 -0.5662
  939MPD2    H513792   3.520   1.455   0.446  0.2306  1.1347  0.9721
  939MPD2    N113793   3.605   1.570   0.925 -0.2483  0.5996 -0.2864
  939MPD2    H713794   3.644   1.569   1.019 -0.2979  1.9190 -0.2577
  940MPD2     C13795   3.047   2.449  13.002  0.7230  0.1510 -0.8829
  940MPD2    C113796   2.928   2.388  13.008  0.6099  0.5698  0.1993
  940MPD2    C213797   2.889   2.307  12.906  0.3288  0.1044 -0.7310
  940MPD2    C313798   2.964   2.293  12.796  0.4239 -0.9314 -0.2179
  940MPD2    C413799   3.084   2.360  12.786 -0.0212 -0.2937  1.0074
  940MPD2    C513800   3.129   2.438  12.894  0.6197 -0.0200 -0.8983
  940MPD2     H13801   2.798   2.247  12.908 -0.7106  1.6716 -0.9444
  940MPD2    H113802   3.151   2.342  12.703  0.4868  1.1324  1.1145
  940MPD2    H213803   3.093   2.498  13.087  1.0789 -2.4468  0.4212
  940MPD2    H313804   3.229   2.479  12.889  0.0418  1.3838 -0.8378
  940MPD2     N13805   2.930   2.225  12.678  0.2795 -0.3010 -0.6794
  940MPD2    H513806   3.006   2.215  12.611  0.1257 -0.7566 -0.7825
  940MPD2    N113807   2.843   2.386  13.117  0.1435 -0.1530  0.1981
  940MPD2    H713808   2.748   2.350  13.108 -0.8236  2.7561 -1.1173
  941MPD2     C13809   1.743   1.649  10.122 -0.0803 -0.0306  0.2632
  941MPD2    C113810   1.861   1.603  10.067  0.5624  0.0988  0.4248
  941MPD2    C213811   1.879   1.467  10.070  0.3277  0.4463  0.2254
  941MPD2    C313812   1.773   1.385  10.101  0.7914 -0.1325  0.1816
  941MPD2    C413813   1.648   1.435  10.136  0.1934 -0.0994  0.1951
  941MPD2    C513814   1.635   1.569  10.154  0.1644 -0.2104  0.5791
  941MPD2     H13815   1.974   1.428  10.035  0.4791  1.1025 -0.1122
  941MPD2    H113816   1.561   1.374  10.161 -1.1951  1.8778  0.2215
  941MPD2    H213817   1.732   1.752  10.153  1.3725 -0.5072  2.4335
  941MPD2    H313818   1.538   1.602  10.188  0.0059  1.0836 -1.1298
  941MPD2     N13819   1.773   1.246  10.074  0.6477  0.2313  0.5739
  941MPD2    H513820   1.693   1.189  10.100 -1.9269  2.6248 -2.0682
  941MPD2    N113821   1.969   1.686  10.029 -0.6811 -0.1260 -0.4288
  941MPD2    H713822   2.054   1.635  10.011  1.5547  2.3555  3.0964
  942MPD2     C13823   1.302   2.684   9.112  0.2643  0.3308 -0.5732
  942MPD2    C113824   1.427   2.620   9.087 -0.5619 -0.3331  0.5509
  942MPD2    C213825   1.499   2.655   8.972 -0.4130  0.2526  0.4803
  942MPD2    C313826   1.458   2.761   8.897 -0.0013 -0.1163  0.0345
  942MPD2    C413827   1.337   2.823   8.921  0.1075  0.6987 -0.2240
  942MPD2    C513828   1.256   2.782   9.026  0.4351 -0.3605 -0.7147
  942MPD2     H13829   1.587   2.595   8.953 -0.3911 -0.4923  2.8703
  942MPD2    H113830   1.300   2.907   8.865 -1.4413 -0.6612 -1.2440
  942MPD2    H213831   1.227   2.651   9.183 -0.7569  1.5917 -1.0549
  942MPD2    H313832   1.170   2.837   9.062 -1.1480 -1.9341 -2.1390
  942MPD2     N13833   1.537   2.810   8.792 -0.0281  0.1363  0.4709
  942MPD2    H513834   1.498   2.893   8.750 -3.4782 -2.9241 -2.3061
  942MPD2    N113835   1.465   2.507   9.168 -0.6789  0.2186  0.3136
  942MPD2    H713836   1.537   2.442   9.135  0.0062  0.3083  1.6360
  943MPD2     C13837   1.591   1.580   9.773  0.1493  0.1401  0.1497
  943MPD2    C113838   1.460   1.552   9.727  0.8716  0.3960  0.5995
  943MPD2    C213839   1.373   1.659   9.718 -0.2706  0.4912  0.2697
  943MPD2    C313840   1.413   1.794   9.741  0.7245  0.2544  0.1832
  943MPD2    C413841   1.545   1.810   9.784 -0.6569 -0.5255  0.7786
  943MPD2    C513842   1.632   1.707   9.808 -0.1121  0.4744  0.2306
  943MPD2     H13843   1.269   1.645   9.690 -0.1822 -1.3566  0.8369
  943MPD2    H113844   1.579   1.910   9.809 -1.2718 -0.4459  1.2856
  943MPD2    H213845   1.664   1.504   9.796 -0.9506 -1.1777 -0.7060
  943MPD2    H313846   1.731   1.739   9.839 -1.2313  1.4846  2.7849
  943MPD2     N13847   1.324   1.906   9.737  0.2706 -0.0199  0.1224
  943MPD2    H513848   1.371   1.993   9.757 -1.9606  1.0266  0.7738
  943MPD2    N113849   1.416   1.414   9.694 -0.3043 -0.4404  0.1756
  943MPD2    H713850   1.484   1.340   9.711  0.7484  0.3730 -0.4345
  944MPD2     C13851   0.437   1.120  11.004 -0.4486  0.2996  0.3423
  944MPD2    C113852   0.403   0.992  11.039  0.5076  0.9227  0.5607
  944MPD2    C213853   0.279   0.961  11.091  0.6656 -0.2635 -0.9204
  944MPD2    C313854   0.177   1.055  11.108 -1.0930  0.1891 -0.7258
  944MPD2    C413855   0.206   1.181  11.066 -0.6989  0.6849 -0.1865
  944MPD2    C513856   0.338   1.218  11.027 -0.4431 -0.3004  0.8000
  944MPD2     H13857   0.247   0.866  11.132  0.3476  0.6089  0.8331
  944MPD2    H113858   0.136   1.263  11.078 -1.3979 -0.0651  0.9446
  944MPD2    H213859   0.539   1.143  10.974 -0.6385  1.7913  0.8227
  944MPD2    H313860   0.356   1.323  11.009  0.7416 -0.2379  2.3751
  944MPD2     N13861   0.059   1.021  11.173 -0.5276  0.0526 -0.0061
  944MPD2    H513862   0.050   0.931  11.219 -0.6450 -0.9300 -1.9472
  944MPD2    N113863   0.505   0.894  11.031 -0.6528  0.1590 -0.4976
  944MPD2    H713864   0.594   0.934  11.003  0.4491 -1.5892  0.4658
    1TMC1    C113865   3.550   1.146  14.020 -0.2811 -0.0354  0.4652
    1TMC1    C213866   3.631   1.071  13.934 -0.1325 -0.1330 -0.3319
    1TMC1    C313867   3.571   1.011  13.832  0.4887 -0.0987  0.0359
    1TMC1    C413868   3.415   1.149  14.019  0.2086 -0.2228  0.3299
    1TMC1    C513869   3.364   1.095  13.900  0.8910  0.1681  0.1396
    1TMC1    C613870   3.437   1.027  13.808  0.4305  0.0376  0.3198
    1TMC1     C13871   3.616   1.184  14.142  0.7264 -0.2469 -0.2089
    1TMC1     O13872   3.700   1.106  14.194  0.0430 -0.5084  0.3555
    1TMC1     H13873   3.737   1.061  13.956  0.0417  2.4557 -0.0644
    1TMC1    H113874   3.348   1.189  14.095 -0.9555  1.4362 -1.5620
    1TMC1    H213875   3.376   0.983  13.731  1.1817 -0.6435  0.1180
    1TMC1    C713876   3.221   1.098  13.889  0.2188 -0.2669 -0.0010
    1TMC1    C813877   3.653   0.941  13.731  0.2655 -0.1266 -0.1567
    1TMC1    O113878   3.169   1.103  13.780  0.4629 -0.4759 -0.3435
    1TMC1    O213879   3.774   0.942  13.741 -0.1810  0.9968  0.4660
    1TMC1    O313880   3.183   1.031  13.998  0.2371 -0.2841  0.0779
    1TMC1    H313881   3.261   1.011  14.054  0.7306  2.7693  0.4873
    1TMC1    O513882   3.582   0.829  13.685 -0.0496 -0.0463 -0.0782
    1TMC1    H513883   3.500   0.809  13.735  0.1078  1.2068  0.6889
    2MPD2     C13884   3.703   1.536  14.512  0.2220  0.3089  0.1412
    2MPD2    C113885   3.624   1.596  14.415  0.0811 -0.3207 -0.7970
    2MPD2    C213886   3.583   1.514  14.310  0.4251 -0.8048  0.1007
    2MPD2    C313887   3.624   1.381  14.298  0.6683 -0.0345 -0.2069
    2MPD2    C413888   3.714   1.328  14.390 -0.0363  0.3107 -0.0270
    2MPD2    C513889   3.747   1.405  14.501  0.4171  0.3288 -0.3072
    2MPD2     H13890   3.509   1.552  14.241 -0.1320  0.5214  1.4243
    2MPD2    H113891   3.738   1.223  14.386  2.2954  0.8368  0.0336
    2MPD2    H213892   3.745   1.585  14.599  2.4881  0.6869 -1.1557
    2MPD2    H313893   3.810   1.363  14.578  1.4796 -1.0805 -1.9544
    2MPD2     N13894   3.582   1.311  14.180  0.4249 -0.2632 -0.0296
    2MPD2    H513895   3.513   1.361  14.125 -1.6607 -0.9765  1.9568
    2MPD2    N113896   3.605   1.740  14.414 -0.3329  0.1777  0.3835
    2MPD2    H713897   3.656   1.790  14.486 -0.2034  0.9057 -0.2181
    3TMC2    C113898   3.590   1.951  14.314 -0.2536 -0.0557 -0.1340
    3TMC2    C213899   3.709   1.985  14.366  0.5465  0.1329 -0.1075
    3TMC2    C313900   3.748   2.114  14.353 -0.6274  0.0744 -0.0651
    3TMC2    C413901   3.519   2.034  14.232  0.2025  0.3487 -0.0061
    3TMC2    C513902   3.558   2.164  14.220 -0.1288 -0.6287  0.3772
    3TMC2    C613903   3.670   2.210  14.286 -0.3730 -0.1180  0.2394
    3TMC2     C13904   3.544   1.813  14.319 -0.2123 -0.4506  0.1991
    3TMC2     O13905   3.473   1.773  14.222  0.5610 -0.1691  0.5842
    3TMC2     H13906   3.768   1.922  14.430  0.1823 -1.1654 -1.0484
    3TMC2    H113907   3.424   2.005  14.189  1.6224 -0.8438 -2.3095
    3TMC2    H213908   3.712   2.310  14.280  0.9000 -0.8324 -3.0030
    3TMC2    C713909   3.523   2.225  14.097  0.7728  0.1429  0.5866
    3TMC2    C813910   3.856   2.168  14.431  0.6072  0.4473  0.2777
    3TMC2    O113911   3.525   2.343  14.089 -0.2016 -0.0243  0.1074
    3TMC2    O213912   3.939   2.088  14.472  0.1215  0.5204  0.6682
    3TMC2    O513913   3.808   2.264  14.510  0.1131  0.3692  0.0056
    3TMC2    H513914   3.744   2.329  14.474  0.2098  0.7052  0.4332
    4TMC2    C113915   3.039   2.715  13.530 -0.1426 -0.0076  0.0182
    4TMC2    C213916   3.097   2.744  13.407 -0.2847  1.0815 -0.3867
    4TMC2    C313917   3.224   2.693  13.370 -0.2475  0.4995 -0.5096
    4TMC2    C413918   3.107   2.641  13.619 -0.2661 -0.1214 -0.0160
    4TMC2    C513919   3.232   2.590  13.580  0.1017 -0.2341  0.1400
    4TMC2    C613920   3.286   2.612  13.457  0.1767  0.2026 -0.1527
    4TMC2     C13921   2.912   2.768  13.567  0.8997  0.2393  0.1099
    4TMC2     O13922   2.868   2.741  13.676  0.1520  0.0976 -0.2018
    4TMC2     H13923   3.047   2.801  13.329  1.2714  0.8914 -1.5383
    4TMC2    H113924   3.067   2.631  13.719  0.1720  0.7546  0.2442
    4TMC2    H213925   3.372   2.559  13.418 -0.4916 -0.3920 -0.8025
    4TMC2    C713926   3.294   2.491  13.674 -0.2791  0.2256 -0.6189
    4TMC2    C813927   3.259   2.655  13.230  0.2459 -1.1764 -0.6990
    4TMC2    O113928   3.292   2.528  13.791 -0.4185  0.5280 -0.1168
    4TMC2    O213929   3.313   2.552  13.189  0.3096 -0.2706  0.5904
    4TMC2    O513930   3.216   2.747  13.141  1.0508  0.3090 -0.0055
    4TMC2    H513931   3.177   2.828  13.180 -1.7035 -0.0985 -1.8884
    5MPD2     C13932   2.454   2.968  13.496 -0.3991  0.1260  0.5625
    5MPD2    C113933   2.505   2.940  13.370 -0.7183  0.0168 -0.5582
    5MPD2    C213934   2.639   2.898  13.369 -0.3809  0.3740  0.7163
    5MPD2    C313935   2.717   2.884  13.481 -0.5572  0.1638 -0.6773
    5MPD2    C413936   2.655   2.913  13.603 -0.0476 -0.3916  0.7150
    5MPD2    C513937   2.527   2.951  13.614 -0.0361  0.0750  0.2213
    5MPD2     H13938   2.687   2.859  13.280 -2.1312 -2.7797  1.1371
    5MPD2    H113939   2.702   2.910  13.701 -1.6183 -1.3372  1.4350
    5MPD2    H213940   2.350   2.997  13.501 -0.1982  1.1588 -1.3526
    5MPD2    H313941   2.488   2.963  13.715 -1.4095  3.9186 -0.7884
    5MPD2     N13942   2.843   2.824  13.464  0.6490 -0.3809 -0.4022
    5MPD2    H513943   2.874   2.792  13.372  1.6724 -3.0960  0.8952
    5MPD2    N113944   2.420   2.955  13.257  0.1028 -1.0367  0.0674
    5MPD2    H713945   2.325   2.988  13.269  0.7453  1.2902 -1.2773
    6MPD1     C13946   1.373   4.369  12.766 -0.2189  0.1233 -0.1122
    6MPD1    C113947   1.506   4.399  12.762 -0.4340  0.1646  0.2957
    6MPD1    C213948   1.595   4.303  12.799  0.8610 -0.7536  0.2862
    6MPD1    C313949   1.547   4.178  12.837  0.3225  0.1272  0.4178
    6MPD1    C413950   1.412   4.158  12.837 -0.0342  0.7369 -0.1778
    6MPD1    C513951   1.325   4.252  12.802  0.0669 -0.3919  0.0361
    6MPD1     H13952   1.701   4.325  12.797  0.3838  1.4903  0.0879
    6MPD1    H113953   1.366   4.069  12.878 -0.5341  0.5489 -1.1373
    6MPD1    H213954   1.297   4.445  12.747  1.2222  2.0514  1.7452
    6MPD1    H313955   1.218   4.239  12.800 -0.1903  1.4317  2.6807
    6MPD1     N13956   1.630   4.083  12.882 -0.0636 -0.0805 -0.0651
    6MPD1    H513957   1.587   4.004  12.929 -1.5513  0.2928 -0.8169
    6MPD1    N113958   1.541   4.534  12.748 -0.0221  0.4266  0.4985
    6MPD1    H613959   1.636   4.554  12.716  0.4521  0.3688  1.8660
    6MPD1    H713960   1.468   4.586  12.701 -0.3785  0.2422  0.8544
    7MPD2     C13961   1.643   3.334  12.799  0.0130 -0.1198 -0.3164
    7MPD2    C113962   1.733   3.360  12.896 -0.1376 -0.1783 -0.2860
    7MPD2    C213963   1.818   3.258  12.941 -0.7914 -0.8094 -0.2031
    7MPD2    C313964   1.813   3.131  12.884  0.3311 -0.1453 -0.5405
    7MPD2    C413965   1.715   3.106  12.785  0.6711  0.2951 -0.1791
    7MPD2    C513966   1.630   3.205  12.751 -0.1510  0.2003 -0.1807
    7MPD2     H13967   1.890   3.292  13.015 -0.3770 -1.4115 -0.3316
    7MPD2    H113968   1.712   3.011  12.731  1.3358 -0.2776  0.7916
    7MPD2    H213969   1.573   3.404  12.755  0.9681  0.5592 -0.7775
    7MPD2    H313970   1.555   3.188  12.675 -1.6943 -1.8423  1.7628
    7MPD2     N13971   1.921   3.038  12.905 -0.2272  0.0049 -0.3492
    7MPD2    H513972   1.940   2.966  12.836 -0.2247 -2.1685  1.9011
    7MPD2    N113973   1.751   3.487  12.941  0.5955  0.5103  0.9132
    7MPD2    H713974   1.817   3.501  13.018 -0.6783 -0.8647  2.2574
    8TMC3    C113975   2.146   2.992  12.948 -0.3926  0.1826  0.1428
    8TMC3    C213976   2.222   2.969  13.060  0.9983 -0.6454  0.4202
    8TMC3    C313977   2.358   2.968  13.024  0.5311 -0.7251 -0.0591
    8TMC3    C413978   2.194   3.020  12.819 -0.0611 -0.1763  0.5288
    8TMC3    C513979   2.322   3.052  12.806  0.3734  0.6613 -0.5908
    8TMC3    C613980   2.411   3.010  12.903 -0.7651 -0.6242 -0.0684
    8TMC3     C13981   2.020   3.059  12.990  0.8113 -0.1555  0.3278
    8TMC3     O13982   2.013   3.115  13.099  0.0282  0.4582 -0.3359
    8TMC3     H13983   2.182   2.937  13.156  2.7016 -3.4563  0.2108
    8TMC3    H113984   2.126   3.071  12.752  0.4945  1.8158  1.5038
    8TMC3    H213985   2.519   3.007  12.889 -0.5643 -0.3965  1.4427
    8TMC3    C713986   2.336   3.190  12.763  0.0505 -0.4291  0.1751
    8TMC3    C813987   2.460   2.939  13.127 -0.2407  0.1828  0.0160
    8TMC3    O113988   2.275   3.225  12.660  0.7820 -0.2954 -0.0136
    8TMC3    O213989   2.579   2.916  13.100 -0.0561 -0.3607  0.0429
    9TMC3    C113990   1.818   3.944  12.906  0.5206 -0.5796 -0.0392
    9TMC3    C213991   1.950   3.927  12.868  0.0252  0.4469 -0.1712
    9TMC3    C313992   1.991   3.803  12.861 -0.4875  0.1778 -0.1845
    9TMC3    C413993   1.728   3.841  12.915 -0.1805 -0.0369  0.0335
    9TMC3    C513994   1.779   3.716  12.906 -0.0806 -0.0833  0.3513
    9TMC3    C613995   1.907   3.692  12.876 -0.4525  0.6396 -0.0460
    9TMC3     C13996   1.772   4.078  12.888 -0.2206  0.0533 -0.4681
    9TMC3     O13997   1.859   4.161  12.858  0.6945 -0.2286 -0.2586
    9TMC3     H13998   2.020   4.009  12.854 -0.4738  1.1519  1.3676
    9TMC3    H113999   1.623   3.845  12.942 -0.1119  1.7535  0.0367
    9TMC3    H214000   1.941   3.592  12.852  1.1585  1.1122  0.3204
    9TMC3    C714001   1.694   3.601  12.890 -0.1721 -0.6623 -0.2216
    9TMC3    C814002   2.140   3.791  12.889  0.4529 -0.0064 -0.5866
    9TMC3    O114003   1.587   3.623  12.835  0.0565 -0.4420  0.2654
    9TMC3    O214004   2.206   3.872  12.949 -0.0224 -0.1868  0.6687
   10MPD2     C14005   2.503   3.440  12.971 -0.3401 -0.4040 -0.1497
   10MPD2    C114006   2.411   3.396  12.881  0.2517  0.3816 -0.3075
   10MPD2    C214007   2.313   3.475  12.827 -0.0199 -0.6365  0.3072
   10MPD2    C314008   2.303   3.602  12.872 -0.2489 -0.1273  0.1074
   10MPD2    C414009   2.396   3.655  12.964  0.1361  0.1209 -0.4060
   10MPD2    C514010   2.488   3.569  13.017 -0.0017  0.1336  0.5970
   10MPD2     H14011   2.244   3.441  12.751  1.5284 -0.0255 -1.3617
   10MPD2    H114012   2.392   3.755  13.007 -1.8674 -0.1947  0.1014
   10MPD2    H214013   2.583   3.378  13.011 -0.8438 -0.1488  1.2568
   10MPD2    H314014   2.561   3.603  13.090 -0.3326  1.3182  0.3694
   10MPD2     N14015   2.183   3.673  12.831 -0.1066  0.5307  0.1691
   10MPD2    H514016   2.121   3.638  12.760 -0.9448 -1.5729  1.9394
   10MPD2    N114017   2.421   3.258  12.848  0.1059 -0.3279  0.0642
   10MPD2    H714018   2.498   3.205  12.888 -0.7004 -0.5712  1.2983
   11MPD2     C14019   3.596   2.085  13.776  0.4527  0.1547  0.0571
   11MPD2    C114020   3.530   2.171  13.861  0.0492  0.3173 -0.5177
   11MPD2    C214021   3.464   2.284  13.804 -0.0323 -0.0568 -0.3063
   11MPD2    C314022   3.456   2.305  13.666 -0.5738  0.4366 -0.3930
   11MPD2    C414023   3.530   2.222  13.587 -0.0025  0.6518  0.0579
   11MPD2    C514024   3.598   2.112  13.643  0.2023 -0.7023 -0.4402
   11MPD2     H14025   3.416   2.352  13.873 -1.5260 -2.3954  0.9279
   11MPD2    H114026   3.529   2.245  13.481  0.6981  1.8093  0.3000
   11MPD2    H214027   3.655   2.001  13.812  0.1584 -0.0701  0.0183
   11MPD2    H314028   3.655   2.044  13.580 -0.3284 -3.4922  2.1250
   11MPD2     N14029   3.370   2.404  13.606 -0.0542  0.5087  0.4321
   11MPD2    H514030   3.355   2.390  13.507 -1.2041  1.2600  0.5005
   11MPD2    N114031   3.533   2.133  13.993  0.7947 -0.0634 -0.0211
   11MPD2    H714032   3.565   2.045  14.031 -0.9959 -0.3831  0.7372
    1MPD1     C14033   0.967   0.259  16.569 -0.2101 -0.1120  0.3362
    1MPD1    C114034   0.958   0.262  16.435 -0.4148 -0.4679 -0.1674
    1MPD1    C214035   1.030   0.169  16.359 -0.0763 -0.3212 -0.8485
    1MPD1    C314036   1.113   0.079  16.415 -0.4775  0.8444  0.7438
    1MPD1    C414037   1.119   0.076  16.557 -0.0993 -0.3760 -0.3176
    1MPD1    C514038   1.037   0.160  16.632  0.2341  0.3005 -0.2773
    1MPD1     H14039   1.019   0.166  16.251 -0.0380  0.5285 -0.8792
    1MPD1    H114040   1.183   0.005  16.608  0.6929 -0.4915 -1.4519
    1MPD1    H214041   0.907   0.332  16.623  0.8376 -0.8854  2.5311
    1MPD1    H314042   1.032   0.150  16.740 -1.1542 -0.2040 -0.3960
    1MPD1     N14043   1.203   4.736  16.349  0.2624  0.3412 -0.1623
    1MPD1    H514044   1.258   4.671  16.405  0.8825 -0.6448 -1.9071
    1MPD1    N114045   0.872   0.355  16.371 -0.1737  0.5689 -0.4188
    1MPD1    H614046   0.884   0.363  16.270 -2.1133 -1.3736 -0.7910
    1MPD1    H714047   0.890   0.447  16.411  0.4066 -0.7407  2.2804
    2MPD1     C14048   1.162   4.281  15.475 -0.0609  0.2308  0.4276
    2MPD1    C114049   1.070   4.357  15.543  0.4529 -0.1520 -0.1495
    2MPD1    C214050   1.114   4.400  15.668 -0.2810  0.0590  0.4789
    2MPD1    C314051   1.239   4.366  15.710 -0.5472 -0.4807  0.5531
    2MPD1    C414052   1.320   4.285  15.640 -0.6787  0.1293 -0.5502
    2MPD1    C514053   1.283   4.243  15.522  0.4071  0.0941 -0.0251
    2MPD1     H14054   1.052   4.461  15.731 -1.1757 -1.4344  1.0514
    2MPD1    H114055   1.418   4.253  15.672 -1.0709 -1.2173 -0.6580
    2MPD1    H214056   1.139   4.265  15.371  0.3314 -0.9114  0.5201
    2MPD1    H314057   1.353   4.182  15.467  1.1436 -0.7786  1.8949
    2MPD1     N14058   1.273   4.415  15.837  0.4948  0.1647 -0.1110
    2MPD1    H514059   1.192   4.450  15.886  0.7373  1.9062 -0.9688
    2MPD1    N114060   0.958   4.416  15.481  0.6720  0.2660  0.1076
    2MPD1    H614061   0.888   4.450  15.548  2.2489  2.5029  0.6414
    2MPD1    H714062   0.910   4.347  15.423 -2.1389  0.6852  1.9115
    3TMC3    C114063   1.408   4.497  16.015 -0.0032  0.1325  0.0332
    3TMC3    C214064   1.511   4.471  16.096 -0.6277 -0.5873 -0.0945
    3TMC3    C314065   1.512   4.517  16.224 -0.0433 -0.4897 -0.0084
    3TMC3    C414066   1.303   4.577  16.053 -0.1359  0.1083  0.6438
    3TMC3    C514067   1.311   4.629  16.181 -1.2691 -0.0612  0.1390
    3TMC3    C614068   1.416   4.603  16.267 -0.1726 -0.0097  0.7237
    3TMC3     C14069   1.401   4.421  15.891 -0.1373 -0.0448 -0.0116
    3TMC3     O14070   1.501   4.361  15.857 -0.5716 -0.1475  0.1375
    3TMC3     H14071   1.602   4.433  16.052  0.7942  1.0402  1.4141
    3TMC3    H114072   1.213   4.599  15.996  2.3544 -0.9892 -3.6544
    3TMC3    H214073   1.426   4.663  16.357  1.9164  2.9528 -1.4714
    3TMC3    C714074   1.224   0.001  16.214  0.1853  0.6845  0.3755
    3TMC3    C814075   1.617   4.483  16.320  0.5448 -0.2549 -0.2947
    3TMC3    O114076   1.182   0.069  16.121 -0.4301  0.4471  0.5401
    3TMC3    O214077   1.723   4.445  16.273 -0.1427  0.5451 -0.2936
    4MPD1     C14078   1.814   4.411  16.789  0.1649 -0.3512  0.1747
    4MPD1    C114079   1.690   4.460  16.802  0.2207 -0.1956  0.1518
    4MPD1    C214080   1.610   4.465  16.693 -0.0688 -0.2010 -0.3429
    4MPD1    C314081   1.668   4.453  16.566  0.1895  0.3858  0.7733
    4MPD1    C414082   1.804   4.422  16.558 -0.1234 -0.0450 -0.8313
    4MPD1    C514083   1.873   4.397  16.667  0.9354 -0.3881  0.4882
    4MPD1     H14084   1.503   4.481  16.700  0.1364  0.6530  0.8576
    4MPD1    H114085   1.850   4.397  16.464 -1.6649 -0.4470 -1.4836
    4MPD1    H214086   1.874   4.386  16.876  0.4078 -0.3076  0.0198
    4MPD1    H314087   1.977   4.367  16.659  1.1901  0.4509  0.7199
    4MPD1     N14088   1.580   4.482  16.455 -0.0501  0.1894  0.3548
    4MPD1    H514089   1.491   4.526  16.477  0.0345  1.2192 -1.3536
    4MPD1    N114090   1.635   4.459  16.930  0.3108 -0.8373  0.4151
    4MPD1    H614091   1.546   4.508  16.925  0.0642 -1.2352  1.0118
    4MPD1    H714092   1.690   4.513  16.996 -0.8452 -0.7887  1.3313
    1TCq1    O114093   1.998   2.832  12.045  0.6633 -0.2180  0.3642
    1TCq1    C114094   2.096   2.865  12.126  0.2561 -0.1756 -0.3059
    1TCq1    O214095   2.086   2.870  12.247 -0.1830 -0.1712  0.2442
    1TCq1    C214096   2.211   2.918  12.062  0.2222 -0.6490 -0.5967
    1TCq1    C314097   2.334   2.914  12.119  0.2187 -0.4484 -0.2342
    1TCq1    C414098   2.438   2.962  12.040  0.4573  0.2120 -0.5809
    1TCq1    C514099   2.413   3.022  11.919  0.1836 -0.4703  0.1571
    1TCq1    C614100   2.282   3.028  11.868 -0.1475  0.9384 -0.6124
    1TCq1    C714101   2.186   2.968  11.936 -0.2625  0.2098  0.5935
    1TCq1    C814102   2.237   3.148  11.807 -0.8929  0.2429  0.5277
    1TCq1    O414103   2.182   3.236  11.876 -0.4764  0.7822 -0.2864
    1TCq1    C914104   2.555   3.009  12.110  0.2355  0.5018 -0.5498
    1TCq1    O514105   2.617   3.103  12.049 -0.6111 -0.1313  0.2998
    1TCq1    O614106   2.596   2.946  12.210  0.2172 -0.7344  0.3606
    1TCq1    H114107   2.022   2.810  11.953  0.6084 -0.3406  0.3793
    1TCq1    H214108   2.349   2.889  12.223  0.3545 -0.2899 -0.2169
    1TCq1    H314109   2.493   3.061  11.857  0.2239  0.2762  0.6742
    1TCq1    H414110   2.088   2.988  11.894 -0.6838  0.7277  1.8035
    2MPD1     C14111   2.245   3.443  11.396  0.6705 -0.2246 -0.1506
    2MPD1    C114112   2.304   3.329  11.356  0.3040 -0.7591 -0.0365
    2MPD1    C214113   2.319   3.231  11.455 -0.4527  0.0861  0.2172
    2MPD1    C314114   2.271   3.253  11.586 -0.0021 -0.9556  0.1723
    2MPD1    C414115   2.212   3.369  11.619 -0.2800 -0.0535  0.6164
    2MPD1    C514116   2.198   3.466  11.527  0.2045  0.2407 -0.3943
    2MPD1     H14117   2.354   3.131  11.430 -0.5943  0.1445 -0.2173
    2MPD1    H114118   2.172   3.381  11.719  0.6212  1.8555  0.7471
    2MPD1    H214119   2.218   3.524  11.329  0.5547  0.2854  0.5126
    2MPD1    H314120   2.147   3.554  11.564 -0.3763  0.0557 -0.7713
    2MPD1     N14121   2.281   3.147  11.678  0.6323 -0.2974  0.0137
    2MPD1    H514122   2.327   3.066  11.638 -2.9270 -2.5376  0.5122
    2MPD1    N114123   2.312   3.298  11.222 -0.0135  0.1408 -0.2555
    2MPD1    H614124   2.393   3.238  11.208 -0.7119 -0.0429 -3.6300
    2MPD1    H714125   2.339   3.382  11.172 -2.4916  1.1304  0.0398
    1TMC1    C114126   0.726   0.156   0.718 -0.0963 -0.1888  0.1618
    1TMC1    C214127   0.709   0.198   0.843  0.1313 -0.1268 -0.0037
    1TMC1    C314128   0.655   0.317   0.870  0.4904 -0.4199  0.0250
    1TMC1    C414129   0.671   0.229   0.618  0.7415 -0.4281  0.0232
    1TMC1    C514130   0.614   0.354   0.643 -0.3680 -0.3898  0.2809
    1TMC1    C614131   0.614   0.400   0.767 -0.1572 -0.2595  0.1806
    1TMC1     C14132   0.780   0.024   0.684 -0.3044 -0.5555  0.0728
    1TMC1     O14133   0.776   4.729   0.568  0.1124  0.1038  0.0337
    1TMC1     H14134   0.743   0.132   0.922  1.4697  1.3320  0.6315
    1TMC1    H114135   0.660   0.205   0.513 -0.3469 -0.0531  0.0572
    1TMC1    H214136   0.590   0.503   0.788  0.6739  0.0299 -0.3209
    1TMC1    C714137   0.557   0.436   0.537 -0.2470 -0.2561 -0.7691
    1TMC1    C814138   0.655   0.365   1.009  1.0882 -0.0967 -0.7761
    1TMC1    O114139   0.605   0.429   0.422  0.3435  0.3619  0.0252
    1TMC1    O214140   0.695   0.306   1.106  0.0734 -0.2886 -0.0491
    1TMC1    O314141   0.470   0.523   0.588 -0.0536  0.5676  0.0131
    1TMC1    H314142   0.421   0.490   0.666  0.8725 -1.3106 -0.2017
    1TMC1    O514143   0.561   0.460   1.020 -0.3957 -0.0250 -0.8209
    1TMC1    H514144   0.503   0.475   0.943  1.0706 -0.2513 -1.9733
    2MPD1     C14145   1.098   4.367   0.775 -0.2670  0.5154  0.6576
    2MPD1    C114146   1.120   4.464   0.877 -0.2886  0.6410 -1.0403
    2MPD1    C214147   1.034   4.571   0.867  0.4220 -0.1718  0.6965
    2MPD1    C314148   0.935   4.593   0.770  0.5012 -0.4018 -0.0352
    2MPD1    C414149   0.906   4.495   0.677  0.3802  0.1253 -0.2316
    2MPD1    C514150   0.988   4.384   0.691 -0.0255 -0.3262 -0.0182
    2MPD1     H14151   1.050   4.644   0.945  1.3921  2.0781 -1.6085
    2MPD1    H114152   0.841   4.503   0.591  2.0060  0.6127 -1.4296
    2MPD1    H214153   1.162   4.279   0.768  0.8840  1.3480  0.7566
    2MPD1    H314154   0.967   4.311   0.614 -0.5234  0.7491 -0.8930
    2MPD1     N14155   0.871   4.720   0.775  0.3800 -0.2688 -0.1492
    2MPD1    H514156   0.894   0.052   0.845  2.3172 -2.4306  1.3813
    2MPD1    N114157   1.238   4.459   0.955  0.0669 -0.2345 -0.1335
    2MPD1    H614158   1.229   4.504   1.046  1.8759  2.5615 -1.3354
    2MPD1    H714159   1.240   4.359   0.973 -0.3047 -0.2745 -0.3160
    1MPD1     C14160   3.927   2.992  10.901  0.2795 -0.6507  0.1380
    1MPD1    C114161   3.884   2.929  11.011  0.2161  0.0893  0.5271
    1MPD1    C214162   3.926   2.987  11.133  0.0490  0.0918 -0.2803
    1MPD1    C314163   4.009   3.098  11.142 -0.7774  0.2539 -0.1859
    1MPD1    C414164   4.035   3.168  11.022 -0.3847  0.2128  0.0090
    1MPD1    C514165   3.994   3.108  10.909 -0.2009  0.5328  0.1538
    1MPD1     H14166   3.915   2.935  11.228  2.6242 -2.0670 -1.1486
    1MPD1    H114167   4.093   3.260  11.015 -0.0564 -0.2303 -2.8393
    1MPD1    H214168   3.916   2.948  10.802 -0.8775 -0.7087  0.2927
    1MPD1    H314169   4.035   3.150  10.818 -0.4990  1.9867  0.6877
    1MPD1     N14170   4.055   3.140  11.271  0.6806 -0.2117  0.5167
    1MPD1    H514171   4.022   3.090  11.353  1.0683  1.3243  1.6146
    1MPD1    N114172   3.820   2.804  11.009 -0.3107  0.1458  0.2642
    1MPD1    H614173   3.763   2.786  10.926  0.6223  0.4883 -0.4521
    1MPD1    H714174   3.770   2.793  11.097 -1.4779 -0.2211 -0.4362
    2MPD1     C14175   3.459   3.195  11.828  0.2964  0.9394 -0.2161
    2MPD1    C114176   3.372   3.161  11.721  0.7701  0.1779  0.1172
    2MPD1    C214177   3.380   3.244  11.607 -0.5596  0.0886 -0.1630
    2MPD1    C314178   3.474   3.347  11.602 -1.0324  0.1043 -0.1858
    2MPD1    C414179   3.562   3.373  11.706 -0.6348  0.3839 -0.3415
    2MPD1    C514180   3.546   3.301  11.823 -0.2262 -0.5691  0.6366
    2MPD1     H14181   3.309   3.217  11.531  0.1701 -0.9228 -0.4735
    2MPD1    H114182   3.645   3.442  11.703  0.4810 -0.9767 -0.5816
    2MPD1    H214183   3.463   3.137  11.919  1.0831  2.0293  0.4408
    2MPD1    H314184   3.608   3.321  11.910  1.4773 -1.8932 -0.2910
    2MPD1     N14185   3.485   3.429  11.482 -0.1516  0.1264  0.4357
    2MPD1    H514186   3.578   3.468  11.475  0.0875 -0.6319 -0.8149
    2MPD1    N114187   3.295   3.038  11.722  0.7175  0.4604 -0.2769
    2MPD1    H614188   3.215   3.045  11.660  0.3504 -0.9710  0.0519
    2MPD1    H714189   3.263   3.021  11.817  3.9411  1.6380  1.0484
    3MPD1     C14190   3.393   3.569  10.428  0.3431  0.6946 -0.2652
    3MPD1    C114191   3.504   3.620  10.479 -0.3682 -0.1617 -0.0287
    3MPD1    C214192   3.514   3.631  10.619  0.0581 -0.2721  0.0627
    3MPD1    C314193   3.410   3.602  10.705  0.1638  0.7857 -0.3610
    3MPD1    C414194   3.288   3.550  10.650  0.3087  0.5548  1.2947
    3MPD1    C514195   3.290   3.532  10.512 -0.7333  0.1221  0.0357
    3MPD1     H14196   3.606   3.678  10.650 -0.0241 -0.7910  1.0963
    3MPD1    H114197   3.200   3.527  10.708 -0.3790 -0.1888 -0.0359
    3MPD1    H214198   3.384   3.565  10.320 -0.5692  1.1227 -0.1990
    3MPD1    H314199   3.200   3.491  10.468 -1.3435 -1.9733  3.2534
    3MPD1     N14200   3.430   3.634  10.841 -0.2496 -0.0362 -0.3053
    3MPD1    H514201   3.512   3.692  10.858  0.8906 -1.4702 -0.8836
    3MPD1    N114202   3.624   3.636  10.399 -0.0448 -0.2178 -0.1292
    3MPD1    H614203   3.697   3.691  10.442 -0.9462 -2.1867  3.9545
    3MPD1    H714204   3.599   3.672  10.308 -2.0629  1.5886  1.1483
    4MPD2     C14205   3.733   3.765  11.537 -0.9501 -0.6861  0.6556
    4MPD2    C114206   3.865   3.756  11.535  0.5256  0.4578 -0.1571
    4MPD2    C214207   3.930   3.869  11.500  0.1262 -0.0601  0.0108
    4MPD2    C314208   3.870   3.986  11.464 -0.1732 -0.0383 -0.3283
    4MPD2    C414209   3.728   3.991  11.448  0.6946  0.5533 -0.1742
    4MPD2    C514210   3.674   3.877  11.494 -0.0668 -0.2542 -0.1560
    4MPD2     H14211   4.038   3.871  11.506  0.2269  0.4439 -2.1237
    4MPD2    H114212   3.678   4.083  11.419 -1.1145 -0.6424 -0.8320
    4MPD2    H214213   3.668   3.685  11.570 -0.4556 -1.2040  0.3711
    4MPD2    H314214   3.565   3.882  11.490 -0.1185 -1.3106  0.0492
    4MPD2     N14215   3.962   4.093  11.433  0.0989 -0.4082  0.8291
    4MPD2    H514216   4.060   4.070  11.445 -0.3477 -2.4412  0.6210
    4MPD2    N114217   3.939   3.636  11.558  0.2237 -0.0077 -0.5906
    4MPD2    H714218   4.037   3.652  11.578 -0.4299 -0.3631  2.8065
    5TMC3    C114219   3.995   3.417  11.572  0.1465 -0.1889  0.3681
    5TMC3    C214220   4.007   3.319  11.469 -0.3830  0.1493  0.0090
    5TMC3    C314221   4.132   3.299  11.424 -0.3258 -0.7811 -0.7367
    5TMC3    C414222   4.107   3.466  11.631 -0.5335 -0.7824 -0.7751
    5TMC3    C514223   4.232   3.450  11.570 -0.1730  0.4310  0.2314
    5TMC3    C614224   4.240   3.363  11.469  0.0405 -0.0536 -0.2632
    5TMC3     C14225   3.885   3.513  11.553 -0.7887 -0.0260 -0.0404
    5TMC3     O14226   3.775   3.489  11.506  0.3128  0.3173  0.4970
    5TMC3     H14227   3.922   3.284  11.411 -1.3268  1.9275  0.3191
    5TMC3    H114228   4.111   3.546  11.704  1.0391 -0.7531 -0.8816
    5TMC3    H214229   4.333   3.339  11.418  0.3169 -0.1106  0.2607
    5TMC3    C714230   4.300   3.579  11.552 -0.2745 -0.4480  0.0890
    5TMC3    C814231   4.139   3.245  11.289 -0.4117  0.1611 -0.8077
    5TMC3    O114232   4.238   3.685  11.580 -0.2134 -0.4796  0.0074
    5TMC3    O214233   4.230   3.294  11.214 -0.2477 -0.4506  0.3504
    6TMC3    C114234   3.450   3.520  11.265  0.1296 -0.3708  0.6883
    6TMC3    C214235   3.366   3.531  11.159 -0.0216  0.1320  0.4826
    6TMC3    C314236   3.391   3.635  11.068  0.2411  1.0144 -0.7676
    6TMC3    C414237   3.567   3.598  11.270  0.1306 -0.4329  0.6411
    6TMC3    C514238   3.585   3.693  11.178 -0.1366 -0.0933 -0.2832
    6TMC3    C614239   3.499   3.717  11.073  0.7610 -0.3068 -0.3875
    6TMC3     C14240   3.402   3.431  11.375  0.3127  0.5612 -0.0613
    6TMC3     O14241   3.298   3.370  11.351  0.3671  0.7363 -0.4646
    6TMC3     H14242   3.288   3.459  11.138  0.4336  0.2140 -1.5362
    6TMC3    H114243   3.646   3.588  11.344  0.5789  2.4724  0.5166
    6TMC3    H214244   3.521   3.800  11.007 -0.4190  0.1417 -0.2116
    6TMC3    C714245   3.714   3.754  11.151  0.1063  0.3770  0.6342
    6TMC3    C814246   3.345   3.598  10.942  0.6186 -0.1609 -0.8103
    6TMC3    O114247   3.705   3.866  11.101  0.6946  0.2922  0.0493
    6TMC3    O214248   3.244   3.529  10.928  0.3422  0.0309  0.3033
    7MPD2     C14249   4.612   3.895  11.284 -0.0208 -0.5010  0.6303
    7MPD2    C114250   4.499   3.916  11.353 -0.1901  0.4599  1.1645
    7MPD2    C214251   4.444   3.813  11.431 -0.8436  0.2909  0.0917
    7MPD2    C314252   4.486   3.680  11.425  0.7122 -0.2149 -0.2246
    7MPD2    C414253   4.601   3.660  11.352  0.6003 -0.1388  0.1746
    7MPD2    C514254   4.651   3.763  11.278  0.3619 -0.6675  0.1067
    7MPD2     H14255   4.345   3.835  11.469 -1.5108  1.1479 -2.1484
    7MPD2    H114256   4.631   3.558  11.332  1.2547  0.1982 -0.5582
    7MPD2    H214257   4.667   3.967  11.225 -0.0502 -1.1439 -0.1847
    7MPD2    H314258   4.731   3.730  11.213  1.8523 -0.6768  1.9701
    7MPD2     N14259   4.416   3.571  11.474  0.0934 -0.3341 -0.5807
    7MPD2    H514260   4.462   3.480  11.478  0.7510 -0.0932 -2.8789
    7MPD2    N114261   4.436   4.041  11.339  0.7953  0.8965 -0.4806
    7MPD2    H714262   4.482   4.116  11.289 -0.8034  1.2271 -1.4776
    8TMC3    C114263   4.265   4.200  11.315  0.3480  0.5089 -0.0570
    8TMC3    C214264   4.263   4.180  11.178 -0.0264 -0.0020 -0.0327
    8TMC3    C314265   4.147   4.202  11.111 -1.3122  0.0134 -0.3320
    8TMC3    C414266   4.160   4.259  11.377 -0.0169  0.0218 -0.3090
    8TMC3    C514267   4.043   4.277  11.304 -0.1493  0.4992  0.0404
    8TMC3    C614268   4.038   4.265  11.167  0.0998  0.3305 -0.0921
    8TMC3     C14269   4.314   4.078  11.388  0.3590  0.8710  0.0576
    8TMC3     O14270   4.249   4.045  11.487 -0.1107 -0.6311  0.1331
    8TMC3     H14271   4.356   4.147  11.132  0.9123 -1.2824  2.7541
    8TMC3    H114272   4.152   4.260  11.485  0.9368  0.1848 -0.2408
    8TMC3    H214273   3.951   4.263  11.103 -0.0189  0.2975  0.0732
    8TMC3    C714274   3.931   4.224  11.379 -0.0693  0.7386 -0.3832
    8TMC3    C814275   4.099   4.093  11.028 -0.3028 -0.3979 -0.2892
    8TMC3    O114276   3.826   4.277  11.356  0.1409 -0.6397  0.1689
    8TMC3    O214277   3.991   4.097  10.973  0.5013 -0.2240  0.3773
    9MPD2     C14278   4.224   3.765  11.129 -0.6261 -0.3270 -0.0348
    9MPD2    C114279   4.130   3.858  11.084 -0.1371 -0.6203 -1.1373
    9MPD2    C214280   3.997   3.826  11.094 -0.1045  0.5125  0.6297
    9MPD2    C314281   3.955   3.698  11.130  1.1223 -0.8434  0.0508
    9MPD2    C414282   4.049   3.601  11.146 -0.9102  0.3330 -0.1090
    9MPD2    C514283   4.176   3.637  11.159 -0.4304  0.3163  0.4655
    9MPD2     H14284   3.921   3.902  11.078 -0.5262 -0.0424  0.0100
    9MPD2    H114285   4.013   3.502  11.173  3.0208 -1.0980 -0.2137
    9MPD2    H214286   4.331   3.780  11.130 -0.7419  0.3129  1.8412
    9MPD2    H314287   4.246   3.554  11.164 -0.4226  0.2590 -0.7379
    9MPD2     N14288   3.823   3.670  11.165  0.4354 -0.5588 -0.0404
    9MPD2    H514289   3.801   3.572  11.178 -1.7924  0.2769  2.5213
    9MPD2    N114290   4.175   3.986  11.058 -0.3250  0.2926 -0.0969
    9MPD2    H714291   4.271   3.998  11.087 -0.3956  1.2149 -0.2456
    1MPD1     C14292   3.574   2.257  15.785 -0.4606 -0.3448 -0.7241
    1MPD1    C114293   3.558   2.117  15.804 -0.0671 -0.1154  0.5569
    1MPD1    C214294   3.496   2.050  15.697 -0.6640 -0.2521 -0.0244
    1MPD1    C314295   3.453   2.110  15.584  0.1149 -0.4732  0.0583
    1MPD1    C414296   3.488   2.238  15.565 -0.1394 -0.0234 -0.2906
    1MPD1    C514297   3.544   2.314  15.663  0.0482 -0.1951  0.5717
    1MPD1     H14298   3.470   1.946  15.715  1.8110 -0.7598  0.6195
    1MPD1    H114299   3.461   2.289  15.473 -2.0473 -1.8762 -0.7471
    1MPD1    H214300   3.627   2.308  15.865 -1.5459 -0.1277 -0.1560
    1MPD1    H314301   3.576   2.415  15.637  1.6925 -0.0761  3.0166
    1MPD1     N14302   3.387   2.043  15.477 -0.6116 -0.1469 -0.7383
    1MPD1    H514303   3.357   2.101  15.400  1.1307  1.9655  0.1826
    1MPD1    N114304   3.578   2.061  15.932 -0.2709 -0.0508  0.4015
    1MPD1    H614305   3.661   2.105  15.973 -1.4858  1.9752  0.6471
    1MPD1    H714306   3.597   1.962  15.915  0.7051 -0.2440  2.6190
    2TMC2    C114307   3.248   1.914  15.123  0.1066  0.1689 -0.2606
    2TMC2    C214308   3.158   1.816  15.110 -0.0432  0.7384  0.4940
    2TMC2    C314309   3.125   1.746  15.228  0.8447  0.6363  0.5183
    2TMC2    C414310   3.306   1.951  15.238  0.4070  0.3953  0.4540
    2TMC2    C514311   3.268   1.885  15.351 -0.0698  1.0107  0.2452
    2TMC2    C614312   3.182   1.778  15.348  0.4127 -0.9155 -0.1692
    2TMC2     C14313   3.317   1.962  15.005 -0.2501  0.1133 -0.2544
    2TMC2     O14314   3.435   1.993  15.021  0.5622 -1.0578 -0.0404
    2TMC2     H14315   3.122   1.787  15.012 -1.7877  0.1368  1.3105
    2TMC2    H114316   3.386   2.023  15.250  1.7216 -1.1901  1.2380
    2TMC2    H214317   3.157   1.725  15.439 -2.9836 -2.2541 -1.9067
    2TMC2    C714318   3.341   1.912  15.471 -0.4542  1.2785  0.6578
    2TMC2    C814319   3.058   1.617  15.212  0.8251 -0.8172 -0.5807
    2TMC2    O114320   3.335   1.826  15.560  0.1094  0.3105  0.3909
    2TMC2    O214321   3.071   1.550  15.111 -1.0698 -0.0162  0.4773
    2TMC2    O514322   2.955   1.606  15.300  0.1379 -0.5887 -0.4063
    2TMC2    H514323   2.938   1.692  15.345  2.7117 -0.1148 -0.3704
    3MPD1     C14324   3.342   2.181  14.538 -0.6087 -0.4522  0.0291
    3MPD1    C114325   3.215   2.131  14.558  0.3015 -0.1194  0.7112
    3MPD1    C214326   3.178   2.068  14.678  0.3772  0.8559 -0.1971
    3MPD1    C314327   3.269   2.048  14.780  1.1090 -0.5636  0.1049
    3MPD1    C414328   3.400   2.080  14.747  0.8362  0.2877  0.0852
    3MPD1    C514329   3.434   2.145  14.632 -0.7719  0.7942  0.2426
    3MPD1     H14330   3.075   2.033  14.682  0.2627  1.4848  2.7537
    3MPD1    H114331   3.488   2.053  14.803  0.7266 -0.9248 -0.3305
    3MPD1    H214332   3.380   2.210  14.441 -0.5330 -1.7644 -0.3299
    3MPD1    H314333   3.535   2.178  14.612 -0.8191  0.0098 -1.3461
    3MPD1     N14334   3.230   1.994  14.905  0.2499 -0.1047 -0.2832
    3MPD1    H514335   3.134   1.967  14.921  0.2934  1.0820  2.0086
    3MPD1    N114336   3.114   2.159  14.462 -0.1353  0.2291  0.5681
    3MPD1    H614337   3.049   2.081  14.463 -1.0528  0.9669 -1.7459
    3MPD1    H714338   3.150   2.155  14.367 -1.2241  1.0494  0.1310
    1TMC1    C114339   1.626   1.527  12.596  0.4706  0.0380 -0.3305
    1TMC1    C214340   1.589   1.532  12.472  0.3088 -0.5190  0.3310
    1TMC1    C314341   1.500   1.440  12.430 -0.0940 -0.4784  0.1550
    1TMC1    C414342   1.568   1.447  12.691  0.1568 -0.0259 -0.3071
    1TMC1    C514343   1.477   1.361  12.645 -0.1305 -0.6152 -0.3570
    1TMC1    C614344   1.443   1.350  12.516 -0.3009 -0.1120  0.6418
    1TMC1     C14345   1.723   1.631  12.640  0.1063  0.3603 -0.1899
    1TMC1     O14346   1.713   1.742  12.586  0.0274 -0.1474 -0.2491
    1TMC1     H14347   1.651   1.586  12.401 -1.1578  1.0564  0.2368
    1TMC1    H114348   1.601   1.448  12.794 -0.0183 -0.6587 -0.2472
    1TMC1    H214349   1.377   1.271  12.482 -3.2290  2.6956 -0.2115
    1TMC1    C714350   1.414   1.265  12.728 -0.0091 -0.4434 -0.7046
    1TMC1    C814351   1.451   1.446  12.296 -0.2145  0.5847 -1.4610
    1TMC1    O114352   1.398   1.153  12.681  0.5246  0.5208  0.1483
    1TMC1    O214353   1.360   1.369  12.263 -0.2457  0.2902 -0.1606
    1TMC1    O314354   1.409   1.303  12.860  0.1944 -0.4294 -0.0178
    1TMC1    H314355   1.397   1.400  12.856 -0.5697 -0.6951 -3.4510
    1TMC1    O514356   1.497   1.552  12.228  0.0100 -0.1236 -0.1283
    1TMC1    H514357   1.549   1.624  12.269  0.1741  0.3050 -1.1081
    2MPD2     C14358   1.876   1.810  12.811 -0.2956  0.8446  0.2185
    2MPD2    C114359   1.862   1.675  12.834 -0.2155  0.6802  1.0392
    2MPD2    C214360   1.933   1.623  12.943  0.3702  0.4091 -0.2380
    2MPD2    C314361   1.993   1.705  13.035  0.7724  0.3086  0.3445
    2MPD2    C414362   1.992   1.844  13.015 -0.2169  0.1233  0.3849
    2MPD2    C514363   1.947   1.895  12.894 -0.3838 -1.1484 -0.2170
    2MPD2     H14364   1.934   1.516  12.963 -0.9024  0.2979 -0.7648
    2MPD2    H114365   2.040   1.921  13.073 -2.0332  1.6620 -0.1499
    2MPD2    H214366   1.825   1.855  12.726  0.0729 -0.2852 -0.5980
    2MPD2    H314367   1.957   2.002  12.878  1.5715 -0.9653  2.1958
    2MPD2     N14368   2.059   1.652  13.149 -0.6856  0.0701 -0.2340
    2MPD2    H514369   2.077   1.552  13.160 -1.2834 -0.2570 -2.1943
    2MPD2    N114370   1.788   1.590  12.750  0.3003 -0.3565  0.4207
    2MPD2    H714371   1.782   1.491  12.772 -2.2815 -0.6590 -1.6613
    3TCq1    O114372   2.171   1.485  13.791  0.4940  0.6270  1.0501
    3TCq1    C114373   2.094   1.550  13.706 -0.5852  0.0255  0.3213
    3TCq1    O214374   2.014   1.635  13.742 -0.3345  0.6568  0.0364
    3TCq1    C214375   2.161   1.556  13.575 -0.2649  0.4611  0.5057
    3TCq1    C314376   2.251   1.459  13.536 -0.7614 -0.5699 -0.1082
    3TCq1    C414377   2.278   1.453  13.396  0.5670  0.2781  0.1760
    3TCq1    C514378   2.219   1.533  13.310  0.0096 -0.9860  0.3085
    3TCq1    C614379   2.138   1.634  13.358  0.0335 -0.1469 -0.0134
    3TCq1    C714380   2.099   1.643  13.492  0.2978 -0.3267  0.1421
    3TCq1    C814381   2.080   1.725  13.266  1.0468 -0.4513 -0.5861
    3TCq1    O414382   2.043   1.836  13.305 -0.9311  0.4265  0.5597
    3TCq1    C914383   2.377   1.357  13.360 -0.6091 -0.3306 -0.3403
    3TCq1    O514384   2.429   1.291  13.455 -0.0082 -0.3830  0.2323
    3TCq1    O614385   2.417   1.358  13.241 -0.6439 -0.0502  0.5779
    3TCq1    H114386   2.237   1.417  13.766 -0.0578  1.3160 -2.2486
    3TCq1    H214387   2.316   1.411  13.609 -1.6887 -0.0401  1.0551
    3TCq1    H314388   2.255   1.532  13.208  1.1772 -0.8131  0.7215
    3TCq1    H414389   2.036   1.726  13.524  1.0937 -0.0322  0.9258
    1MPD2     C14390   1.454   2.852  15.037 -0.6462 -0.0470  0.6227
    1MPD2    C114391   1.340   2.776  15.016  0.0847 -0.0002  0.2333
    1MPD2    C214392   1.341   2.640  15.039 -0.5065 -0.9880  0.3812
    1MPD2    C314393   1.453   2.571  15.079  1.0880  0.0415 -0.0261
    1MPD2    C414394   1.565   2.647  15.106  0.7290  0.3478 -0.0404
    1MPD2    C514395   1.568   2.788  15.083  0.1034 -0.3698  1.1526
    1MPD2     H14396   1.246   2.588  15.026  1.0632 -3.0849 -2.5522
    1MPD2    H114397   1.659   2.594  15.124 -0.3203 -0.6759  2.4533
    1MPD2    H214398   1.454   2.959  15.023  0.6110 -0.4295 -2.1984
    1MPD2    H314399   1.660   2.841  15.104  1.6182 -1.7982 -1.9145
    1MPD2     N14400   1.452   2.434  15.112 -0.3880  0.3515  0.1592
    1MPD2    H514401   1.533   2.402  15.165 -0.5147  0.7817  0.6131
    1MPD2    N114402   1.218   2.834  14.975 -0.4478  0.3801  0.0854
    1MPD2    H714403   1.223   2.916  14.915  1.3776  0.6787  0.6475
    2TMC3    C114404   0.981   2.853  14.951 -0.6138  0.1366 -0.1453
    2TMC3    C214405   0.859   2.819  15.006  0.0696  0.0309  0.4868
    2TMC3    C314406   0.755   2.802  14.919 -0.3620  0.6513  0.4499
    2TMC3    C414407   0.985   2.905  14.827 -0.1715 -0.2824 -0.2494
    2TMC3    C514408   0.867   2.918  14.754 -0.4988  0.6888  0.4269
    2TMC3    C614409   0.749   2.862  14.793 -0.2238  0.2500 -0.0195
    2TMC3     C14410   1.093   2.791  15.016 -0.5725 -0.0263 -0.1741
    2TMC3     O14411   1.065   2.716  15.109  0.2179  0.3825  0.2304
    2TMC3     H14412   0.851   2.798  15.112 -1.3524  1.6951  0.7122
    2TMC3    H114413   1.082   2.929  14.786 -0.7453 -0.7131 -1.8657
    2TMC3    H214414   0.666   2.852  14.724  0.2137  2.1286 -0.8145
    2TMC3    C714415   0.870   2.952  14.610 -0.4454 -0.2930 -1.1569
    2TMC3    C814416   0.722   2.661  14.900 -0.2576 -0.1729 -0.0851
    2TMC3    O114417   0.776   2.926  14.536 -0.0053 -0.2864  0.0417
    2TMC3    O214418   0.665   2.630  14.802 -0.6349 -0.6750  0.0206
    3TCq1    O114419   1.787   3.773  14.194 -0.0581  0.3492 -0.5297
    3TCq1    C114420   1.712   3.671  14.147  0.4214  0.8804  0.0881
    3TCq1    O214421   1.687   3.660  14.029  0.1146 -0.1357 -0.5071
    3TCq1    C214422   1.644   3.596  14.249 -0.0217  0.0059 -0.0963
    3TCq1    C314423   1.718   3.567  14.363  0.0024  0.3860 -0.1856
    3TCq1    C414424   1.645   3.489  14.454 -0.4626 -0.7276 -0.2549
    3TCq1    C514425   1.516   3.451  14.436  0.5422 -0.3868 -0.1734
    3TCq1    C614426   1.457   3.475  14.313  0.1167 -0.3547  0.3816
    3TCq1    C714427   1.524   3.545  14.215  0.2686  0.1772  0.0454
    3TCq1    C814428   1.338   3.400  14.276 -0.5216 -0.3432  0.0076
    3TCq1    O414429   1.272   3.441  14.180  0.8192  0.5670 -0.8393
    3TCq1    C914430   1.712   3.441  14.572 -0.5154  0.0890  0.1143
    3TCq1    O514431   1.834   3.471  14.586  0.3079  0.1637  0.3797
    3TCq1    O614432   1.653   3.338  14.616  0.1279 -0.7497  0.2249
    3TCq1    H114433   1.752   3.787  14.285  0.1516  0.6339 -0.4936
    3TCq1    H214434   1.821   3.600  14.373  0.7853 -2.0267 -0.2363
    3TCq1    H314435   1.464   3.395  14.513 -0.0322 -1.8585 -1.6235
    3TCq1    H414436   1.480   3.560  14.117  0.4923 -0.8072 -0.2075
    4MPD2     C14437   1.101   3.220  14.218  0.2976 -0.6161 -0.6707
    4MPD2    C114438   1.184   3.217  14.333  0.1392 -0.6899  0.0355
    4MPD2    C214439   1.137   3.152  14.450 -0.1622 -0.4078  0.0324
    4MPD2    C314440   1.016   3.084  14.456  0.3918 -0.4813 -0.6169
    4MPD2    C414441   0.939   3.083  14.342 -0.4059  0.1941 -0.1862
    4MPD2    C514442   0.987   3.146  14.228  0.5575 -0.2209 -0.7613
    4MPD2     H14443   1.192   3.146  14.543 -2.9694 -1.6864  1.6096
    4MPD2    H114444   0.839   3.042  14.329 -0.6325  1.7126 -3.1158
    4MPD2    H214445   1.132   3.258  14.121  1.0264  1.7647  0.4955
    4MPD2    H314446   0.924   3.138  14.140 -0.6078  0.8601 -0.0162
    4MPD2     N14447   0.980   3.029  14.582  0.8419 -0.2621  0.0750
    4MPD2    H514448   1.039   3.040  14.664 -1.3397  1.3679  1.4096
    4MPD2    N114449   1.306   3.291  14.354 -0.3699 -0.6264 -0.3171
    4MPD2    H714450   1.371   3.260  14.426  0.4630  0.9822 -0.3719
    5TMC2    C114451   1.163   2.157  15.255  1.2158  0.1663 -1.1863
    5TMC2    C214452   1.240   2.168  15.370 -0.5763 -0.2859 -0.7479
    5TMC2    C314453   1.377   2.173  15.365 -0.7940 -0.3748  0.0955
    5TMC2    C414454   1.223   2.182  15.136 -0.1916  0.0313 -0.4067
    5TMC2    C514455   1.355   2.226  15.133 -0.5443  0.3743 -0.8326
    5TMC2    C614456   1.435   2.213  15.242 -0.3281  0.7503 -0.2965
    5TMC2     C14457   1.040   2.224  15.256 -0.0620  0.3870  0.2163
    5TMC2     O14458   1.027   2.332  15.318 -0.4268 -0.2659 -0.0117
    5TMC2     H14459   1.177   2.166  15.458  0.9758  1.2651  0.4074
    5TMC2    H114460   1.166   2.189  15.044 -2.8001  3.7812  1.4710
    5TMC2    H214461   1.542   2.232  15.243 -0.4491  1.4313 -0.3840
    5TMC2    C714462   1.355   2.347  15.062  0.4868  0.5349 -0.2367
    5TMC2    C814463   1.451   2.108  15.467 -0.4322  0.3074  0.3567
    5TMC2    O114464   1.273   2.372  14.974 -0.1465  0.2744  0.0101
    5TMC2    O214465   1.569   2.123  15.487 -0.3643  0.1994 -0.0521
    5TMC2    O514466   1.376   2.005  15.500 -0.3553  0.0169 -0.5595
    5TMC2    H514467   1.283   2.017  15.471 -0.3991 -0.0069 -0.4317
    6MPD2     C14468   0.688   2.370  14.932 -0.8176  0.3832 -0.0047
    6MPD2    C114469   0.789   2.434  14.993 -0.2942 -0.0828  0.8805
    6MPD2    C214470   0.876   2.376  15.077  0.4226 -0.4762 -0.6243
    6MPD2    C314471   0.853   2.239  15.096  0.2679  0.5310 -0.5767
    6MPD2    C414472   0.752   2.168  15.031 -0.1255  0.0402 -0.0509
    6MPD2    C514473   0.669   2.239  14.950 -0.2401  0.9821  0.2858
    6MPD2     H14474   0.964   2.428  15.113 -0.3205  0.2895  0.0852
    6MPD2    H114475   0.745   2.060  15.027  1.0108  0.0090 -1.5239
    6MPD2    H214476   0.615   2.417  14.868  0.7625  1.2471 -1.1692
    6MPD2    H314477   0.600   2.174  14.898 -0.5080 -0.3014  2.2626
    6MPD2     N14478   0.956   2.162  15.171 -0.3633 -0.7497 -0.1149
    6MPD2    H514479   0.967   2.062  15.159  0.6165 -0.8326  1.5477
    6MPD2    N114480   0.794   2.580  14.986 -0.4044  0.2074  0.2945
    6MPD2    H714481   0.858   2.630  15.047  0.2686  1.2606 -1.2749
  945NH4     N114482   4.078   2.799   0.448  0.8931  0.2646  0.4862
  945NH4     H214483   4.083   2.781   0.551 -1.6396 -0.6810  0.4337
  945NH4     H314484   4.025   2.721   0.405  0.1318  0.3869  1.2008
  945NH4     H414485   4.175   2.804   0.411  1.3595  0.9983  1.7634
  945NH4     H514486   4.021   2.884   0.430 -0.4250 -0.7489 -0.0455
  946SOD     NA14487   4.465   1.042  12.518 -0.0094  0.0236 -0.3697
  947SOD     NA14488   2.490   1.162  13.616 -0.7116 -0.3720 -0.5785
  948SOD     NA14489   3.009   3.603  12.737 -0.3315  0.1851 -0.5951
  949SOD     NA14490   3.815   0.684  16.347  0.2025 -0.6227 -0.5422
  950SOD     NA14491   4.313   1.104   6.002  0.2070 -0.3178  0.0407
  951SOD     NA14492   2.357   1.233  16.847  0.3733 -0.4174 -0.7420
  952SOD     NA14493   1.603   3.167   3.587  0.7038 -0.1083  0.1420
  953SOL     OW14494   1.479   1.792   4.263  0.5985  0.0732 -0.1137
  953SOL    HW114495   1.412   1.815   4.328 -0.4286 -0.2266 -1.0662
  953SOL    HW214496   1.521   1.875   4.240  0.1330 -0.0170 -1.2507
  954SOL     OW14497   3.560   1.109   5.530  0.0831  0.0917 -0.4855
  954SOL    HW114498   3.485   1.064   5.491 -0.7205  0.2187  0.9115
  954SOL    HW214499   3.533   1.125   5.621 -1.4928  1.6306 -1.2128
  955SOL     OW14500   0.302   1.793   9.515  0.2958  0.3474  0.5215
  955SOL    HW114501   0.312   1.702   9.487  0.2248  0.2763  0.7265
  955SOL    HW214502   0.355   1.794   9.595  1.0693 -2.7079  0.0441
  956SOL     OW14503   3.171   1.971   9.017  0.3211  0.7321 -0.0088
  956SOL    HW114504   3.216   2.054   9.031  0.1449  0.5291  1.7333
  956SOL    HW214505   3.079   1.991   9.036  0.6303 -0.9638  3.2857
  957SOL     OW14506   0.624   4.159  12.998 -0.3813 -0.0576 -0.5546
  957SOL    HW114507   0.650   4.105  12.923  0.5800 -0.7568  0.2855
  957SOL    HW214508   0.635   4.096  13.070 -2.7784 -1.8521 -1.7354
  958SOL     OW14509   0.168   0.806   5.901 -0.2686 -0.1291 -0.5382
  958SOL    HW114510   0.260   0.778   5.898 -0.7108 -1.6830  0.1661
  958SOL    HW214511   0.154   0.800   5.807 -1.4357  1.0209 -0.4340
  959SOL     OW14512   4.121   3.437  12.791  0.4270 -0.2203 -0.3398
  959SOL    HW114513   4.118   3.426  12.696 -2.3367 -1.5856 -0.0857
  959SOL    HW214514   4.172   3.364  12.825 -1.9837 -1.9853 -0.4940
  960SOL     OW14515   4.201   0.398   0.548  0.5013  0.4358 -0.2109
  960SOL    HW114516   4.124   0.384   0.603  0.7680 -2.4848 -0.6139
  960SOL    HW214517   4.162   0.452   0.479  1.0778  3.6555  1.9492
  961SOL     OW14518   1.345   0.994   8.119  1.1127 -0.5929 -0.2589
  961SOL    HW114519   1.282   0.963   8.054 -0.4381  1.5377  0.2021
  961SOL    HW214520   1.286   1.019   8.190  2.1620 -0.1483  0.4531
  962SOL     OW14521   3.998   2.083   2.860  0.3359 -0.1221 -0.8270
  962SOL    HW114522   4.035   2.170   2.872  0.5334 -0.4216  0.7490
  962SOL    HW214523   3.943   2.091   2.782 -0.0043  0.7969 -0.4889
  963SOL     OW14524   1.315   2.204   8.044 -0.0699 -0.5939 -0.5479
  963SOL    HW114525   1.392   2.149   8.057  2.2560  2.9483  0.8568
  963SOL    HW214526   1.351   2.289   8.020  0.2812 -0.5804  0.0374
  964SOL     OW14527   1.077   2.315   9.173  0.2666  0.4892  0.0199
  964SOL    HW114528   1.002   2.262   9.146  1.2706 -2.3549  2.7986
  964SOL    HW214529   1.030   2.398   9.179 -1.1383 -0.4698  2.2162
  965SOL     OW14530   2.974   3.817   5.620 -0.5802  0.4388 -1.2235
  965SOL    HW114531   2.963   3.855   5.533 -3.6060  0.4329 -0.8358
  965SOL    HW214532   3.045   3.871   5.654 -0.4713 -1.0168  0.8824
  966SOL     OW14533   1.501   0.954  11.490 -0.2958 -0.4152  0.3528
  966SOL    HW114534   1.499   0.913  11.403  1.7237  0.4200 -0.0878
  966SOL    HW214535   1.588   0.993  11.488 -1.6336  2.6314  1.3388
  967SOL     OW14536   3.172   2.674   3.947  0.2714 -0.1142 -0.0984
  967SOL    HW114537   3.083   2.683   3.913 -0.3926 -0.5523  1.5301
  967SOL    HW214538   3.211   2.758   3.922 -0.1224  0.5986  1.6857
  968SOL     OW14539   0.831   2.388   1.385  0.6206 -0.4886  0.3938
  968SOL    HW114540   0.924   2.386   1.362  0.7827  0.2083  0.9836
  968SOL    HW214541   0.818   2.323   1.454 -1.5184 -0.7567 -0.2635
  969SOL     OW14542   1.672   3.863   2.170 -0.0136 -0.5082  0.6421
  969SOL    HW114543   1.608   3.854   2.241 -0.3785 -1.3817  0.2024
  969SOL    HW214544   1.608   3.840   2.102  2.6518 -2.6349 -1.1067
  970SOL     OW14545   3.629   0.619   5.428 -0.2348 -0.4602  0.7638
  970SOL    HW114546   3.658   0.699   5.472 -0.0230 -0.6980  1.0561
  970SOL    HW214547   3.601   0.560   5.498  0.5253  1.4735  2.6761
  971SOL     OW14548   2.602   1.275   1.737 -0.5409 -0.3166 -0.2552
  971SOL    HW114549   2.621   1.232   1.654 -0.8562  1.1078 -1.0636
  971SOL    HW214550   2.508   1.258   1.741 -0.9737  1.8090 -1.1217
  972SOL     OW14551   2.112   2.663   7.474 -0.4791 -0.5584 -0.8365
  972SOL    HW114552   2.108   2.754   7.445 -1.2595  0.1324  1.4281
  972SOL    HW214553   2.199   2.633   7.448 -0.6663 -2.2372  0.5373
  973SOL     OW14554   3.946   3.673   8.364 -0.2996 -0.7221 -0.2124
  973SOL    HW114555   4.020   3.622   8.396 -0.1251 -1.0641 -1.1827
  973SOL    HW214556   3.901   3.609   8.310 -0.8280 -0.3079 -0.2750
  974SOL     OW14557   3.635   2.508   2.407 -0.3580  0.3085  0.4522
  974SOL    HW114558   3.609   2.467   2.489  1.2006 -1.7732 -0.0848
  974SOL    HW214559   3.607   2.446   2.340 -1.0989  0.3043  0.7718
  975SOL     OW14560   2.258   0.820   1.864  0.1331  0.1655  0.7831
  975SOL    HW114561   2.169   0.853   1.850 -0.6076 -2.2276 -0.0542
  975SOL    HW214562   2.285   0.875   1.937 -0.4499  0.5456  0.7135
  976SOL     OW14563   3.404   0.079   5.209 -0.0970  0.6470  0.7556
  976SOL    HW114564   3.479   0.049   5.159  0.9728  1.6184  1.7663
  976SOL    HW214565   3.423   0.040   5.294 -2.7549  0.7448  1.4074
  977SOL     OW14566   3.395   4.398   5.552  0.4929  0.4052 -0.5508
  977SOL    HW114567   3.385   4.446   5.634 -0.0316  0.6076 -0.7365
  977SOL    HW214568   3.311   4.378   5.510  0.1193  0.8798 -0.0318
  978SOL     OW14569   0.994   0.064   5.864 -0.4832 -0.3892 -0.2024
  978SOL    HW114570   1.023   0.044   5.953  0.4888 -1.9814 -0.8969
  978SOL    HW214571   0.917   0.117   5.887 -0.1519 -0.9492  2.1994
  979SOL     OW14572   3.601   0.954   4.922  0.2371  0.0150 -0.7010
  979SOL    HW114573   3.649   1.030   4.890  1.0931  0.8029  2.4622
  979SOL    HW214574   3.547   0.994   4.990  3.0744  1.8691  0.4446
  980SOL     OW14575   3.103   4.556   3.460  0.0386 -0.1089  0.6197
  980SOL    HW114576   3.196   4.555   3.480  0.2119 -2.2693 -0.3487
  980SOL    HW214577   3.075   4.467   3.481 -0.7284  0.1744  0.8043
  981SOL     OW14578   1.083   0.198   8.021 -0.5690 -0.1268  0.1405
  981SOL    HW114579   1.116   0.288   8.020 -0.4042 -0.1554  2.3897
  981SOL    HW214580   1.132   0.163   7.947  1.9118 -0.9010  2.1587
  982SOL     OW14581   3.421   2.461   8.039 -0.0816  0.2309 -0.2705
  982SOL    HW114582   3.455   2.382   8.082  2.6766  1.5064 -0.0886
  982SOL    HW214583   3.478   2.528   8.077  1.3720 -1.6889  0.9808
  983SOL     OW14584   3.885   3.802   9.943 -0.0516 -0.2731  0.1536
  983SOL    HW114585   3.934   3.720   9.955  0.3377  0.2765  2.3601
  983SOL    HW214586   3.944   3.856   9.891 -0.5222  0.0418 -0.0506
  984SOL     OW14587   3.645   4.076   5.538  0.1489 -0.2973 -0.4890
  984SOL    HW114588   3.564   4.047   5.496  0.6727  0.0046 -1.7068
  984SOL    HW214589   3.626   4.077   5.632  2.3949  1.0376 -0.0709
  985SOL     OW14590   0.924   0.397   4.929 -0.4789 -0.5097  0.1087
  985SOL    HW114591   0.898   0.488   4.940 -0.8592 -0.8889  2.4907
  985SOL    HW214592   0.964   0.377   5.015 -0.0302  1.0913  0.2630
  986SOL     OW14593   1.118   3.890   3.131  0.0997 -0.7626  0.0201
  986SOL    HW114594   1.153   3.876   3.219  2.1095 -1.0685 -0.8236
  986SOL    HW214595   1.091   3.801   3.109 -0.4371 -0.4920 -0.4275
  987SOL     OW14596   2.671   0.319   5.804 -0.5821  0.0971  0.1485
  987SOL    HW114597   2.576   0.321   5.795 -0.6152 -0.3359  0.3899
  987SOL    HW214598   2.697   0.409   5.783 -1.0305  0.0478 -0.5928
  988SOL     OW14599   4.476   2.095  12.080  0.5992 -0.5335 -0.2432
  988SOL    HW114600   4.549   2.075  12.138  0.1188 -1.2038  0.1274
  988SOL    HW214601   4.407   2.084  12.145  2.4705 -0.6335  1.7420
  989SOL     OW14602   1.809   1.068   7.162 -0.2608  0.1840 -0.1884
  989SOL    HW114603   1.879   1.079   7.227 -0.7921  2.0017  0.0707
  989SOL    HW214604   1.761   1.150   7.173 -1.5105 -0.6968  0.8884
  990SOL     OW14605   4.256   4.255  10.720 -0.0897 -0.2285  0.0057
  990SOL    HW114606   4.298   4.317  10.661  0.6925 -0.1347  0.6626
  990SOL    HW214607   4.231   4.319  10.786  1.8740  1.0844 -0.5071
  991SOL     OW14608   3.756   2.125   3.872  0.0188  0.6033 -0.2053
  991SOL    HW114609   3.708   2.059   3.823  1.8094 -0.7218 -0.1582
  991SOL    HW214610   3.717   2.206   3.839  0.4466  0.0841 -1.9974
  992SOL     OW14611   3.772   2.545  12.118 -0.0480 -0.6745  0.8362
  992SOL    HW114612   3.825   2.528  12.041  2.3868 -0.9341  2.5712
  992SOL    HW214613   3.724   2.625  12.098  0.4741 -0.7164 -0.5400
  993SOL     OW14614   2.594   4.466  16.129 -0.1882  0.0246  0.1881
  993SOL    HW114615   2.521   4.426  16.176  1.6551 -1.4102  1.8375
  993SOL    HW214616   2.601   4.395  16.065 -3.5520 -0.0783 -0.0859
  994SOL     OW14617   3.618   3.444   1.133  0.2394  0.1160 -0.0415
  994SOL    HW114618   3.629   3.523   1.186  1.5334  0.6152 -1.0511
  994SOL    HW214619   3.697   3.441   1.079  0.9694  2.3060  0.9075
  995SOL     OW14620   4.263   1.223   3.009 -0.0730 -0.2029  0.3361
  995SOL    HW114621   4.355   1.210   3.030 -0.6416 -1.5506  1.9559
  995SOL    HW214622   4.222   1.156   3.064  1.1231 -1.2482 -0.0573
  996SOL     OW14623   3.979   4.408   9.233  0.2517  0.3831 -0.1059
  996SOL    HW114624   3.891   4.435   9.206 -0.4437  0.7224  2.5448
  996SOL    HW214625   4.034   4.438   9.160 -0.6514  0.8095 -0.6118
  997SOL     OW14626   2.954   1.299   7.377  0.1738 -0.3728  0.1291
  997SOL    HW114627   2.877   1.314   7.323  1.2698  1.2979 -0.9857
  997SOL    HW214628   2.922   1.297   7.467 -2.0354  3.6508 -0.5679
  998SOL     OW14629   0.064   0.356   4.597 -0.0347  0.5304  0.6718
  998SOL    HW114630   4.735   0.400   4.544 -0.3605  1.3618  1.7757
  998SOL    HW214631   0.113   0.320   4.524 -0.5480  1.4722 -0.1430
  999SOL     OW14632   0.625   0.501   7.763 -0.0192 -0.3979  0.2938
  999SOL    HW114633   0.562   0.573   7.752 -0.0124 -0.3025  0.8706
  999SOL    HW214634   0.613   0.473   7.853 -2.6349 -0.3881 -0.0511
 1000SOL     OW14635   3.410   0.408   7.701 -0.6453 -0.7706 -0.7378
 1000SOL    HW114636   3.363   0.368   7.628  0.5381 -2.0496 -0.7967
 1000SOL    HW214637   3.339   0.451   7.749  1.2418 -0.5613  1.8272
 1001SOL     OW14638   2.877   0.844   7.525  0.1697  0.2100 -0.1828
 1001SOL    HW114639   2.855   0.922   7.474 -0.3474 -0.2359 -0.6411
 1001SOL    HW214640   2.840   0.859   7.612 -0.6927  0.2731 -0.5580
 1002SOL     OW14641   1.249   2.522   4.961  0.4478 -0.3460 -0.1355
 1002SOL    HW114642   1.290   2.449   4.915 -0.3120  0.2670 -1.8103
 1002SOL    HW214643   1.325   2.544   5.014  1.3189  0.7064 -1.8114
 1003SOL     OW14644   2.324   4.102  12.986 -0.1491  0.3448  0.0092
 1003SOL    HW114645   2.271   4.024  13.001 -0.7047  0.8596  0.7049
 1003SOL    HW214646   2.257   4.169  12.973  1.8568  1.9275 -2.1144
 1004SOL     OW14647   1.331   1.399   6.977 -0.7948  0.0949  0.0911
 1004SOL    HW114648   1.238   1.412   6.996  0.0277  0.4463  3.8722
 1004SOL    HW214649   1.314   1.382   6.884  0.0920 -1.0848  0.1563
 1005SOL     OW14650   2.267   0.096  13.421 -0.2432  0.2958 -0.2441
 1005SOL    HW114651   2.342   0.156  13.419 -0.5474  0.6807 -0.2720
 1005SOL    HW214652   2.304   0.017  13.459  1.1229 -0.0672 -2.2959
 1006SOL     OW14653   1.077   4.382   5.319  0.3236  0.1152 -0.4205
 1006SOL    HW114654   1.120   4.404   5.237 -1.4616  0.2940 -1.3001
 1006SOL    HW214655   1.068   4.471   5.352 -1.0904  0.0239 -0.5728
 1007SOL     OW14656   2.710   3.640   6.418  0.0180  0.7898 -0.4870
 1007SOL    HW114657   2.675   3.663   6.504  3.6278  1.9661  0.6679
 1007SOL    HW214658   2.640   3.589   6.377 -0.1242 -0.4305  1.2920
 1008SOL     OW14659   4.732   1.884   5.787  0.0052  0.0925 -0.8007
 1008SOL    HW114660   0.039   1.958   5.829  0.6985 -0.1562 -1.1069
 1008SOL    HW214661   0.049   1.811   5.815 -1.1651 -0.8295 -0.8872
 1009SOL     OW14662   1.069   2.283   6.916  0.1168  0.5256  0.7436
 1009SOL    HW114663   0.986   2.329   6.908  1.7806  3.8174  2.3526
 1009SOL    HW214664   1.061   2.248   7.005 -0.1694 -0.1902  0.4368
 1010SOL     OW14665   3.227   4.117   9.696  0.0043 -0.5062 -0.6708
 1010SOL    HW114666   3.320   4.099   9.688 -0.0408 -0.8757 -0.3468
 1010SOL    HW214667   3.198   4.027   9.711 -3.5500  0.9005  0.9258
 1011SOL     OW14668   3.053   3.272   6.174  0.0893 -0.1778  0.3983
 1011SOL    HW114669   2.991   3.249   6.105  1.0532  2.0788 -1.1914
 1011SOL    HW214670   2.989   3.306   6.236 -0.8957  2.6651 -2.1978
 1012SOL     OW14671   4.683   4.162   6.799  0.2937 -0.4653  0.1260
 1012SOL    HW114672   4.610   4.222   6.786  0.4324  0.2344  2.5131
 1012SOL    HW214673   4.731   4.147   6.718  0.0354 -1.2251  0.1151
 1013SOL     OW14674   0.859   0.655  14.847 -0.1514 -0.3238  0.9558
 1013SOL    HW114675   0.867   0.676  14.754 -0.9205 -0.8510  0.7678
 1013SOL    HW214676   0.774   0.611  14.855  0.1205 -0.8478  0.9904
 1014SOL     OW14677   2.398   0.410   4.409  0.0088 -0.0387 -0.4903
 1014SOL    HW114678   2.410   0.378   4.319  1.2322 -1.0243  0.0076
 1014SOL    HW214679   2.331   0.357   4.451 -2.3864  0.7479 -3.2985
 1015SOL     OW14680   0.247   0.219  12.524 -0.0915 -0.0310 -0.2626
 1015SOL    HW114681   0.339   0.208  12.549 -0.0822  1.6631  0.4070
 1015SOL    HW214682   0.239   0.309  12.492  1.6120  0.2772  0.1429
 1016SOL     OW14683   3.577   4.480   5.067 -0.7812  0.5105 -0.4595
 1016SOL    HW114684   3.570   4.473   5.162  0.1929  0.0565 -0.4256
 1016SOL    HW214685   3.599   4.574   5.065  1.3828  0.0542  2.5143
 1017SOL     OW14686   2.436   2.595  17.174  0.2169 -0.0351  0.2359
 1017SOL    HW114687   2.440   2.533  17.101  1.1747 -0.9018  1.0250
 1017SOL    HW214688   2.466   2.671  17.124 -0.6441 -0.7187 -1.3321
 1018SOL     OW14689   0.670   0.419   9.552  0.1789 -0.0350 -0.3887
 1018SOL    HW114690   0.698   0.358   9.620  0.4988 -2.8944 -3.0872
 1018SOL    HW214691   0.759   0.440   9.521 -0.3658 -2.0337 -3.3315
 1019SOL     OW14692   1.077   1.589   5.204  0.5419 -0.4750 -0.2861
 1019SOL    HW114693   1.009   1.522   5.200  0.0227 -0.0326  1.1948
 1019SOL    HW214694   1.021   1.661   5.231  1.2055  0.4287 -1.3155
 1020SOL     OW14695   2.996   3.949   7.883  0.7977 -0.4048 -0.6894
 1020SOL    HW114696   2.942   4.024   7.858 -1.1280 -1.3188  0.6121
 1020SOL    HW214697   3.080   3.986   7.856 -0.4773  0.0168 -4.0748
 1021SOL     OW14698   1.844   3.636   7.461 -0.2744  0.1349 -0.0707
 1021SOL    HW114699   1.903   3.709   7.448 -1.9054  1.2847 -1.1056
 1021SOL    HW214700   1.830   3.608   7.370 -2.0356  0.0202  0.2287
 1022SOL     OW14701   0.497   0.232  12.574 -0.1668  0.2134 -0.3686
 1022SOL    HW114702   0.550   0.310  12.587 -1.2736  0.7796  0.7544
 1022SOL    HW214703   0.543   0.169  12.629  0.1696  1.4218  0.6977
 1023SOL     OW14704   2.271   3.105   1.822  0.2367 -0.7107 -0.4658
 1023SOL    HW114705   2.338   3.037   1.818  1.0931  0.2482 -2.6445
 1023SOL    HW214706   2.218   3.089   1.744 -2.2611 -3.9837  1.9089
 1024SOL     OW14707   0.793   3.328   6.042  0.1539  0.1204 -0.1204
 1024SOL    HW114708   0.773   3.272   6.117  0.9038 -1.0593 -0.8181
 1024SOL    HW214709   0.863   3.277   6.001 -1.0598 -1.2715 -0.4569
 1025SOL     OW14710   0.060   2.562   5.079  0.4778  0.1900 -0.1336
 1025SOL    HW114711   0.097   2.502   5.014 -1.6791 -0.9186 -0.3735
 1025SOL    HW214712   0.001   2.503   5.126 -0.3774  0.1916 -1.1994
 1026SOL     OW14713   3.839   1.672   3.008 -0.1991  0.0920 -0.2366
 1026SOL    HW114714   3.884   1.746   3.049  0.3162 -1.4753  1.9809
 1026SOL    HW214715   3.810   1.694   2.919  2.8015  0.1666 -1.2203
 1027SOL     OW14716   1.313   0.808   2.219  0.1410 -0.0536 -0.2802
 1027SOL    HW114717   1.273   0.740   2.273  0.5559  0.2132  0.3595
 1027SOL    HW214718   1.257   0.804   2.141  0.2463 -0.0400 -0.3561
 1028SOL     OW14719   4.204   1.110   5.743  0.0160  0.0973 -0.9076
 1028SOL    HW114720   4.118   1.150   5.754  0.1448  0.5777 -1.6264
 1028SOL    HW214721   4.205   1.094   5.648 -1.1486 -1.2501 -0.6906
 1029SOL     OW14722   1.665   1.559   5.454 -0.2635 -0.4522  0.3937
 1029SOL    HW114723   1.605   1.490   5.428 -0.2186  0.0240 -0.9934
 1029SOL    HW214724   1.610   1.636   5.441  2.4183  1.6523  1.4215
 1030SOL     OW14725   3.489   3.731   0.037  0.1304 -0.0697  0.6045
 1030SOL    HW114726   3.563   3.706   0.091 -0.0677 -0.9778  0.4687
 1030SOL    HW214727   3.534   3.724  17.703  3.0112 -0.7587  2.2041
 1031SOL     OW14728   3.520   4.048  10.760  0.6511 -0.4195  0.0334
 1031SOL    HW114729   3.567   4.073  10.840  1.3938  1.7259 -1.0694
 1031SOL    HW214730   3.591   3.994  10.726  2.9105  1.2870  2.0224
 1032SOL     OW14731   4.163   1.467   9.367  0.5816 -0.1211 -0.0793
 1032SOL    HW114732   4.235   1.524   9.340 -0.4542  0.5206 -1.4950
 1032SOL    HW214733   4.095   1.534   9.379  2.1894  1.5274 -0.2053
 1033SOL     OW14734   2.476   3.668   4.209  0.1726  0.2373 -0.6674
 1033SOL    HW114735   2.423   3.661   4.289  1.5623 -0.8671  0.1782
 1033SOL    HW214736   2.411   3.654   4.140  0.1327  1.1338 -0.8071
 1034SOL     OW14737   3.680   0.597   3.395  0.4624 -0.0359  0.1766
 1034SOL    HW114738   3.652   0.506   3.394  1.4070 -0.3243 -0.4777
 1034SOL    HW214739   3.755   0.574   3.450  1.2361 -2.7948 -1.9933
 1035SOL     OW14740   3.172   2.609  15.538 -0.0096  0.2708 -0.2410
 1035SOL    HW114741   3.082   2.591  15.511  0.0243 -2.4223  1.3692
 1035SOL    HW214742   3.194   2.676  15.474  0.7846 -1.5862 -1.8883
 1036SOL     OW14743   0.204   2.425   2.249  0.1973  0.0208 -0.3792
 1036SOL    HW114744   0.237   2.416   2.160 -0.4194  2.5029 -0.8457
 1036SOL    HW214745   0.112   2.441   2.227  0.7853  2.0831 -1.3544
 1037SOL     OW14746   0.467   3.078  11.219 -0.5925 -0.4079  0.7107
 1037SOL    HW114747   0.425   3.106  11.138  1.3079 -3.1013 -1.1841
 1037SOL    HW214748   0.467   2.983  11.206 -0.9227 -0.0507 -1.7951
 1038SOL     OW14749   4.381   2.729   7.044 -0.1128 -0.5291  0.4783
 1038SOL    HW114750   4.455   2.756   7.099  0.6769 -1.1219 -0.2731
 1038SOL    HW214751   4.424   2.669   6.982 -1.4891  1.1039 -2.0190
 1039SOL     OW14752   1.776   0.525   4.171  0.4646 -0.1661 -0.3641
 1039SOL    HW114753   1.778   0.617   4.146 -1.7173  0.2992  1.2339
 1039SOL    HW214754   1.694   0.526   4.220  0.4825  1.0507 -0.3760
 1040SOL     OW14755   2.455   1.899  13.353 -0.2939 -0.4276 -0.1614
 1040SOL    HW114756   2.501   1.839  13.412 -0.5465  0.2332  0.7224
 1040SOL    HW214757   2.418   1.959  13.419  0.0703 -0.1413 -0.2183
 1041SOL     OW14758   2.382   4.093   2.945  0.5129  0.2326  0.2407
 1041SOL    HW114759   2.368   4.160   2.878  2.2920 -0.4965 -0.8368
 1041SOL    HW214760   2.287   4.081   2.956  0.4562  0.8308  0.4198
 1042SOL     OW14761   0.237   2.218   2.442 -0.6165  0.1403  0.0960
 1042SOL    HW114762   0.216   2.285   2.376  0.1677  0.1518 -0.1423
 1042SOL    HW214763   0.317   2.258   2.476 -0.2169  1.4533 -2.4012
 1043SOL     OW14764   4.305   4.662   7.628 -0.6478  0.2751 -0.3344
 1043SOL    HW114765   4.399   4.647   7.634 -1.0218 -2.1425 -0.5353
 1043SOL    HW214766   4.269   4.574   7.638  1.2840 -0.5179 -0.3899
 1044SOL     OW14767   2.640   3.700   3.087  0.2666  0.2395 -0.3266
 1044SOL    HW114768   2.734   3.693   3.103  0.5282  1.4027 -1.3449
 1044SOL    HW214769   2.608   3.612   3.069  3.0986 -0.9191  0.3718
 1045SOL     OW14770   0.762   2.297   4.067 -0.3502  0.5316 -0.1068
 1045SOL    HW114771   0.772   2.370   4.005  0.0203  0.2356 -0.3978
 1045SOL    HW214772   0.697   2.334   4.126 -1.1277  1.1724 -1.3766
 1046SOL     OW14773   2.144   4.370   5.361  0.0004  0.0457 -0.9844
 1046SOL    HW114774   2.178   4.429   5.294  0.7523  1.9962  1.1194
 1046SOL    HW214775   2.223   4.323   5.387  0.3725  1.2349  0.0141
 1047SOL     OW14776   2.480   4.218   7.831 -0.1982  0.3142  0.4487
 1047SOL    HW114777   2.536   4.185   7.761 -3.4399  0.5739 -2.2552
 1047SOL    HW214778   2.517   4.306   7.838  0.2452  0.0152  1.8270
 1048SOL     OW14779   2.401   3.273   5.413  0.2519  0.4242 -0.8346
 1048SOL    HW114780   2.460   3.226   5.471  0.1339  2.0437  0.5967
 1048SOL    HW214781   2.426   3.365   5.425  0.7550 -0.2368  2.9825
 1049SOL     OW14782   0.259   2.715   8.341 -0.2727  0.3930 -0.0230
 1049SOL    HW114783   0.178   2.694   8.387 -0.1495 -0.1775 -0.0711
 1049SOL    HW214784   0.280   2.796   8.387 -2.3476  2.4422 -2.6314
 1050SOL     OW14785   1.613   2.823   3.738 -0.7115 -0.1634  0.9475
 1050SOL    HW114786   1.575   2.782   3.815 -3.0481 -0.4752 -0.3559
 1050SOL    HW214787   1.540   2.839   3.678 -0.6308 -0.3381  0.8015
 1051SOL     OW14788   2.664   3.276   8.775 -0.0274 -0.0151  0.3866
 1051SOL    HW114789   2.746   3.279   8.725  1.1307  0.5807  2.3018
 1051SOL    HW214790   2.607   3.215   8.728  0.2375 -1.0168  1.3490
 1052SOL     OW14791   4.726   1.832   6.186  0.3167 -0.4445  0.1631
 1052SOL    HW114792   4.666   1.832   6.260  2.2653  0.9901  1.7531
 1052SOL    HW214793   0.062   1.777   6.213 -0.7775 -1.7541  0.4884
 1053SOL     OW14794   4.496   2.211   6.810  0.4467  0.3267  0.0541
 1053SOL    HW114795   4.542   2.208   6.894  0.8163  1.3126 -0.1214
 1053SOL    HW214796   4.530   2.291   6.770 -0.6949  0.8668  0.1577
 1054SOL     OW14797   4.057   0.231  11.864 -0.1771  0.2005 -0.3411
 1054SOL    HW114798   4.085   0.226  11.772  0.3883  1.1644 -0.2233
 1054SOL    HW214799   3.971   0.192  11.847  0.8892 -1.6942 -1.3490
 1055SOL     OW14800   0.561   4.542   5.771  0.2072  0.3317  0.1214
 1055SOL    HW114801   0.556   4.456   5.813 -0.4926 -0.1364 -0.9057
 1055SOL    HW214802   0.487   4.596   5.797  0.3639  0.1265  0.9773
 1056SOL     OW14803   3.077   2.419   8.631 -0.1931 -0.1209 -0.6890
 1056SOL    HW114804   3.127   2.499   8.613 -0.8732  0.7245  1.2646
 1056SOL    HW214805   3.017   2.404   8.558 -2.0771  3.0697  0.1963
 1057SOL     OW14806   3.596   1.756   5.178 -0.2205  0.2165  0.6224
 1057SOL    HW114807   3.564   1.682   5.126  3.5388 -1.8266  1.2263
 1057SOL    HW214808   3.669   1.708   5.217 -0.3197 -0.3234  0.1413
 1058SOL     OW14809   2.621   3.702  10.564  0.0477 -0.4810  0.2273
 1058SOL    HW114810   2.578   3.762  10.625  2.1083 -0.3751  1.5605
 1058SOL    HW214811   2.713   3.711  10.589  0.6485 -1.5732 -1.6384
 1059SOL     OW14812   0.802   4.129   7.010 -0.4935  0.4507  0.3794
 1059SOL    HW114813   0.824   4.172   6.927 -1.4853 -0.1878 -0.2274
 1059SOL    HW214814   0.892   4.126   7.041  0.5142 -0.1097 -2.5204
 1060SOL     OW14815   0.529   2.089   1.334  0.3527  0.0973 -0.9355
 1060SOL    HW114816   0.488   2.011   1.296  1.3577 -0.9322  0.1093
 1060SOL    HW214817   0.575   2.118   1.256 -0.4931 -1.1422 -1.9052
 1061SOL     OW14818   4.109   4.216  10.470  0.1064 -0.3126 -0.2483
 1061SOL    HW114819   4.181   4.252  10.417 -1.6133  1.0631 -1.6434
 1061SOL    HW214820   4.141   4.214  10.560  0.8267  0.5471 -0.4827
 1062SOL     OW14821   4.231   4.460   9.533 -0.7242 -0.0687 -0.3688
 1062SOL    HW114822   4.176   4.537   9.542  1.3819  1.5175 -0.9867
 1062SOL    HW214823   4.174   4.383   9.524 -0.1278 -0.8092  2.0581
 1063SOL     OW14824   4.013   2.476   7.724 -0.0168  0.2624 -0.0511
 1063SOL    HW114825   4.089   2.424   7.698  0.3386  0.7541  0.0188
 1063SOL    HW214826   3.950   2.436   7.664 -1.0100 -0.1557  1.2544
 1064SOL     OW14827   2.860   2.058   7.154 -0.1039  0.1597 -0.1539
 1064SOL    HW114828   2.808   2.122   7.107 -1.9063 -0.9488  0.3090
 1064SOL    HW214829   2.835   2.066   7.247  0.4265  1.9615 -0.1724
 1065SOL     OW14830   3.772   4.213   5.237 -0.7850 -0.3357  0.2079
 1065SOL    HW114831   3.817   4.246   5.315  3.7058 -0.9061 -2.1127
 1065SOL    HW214832   3.681   4.234   5.256 -0.6876  2.9289 -2.8132
 1066SOL     OW14833   2.124   2.668   4.242 -0.6904  0.0122  0.2978
 1066SOL    HW114834   2.106   2.729   4.314 -1.0819 -1.8707  1.7962
 1066SOL    HW214835   2.177   2.723   4.184 -0.6854 -0.4941 -0.1784
 1067SOL     OW14836   2.578   1.514   5.398  0.0238  0.0127  0.6526
 1067SOL    HW114837   2.525   1.475   5.468  0.1971 -0.6800  0.3986
 1067SOL    HW214838   2.535   1.469   5.325 -1.9566 -0.3011  2.0209
 1068SOL     OW14839   2.074   3.115   1.639 -0.1125 -0.0779  0.3159
 1068SOL    HW114840   2.002   3.174   1.662  2.0632  1.9048  1.9838
 1068SOL    HW214841   2.086   3.121   1.545 -0.6953  0.0263  0.2464
 1069SOL     OW14842   2.916   4.162   2.081 -0.1297 -0.3407  0.4433
 1069SOL    HW114843   2.841   4.107   2.102 -1.6681  1.2133 -0.9900
 1069SOL    HW214844   2.985   4.115   2.129 -0.5051 -0.4023  0.9159
 1070SOL     OW14845   0.769   0.680  12.424 -0.0353  0.4879  0.0289
 1070SOL    HW114846   0.693   0.722  12.385 -0.7655 -0.7161  0.1767
 1070SOL    HW214847   0.832   0.706  12.356 -1.2750  1.0841 -0.9040
 1071SOL     OW14848   3.519   4.173  12.384 -0.3760 -0.2344 -0.0966
 1071SOL    HW114849   3.423   4.178  12.378 -0.3924  0.2682  0.6262
 1071SOL    HW214850   3.545   4.220  12.305  0.6856 -2.0001 -0.7900
 1072SOL     OW14851   4.598   0.540   2.922  0.0935  0.0088 -0.1772
 1072SOL    HW114852   4.615   0.579   3.007 -3.3804  1.7119 -0.2545
 1072SOL    HW214853   4.561   0.453   2.934  0.7536 -0.7456 -3.4360
 1073SOL     OW14854   1.332   0.655   4.472 -0.0186 -0.5569 -0.1159
 1073SOL    HW114855   1.337   0.734   4.526  3.1618 -0.8438  0.0164
 1073SOL    HW214856   1.425   0.647   4.452  0.5017  0.0049  2.0216
 1074SOL     OW14857   4.188   1.983  14.443  0.1767  0.0139  0.7912
 1074SOL    HW114858   4.198   1.961  14.536 -0.4995 -3.0917  0.1145
 1074SOL    HW214859   4.098   2.016  14.445  0.0491 -0.2665 -0.1226
 1075SOL     OW14860   1.632   1.545   9.048 -0.1247  0.8867  0.2431
 1075SOL    HW114861   1.615   1.521   8.956  0.0479  0.8452  0.2220
 1075SOL    HW214862   1.596   1.634   9.045  1.9596  1.6729 -2.3341
 1076SOL     OW14863   1.221   2.221   8.323 -0.4823  0.2234 -0.5040
 1076SOL    HW114864   1.157   2.151   8.319  0.3503 -0.6007  0.6040
 1076SOL    HW214865   1.192   2.293   8.267 -0.0873  1.1205  0.4291
 1077SOL     OW14866   0.184   0.569   8.007 -0.1701  0.2476 -0.1584
 1077SOL    HW114867   0.232   0.490   7.981 -1.6264 -0.4546 -0.7100
 1077SOL    HW214868   0.254   0.633   7.995  0.6402 -0.9061 -1.6354
 1078SOL     OW14869   2.642   3.970   5.447 -0.0383  0.0858 -0.5405
 1078SOL    HW114870   2.591   3.915   5.508  0.5955  0.5738  0.4275
 1078SOL    HW214871   2.717   3.916   5.423  0.8064  0.6523  0.8450
 1079SOL     OW14872   0.827   4.167   9.598 -0.1367 -0.0880 -0.3162
 1079SOL    HW114873   0.736   4.190   9.583 -0.3286 -0.0370  0.9585
 1079SOL    HW214874   0.845   4.096   9.535  2.9104 -1.3853  1.9808
 1080SOL     OW14875   2.934   3.073   4.987 -0.0090  0.0701 -0.4349
 1080SOL    HW114876   2.986   3.057   5.066  2.1867  1.3264 -1.6089
 1080SOL    HW214877   2.993   3.125   4.932 -0.3465 -0.0309 -0.8937
 1081SOL     OW14878   0.233   2.392   3.961 -0.2934 -0.0041  0.0294
 1081SOL    HW114879   0.263   2.480   3.984  0.8203 -0.0932 -1.1051
 1081SOL    HW214880   0.232   2.395   3.865 -1.4274 -1.6339 -0.0023
 1082SOL     OW14881   1.000   4.460  16.842 -0.7355  0.1615  0.1253
 1082SOL    HW114882   1.077   4.408  16.866  0.1242  0.9504 -0.8881
 1082SOL    HW214883   1.000   4.527  16.910 -1.9197 -0.6912  0.9686
 1083SOL     OW14884   3.152   0.812   9.925  0.0741 -0.5265 -0.1007
 1083SOL    HW114885   3.184   0.847   9.842  2.6573  0.5386  1.3311
 1083SOL    HW214886   3.066   0.855   9.920  0.5897  0.4735 -0.4911
 1084SOL     OW14887   0.660   1.032   6.120  0.7729 -0.0172  0.1171
 1084SOL    HW114888   0.671   1.126   6.134  0.0208  0.0082  0.5443
 1084SOL    HW214889   0.573   1.021   6.157  0.2498  1.9485 -0.5366
 1085SOL     OW14890   0.902   3.733   8.490 -0.1740 -0.0039  0.5861
 1085SOL    HW114891   0.809   3.739   8.468  0.0506  0.7087 -0.1550
 1085SOL    HW214892   0.891   3.755   8.583 -1.2311 -2.1448  0.9783
 1086SOL     OW14893   1.127   2.936   7.401  0.3251  0.0237  0.3767
 1086SOL    HW114894   1.189   2.949   7.472  2.0530  0.3603 -1.2022
 1086SOL    HW214895   1.178   2.895   7.331  0.1498 -1.3207  1.0335
 1087SOL     OW14896   3.529   4.734   1.719  0.5383 -0.1168  0.4315
 1087SOL    HW114897   3.571   0.047   1.787 -0.9262 -0.2237  1.4201
 1087SOL    HW214898   3.438   4.736   1.749  0.7974 -2.0677  1.3434
 1088SOL     OW14899   4.091   2.709  10.873 -0.2470 -0.2164  0.4651
 1088SOL    HW114900   4.048   2.626  10.895 -0.4055 -0.2203  0.1507
 1088SOL    HW214901   4.035   2.772  10.920  0.3064 -0.9203  2.0631
 1089SOL     OW14902   2.061   3.738   3.098 -0.5438 -0.7183 -0.0897
 1089SOL    HW114903   2.136   3.796   3.107 -0.8809  0.2822 -4.0544
 1089SOL    HW214904   2.090   3.649   3.117  1.2283  0.0771  0.9217
 1090SOL     OW14905   0.739   4.482   8.635  0.0066  0.2050 -0.6164
 1090SOL    HW114906   0.798   4.451   8.567 -0.3639 -4.2680  1.0849
 1090SOL    HW214907   0.796   4.553   8.665 -0.8480  0.5534  0.1674
 1091SOL     OW14908   0.705   4.532   7.183 -0.3705 -0.9997  0.5245
 1091SOL    HW114909   0.727   4.504   7.094  2.6038 -0.0317  0.9633
 1091SOL    HW214910   0.643   4.461   7.202 -1.6808 -0.2328 -0.9213
 1092SOL     OW14911   3.682   3.093   7.481 -0.0408  0.1871 -0.2173
 1092SOL    HW114912   3.681   3.039   7.403 -0.0630 -0.1160 -0.0073
 1092SOL    HW214913   3.627   3.047   7.545  1.5913  1.4865  2.1397
 1093SOL     OW14914   4.504   4.256   7.824 -0.2165  0.4670 -0.0254
 1093SOL    HW114915   4.554   4.263   7.905 -1.3723 -0.0250  0.7169
 1093SOL    HW214916   4.481   4.348   7.811  1.4462  0.7613 -0.9691
 1094SOL     OW14917   3.182   4.107   8.401 -0.3379 -0.2777 -0.1682
 1094SOL    HW114918   3.182   4.202   8.387 -2.6632  0.0555  2.0920
 1094SOL    HW214919   3.221   4.082   8.317  2.2474 -0.9675  1.2406
 1095SOL     OW14920   1.156   1.457   4.539 -0.1000 -0.0537 -0.0691
 1095SOL    HW114921   1.111   1.539   4.557 -1.4553 -0.0489 -3.4925
 1095SOL    HW214922   1.142   1.455   4.445 -0.4311 -0.4516 -0.0108
 1096SOL     OW14923   0.305   3.069   4.143  0.2730 -0.1397 -0.6629
 1096SOL    HW114924   0.342   3.037   4.225 -1.3446  0.0732  0.1557
 1096SOL    HW214925   0.226   3.114   4.173  0.7208  0.6924 -0.7348
 1097SOL     OW14926   2.770   3.799   8.395 -0.0719 -0.3727  0.3714
 1097SOL    HW114927   2.680   3.831   8.404  0.0834 -0.0783  0.8706
 1097SOL    HW214928   2.787   3.811   8.301  0.5283 -0.4131  0.4800
 1098SOL     OW14929   0.574   2.324  10.816  0.1108 -0.0904  0.0188
 1098SOL    HW114930   0.537   2.412  10.808 -2.3734 -1.0051  1.6669
 1098SOL    HW214931   0.501   2.263  10.822  0.0969  0.0652  1.5529
 1099SOL     OW14932   0.138   3.233   6.710 -0.4299  0.0521  0.4617
 1099SOL    HW114933   0.159   3.248   6.802 -0.2553 -1.9341  0.7466
 1099SOL    HW214934   0.098   3.318   6.693 -0.9597  0.0238  1.5748
 1100SOL     OW14935   2.146   4.485   6.696 -0.2824  0.0579  0.1014
 1100SOL    HW114936   2.139   4.465   6.790  2.9309 -0.3121  0.2610
 1100SOL    HW214937   2.123   4.402   6.653  0.0910  1.1964 -2.2856
 1101SOL     OW14938   3.833   1.405   9.237  0.0733 -0.1731  0.4392
 1101SOL    HW114939   3.777   1.327   9.237 -0.8372  0.4709 -1.2387
 1101SOL    HW214940   3.916   1.363   9.216 -1.5825 -3.6906  0.8029
 1102SOL     OW14941   1.759   3.350   3.549 -0.3162 -0.1981 -0.3026
 1102SOL    HW114942   1.789   3.439   3.567 -2.2684  0.4553 -0.2706
 1102SOL    HW214943   1.804   3.314   3.472  0.4935  3.7448 -1.6840
 1103SOL     OW14944   4.601   4.629  16.152 -0.1176 -0.0213  0.4025
 1103SOL    HW114945   4.666   4.697  16.138  0.0798 -0.4463 -0.7393
 1103SOL    HW214946   4.544   4.648  16.077 -0.2039 -0.6753  0.3022
 1104SOL     OW14947   1.587   3.088   3.147  0.1502  0.0567 -0.3002
 1104SOL    HW114948   1.540   3.022   3.197 -0.9883  0.8839 -0.2839
 1104SOL    HW214949   1.660   3.038   3.109 -0.1786 -1.8199  1.5188
 1105SOL     OW14950   3.849   2.095  10.959 -0.4489 -0.2334  0.1398
 1105SOL    HW114951   3.876   2.186  10.949  1.2312 -0.6846  0.6928
 1105SOL    HW214952   3.922   2.059  11.008 -0.9631 -1.2193  0.1799
 1106SOL     OW14953   3.691   1.201   4.381  0.3064  0.1249  0.1372
 1106SOL    HW114954   3.711   1.252   4.302  0.2969  1.9048  1.2863
 1106SOL    HW214955   3.624   1.259   4.415 -0.7327 -1.7351  1.2513
 1107SOL     OW14956   4.710   3.764   4.085  0.0251 -0.4844  0.1597
 1107SOL    HW114957   4.716   3.729   3.996 -1.1336 -2.2349  0.7904
 1107SOL    HW214958   4.679   3.855   4.079  0.7881 -0.2936 -0.9394
 1108SOL     OW14959   4.672   1.655  13.277 -0.1604  0.1482 -0.0608
 1108SOL    HW114960   4.729   1.723  13.243 -0.0261  0.6763  1.2206
 1108SOL    HW214961   4.632   1.693  13.355 -1.5910 -0.2954 -0.5677
 1109SOL     OW14962   3.557   4.064   5.822  0.2323  0.1065  0.5272
 1109SOL    HW114963   3.512   3.980   5.812  0.3926  0.5770 -4.0366
 1109SOL    HW214964   3.514   4.101   5.899  0.7909  1.9693 -0.0529
 1110SOL     OW14965   2.246   4.441   7.170 -0.5113 -0.2076 -0.1251
 1110SOL    HW114966   2.325   4.471   7.214 -0.5108 -0.4602  0.0471
 1110SOL    HW214967   2.186   4.417   7.241  0.5379  0.4175  0.9543
 1111SOL     OW14968   1.120   3.101   1.027  0.4883  0.0838 -0.2028
 1111SOL    HW114969   1.080   3.185   1.048 -0.3842 -0.5414  0.6405
 1111SOL    HW214970   1.198   3.136   0.985  1.2001 -0.7674  0.3877
 1112SOL     OW14971   1.348   1.850   0.335 -1.0585  0.0602 -0.9156
 1112SOL    HW114972   1.408   1.818   0.267  0.8535  1.1451  0.2426
 1112SOL    HW214973   1.300   1.908   0.278 -0.1025  1.7385 -0.0159
 1113SOL     OW14974   0.784   1.983  13.527  0.1569  0.3338 -0.0974
 1113SOL    HW114975   0.811   2.072  13.552  2.2357 -0.6148  1.0706
 1113SOL    HW214976   0.853   1.918  13.541  0.3409  0.3112 -1.1227
 1114SOL     OW14977   4.185   0.906   3.542  0.0961 -0.4104  0.3949
 1114SOL    HW114978   4.220   0.818   3.555  0.8218 -0.7062 -3.6303
 1114SOL    HW214979   4.111   0.888   3.483  1.0357 -0.4690 -0.7554
 1115SOL     OW14980   1.258   0.952   7.070 -0.6478 -0.0972 -0.6656
 1115SOL    HW114981   1.190   0.996   7.020 -0.8624  1.4391  0.9699
 1115SOL    HW214982   1.336   0.988   7.029  1.3368 -2.2436  1.1511
 1116SOL     OW14983   1.213   2.214  17.627 -0.0282 -0.1903  0.0202
 1116SOL    HW114984   1.153   2.218  17.552  2.6566  0.5196 -2.0745
 1116SOL    HW214985   1.159   2.238  17.703  2.1118 -0.8165  1.7252
 1117SOL     OW14986   3.733   2.208  17.741 -0.0039 -0.1308  0.6862
 1117SOL    HW114987   3.706   2.117   0.002  1.0361 -0.7105 -1.5253
 1117SOL    HW214988   3.778   2.204  17.656  3.6155 -0.8991  2.6359
 1118SOL     OW14989   1.119   4.193   2.176  0.0043  0.7384 -0.4504
 1118SOL    HW114990   1.144   4.135   2.104  0.5798 -1.6014  1.5995
 1118SOL    HW214991   1.184   4.261   2.158  0.6540  0.3721  0.5019
 1119SOL     OW14992   2.559   0.271   2.919 -0.0374  0.1939  0.8621
 1119SOL    HW114993   2.535   0.304   3.006 -0.1694  1.4350  0.3666
 1119SOL    HW214994   2.648   0.306   2.927 -0.3227  1.2157 -0.3433
 1120SOL     OW14995   1.012   2.813   1.819 -0.2429 -0.2445  0.1837
 1120SOL    HW114996   1.014   2.878   1.749  0.6900 -0.3220  0.1377
 1120SOL    HW214997   1.106   2.813   1.836 -0.1626 -0.1448 -0.2495
 1121SOL     OW14998   2.229   1.075   1.479  0.5448  0.3784 -0.3784
 1121SOL    HW114999   2.234   0.981   1.499 -0.1517  0.2882 -0.6147
 1121SOL    HW215000   2.138   1.080   1.451 -0.3722 -1.0972  2.3412
 1122SOL     OW15001   1.010   2.679  14.515 -0.2898 -0.0497  0.1373
 1122SOL    HW115002   1.001   2.600  14.569  2.1615 -0.5944 -0.2574
 1122SOL    HW215003   1.087   2.712  14.561 -0.2826 -2.1548  1.6393
 1123SOL     OW15004   1.476   1.766   9.061  0.1527 -0.6770 -0.2593
 1123SOL    HW115005   1.399   1.815   9.032  0.6112 -0.1045 -0.5299
 1123SOL    HW215006   1.461   1.758   9.155 -1.3849  1.0384 -0.3545
 1124SOL     OW15007   4.324   0.425   6.348  0.0894  0.0905  0.3379
 1124SOL    HW115008   4.331   0.363   6.421 -0.8717 -1.0531 -0.5432
 1124SOL    HW215009   4.310   0.377   6.266  0.8510  0.8378 -0.2227
 1125SOL     OW15010   4.419   2.894  12.884  0.7587  0.0086 -0.0048
 1125SOL    HW115011   4.379   2.980  12.893  0.3101 -0.3434  1.3401
 1125SOL    HW215012   4.389   2.838  12.956  0.7068 -0.2823 -0.2494
 1126SOL     OW15013   3.034   2.960   8.743  0.0571 -0.0356  0.2443
 1126SOL    HW115014   2.967   2.931   8.682  0.5357 -1.0975  0.2210
 1126SOL    HW215015   3.097   2.887   8.745 -0.8036 -0.8327 -1.7127
 1127SOL     OW15016   0.884   4.047   9.949  0.4616  0.1025  0.2118
 1127SOL    HW115017   0.901   4.052   9.855  0.4640 -2.2027  0.0826
 1127SOL    HW215018   0.965   4.024   9.994  0.7596  2.1647  0.6910
 1128SOL     OW15019   4.046   4.163   0.726 -0.0149 -0.4656  0.5717
 1128SOL    HW115020   3.974   4.150   0.788 -0.8871  0.3293 -0.2851
 1128SOL    HW215021   3.994   4.214   0.664 -0.6802 -2.8421 -0.8214
 1129SOL     OW15022   0.114   1.173  12.547  0.1783 -0.0605 -0.0459
 1129SOL    HW115023   0.025   1.187  12.580  0.3851  0.5953  0.2240
 1129SOL    HW215024   0.132   1.084  12.576 -1.7320 -0.2708  0.5171
 1130SOL     OW15025   0.071   1.204  17.332  0.2474 -0.1243 -0.6599
 1130SOL    HW115026   0.139   1.149  17.371 -1.8998 -1.8516  0.6257
 1130SOL    HW215027   0.094   1.193  17.240 -1.5116  0.3275 -1.1623
 1131SOL     OW15028   1.079   4.666   4.880 -0.1452  0.4683 -0.4111
 1131SOL    HW115029   1.016   0.001   4.884 -1.9422 -0.9961 -1.9753
 1131SOL    HW215030   1.047   4.627   4.799  1.0175 -1.3221  0.0073
 1132SOL     OW15031   0.853   3.992  10.238 -0.3374  0.3063  0.3772
 1132SOL    HW115032   0.878   4.001  10.146  0.9746 -0.7127  0.6357
 1132SOL    HW215033   0.797   3.915  10.238 -0.1740  0.1862  0.6230
 1133SOL     OW15034   3.899   2.004   1.211  0.0485  0.4398  0.1761
 1133SOL    HW115035   3.927   1.925   1.165 -2.9680 -0.9686  0.7817
 1133SOL    HW215036   3.983   2.039   1.243 -0.6681 -0.0384  2.5791
 1134SOL     OW15037   3.983   2.764   1.059 -0.7102  0.5558  0.5450
 1134SOL    HW115038   3.985   2.678   1.018 -1.9887 -0.3000  2.2720
 1134SOL    HW215039   3.967   2.743   1.150 -1.7069  0.0307  0.2534
 1135SOL     OW15040   4.429   1.759   0.821 -0.1637 -0.4555 -0.2235
 1135SOL    HW115041   4.407   1.852   0.827  3.5839  0.5228 -1.9635
 1135SOL    HW215042   4.404   1.722   0.906  0.1553  1.0907  0.5413
 1136SOL     OW15043   0.111   3.687  16.645  0.2572  0.0152  0.8821
 1136SOL    HW115044   0.187   3.633  16.671  1.0005  0.4332 -0.4074
 1136SOL    HW215045   0.098   3.644  16.560 -0.2299  0.9091  0.5010
 1137SOL     OW15046   4.586   3.781   6.523  0.4173 -0.9284  0.0852
 1137SOL    HW115047   4.593   3.696   6.480 -1.1595 -0.2979 -1.4137
 1137SOL    HW215048   4.494   3.776   6.551  0.6670  1.4395  1.3436
 1138SOL     OW15049   4.362   4.600   5.648 -0.0269 -0.1997 -0.8131
 1138SOL    HW115050   4.296   4.571   5.710  0.5984 -0.0585 -0.0767
 1138SOL    HW215051   4.409   4.518   5.632  0.3628 -0.1984  0.3374
 1139SOL     OW15052   3.619   2.062  13.008  0.5457 -0.2511 -0.6191
 1139SOL    HW115053   3.713   2.075  12.992  0.3295  3.0712  0.7151
 1139SOL    HW215054   3.597   2.042  12.917  1.7174  2.4256 -1.5113
 1140SOL     OW15055   2.310   4.251   5.593 -0.2054 -0.1627  0.3755
 1140SOL    HW115056   2.319   4.269   5.686 -0.1165 -0.9196  0.5143
 1140SOL    HW215057   2.235   4.192   5.601  0.7573 -1.6562 -1.3205
 1141SOL     OW15058   2.541   0.063   8.123  0.8375 -0.2051 -0.2432
 1141SOL    HW115059   2.522   0.143   8.073 -0.8557 -0.1576  0.4631
 1141SOL    HW215060   2.594   0.110   8.188 -0.1725  3.0988 -1.7709
 1142SOL     OW15061   2.796   3.734   3.945 -0.8777 -0.0562  0.2189
 1142SOL    HW115062   2.801   3.829   3.939  2.4225 -0.2160  0.5415
 1142SOL    HW215063   2.764   3.730   4.035  0.4041  2.0146  0.7591
 1143SOL     OW15064   4.540   1.521   4.172 -0.1624 -0.0149  0.5180
 1143SOL    HW115065   4.491   1.591   4.128  0.3981 -0.1312 -0.2904
 1143SOL    HW215066   4.626   1.562   4.174  0.3178 -1.0565  0.9917
 1144SOL     OW15067   2.671   3.035   2.789  0.1444 -0.0965 -0.4241
 1144SOL    HW115068   2.605   2.972   2.817 -1.4718  1.7173 -0.1026
 1144SOL    HW215069   2.622   3.109   2.753  1.1955  0.5199 -0.5768
 1145SOL     OW15070   0.854   2.714   7.212  0.8718 -0.3099 -0.4101
 1145SOL    HW115071   0.859   2.737   7.305 -1.2725 -1.9622  0.1278
 1145SOL    HW215072   0.787   2.646   7.212  0.6638 -0.1062  0.2534
 1146SOL     OW15073   0.253   3.343  17.705  0.3328 -0.7155 -0.2217
 1146SOL    HW115074   0.333   3.334  17.653 -0.5412  0.6444 -1.8108
 1146SOL    HW215075   0.267   3.296   0.037  1.7277 -0.2195 -0.1797
 1147SOL     OW15076   4.545   4.467   3.404  0.1666  0.2878 -0.0386
 1147SOL    HW115077   4.595   4.417   3.340  0.1321 -0.5615  0.5872
 1147SOL    HW215078   4.610   4.482   3.473  1.1181 -0.2416 -0.8171
 1148SOL     OW15079   3.192   0.666   7.565 -0.0191  0.6571  0.7266
 1148SOL    HW115080   3.160   0.738   7.512  0.0982  0.6874  0.6965
 1148SOL    HW215081   3.253   0.624   7.505 -0.3082 -0.2054  1.0391
 1149SOL     OW15082   2.385   1.118   8.786 -0.1962  0.1561 -0.1745
 1149SOL    HW115083   2.323   1.082   8.849 -1.0603  0.5464 -0.8122
 1149SOL    HW215084   2.465   1.071   8.811 -1.5714 -2.2305 -0.2492
 1150SOL     OW15085   3.123   3.388  12.128 -0.1764 -0.3344  0.7479
 1150SOL    HW115086   3.172   3.428  12.055 -1.3798 -0.2037  0.0185
 1150SOL    HW215087   3.096   3.464  12.179 -1.3200  0.0095 -0.3774
 1151SOL     OW15088   4.692   3.483   0.562  0.2312  0.3455  0.0608
 1151SOL    HW115089   4.706   3.427   0.486 -0.1236 -1.0550  1.0072
 1151SOL    HW215090   4.705   3.416   0.630 -1.8818 -0.6936 -0.5475
 1152SOL     OW15091   3.191   3.950  14.748  0.2935 -0.0313  0.1034
 1152SOL    HW115092   3.161   3.868  14.708 -0.0172  0.4337 -0.6108
 1152SOL    HW215093   3.235   3.979  14.668  0.9924  0.3837  0.6350
 1153SOL     OW15094   1.977   0.195   5.748  0.0295 -0.5398 -0.3177
 1153SOL    HW115095   2.069   0.186   5.723 -0.1191  0.4363 -1.2080
 1153SOL    HW215096   1.971   0.270   5.808 -2.6754  0.1822 -1.5219
 1154SOL     OW15097   0.088   3.793   9.649 -0.0663 -0.5683  0.1115
 1154SOL    HW115098   0.167   3.750   9.682 -0.9702 -2.0468  0.3522
 1154SOL    HW215099   0.106   3.876   9.693  0.6498  0.3738 -1.9108
 1155SOL     OW15100   0.681   1.082   8.210 -0.0137  0.1193  0.7351
 1155SOL    HW115101   0.635   1.156   8.170 -2.6305 -2.3067 -0.7528
 1155SOL    HW215102   0.682   1.101   8.303 -1.1948  3.7979 -0.0025
 1156SOL     OW15103   3.201   2.151   0.129  0.2636 -0.0442  0.2458
 1156SOL    HW115104   3.147   2.208   0.183 -0.1178 -1.5424  1.4460
 1156SOL    HW215105   3.186   2.199   0.048  2.8081  1.6386  0.7476
 1157SOL     OW15106   1.794   3.252   3.225  0.2955  0.1899  0.0528
 1157SOL    HW115107   1.718   3.199   3.248  0.0098  1.6160  2.3620
 1157SOL    HW215108   1.804   3.240   3.131  0.0077  1.2423 -0.1095
 1158SOL     OW15109   0.771   3.205   2.331  0.1017 -0.2219  0.3833
 1158SOL    HW115110   0.739   3.290   2.360 -2.3968 -0.5266 -1.4426
 1158SOL    HW215111   0.750   3.216   2.238 -2.7289 -0.4609  0.9989
 1159SOL     OW15112   3.623   3.478   1.936 -0.0718 -0.5355  0.2374
 1159SOL    HW115113   3.599   3.430   2.015 -2.2308 -1.4392 -0.9583
 1159SOL    HW215114   3.678   3.419   1.884  0.0131  1.1519 -1.5807
 1160SOL     OW15115   2.686   4.241   6.887  0.6270  0.4373 -0.3833
 1160SOL    HW115116   2.653   4.198   6.966  1.3705 -0.8877 -0.7920
 1160SOL    HW215117   2.779   4.218   6.887 -0.4426 -3.8331 -0.2452
 1161SOL     OW15118   1.641   4.514   1.587 -0.1092 -0.7169 -0.6275
 1161SOL    HW115119   1.647   4.421   1.565 -1.3121 -0.9881  0.2024
 1161SOL    HW215120   1.583   4.552   1.521  0.6618  0.6361 -0.5457
 1162SOL     OW15121   2.830   2.963   7.739  0.1583  0.1464  0.5299
 1162SOL    HW115122   2.892   2.981   7.669 -0.7595 -1.2046 -0.6256
 1162SOL    HW215123   2.786   3.048   7.734 -1.1212 -0.7004 -2.6003
 1163SOL     OW15124   4.630   2.149   6.304 -0.1322 -0.2399 -0.3747
 1163SOL    HW115125   4.612   2.096   6.227 -0.3493 -0.2892 -0.2894
 1163SOL    HW215126   4.540   2.152   6.337 -0.3206  1.5724 -1.0413
 1164SOL     OW15127   3.168   3.011   6.281 -0.4155 -0.1564 -0.0262
 1164SOL    HW115128   3.117   3.068   6.223  2.3885  1.8157 -0.5881
 1164SOL    HW215129   3.243   2.986   6.228 -0.1109 -1.2581  0.9511
 1165SOL     OW15130   3.371   2.635  12.373  0.2654 -0.3691 -0.0316
 1165SOL    HW115131   3.353   2.551  12.332 -0.8436 -0.2469  0.2100
 1165SOL    HW215132   3.411   2.669  12.293 -1.0632 -0.6901 -0.8317
 1166SOL     OW15133   0.617   2.178   7.928  0.0427  0.1126 -0.3570
 1166SOL    HW115134   0.566   2.258   7.942  1.6282  0.8404  1.2492
 1166SOL    HW215135   0.619   2.161   7.834 -1.7289 -3.5983  0.2604
 1167SOL     OW15136   2.648   1.833   2.934  0.2467 -0.2902 -0.1467
 1167SOL    HW115137   2.569   1.801   2.978 -0.8558 -0.4367 -2.2232
 1167SOL    HW215138   2.603   1.866   2.857 -1.1640  0.1922  0.8784
 1168SOL     OW15139   1.576   2.787   6.645 -0.3170 -0.2725 -0.2822
 1168SOL    HW115140   1.657   2.780   6.696 -1.2537  1.0614  1.3830
 1168SOL    HW215141   1.538   2.701   6.666  0.0261 -0.1013  1.0294
 1169SOL     OW15142   1.096   1.072   1.364 -0.1839 -0.2225 -0.1513
 1169SOL    HW115143   1.185   1.108   1.365 -0.2802 -0.0043  0.6170
 1169SOL    HW215144   1.104   0.996   1.307 -0.6400 -0.7175  0.4396
 1170SOL     OW15145   2.180   4.646   0.735  0.4322  0.2467  0.2659
 1170SOL    HW115146   2.180   4.622   0.642  0.6009 -1.0797  0.6170
 1170SOL    HW215147   2.093   4.620   0.763 -0.1749  0.5854 -1.2988
 1171SOL     OW15148   4.189   2.536   8.205 -0.3537 -0.8031  0.9625
 1171SOL    HW115149   4.133   2.489   8.142 -0.2505  1.3705 -0.7440
 1171SOL    HW215150   4.264   2.478   8.218  0.8218  1.0398  2.2664
 1172SOL     OW15151   1.203   1.618   6.654  0.4789 -0.0136  0.5350
 1172SOL    HW115152   1.165   1.635   6.568 -1.2661 -0.5854  1.1986
 1172SOL    HW215153   1.294   1.634   6.632  0.2620 -2.2742 -1.9762
 1173SOL     OW15154   3.130   3.729   5.344 -0.5706  0.1553 -0.0222
 1173SOL    HW115155   3.189   3.697   5.275 -1.6360  0.8057 -1.2380
 1173SOL    HW215156   3.190   3.707   5.415 -0.9142  2.7289  1.0575
 1174SOL     OW15157   4.224   3.575  12.179 -0.1623 -0.3673  0.2622
 1174SOL    HW115158   4.316   3.600  12.187  0.0950 -1.6062  1.1559
 1174SOL    HW215159   4.181   3.649  12.222  0.4708  0.2783 -0.2111
 1175SOL     OW15160   0.860   2.181   8.341 -0.5763  0.0481  0.4207
 1175SOL    HW115161   0.884   2.254   8.284 -0.4065  1.9545  2.9213
 1175SOL    HW215162   0.933   2.121   8.328 -0.1975  0.6657 -0.3005
 1176SOL     OW15163   2.885   3.681   2.130  0.0523  0.3561 -0.2012
 1176SOL    HW115164   2.812   3.625   2.104 -1.7451  0.6476  4.1875
 1176SOL    HW215165   2.953   3.615   2.116 -0.2727 -0.4557  1.9750
 1177SOL     OW15166   1.866   1.848   4.460 -0.0194  0.0633  0.2102
 1177SOL    HW115167   1.924   1.773   4.453  0.9596  0.9415 -0.9004
 1177SOL    HW215168   1.790   1.817   4.411 -0.1737 -0.3897  0.7270
 1178SOL     OW15169   3.175   1.826   1.878 -0.0834  0.0413 -0.4894
 1178SOL    HW115170   3.090   1.868   1.888  0.1287  0.1706  0.8343
 1178SOL    HW215171   3.174   1.774   1.959  2.5431  1.4236  0.4399
 1179SOL     OW15172   2.733   2.253   4.031  0.2500 -0.0352  0.4089
 1179SOL    HW115173   2.640   2.275   4.028 -0.1663 -2.3166 -2.3085
 1179SOL    HW215174   2.779   2.317   4.086  0.7977 -1.0634  1.1380
 1180SOL     OW15175   0.435   2.351   2.577  0.1476  0.2401 -0.1130
 1180SOL    HW115176   0.450   2.445   2.586 -2.9089  0.8539 -1.5863
 1180SOL    HW215177   0.427   2.314   2.665  1.7376  1.2043  0.4417
 1181SOL     OW15178   3.007   1.572   6.834  0.1038 -0.6732  0.1773
 1181SOL    HW115179   2.937   1.575   6.899  1.4462 -1.5650  1.6500
 1181SOL    HW215180   3.081   1.603   6.885 -0.1461  0.9426 -0.4519
 1182SOL     OW15181   2.154   3.770  10.439 -0.1910 -0.0412 -0.1663
 1182SOL    HW115182   2.130   3.691  10.391 -1.4530  0.3036 -0.1134
 1182SOL    HW215183   2.184   3.819  10.363 -0.2330  1.8674  1.0488
 1183SOL     OW15184   2.628   0.304  16.180 -0.5029 -0.0867  0.2694
 1183SOL    HW115185   2.606   0.213  16.197 -0.5238 -0.4507 -1.6564
 1183SOL    HW215186   2.664   0.296  16.092 -1.8093 -1.3512 -0.1553
 1184SOL     OW15187   1.695   0.407   2.742 -0.1196 -0.1273 -0.1441
 1184SOL    HW115188   1.725   0.467   2.811 -1.5679 -1.8290  1.9427
 1184SOL    HW215189   1.602   0.417   2.763 -0.7303 -1.8975 -1.9389
 1185SOL     OW15190   0.280   2.045   1.644  0.6155 -0.0330 -0.0967
 1185SOL    HW115191   0.320   1.986   1.581 -0.6988  2.5944 -3.3911
 1185SOL    HW215192   0.198   2.002   1.668  0.9705  1.1214  3.1169
 1186SOL     OW15193   3.383   4.317  12.784  0.0932 -0.7844  0.2474
 1186SOL    HW115194   3.356   4.370  12.859 -1.0812 -0.6864 -0.2456
 1186SOL    HW215195   3.456   4.370  12.752 -1.1386 -0.1201 -1.4286
 1187SOL     OW15196   1.397   3.810  12.797  0.6575 -0.1491  0.1654
 1187SOL    HW115197   1.405   3.825  12.891 -2.7417  2.2036  0.0753
 1187SOL    HW215198   1.443   3.728  12.779 -1.0374 -0.9801 -0.4010
 1188SOL     OW15199   0.372   3.241   2.973  0.2614  0.0300 -0.5355
 1188SOL    HW115200   0.457   3.278   2.950  0.4381  0.0927  0.2149
 1188SOL    HW215201   0.320   3.322   2.973  0.9524  0.4771 -0.1365
 1189SOL     OW15202   2.796   0.419   2.891  0.2723  0.1924 -0.2717
 1189SOL    HW115203   2.856   0.376   2.951  0.8942 -0.9844 -1.7261
 1189SOL    HW215204   2.815   0.511   2.903 -2.4232  0.7676 -0.3303
 1190SOL     OW15205   3.787   0.247  16.485  0.3019 -0.2601  0.1958
 1190SOL    HW115206   3.795   0.203  16.569 -1.0492 -2.4933 -0.8608
 1190SOL    HW215207   3.876   0.230  16.454 -0.1079  0.4631 -1.4103
 1191SOL     OW15208   3.548   3.346   4.605 -0.4001 -0.1514 -0.4795
 1191SOL    HW115209   3.455   3.332   4.588 -0.3595 -0.5212 -0.4100
 1191SOL    HW215210   3.572   3.280   4.671 -0.1006  1.6417  1.2009
 1192SOL     OW15211   1.266   0.417   5.326 -0.0456 -0.0045  0.6594
 1192SOL    HW115212   1.264   0.512   5.335 -1.2057 -0.1029  1.3615
 1192SOL    HW215213   1.359   0.415   5.351  0.5442  1.2412 -1.3749
 1193SOL     OW15214   3.497   1.564   5.015 -0.5549 -0.1619  0.1752
 1193SOL    HW115215   3.458   1.640   4.971 -0.8382  0.1583  0.9898
 1193SOL    HW215216   3.527   1.519   4.936  1.1435  0.2186  0.6023
 1194SOL     OW15217   4.676   3.575   8.887  0.1481  0.1693 -0.1000
 1194SOL    HW115218   4.683   3.617   8.973  1.5923  0.6781 -0.4638
 1194SOL    HW215219   4.629   3.496   8.912  0.2234  0.0966 -0.1862
 1195SOL     OW15220   1.729   0.855  13.160  0.2788  0.4673  0.4179
 1195SOL    HW115221   1.637   0.858  13.134  0.3820 -1.9403 -0.2633
 1195SOL    HW215222   1.736   0.760  13.152  0.0183  0.5950 -1.2740
 1196SOL     OW15223   4.662   2.203  16.787 -0.1365 -0.0521 -0.4945
 1196SOL    HW115224   4.689   2.130  16.731  0.0598 -0.1764 -0.2352
 1196SOL    HW215225   4.568   2.206  16.768 -0.0533  0.6452 -0.8078
 1197SOL     OW15226   0.597   0.591  11.502  0.3265  0.1151  0.1462
 1197SOL    HW115227   0.606   0.681  11.471  0.3697  0.3289  0.7807
 1197SOL    HW215228   0.675   0.546  11.470  0.8428  0.7948  0.4453
 1198SOL     OW15229   3.566   2.929   7.704  0.3789 -0.0416  0.1005
 1198SOL    HW115230   3.566   2.836   7.726  1.6685 -0.5039 -1.8791
 1198SOL    HW215231   3.563   2.955   7.796 -0.3110  1.0582 -0.2378
 1199SOL     OW15232   2.100   4.170  15.340  0.0306  0.0318 -0.1683
 1199SOL    HW115233   2.129   4.210  15.258 -1.5441 -0.8682 -1.1606
 1199SOL    HW215234   2.101   4.246  15.398 -1.9758  0.5380 -0.7983
 1200SOL     OW15235   3.416   1.472  14.027  0.4270 -0.8223  0.2606
 1200SOL    HW115236   3.395   1.442  13.938 -1.3271  2.2473 -0.3831
 1200SOL    HW215237   3.479   1.539  14.000  0.8825 -0.4635  2.2380
 1201SOL     OW15238   1.949   3.185   7.944 -0.6273  0.1518 -0.4880
 1201SOL    HW115239   1.983   3.139   8.021  1.2022  0.9473 -0.8286
 1201SOL    HW215240   1.958   3.121   7.873 -0.7035 -0.2150 -0.1698
 1202SOL     OW15241   1.964   2.898   5.294  0.0351 -0.0250 -0.4367
 1202SOL    HW115242   2.004   2.965   5.349  3.5757 -2.9833  0.6033
 1202SOL    HW215243   1.882   2.864   5.331  0.4982 -1.3171 -0.5912
 1203SOL     OW15244   0.913   1.466   4.220  0.7027 -0.1770  0.5162
 1203SOL    HW115245   0.859   1.495   4.147  0.5787  1.2420  1.1735
 1203SOL    HW215246   1.002   1.473   4.184 -0.5076  0.6517 -2.2796
 1204SOL     OW15247   4.714   3.602  16.840 -0.6391  0.4191 -0.0229
 1204SOL    HW115248   0.012   3.619  16.754 -0.7920 -3.9155 -0.9788
 1204SOL    HW215249   4.656   3.678  16.851 -0.6336  0.2255  1.3251
 1205SOL     OW15250   3.856   3.483   0.097  0.1962  0.0724  0.4721
 1205SOL    HW115251   3.794   3.552   0.118 -0.3173  0.0465 -0.9513
 1205SOL    HW215252   3.830   3.414   0.159 -0.9633 -0.1146 -0.2166
 1206SOL     OW15253   3.886   0.981   8.524 -0.0681  0.2800 -0.2042
 1206SOL    HW115254   3.918   1.023   8.604 -1.4474  2.4694 -0.7933
 1206SOL    HW215255   3.945   0.907   8.514 -0.9088 -0.2229 -1.4428
 1207SOL     OW15256   4.076   3.356  17.713  0.0320 -0.2840  0.2772
 1207SOL    HW115257   4.017   3.282  17.697 -0.4708  0.0766  0.4757
 1207SOL    HW215258   4.009   3.412   0.001  0.4126  0.0003  0.5328
 1208SOL     OW15259   0.875   4.045   4.227  0.0678  0.0770 -0.3665
 1208SOL    HW115260   0.920   4.124   4.196  1.5541 -0.5129  0.3027
 1208SOL    HW215261   0.910   4.037   4.316  2.2609 -0.0174 -1.2495
 1209SOL     OW15262   4.014   4.381  10.720  0.7862  0.2243  0.4354
 1209SOL    HW115263   3.962   4.404  10.797 -1.1255 -0.0255 -0.8010
 1209SOL    HW215264   4.042   4.468  10.693 -1.4506  1.0746  0.8427
 1210SOL     OW15265   1.132   1.995   5.726  0.0462 -0.7588 -0.1297
 1210SOL    HW115266   1.089   2.069   5.684 -0.2968 -0.3329  0.9769
 1210SOL    HW215267   1.205   1.994   5.663  2.0592  0.1844  2.1762
 1211SOL     OW15268   0.741   2.603   5.836  0.2781 -0.7012  0.0513
 1211SOL    HW115269   0.834   2.577   5.835  0.7326  0.8925  0.5708
 1211SOL    HW215270   0.741   2.655   5.756 -2.9663 -1.6185 -0.5116
 1212SOL     OW15271   4.580   3.137   2.296 -0.3859  0.1074  0.5129
 1212SOL    HW115272   4.673   3.132   2.271  0.1144  0.3155  2.3638
 1212SOL    HW215273   4.564   3.056   2.345 -3.8745  0.9483  0.7672
 1213SOL     OW15274   1.386   3.405   7.350 -0.2736  0.0396  0.2693
 1213SOL    HW115275   1.432   3.321   7.342 -0.4000  0.3202 -3.4492
 1213SOL    HW215276   1.399   3.422   7.443 -1.5337  1.1054  0.2466
 1214SOL     OW15277   0.984   0.645   9.513 -0.3664  0.5757 -0.0330
 1214SOL    HW115278   0.946   0.680   9.594 -0.2410  2.7118 -0.9061
 1214SOL    HW215279   0.961   0.553   9.528  2.6060 -0.2955 -0.9310
 1215SOL     OW15280   3.146   2.764  12.427  0.1128  0.3627  0.2170
 1215SOL    HW115281   3.239   2.741  12.416 -0.5357 -2.4689  0.7419
 1215SOL    HW215282   3.111   2.723  12.348 -1.1869  0.3350  0.8092
 1216SOL     OW15283   0.622   3.454   4.509 -0.3005 -0.5771  0.7271
 1216SOL    HW115284   0.591   3.367   4.531 -2.3826  0.2637  1.1685
 1216SOL    HW215285   0.640   3.485   4.598 -3.3738 -0.7933  1.4252
 1217SOL     OW15286   0.876   4.125   3.762  0.2617  0.1522  0.4947
 1217SOL    HW115287   0.887   4.068   3.686 -1.4709  0.6107 -0.0762
 1217SOL    HW215288   0.905   4.063   3.830  0.3294  0.4609  0.7482
 1218SOL     OW15289   4.348   3.091  11.107 -0.2081  0.1587  0.2518
 1218SOL    HW115290   4.300   3.168  11.138 -0.6985  0.7751 -2.0701
 1218SOL    HW215291   4.383   3.058  11.190  0.4306 -0.6334 -0.3257
 1219SOL     OW15292   0.447   2.055  12.445  0.6304 -0.1255 -0.2719
 1219SOL    HW115293   0.475   2.109  12.518  0.5330  0.9817 -1.0565
 1219SOL    HW215294   0.417   2.125  12.386 -1.1858  0.8931  1.8724
 1220SOL     OW15295   1.650   4.486   3.617  0.3351 -0.6497 -0.6068
 1220SOL    HW115296   1.632   4.552   3.684 -1.4509 -3.2533  1.4613
 1220SOL    HW215297   1.745   4.492   3.601 -0.0740  0.8522 -2.5171
 1221SOL     OW15298   4.446   4.293   6.842  0.6488  0.4042 -0.2167
 1221SOL    HW115299   4.447   4.362   6.908 -2.7054  0.7747 -0.5694
 1221SOL    HW215300   4.362   4.320   6.804  0.4918  1.2006  0.6895
 1222SOL     OW15301   0.991   0.896   3.938  0.4026 -0.1128 -0.0154
 1222SOL    HW115302   0.918   0.835   3.925  0.1861  0.2845 -0.6579
 1222SOL    HW215303   0.935   0.960   3.983  1.7004  0.0004  1.4710
 1223SOL     OW15304   0.264   3.602   7.747  0.2409 -0.8439  0.4373
 1223SOL    HW115305   0.212   3.626   7.670 -0.2238 -0.3216  0.9231
 1223SOL    HW215306   0.353   3.619   7.715 -0.7780  1.8608 -0.9369
 1224SOL     OW15307   1.360   0.042   7.317 -0.2108  0.0111  0.2524
 1224SOL    HW115308   1.419   0.079   7.252 -0.3295  2.0291  1.3034
 1224SOL    HW215309   1.346   0.111   7.382 -0.9312  1.9845 -2.0036
 1225SOL     OW15310   0.082   3.441   7.999  0.2110  0.0544 -0.7610
 1225SOL    HW115311   0.003   3.424   8.051  1.3558 -0.5096  0.7863
 1225SOL    HW215312   0.043   3.485   7.924  0.0105  0.2935 -0.5213
 1226SOL     OW15313   3.035   4.007   3.618 -0.2846 -0.1545  0.3221
 1226SOL    HW115314   2.983   3.927   3.608  1.6505 -1.4970  1.1434
 1226SOL    HW215315   3.007   4.044   3.534 -2.1941 -2.4359 -0.0521
 1227SOL     OW15316   3.325   4.371  13.588 -0.0532 -0.0390  0.1775
 1227SOL    HW115317   3.281   4.444  13.633  0.1105 -0.3430  0.8382
 1227SOL    HW215318   3.266   4.361  13.513  3.0679  0.7024 -2.3530
 1228SOL     OW15319   4.525   2.671  12.357  0.0953 -0.5014 -0.0819
 1228SOL    HW115320   4.433   2.649  12.342  0.0059 -1.3830  1.7235
 1228SOL    HW215321   4.564   2.592  12.319  2.1418 -1.1021  3.2827
 1229SOL     OW15322   1.042   0.056   8.447 -1.1633  0.1360  0.0491
 1229SOL    HW115323   1.112   0.041   8.511 -0.1164  1.5733 -0.7239
 1229SOL    HW215324   1.061   4.730   8.379  1.1748  0.3100  0.5182
 1230SOL     OW15325   4.525   1.611   6.520  0.3824  0.6021 -0.5354
 1230SOL    HW115326   4.440   1.587   6.558  1.5853 -0.0221  1.8032
 1230SOL    HW215327   4.573   1.569   6.592 -0.4286 -0.1353 -0.4243
 1231SOL     OW15328   2.610   2.663   4.972  0.5468 -0.5313  0.5902
 1231SOL    HW115329   2.609   2.571   4.946  0.0583  0.0042 -1.3158
 1231SOL    HW215330   2.696   2.696   4.946 -0.0738 -0.4318 -1.3246
 1232SOL     OW15331   2.145   0.180   9.684  0.0244  0.0015  0.2974
 1232SOL    HW115332   2.123   0.141   9.769  1.0110 -0.4990  0.3121
 1232SOL    HW215333   2.230   0.216   9.708 -0.0574 -0.2747  1.0048
 1233SOL     OW15334   4.010   4.614   9.483 -0.6779  0.5044  0.5753
 1233SOL    HW115335   3.922   4.598   9.516 -0.5592 -3.1538 -0.8157
 1233SOL    HW215336   4.003   4.581   9.393 -0.8429 -0.4443  0.9343
 1234SOL     OW15337   1.506   0.395  15.744  0.5525 -0.6058  0.0888
 1234SOL    HW115338   1.544   0.332  15.682 -0.9038 -1.3629 -0.0349
 1234SOL    HW215339   1.425   0.355  15.777 -0.2680  0.1336 -1.0213
 1235SOL     OW15340   0.272   2.291   4.232 -0.1298  0.3532  0.4815
 1235SOL    HW115341   0.203   2.326   4.288  1.2246 -0.9502  2.9555
 1235SOL    HW215342   0.243   2.331   4.149  0.7361  0.9280  0.4494
 1236SOL     OW15343   1.937   3.559  13.823  0.1376  0.4211 -0.2005
 1236SOL    HW115344   1.858   3.613  13.831 -0.3318 -0.1476 -0.9954
 1236SOL    HW215345   1.954   3.528  13.912 -1.3358  2.0985  0.6781
 1237SOL     OW15346   1.649   3.541  13.527 -0.6202 -0.5108  0.1467
 1237SOL    HW115347   1.635   3.611  13.591  2.3482 -0.6662  0.9540
 1237SOL    HW215348   1.701   3.482  13.580  0.9160 -1.5154 -2.4607
 1238SOL     OW15349   1.308   2.362   6.289 -0.1962  0.6793  0.1805
 1238SOL    HW115350   1.361   2.425   6.339 -0.7681  2.0234 -0.9007
 1238SOL    HW215351   1.375   2.322   6.234  1.7213  1.3370  2.0085
 1239SOL     OW15352   3.808   3.426   3.732 -0.2553  0.1890  0.4410
 1239SOL    HW115353   3.713   3.422   3.721  0.1668 -0.7689 -2.9648
 1239SOL    HW215354   3.822   3.344   3.685  0.5499  1.2762 -1.2140
 1240SOL     OW15355   1.284   4.615   1.891 -0.0239 -0.5446  0.2316
 1240SOL    HW115356   1.226   4.539   1.881  0.5834 -0.9863  0.0385
 1240SOL    HW215357   1.294   4.638   1.799  0.4740  0.2908  0.4949
 1241SOL     OW15358   3.481   0.689   3.203 -0.2646  0.4552  0.8040
 1241SOL    HW115359   3.477   0.640   3.121  2.0366  2.8497 -0.7091
 1241SOL    HW215360   3.556   0.651   3.248  0.3993  0.3361 -0.4077
 1242SOL     OW15361   2.638   1.620  15.191  0.3501  0.3813 -0.4372
 1242SOL    HW115362   2.705   1.557  15.218  0.3641  0.0140 -1.3447
 1242SOL    HW215363   2.612   1.648  15.279  0.6601 -3.4888  0.9072
 1243SOL     OW15364   2.508   1.857   3.447  0.4569  0.2240  0.6799
 1243SOL    HW115365   2.493   1.810   3.529  0.5577 -1.8333 -0.4678
 1243SOL    HW215366   2.439   1.924   3.450 -0.6916 -0.9728  0.8567
 1244SOL     OW15367   1.347   4.733  17.276 -0.3135  0.2462  0.3726
 1244SOL    HW115368   1.440   0.015  17.281 -1.0772  3.7541  0.1744
 1244SOL    HW215369   1.317   0.037  17.357  0.2730  2.9666 -0.8472
 1245SOL     OW15370   1.466   3.540   6.818  0.1068 -0.1372 -0.4495
 1245SOL    HW115371   1.489   3.633   6.809  1.7758 -0.8009 -2.9514
 1245SOL    HW215372   1.541   3.502   6.863  1.6955  3.3701 -0.1367
 1246SOL     OW15373   3.049   3.153   0.738 -0.1639  0.2820 -0.4013
 1246SOL    HW115374   3.143   3.166   0.729  0.3617 -1.5382  2.3076
 1246SOL    HW215375   3.043   3.229   0.796  2.5913 -0.2303  0.5406
 1247SOL     OW15376   2.363   1.453  17.282 -0.0418  0.3277  0.2943
 1247SOL    HW115377   2.454   1.454  17.312 -0.4531  2.8575  1.3991
 1247SOL    HW215378   2.322   1.482  17.363  0.3016 -0.2842  0.6932
 1248SOL     OW15379   3.929   1.033   8.793 -0.4049 -0.2549  0.0503
 1248SOL    HW115380   3.994   0.988   8.847 -0.1978 -0.5146 -0.4162
 1248SOL    HW215381   3.860   1.067   8.851 -2.2454 -0.4174 -2.0701
 1249SOL     OW15382   3.757   0.080   8.112  0.4978  0.7793 -0.2445
 1249SOL    HW115383   3.744   4.734   8.069  0.6171  0.0590  1.1425
 1249SOL    HW215384   3.684   0.085   8.174 -0.4801  0.0007 -1.3344
 1250SOL     OW15385   1.746   0.071  12.677 -0.2099  0.0412  0.2562
 1250SOL    HW115386   1.825   0.091  12.728  0.3162 -2.1599  0.2954
 1250SOL    HW215387   1.767   4.725  12.637  0.1743  0.7964 -1.1232
 1251SOL     OW15388   3.510   2.098   5.367 -0.3639  0.0382 -0.2964
 1251SOL    HW115389   3.449   2.171   5.380 -0.3327  0.0065  0.0175
 1251SOL    HW215390   3.455   2.024   5.341  0.0748 -1.2049  2.3346
 1252SOL     OW15391   2.792   1.718  14.423  0.1452  0.1899  0.4503
 1252SOL    HW115392   2.854   1.770  14.371 -0.3862  0.1798 -0.1856
 1252SOL    HW215393   2.720   1.729  14.361  2.0895  2.3996 -1.4227
 1253SOL     OW15394   1.539   1.984   7.143  0.1839 -0.6516  0.0572
 1253SOL    HW115395   1.630   1.969   7.169  0.3169  1.0277  0.5670
 1253SOL    HW215396   1.530   1.925   7.069 -0.4233  0.5045 -0.8026
 1254SOL     OW15397   1.485   2.902   1.194  0.1693 -0.0908 -0.5266
 1254SOL    HW115398   1.464   2.929   1.284  1.1740 -2.6690  0.4614
 1254SOL    HW215399   1.432   2.822   1.193 -1.2338  0.8525 -3.0413
 1255SOL     OW15400   0.510   4.024   5.072  0.2967  0.2363  0.3919
 1255SOL    HW115401   0.550   4.065   5.148 -0.9123  0.0889  1.0968
 1255SOL    HW215402   0.460   4.101   5.047 -0.9786 -1.3838 -2.0075
 1256SOL     OW15403   1.105   4.588   7.949  0.3029  0.0741  0.3088
 1256SOL    HW115404   1.156   4.600   7.868 -2.8371  0.5157 -1.5994
 1256SOL    HW215405   1.025   4.545   7.919 -0.5231  0.7247  1.6036
 1257SOL     OW15406   4.207   2.415   1.136 -0.4303 -0.7575 -0.2828
 1257SOL    HW115407   4.201   2.435   1.229 -1.5116 -2.4844  0.0149
 1257SOL    HW215408   4.139   2.467   1.093  1.2920  1.1203 -0.7178
 1258SOL     OW15409   4.042   0.950   9.136  0.1940  0.6094  0.0080
 1258SOL    HW115410   4.027   0.860   9.165 -3.2835  0.7565 -1.3241
 1258SOL    HW215411   4.094   0.943   9.056  0.1812  0.3820  0.0180
 1259SOL     OW15412   2.398   1.789   2.381 -0.2350  0.6226  0.8098
 1259SOL    HW115413   2.482   1.745   2.365 -1.9922 -2.0279 -0.9349
 1259SOL    HW215414   2.342   1.737   2.324  0.0436  0.6102  0.5412
 1260SOL     OW15415   3.956   2.165  16.600  0.0418  0.3614  0.0265
 1260SOL    HW115416   3.909   2.248  16.609 -0.6840  0.2175 -2.5250
 1260SOL    HW215417   3.887   2.103  16.624 -0.2665  1.6860  2.5928
 1261SOL     OW15418   3.068   3.289  11.742 -0.1882 -0.4965  0.1669
 1261SOL    HW115419   3.045   3.244  11.661  1.1278 -1.1630  0.1598
 1261SOL    HW215420   3.058   3.380  11.714 -0.4678 -0.0974  1.5709
 1262SOL     OW15421   3.755   4.578   7.427 -0.8010 -0.5479  0.1883
 1262SOL    HW115422   3.807   4.656   7.407 -0.1214 -1.0755 -0.0834
 1262SOL    HW215423   3.693   4.582   7.354  0.4010 -0.2353 -0.8137
 1263SOL     OW15424   3.150   3.392   7.348  0.3181 -0.2594 -0.0081
 1263SOL    HW115425   3.137   3.442   7.429  0.7698 -3.8396  2.2931
 1263SOL    HW215426   3.236   3.353   7.362  0.3087  0.4162  1.9922
 1264SOL     OW15427   1.911   0.168   9.572 -0.3481  0.2226  0.2700
 1264SOL    HW115428   1.995   0.171   9.617  0.5420 -2.1254 -1.2466
 1264SOL    HW215429   1.922   0.097   9.508 -0.4728  0.4977 -0.0543
 1265SOL     OW15430   3.560   2.157   8.475  0.1547  0.4685  0.9208
 1265SOL    HW115431   3.513   2.179   8.555  1.0384  0.0856  1.5356
 1265SOL    HW215432   3.631   2.109   8.515 -0.7473 -1.9119 -0.3578
 1266SOL     OW15433   3.806   2.380   1.983 -0.3313  0.3462 -0.4331
 1266SOL    HW115434   3.851   2.324   2.046  1.1715 -0.6285 -2.3873
 1266SOL    HW215435   3.783   2.441   2.053 -0.2437  1.1209 -1.0821
 1267SOL     OW15436   1.735   2.441   8.555 -0.2401 -0.0253 -0.8654
 1267SOL    HW115437   1.810   2.451   8.614 -0.5684 -2.2387 -0.0835
 1267SOL    HW215438   1.662   2.418   8.611 -0.5044 -1.0507 -1.6288
 1268SOL     OW15439   0.678   4.161  15.588 -0.1945 -0.4921 -0.1673
 1268SOL    HW115440   0.702   4.253  15.599  2.8013 -0.9913 -2.5020
 1268SOL    HW215441   0.596   4.154  15.637  0.0873 -2.5683  0.0081
 1269SOL     OW15442   2.351   1.372  16.658  0.1990  0.1912 -0.2409
 1269SOL    HW115443   2.284   1.424  16.615 -0.5151 -1.5604 -1.2369
 1269SOL    HW215444   2.413   1.340  16.593 -1.4536 -2.5421 -0.4801
 1270SOL     OW15445   0.069   0.525  13.286  0.1252  0.0467  0.2591
 1270SOL    HW115446   0.023   0.511  13.369  1.2276 -0.8020  0.7212
 1270SOL    HW215447   0.096   0.616  13.293 -0.2414  0.0622  1.4590
 1271SOL     OW15448   1.028   1.698   6.869 -0.1516  0.0647  0.4163
 1271SOL    HW115449   1.098   1.690   6.804 -2.7793  0.2912 -2.4102
 1271SOL    HW215450   1.042   1.614   6.913  1.2630 -0.8817 -1.8393
 1272SOL     OW15451   3.395   4.471   8.856 -0.7013 -0.1942 -0.4730
 1272SOL    HW115452   3.357   4.516   8.931 -1.0234 -0.3399 -0.5448
 1272SOL    HW215453   3.308   4.465   8.815 -1.5325 -0.6980  1.3603
 1273SOL     OW15454   2.251   2.532   2.786 -0.1977  0.5527  0.1848
 1273SOL    HW115455   2.318   2.466   2.767 -0.0455  1.2619 -1.8122
 1273SOL    HW215456   2.268   2.596   2.716 -0.8398 -0.4532 -0.8860
 1274SOL     OW15457   0.884   2.664   3.173 -0.1660  0.4261  0.6764
 1274SOL    HW115458   0.943   2.589   3.186 -0.9639 -0.3260 -0.0278
 1274SOL    HW215459   0.822   2.613   3.121  1.5466  0.1526 -1.0901
 1275SOL     OW15460   2.368   0.636  14.847 -0.9076  0.2484 -0.2915
 1275SOL    HW115461   2.320   0.634  14.929  1.7878  0.3620  1.3077
 1275SOL    HW215462   2.459   0.644  14.878 -2.2936  2.5937  3.1449
 1276SOL     OW15463   4.590   0.134   8.405 -0.1352  0.0955 -0.0214
 1276SOL    HW115464   4.667   0.187   8.425  1.3590 -1.8457 -0.6372
 1276SOL    HW215465   4.612   0.043   8.422  1.0332  0.4717  0.4622
 1277SOL     OW15466   2.564   1.226   8.253  0.0016 -0.0812 -0.3282
 1277SOL    HW115467   2.537   1.254   8.340  2.4348 -0.6569  0.6055
 1277SOL    HW215468   2.577   1.132   8.262 -0.6803 -0.3836 -2.4613
 1278SOL     OW15469   2.911   2.701   8.759  0.1023  0.5556  0.4822
 1278SOL    HW115470   2.823   2.680   8.788  0.0121 -1.7545 -1.4393
 1278SOL    HW215471   2.884   2.714   8.668 -1.2256  1.4883  1.0078
 1279SOL     OW15472   2.127   1.791   3.547  0.3843  0.0893  0.4882
 1279SOL    HW115473   2.174   1.720   3.503 -0.9753 -2.2936  2.8786
 1279SOL    HW215474   2.145   1.778   3.640 -0.8207  1.6844  0.9501
 1280SOL     OW15475   1.271   0.782  15.133  0.2158 -0.1779 -0.2964
 1280SOL    HW115476   1.177   0.787  15.114  0.5632  1.8738 -1.4250
 1280SOL    HW215477   1.287   0.816  15.222 -0.3763 -1.7680  0.4118
 1281SOL     OW15478   4.528   3.914   7.740  0.1429  0.4257  0.4771
 1281SOL    HW115479   4.454   3.970   7.761 -0.1740  0.3516 -0.4553
 1281SOL    HW215480   4.492   3.850   7.678  1.1404 -0.6529  1.0018
 1282SOL     OW15481   4.416   1.909  16.706 -0.2699 -0.1072 -0.2275
 1282SOL    HW115482   4.324   1.887  16.719 -0.3124 -0.3951 -0.9963
 1282SOL    HW215483   4.461   1.898  16.789  1.1361 -0.8054 -1.0864
 1283SOL     OW15484   3.654   0.161   6.708 -0.2220  0.0140  0.0579
 1283SOL    HW115485   3.624   0.075   6.680  0.7770  0.3323 -2.0086
 1283SOL    HW215486   3.737   0.139   6.750 -0.5777  1.9599  1.7602
 1284SOL     OW15487   3.226   3.064  15.040  0.3825  0.6380  0.3735
 1284SOL    HW115488   3.289   3.108  15.097  2.1451  0.6157 -1.5722
 1284SOL    HW215489   3.202   3.136  14.982  2.5953  2.4322  1.6970
 1285SOL     OW15490   2.710   0.681   6.656 -0.2317  0.3160 -0.2541
 1285SOL    HW115491   2.652   0.694   6.731  0.0258  1.8500 -0.3217
 1285SOL    HW215492   2.652   0.725   6.594 -1.3872  1.2250  1.4628
 1286SOL     OW15493   0.143   3.029   5.886  0.3016  0.0037  0.0072
 1286SOL    HW115494   0.127   3.092   5.815 -0.5244 -2.0120 -1.5795
 1286SOL    HW215495   0.203   2.967   5.845  1.3518  2.9470 -2.9752
 1287SOL     OW15496   1.256   1.319  14.423 -0.1882 -0.7647  0.0856
 1287SOL    HW115497   1.169   1.356  14.437  0.7451  0.5889  2.3083
 1287SOL    HW215498   1.287   1.368  14.347 -1.8230 -2.4497 -1.6752
 1288SOL     OW15499   2.247   1.812   2.008 -0.0748  0.5752  0.5731
 1288SOL    HW115500   2.264   1.733   2.060  1.1732 -0.3512 -1.2437
 1288SOL    HW215501   2.162   1.834   2.046  1.9601  3.5288  3.5002
 1289SOL     OW15502   3.577   3.302   2.177 -0.0968  0.5699  0.4326
 1289SOL    HW115503   3.578   3.208   2.159  0.3732  0.9830 -1.7510
 1289SOL    HW215504   3.610   3.301   2.267  0.4252  0.9703  0.2478
 1290SOL     OW15505   1.674   3.872   2.714 -0.7022 -0.8020 -0.4075
 1290SOL    HW115506   1.720   3.815   2.653 -1.7348 -1.4866 -0.5530
 1290SOL    HW215507   1.728   3.866   2.792 -2.7194 -1.7499  0.9138
 1291SOL     OW15508   0.291   0.828   3.741 -0.3251 -0.0570 -0.2333
 1291SOL    HW115509   0.235   0.899   3.771  0.3724 -0.4464  1.9563
 1291SOL    HW215510   0.253   0.756   3.790  0.2176 -0.8654 -0.9842
 1292SOL     OW15511   2.508   4.056   8.646 -0.3170  0.4706  0.3184
 1292SOL    HW115512   2.511   3.973   8.693  1.0176  0.1895 -0.2667
 1292SOL    HW215513   2.595   4.092   8.662 -0.1620 -0.2848  1.2140
 1293SOL     OW15514   1.756   3.975   5.047  0.0065  0.7232 -0.3817
 1293SOL    HW115515   1.772   3.949   5.138  0.0856 -1.4136 -0.9966
 1293SOL    HW215516   1.729   3.891   5.009 -0.5593  0.0554  1.5183
 1294SOL     OW15517   1.944   3.503  13.540  0.1315  0.5420 -0.2166
 1294SOL    HW115518   1.934   3.596  13.516  1.7467  0.4330 -1.3048
 1294SOL    HW215519   1.959   3.515  13.634  0.7966 -2.5408  0.0683
 1295SOL     OW15520   4.130   4.483   4.622 -0.2521 -0.1592  0.1104
 1295SOL    HW115521   4.159   4.412   4.678 -0.3755  0.7346  1.3055
 1295SOL    HW215522   4.091   4.539   4.689  1.5309 -1.0567  1.8748
 1296SOL     OW15523   2.112   0.415   9.316  0.0814 -0.2156  0.4635
 1296SOL    HW115524   2.173   0.357   9.361  0.1654 -0.3868  0.1302
 1296SOL    HW215525   2.084   0.472   9.388  2.2718  2.1908 -0.5500
 1297SOL     OW15526   3.040   2.041   0.384 -0.2619 -0.1662  0.0636
 1297SOL    HW115527   2.997   1.981   0.323 -0.0244  1.6284 -1.8793
 1297SOL    HW215528   3.015   2.130   0.360 -0.2146 -0.1025  0.2530
 1298SOL     OW15529   3.079   3.172   4.748  0.1828  0.1345 -0.1665
 1298SOL    HW115530   3.056   3.260   4.718  3.0308  0.6268 -0.8970
 1298SOL    HW215531   3.059   3.121   4.670  1.0502  1.2335 -1.1050
 1299SOL     OW15532   3.442   4.099   0.427  0.5526  0.1120  0.1671
 1299SOL    HW115533   3.519   4.054   0.393 -1.0859 -1.9596 -0.8515
 1299SOL    HW215534   3.428   4.038   0.500  2.9405  1.6940  1.9207
 1300SOL     OW15535   0.222   3.816   7.939 -0.4087  0.4106  0.4086
 1300SOL    HW115536   0.172   3.876   7.882 -1.9253 -0.0609  1.2397
 1300SOL    HW215537   0.199   3.739   7.887  0.3458 -0.0385  0.7521
 1301SOL     OW15538   0.860   1.503   2.762  0.0745 -0.6752 -0.4559
 1301SOL    HW115539   0.945   1.499   2.806  0.5734  0.8890 -1.2729
 1301SOL    HW215540   0.881   1.561   2.688 -0.0631 -0.0600 -0.0085
 1302SOL     OW15541   1.127   0.719   6.959 -0.2769 -0.2468 -0.2509
 1302SOL    HW115542   1.063   0.759   6.901  1.8412  1.6437 -1.3141
 1302SOL    HW215543   1.159   0.797   7.004 -0.1305 -0.3197 -0.2281
 1303SOL     OW15544   4.251   2.532   2.133 -0.1902 -0.1231  0.1432
 1303SOL    HW115545   4.239   2.494   2.220 -0.5127  1.4952  0.7885
 1303SOL    HW215546   4.246   2.457   2.073 -0.5579  1.7671 -2.2013
 1304SOL     OW15547   0.903   3.897   8.256  0.0749  0.5995  0.2757
 1304SOL    HW115548   0.930   3.843   8.331 -2.0079  0.3808  0.8501
 1304SOL    HW215549   0.931   3.982   8.290  2.1350 -0.0485  0.2031
 1305SOL     OW15550   4.518   4.604   0.841  0.0142  0.1299 -0.4578
 1305SOL    HW115551   4.523   4.526   0.785  1.0883  0.1144 -0.3426
 1305SOL    HW215552   4.551   4.679   0.791  0.3984  1.3154  1.5909
 1306SOL     OW15553   2.176   3.197   2.423 -0.0840  0.3082 -0.1454
 1306SOL    HW115554   2.199   3.136   2.352  2.1362  1.5160 -0.4750
 1306SOL    HW215555   2.146   3.267   2.366  0.0508  0.0546 -0.5330
 1307SOL     OW15556   1.042   0.357   2.653 -0.7644  0.5020 -0.0009
 1307SOL    HW115557   0.963   0.399   2.618 -0.8905 -0.5596 -0.9894
 1307SOL    HW215558   1.119   0.386   2.604  0.9059 -2.1265  1.1218
 1308SOL     OW15559   4.516   2.913   5.211 -0.0392 -0.7193 -0.1066
 1308SOL    HW115560   4.562   2.901   5.294  0.8608  0.6304 -0.4111
 1308SOL    HW215561   4.544   3.000   5.183 -2.8057  0.4693  0.7655
 1309SOL     OW15562   2.234   0.923   6.436  0.4259 -0.4681 -0.4416
 1309SOL    HW115563   2.235   0.897   6.528  2.7300 -0.1897 -0.3918
 1309SOL    HW215564   2.328   0.930   6.417  1.2028  1.3539  4.0023
 1310SOL     OW15565   1.716   0.938  16.486  0.0485  0.1211 -0.1888
 1310SOL    HW115566   1.727   1.018  16.436  0.7958 -0.3532 -0.7777
 1310SOL    HW215567   1.646   0.909  16.428 -0.7670  0.9714  0.3636
 1311SOL     OW15568   0.408   4.409  15.382  0.1509 -0.2657  0.0280
 1311SOL    HW115569   0.430   4.318  15.361 -1.5426 -0.7305  0.2383
 1311SOL    HW215570   0.319   4.417  15.348 -0.0280  0.6439  0.7117
 1312SOL     OW15571   4.702   2.262  15.674 -0.6510 -0.7360 -0.3534
 1312SOL    HW115572   4.661   2.217  15.600 -0.0513 -0.4294 -0.8748
 1312SOL    HW215573   0.049   2.277  15.633  0.7736 -0.2298  2.8056
 1313SOL     OW15574   4.109   3.894   2.470 -0.0294 -0.1017  0.0366
 1313SOL    HW115575   4.124   3.828   2.402  0.6232 -0.3238  0.3944
 1313SOL    HW215576   4.032   3.859   2.516 -0.2581  1.4411  0.8232
 1314SOL     OW15577   2.641   0.158   3.570  0.6450 -0.0762  0.7403
 1314SOL    HW115578   2.628   0.063   3.576  0.6868 -0.1227  0.1282
 1314SOL    HW215579   2.567   0.190   3.620  0.8222  3.5384 -1.3097
 1315SOL     OW15580   4.342   3.062   5.411  0.3670  0.2855  0.7050
 1315SOL    HW115581   4.364   3.004   5.483  0.1877 -1.3644 -0.5659
 1315SOL    HW215582   4.289   3.007   5.352  0.5500  0.8660 -0.0009
 1316SOL     OW15583   4.313   3.160  12.867  0.5321 -0.0765  0.2005
 1316SOL    HW115584   4.377   3.228  12.848  1.0057  0.1356  2.5927
 1316SOL    HW215585   4.272   3.140  12.783 -0.7597  1.9682  0.3279
 1317SOL     OW15586   0.073   2.204   0.632 -0.3225  0.2232 -0.3240
 1317SOL    HW115587   0.083   2.111   0.653 -0.9272  0.5957  1.6389
 1317SOL    HW215588   4.731   2.220   0.682 -1.1232 -1.9711 -0.9150
 1318SOL     OW15589   3.529   0.635   2.732  0.6501 -0.0190  0.9494
 1318SOL    HW115590   3.519   0.727   2.709 -2.1423 -1.0226 -1.7305
 1318SOL    HW215591   3.614   0.619   2.689 -0.8999  1.1146 -2.5085
 1319SOL     OW15592   0.802   1.159   8.865 -0.5069  0.3148  0.1652
 1319SOL    HW115593   0.850   1.078   8.846 -0.3656  0.4666 -0.1238
 1319SOL    HW215594   0.729   1.119   8.914 -1.5309 -0.2584 -1.7999
 1320SOL     OW15595   1.341   1.984  17.567 -0.3358  0.2905  0.1883
 1320SOL    HW115596   1.333   2.076  17.589  0.6115  0.7113 -1.2074
 1320SOL    HW215597   1.273   1.967  17.501  0.3533 -0.6101 -0.2960
 1321SOL     OW15598   3.566   2.077   4.522  0.7093 -0.5277  0.1685
 1321SOL    HW115599   3.607   2.135   4.586 -2.7672  0.6340  1.3445
 1321SOL    HW215600   3.477   2.111   4.529  0.1924 -2.2458  2.0891
 1322SOL     OW15601   2.465   2.867   7.951  0.2232 -0.7644 -0.2008
 1322SOL    HW115602   2.487   2.901   8.038  2.8680 -0.6250 -0.9418
 1322SOL    HW215603   2.399   2.798   7.963  0.0205 -0.3479  1.1141
 1323SOL     OW15604   0.872   0.578   2.040  0.0055  0.2298  0.0710
 1323SOL    HW115605   0.816   0.533   1.977  0.0876 -0.0832  0.2184
 1323SOL    HW215606   0.894   0.505   2.098  2.9305  1.1098  0.1036
 1324SOL     OW15607   0.938   3.529   3.710 -0.3643 -0.7755  0.8021
 1324SOL    HW115608   0.975   3.502   3.794  0.3623 -1.2379  0.3307
 1324SOL    HW215609   0.945   3.623   3.724 -1.9144 -0.4252 -0.7353
 1325SOL     OW15610   1.915   4.129   7.133  0.3445 -0.1388 -0.6515
 1325SOL    HW115611   1.887   4.171   7.052  1.2505 -1.2134 -1.5183
 1325SOL    HW215612   1.900   4.205   7.188 -0.3402 -1.8300  1.5240
 1326SOL     OW15613   2.154   2.553  15.712  0.7029  0.0042 -0.1846
 1326SOL    HW115614   2.146   2.468  15.756 -1.8897  0.4372  0.1829
 1326SOL    HW215615   2.249   2.546  15.698  1.1471  0.9076  2.3206
 1327SOL     OW15616   4.368   0.624   6.641  0.0842  0.2208 -0.0132
 1327SOL    HW115617   4.415   0.550   6.680 -0.8763 -0.3137  0.1462
 1327SOL    HW215618   4.433   0.691   6.662  0.1640  0.2107 -0.2376
 1328SOL     OW15619   4.285   2.293  14.933  0.0272  0.0040  0.5113
 1328SOL    HW115620   4.285   2.258  14.844  2.2468  0.1077  0.4734
 1328SOL    HW215621   4.365   2.345  14.934 -0.3048  0.5397 -0.1105
 1329SOL     OW15622   1.566   4.103   5.684 -0.1695 -0.1307  0.2053
 1329SOL    HW115623   1.553   4.117   5.590  0.5555 -0.3189  0.0773
 1329SOL    HW215624   1.656   4.071   5.676  0.2571  1.2959 -0.8003
 1330SOL     OW15625   3.530   1.263   8.973  0.4470 -0.6385  0.1123
 1330SOL    HW115626   3.439   1.288   8.992 -0.1359 -1.9326 -0.9915
 1330SOL    HW215627   3.568   1.243   9.058 -3.9868 -1.3071  1.9569
 1331SOL     OW15628   2.571   1.688   8.976 -0.3840 -1.1451  0.3330
 1331SOL    HW115629   2.518   1.674   8.898  2.3505 -0.5413 -1.6465
 1331SOL    HW215630   2.531   1.621   9.032  0.3037 -2.4053 -0.6797
 1332SOL     OW15631   4.236   3.031  14.779  0.6025  0.2221  0.1976
 1332SOL    HW115632   4.227   3.092  14.851 -3.6405  0.5436 -0.6064
 1332SOL    HW215633   4.170   2.964  14.797  0.5939  0.3099  0.4859
 1333SOL     OW15634   2.554   2.938   0.436 -0.4414 -0.1724 -0.0715
 1333SOL    HW115635   2.562   2.845   0.455  0.1679 -0.1882 -0.4064
 1333SOL    HW215636   2.587   2.936   0.346 -1.9735 -3.6281 -0.5592
 1334SOL     OW15637   3.777   2.746  14.691 -0.3627 -0.0662  0.1336
 1334SOL    HW115638   3.857   2.737  14.639 -1.0659 -2.6504 -0.5260
 1334SOL    HW215639   3.807   2.802  14.762 -1.2270  0.1024  0.3579
 1335SOL     OW15640   2.812   1.695   8.560 -0.5559  0.1142  0.2195
 1335SOL    HW115641   2.721   1.682   8.531  0.0611 -0.2213 -1.5657
 1335SOL    HW215642   2.829   1.782   8.523  1.9125 -0.6374 -0.4075
 1336SOL     OW15643   1.983   4.281   9.174  0.0440  0.5404  0.4315
 1336SOL    HW115644   1.945   4.288   9.086 -0.5974  0.4498  0.7052
 1336SOL    HW215645   2.002   4.188   9.182  0.9180  0.5699 -1.2817
 1337SOL     OW15646   2.934   0.332   0.111  0.5039 -0.0698 -0.6982
 1337SOL    HW115647   3.002   0.355   0.047  3.2059 -0.3274  2.1047
 1337SOL    HW215648   2.877   0.270   0.066 -1.1360  0.5721  0.4821
 1338SOL     OW15649   0.769   1.226   0.672 -0.3025  0.1955  0.3893
 1338SOL    HW115650   0.741   1.145   0.713  0.9691 -0.6171 -0.3551
 1338SOL    HW215651   0.699   1.283   0.702  2.8366  3.0200  2.3842
 1339SOL     OW15652   0.754   4.514  14.748 -0.0955  0.8200  0.4515
 1339SOL    HW115653   0.752   4.475  14.835  1.8080  0.3289  0.2773
 1339SOL    HW215654   0.780   4.445  14.687  0.3609  1.1943  0.2206
 1340SOL     OW15655   2.036   4.029   9.231 -0.2903 -0.1315  0.8780
 1340SOL    HW115656   2.090   4.063   9.303 -0.8363  1.6671  0.4347
 1340SOL    HW215657   2.081   3.949   9.203  0.2313  1.0279 -1.5493
 1341SOL     OW15658   2.917   0.819   3.726 -0.5340 -0.5236  0.4818
 1341SOL    HW115659   2.982   0.875   3.685 -1.2945 -0.0687 -0.1187
 1341SOL    HW215660   2.911   0.745   3.665  0.7526 -0.6139  0.4748
 1342SOL     OW15661   3.228   1.748   9.190  0.0559  0.7722 -0.1348
 1342SOL    HW115662   3.192   1.822   9.142  0.2071 -0.4908 -2.1939
 1342SOL    HW215663   3.179   1.737   9.271 -1.0770 -0.6696 -1.0109
 1343SOL     OW15664   3.307   3.697   5.529 -0.2623  0.3678 -0.1877
 1343SOL    HW115665   3.289   3.737   5.614 -0.8393  1.4836 -0.8315
 1343SOL    HW215666   3.400   3.675   5.532 -0.8025 -1.5253  2.4728
 1344SOL     OW15667   0.556   1.442  15.649  0.6746 -0.1820 -0.3411
 1344SOL    HW115668   0.593   1.386  15.717 -1.4520 -2.0098 -0.6764
 1344SOL    HW215669   0.628   1.480  15.599  0.0532 -1.5995 -2.3053
 1345SOL     OW15670   1.408   0.345  11.086 -0.8591  0.1051  0.0854
 1345SOL    HW115671   1.467   0.418  11.107  0.6899 -1.5220  1.3181
 1345SOL    HW215672   1.325   0.385  11.114 -0.5418  1.6596 -1.1824
 1346SOL     OW15673   1.235   1.979   7.626  0.1819  0.1971 -0.8302
 1346SOL    HW115674   1.289   1.951   7.700  1.0393 -0.0787 -1.5543
 1346SOL    HW215675   1.162   2.021   7.671  0.0907 -0.1579 -0.6524
 1347SOL     OW15676   4.228   0.736   4.613  0.7977  0.3946 -0.3846
 1347SOL    HW115677   4.274   0.819   4.627 -1.3640  1.9691 -2.7414
 1347SOL    HW215678   4.260   0.710   4.527  1.0935  0.3564 -0.2655
 1348SOL     OW15679   0.762   1.019  10.919  0.5324  0.6424 -0.3028
 1348SOL    HW115680   0.716   1.038  10.837 -0.7108 -2.1610 -0.2317
 1348SOL    HW215681   0.815   1.099  10.915  1.3159  0.2135  1.7214
 1349SOL     OW15682   2.485   1.612   5.950  0.4757  0.5261  0.6136
 1349SOL    HW115683   2.445   1.642   5.869 -0.3400  0.2670  0.9188
 1349SOL    HW215684   2.523   1.534   5.910 -0.2954  1.3913 -1.7891
 1350SOL     OW15685   1.925   3.164  17.346  0.2363 -0.2670  0.0141
 1350SOL    HW115686   1.889   3.152  17.259  1.1394  2.3392 -0.7415
 1350SOL    HW215687   2.016   3.186  17.326  0.7278  0.6785  3.1803
 1351SOL     OW15688   0.505   3.125   8.210 -0.5240 -0.1241  0.4786
 1351SOL    HW115689   0.517   3.194   8.145 -2.1998  0.4069  0.7258
 1351SOL    HW215690   0.587   3.134   8.259 -1.1914 -0.7314  1.7144
 1352SOL     OW15691   3.577   3.506  16.602  0.6143  0.6983  0.2038
 1352SOL    HW115692   3.608   3.596  16.593 -0.2137  1.1439  1.8946
 1352SOL    HW215693   3.550   3.499  16.693  1.8551  2.7699  0.7351
 1353SOL     OW15694   3.434   3.281   5.978 -0.4197  0.1321 -0.2121
 1353SOL    HW115695   3.441   3.360   6.032  0.3645  0.3812 -0.6780
 1353SOL    HW215696   3.407   3.309   5.890 -1.9518  0.1961  0.2915
 1354SOL     OW15697   3.699   2.570  12.731  0.1430 -0.3911 -0.4109
 1354SOL    HW115698   3.656   2.623  12.664  0.7968 -0.4822 -0.9063
 1354SOL    HW215699   3.751   2.511  12.677  0.6252  0.6926 -1.1296
 1355SOL     OW15700   4.406   1.276   1.348  0.0178  0.2474  0.2954
 1355SOL    HW115701   4.415   1.254   1.441 -1.0392 -1.9346 -0.1201
 1355SOL    HW215702   4.496   1.277   1.314  0.2973  0.5349  1.0490
 1356SOL     OW15703   0.498   2.883   2.518 -0.1131  0.5786  0.6316
 1356SOL    HW115704   0.491   2.870   2.423 -0.4895  0.8976  0.6132
 1356SOL    HW215705   0.492   2.978   2.530 -1.1053  0.7511 -1.2100
 1357SOL     OW15706   1.654   1.233   5.971 -0.7629 -0.1128 -0.0896
 1357SOL    HW115707   1.599   1.242   6.048  0.3481  1.5701  0.5158
 1357SOL    HW215708   1.726   1.292   5.996 -1.0901  0.8682 -1.4735
 1358SOL     OW15709   2.467   3.256   3.790 -0.0504 -0.6992  0.2898
 1358SOL    HW115710   2.372   3.262   3.783  0.2109 -0.1239 -2.8054
 1358SOL    HW215711   2.470   3.178   3.847 -0.4745  0.4830  1.9249
 1359SOL     OW15712   4.477   1.806   2.236  0.1957 -1.0908  0.1224
 1359SOL    HW115713   4.454   1.713   2.230 -2.7572 -0.3059 -0.6094
 1359SOL    HW215714   4.389   1.841   2.222  0.6185  0.7466  2.0697
 1360SOL     OW15715   0.416   0.534   9.583 -0.0971 -0.4998  0.0054
 1360SOL    HW115716   0.496   0.495   9.549  0.1203  0.5682 -0.7073
 1360SOL    HW215717   0.415   0.495   9.671 -1.0001  0.3034  0.3509
 1361SOL     OW15718   0.404   2.857   7.225 -0.0905  0.1981 -0.2304
 1361SOL    HW115719   0.471   2.926   7.222 -0.8709  1.0463  1.7860
 1361SOL    HW215720   0.452   2.792   7.173  0.8307 -0.9705  2.1004
 1362SOL     OW15721   1.729   1.280   2.045 -0.4922 -0.0360 -0.3976
 1362SOL    HW115722   1.671   1.291   1.969 -2.0422 -1.0107  0.6623
 1362SOL    HW215723   1.676   1.245   2.117 -0.0004  0.1428  0.0497
 1363SOL     OW15724   1.573   1.141  10.266 -0.0488  0.2908 -0.1169
 1363SOL    HW115725   1.558   1.213  10.326 -1.9988 -0.6686  0.5568
 1363SOL    HW215726   1.485   1.103  10.265 -0.8508  2.1628  0.6060
 1364SOL     OW15727   4.177   0.106   7.129 -0.2312  0.6821  0.2731
 1364SOL    HW115728   4.272   0.105   7.136 -0.3743 -3.3832  1.5444
 1364SOL    HW215729   4.150   0.041   7.194 -0.0484 -0.1550 -0.4807
 1365SOL     OW15730   4.533   3.306  11.276  0.0824 -0.0435  0.1275
 1365SOL    HW115731   4.509   3.233  11.333 -0.3191  0.7594  0.9837
 1365SOL    HW215732   4.518   3.265  11.191 -0.6954 -2.4788  1.4376
 1366SOL     OW15733   3.368   1.724   8.331  0.5873 -0.0187  0.1714
 1366SOL    HW115734   3.366   1.780   8.408  1.4365 -0.7535  0.7311
 1366SOL    HW215735   3.366   1.792   8.264 -0.8326  1.5286  1.7776
 1367SOL     OW15736   1.973   2.339   6.848  0.5195  0.3584  0.0587
 1367SOL    HW115737   1.963   2.253   6.889 -0.6543  1.1038  1.3584
 1367SOL    HW215738   2.052   2.323   6.797 -0.8074  0.7207 -2.1081
 1368SOL     OW15739   4.064   0.178   1.698  0.2167  0.1234 -0.2033
 1368SOL    HW115740   4.142   0.122   1.696 -0.6809 -1.1531  1.5275
 1368SOL    HW215741   4.002   0.106   1.697  2.4495 -1.7990  1.1936
 1369SOL     OW15742   4.676   0.269  14.306 -0.0846  0.0281 -0.4153
 1369SOL    HW115743   4.722   0.352  14.320 -3.7846  1.6171  2.2669
 1369SOL    HW215744   4.694   0.219  14.386  2.4992 -0.6161 -1.3860
 1370SOL     OW15745   4.261   0.420   2.121  0.0257 -0.4807  0.2735
 1370SOL    HW115746   4.256   0.419   2.026 -4.0874 -0.3506  0.5037
 1370SOL    HW215747   4.184   0.473   2.138 -0.0679 -1.4048  2.7831
 1371SOL     OW15748   0.217   2.317   1.702 -0.0012 -0.2153  0.2042
 1371SOL    HW115749   0.227   2.222   1.694  2.6520  0.0261  0.5088
 1371SOL    HW215750   0.281   2.344   1.636  0.4899 -2.4846 -0.2507
 1372SOL     OW15751   4.719   0.527   8.316  0.1352  0.2167  0.4226
 1372SOL    HW115752   4.711   0.536   8.221  2.1710  0.7292  0.2883
 1372SOL    HW215753   4.728   0.620   8.335  0.3959  0.3424 -0.3169
 1373SOL     OW15754   2.546   4.723   6.127  0.5721  0.2782  0.0259
 1373SOL    HW115755   2.475   4.719   6.192  0.3093  0.7620 -0.2303
 1373SOL    HW215756   2.490   4.689   6.057 -0.2554  1.4602  0.1056
 1374SOL     OW15757   1.035   1.946   1.529 -0.1242  1.0350 -0.5077
 1374SOL    HW115758   1.130   1.955   1.536 -0.0273 -1.0245  0.9102
 1374SOL    HW215759   1.015   1.913   1.617  0.5751  1.8668 -0.0358
 1375SOL     OW15760   0.089   1.559  12.097 -0.2394 -0.8423  0.7115
 1375SOL    HW115761   0.150   1.631  12.110 -1.5767  0.6341 -1.1736
 1375SOL    HW215762   0.045   1.593  12.019  2.8403  1.0865 -0.1831
 1376SOL     OW15763   4.056   1.726   3.269  0.1778  0.5242  0.0018
 1376SOL    HW115764   4.012   1.778   3.202 -0.6321 -0.6846 -0.3939
 1376SOL    HW215765   3.988   1.724   3.336  0.0920 -2.8354 -0.2122
 1377SOL     OW15766   3.000   1.250   4.707 -0.7617 -0.7974 -0.0297
 1377SOL    HW115767   2.955   1.232   4.789 -1.0442  1.1436  0.2356
 1377SOL    HW215768   3.036   1.161   4.698  0.6090 -0.0562 -2.0484
 1378SOL     OW15769   1.049   2.926   3.654 -0.1482  0.1903 -0.2565
 1378SOL    HW115770   1.055   2.866   3.580 -0.5513  0.4572 -0.5071
 1378SOL    HW215771   1.041   3.009   3.606  0.5333  0.4430  0.0606
 1379SOL     OW15772   1.015   3.090   4.517  0.7501 -0.6148 -0.8127
 1379SOL    HW115773   0.931   3.130   4.493 -0.5042 -1.8662  1.4384
 1379SOL    HW215774   1.070   3.105   4.441 -0.7571  0.0818 -1.7654
 1380SOL     OW15775   4.642   3.468   2.269  0.0511  0.1991 -0.4567
 1380SOL    HW115776   4.623   3.374   2.266 -1.5731  0.5219 -0.2920
 1380SOL    HW215777   4.687   3.489   2.351  1.1040 -0.5364 -0.8511
 1381SOL     OW15778   2.567   1.618   8.537  0.1330 -0.1031  0.0189
 1381SOL    HW115779   2.529   1.649   8.619  1.7134  3.4402 -0.5817
 1381SOL    HW215780   2.508   1.662   8.475 -0.7567 -1.8426 -0.3654
 1382SOL     OW15781   2.424   3.575   5.411  0.4678  0.2005  0.8857
 1382SOL    HW115782   2.473   3.573   5.493 -0.8107  0.1958  1.6413
 1382SOL    HW215783   2.481   3.627   5.354  1.0606 -1.3829  0.0384
 1383SOL     OW15784   0.572   4.301  16.423 -0.0706 -0.0353 -0.0646
 1383SOL    HW115785   0.516   4.377  16.440 -0.6105 -1.0706  2.7664
 1383SOL    HW215786   0.513   4.240  16.379 -0.0964  0.8944 -1.3458
 1384SOL     OW15787   1.854   1.629   3.140 -0.2027 -0.1140 -0.2715
 1384SOL    HW115788   1.904   1.582   3.207  0.8111 -0.5249 -1.3128
 1384SOL    HW215789   1.869   1.572   3.065  0.6982 -0.9160  0.5177
 1385SOL     OW15790   1.567   3.014   5.663 -0.0203  0.1962  0.3283
 1385SOL    HW115791   1.595   3.063   5.586 -1.3133 -0.1620 -0.3827
 1385SOL    HW215792   1.472   3.009   5.647  0.0009 -1.6344  0.8277
 1386SOL     OW15793   3.975   4.104   3.472 -0.2531 -0.2260  0.9836
 1386SOL    HW115794   3.950   4.183   3.424 -1.8312  1.2335  4.2631
 1386SOL    HW215795   3.990   4.139   3.559 -0.4019  0.3421  0.7786
 1387SOL     OW15796   2.266   2.135   4.575  0.5886  0.4826 -0.5794
 1387SOL    HW115797   2.219   2.079   4.513  0.8412  0.9093 -1.1597
 1387SOL    HW215798   2.343   2.084   4.599 -0.9233 -1.6843 -0.2833
 1388SOL     OW15799   0.095   2.582   6.581  0.1256 -0.2431  0.3746
 1388SOL    HW115800   0.037   2.613   6.511  0.1812  0.7439  0.7693
 1388SOL    HW215801   0.083   2.491   6.555  0.8588 -0.7119  1.7092
 1389SOL     OW15802   2.250   0.982  14.979  0.2465 -0.2874 -0.2022
 1389SOL    HW115803   2.276   0.911  14.920 -0.7230  0.5159 -1.6119
 1389SOL    HW215804   2.218   0.934  15.055 -3.3516 -0.0244 -1.5463
 1390SOL     OW15805   1.153   4.414   8.517  0.2155  0.2740 -0.2353
 1390SOL    HW115806   1.123   4.436   8.605  2.4672  1.6210  0.2004
 1390SOL    HW215807   1.196   4.330   8.533 -0.8024 -0.0656  0.6778
 1391SOL     OW15808   2.680   1.419  12.210  0.0184 -0.1060  0.0455
 1391SOL    HW115809   2.663   1.476  12.284  1.3508  1.7501 -1.0735
 1391SOL    HW215810   2.732   1.349  12.250 -0.3221 -2.1417 -2.9830
 1392SOL     OW15811   2.084   1.058   0.308 -0.4275 -0.4270 -0.1199
 1392SOL    HW115812   2.137   1.093   0.236 -1.7708 -0.8319 -1.3004
 1392SOL    HW215813   2.007   1.033   0.257 -0.4802 -1.5106  0.5025
 1393SOL     OW15814   1.246   2.311  12.665 -0.4943  0.6082  0.2507
 1393SOL    HW115815   1.230   2.343  12.576 -1.5028  1.0682  0.5986
 1393SOL    HW215816   1.229   2.386  12.722 -1.8901  1.8797 -1.8406
 1394SOL     OW15817   3.176   4.505   7.419  0.0734  0.4252 -0.4397
 1394SOL    HW115818   3.120   4.462   7.483  0.2226 -2.1174 -2.0010
 1394SOL    HW215819   3.183   4.596   7.450  1.1618  0.1533  0.1159
 1395SOL     OW15820   3.779   3.009   2.378  0.4129  0.2196 -0.0222
 1395SOL    HW115821   3.794   2.916   2.362 -2.0448  0.1431 -1.8762
 1395SOL    HW215822   3.694   3.002   2.422 -0.2635  0.4821 -1.2960
 1396SOL     OW15823   0.969   3.216  11.994 -0.1476 -0.1188  0.2540
 1396SOL    HW115824   0.939   3.162  11.920  1.2301 -1.2986  0.5518
 1396SOL    HW215825   1.060   3.188  12.003 -0.3576 -0.7962  0.3090
 1397SOL     OW15826   1.046   4.169   7.185 -1.0394  0.3387  0.2619
 1397SOL    HW115827   1.010   4.228   7.251 -3.1781 -0.3290 -0.3034
 1397SOL    HW215828   1.114   4.124   7.235 -1.5433 -2.4628 -1.5509
 1398SOL     OW15829   1.094   2.238  16.600  0.1442 -0.2351  0.0020
 1398SOL    HW115830   1.039   2.310  16.570  1.0831 -0.4280 -2.1428
 1398SOL    HW215831   1.158   2.218  16.532 -0.0696 -0.2080 -0.2044
 1399SOL     OW15832   1.951   1.856  14.256  0.5421 -0.1538  0.4517
 1399SOL    HW115833   1.982   1.832  14.343  2.0023 -1.9941 -0.5574
 1399SOL    HW215834   1.873   1.807  14.232  0.1177  2.0541 -2.7269
 1400SOL     OW15835   0.922   0.288  13.707  0.6576 -0.9196  0.8846
 1400SOL    HW115836   1.006   0.334  13.704  0.6085 -0.8241  1.0232
 1400SOL    HW215837   0.875   0.319  13.629  1.2864 -0.3985  0.7073
 1401SOL     OW15838   3.468   2.005   8.268  0.2973 -0.2611  0.2774
 1401SOL    HW115839   3.387   2.051   8.244  1.1864  0.5968 -1.0838
 1401SOL    HW215840   3.482   2.055   8.349 -3.6860  0.0293  0.7679
 1402SOL     OW15841   0.448   2.788   2.813 -0.3997 -0.5807 -0.2785
 1402SOL    HW115842   0.413   2.876   2.831 -1.4333 -0.9328 -0.6108
 1402SOL    HW215843   0.489   2.762   2.895  1.7592  1.5796 -0.6600
 1403SOL     OW15844   0.890   1.930   6.819 -0.2640  0.1274 -0.4162
 1403SOL    HW115845   0.940   1.850   6.830 -0.2744  0.2076  0.1848
 1403SOL    HW215846   0.814   1.903   6.871  1.5521 -1.3979  1.4247
 1404SOL     OW15847   2.452   0.986  13.424  0.6716  0.4135  0.2353
 1404SOL    HW115848   2.501   1.063  13.395  0.7180  0.3908  0.2522
 1404SOL    HW215849   2.489   0.932  13.355 -1.0676 -2.2467  1.3857
 1405SOL     OW15850   2.158   2.973   2.118 -0.0929  0.4559 -0.3313
 1405SOL    HW115851   2.164   2.981   2.023 -0.6608  1.9443 -0.2575
 1405SOL    HW215852   2.226   2.911   2.144 -0.8283 -1.3917 -2.8910
 1406SOL     OW15853   3.824   4.608   1.874 -0.3123 -0.1262 -0.2906
 1406SOL    HW115854   3.910   4.609   1.832 -0.2767  3.1247 -0.1283
 1406SOL    HW215855   3.782   4.562   1.802 -0.0661  0.2798 -0.6905
 1407SOL     OW15856   0.622   4.370   7.836  0.0528 -0.2832 -0.3971
 1407SOL    HW115857   0.556   4.391   7.770 -0.6273 -0.9687  0.0723
 1407SOL    HW215858   0.590   4.293   7.883 -0.3848  1.3163  1.9211
 1408SOL     OW15859   2.259   3.719   1.683 -0.3762 -0.3571 -0.4728
 1408SOL    HW115860   2.227   3.630   1.669  1.2062 -1.2455  1.6172
 1408SOL    HW215861   2.283   3.710   1.775  0.0641  0.3754 -0.5197
 1409SOL     OW15862   3.691   4.680   8.719  0.3875  0.3433 -0.7128
 1409SOL    HW115863   3.612   4.651   8.765  0.4442 -1.1807 -1.5670
 1409SOL    HW215864   3.712   0.025   8.762 -0.5326  0.6675 -0.8846
 1410SOL     OW15865   0.032   1.953  15.075  1.1734  0.1433  0.6517
 1410SOL    HW115866   0.051   1.940  15.167 -1.4120 -0.7356  1.0585
 1410SOL    HW215867   4.687   1.910  15.056  1.9219 -0.5054 -1.1188
 1411SOL     OW15868   4.257   2.499  17.501  0.0979 -0.1160 -0.1009
 1411SOL    HW115869   4.279   2.427  17.560  0.2711  1.0410  1.2467
 1411SOL    HW215870   4.325   2.561  17.528  0.3469 -0.7488  0.7070
 1412SOL     OW15871   3.931   0.865  16.325  0.4267 -1.3407 -0.4397
 1412SOL    HW115872   3.937   0.954  16.291 -0.0539 -0.3203  2.1183
 1412SOL    HW215873   4.007   0.870  16.383 -0.1898  0.0687  0.2546
 1413SOL     OW15874   1.663   4.237   8.057  0.4929 -0.3515 -0.2253
 1413SOL    HW115875   1.581   4.193   8.078 -0.1511 -0.3026 -2.6777
 1413SOL    HW215876   1.692   4.291   8.131  1.6034 -1.0586 -0.1398
 1414SOL     OW15877   4.453   2.938   9.242  0.0329 -0.1518 -0.3518
 1414SOL    HW115878   4.373   2.915   9.289 -0.8590  1.2727 -1.1789
 1414SOL    HW215879   4.477   3.016   9.292  2.0192 -1.6856  1.0829
 1415SOL     OW15880   4.196   3.387   2.373 -0.4401 -0.5913  0.0286
 1415SOL    HW115881   4.288   3.362   2.367 -0.0376  0.9605 -0.2787
 1415SOL    HW215882   4.172   3.371   2.282  0.1831 -0.6129 -0.1366
 1416SOL     OW15883   2.843   0.905  15.723 -0.1120  0.0164 -0.1188
 1416SOL    HW115884   2.834   0.999  15.742  0.5033  0.4671 -2.0132
 1416SOL    HW215885   2.797   0.907  15.639  1.0485 -1.6600 -0.7922
 1417SOL     OW15886   4.675   4.511   4.076 -0.3777 -0.0420 -0.6428
 1417SOL    HW115887   4.735   4.518   4.002 -0.2767  0.1152 -0.5475
 1417SOL    HW215888   4.600   4.488   4.021 -0.9812  1.2039 -0.3460
 1418SOL     OW15889   0.339   2.856   4.661 -0.4699 -0.3777  0.1630
 1418SOL    HW115890   0.252   2.837   4.695  0.3992 -0.2635  2.4256
 1418SOL    HW215891   0.394   2.842   4.738 -0.4181  0.0126  0.1971
 1419SOL     OW15892   4.320   2.724  16.253 -0.2157 -1.0465 -0.0793
 1419SOL    HW115893   4.408   2.750  16.283 -0.7074  1.0452 -0.4744
 1419SOL    HW215894   4.323   2.645  16.307  1.8977 -1.3252 -0.6094
 1420SOL     OW15895   0.756   2.905  14.013  0.7660  0.4486  1.2566
 1420SOL    HW115896   0.691   2.975  14.020 -1.3857 -1.4567  0.2059
 1420SOL    HW215897   0.825   2.944  13.960 -0.8748  0.1837 -1.1007
 1421SOL     OW15898   2.824   2.756  13.073  0.5983  0.0074 -0.1807
 1421SOL    HW115899   2.755   2.822  13.064  0.4236 -0.2730 -0.9184
 1421SOL    HW215900   2.851   2.740  12.983 -1.9053  2.0851 -1.3173
 1422SOL     OW15901   0.651   1.297   2.725 -0.4022  0.4099  0.3383
 1422SOL    HW115902   0.690   1.383   2.739  3.3223 -1.2258  0.0429
 1422SOL    HW215903   0.729   1.241   2.725  0.7064  1.9606 -2.4525
 1423SOL     OW15904   2.941   0.563   3.567  0.2166  0.1842 -0.6343
 1423SOL    HW115905   3.024   0.564   3.614 -1.0215  1.4939  1.5092
 1423SOL    HW215906   2.900   0.487   3.608  1.3573 -0.4295 -0.6129
 1424SOL     OW15907   0.580   3.957  13.220  0.1098 -0.8861  0.3511
 1424SOL    HW115908   0.558   3.964  13.313 -1.1782 -0.0238 -0.0144
 1424SOL    HW215909   0.546   3.871  13.197  1.5033 -1.6136  1.0272
 1425SOL     OW15910   0.367   1.322   7.886 -0.2205  0.5262  0.5048
 1425SOL    HW115911   0.365   1.417   7.896 -1.0902  0.5065  0.5542
 1425SOL    HW215912   0.298   1.316   7.820  1.5027 -1.5430 -1.0964
 1426SOL     OW15913   2.332   0.113   5.284 -0.3633 -0.8065  0.3522
 1426SOL    HW115914   2.389   0.089   5.211 -1.3364  3.1957 -1.7005
 1426SOL    HW215915   2.248   0.097   5.242 -0.1858 -0.2378 -0.2180
 1427SOL     OW15916   2.114   3.709   5.335 -0.4144  0.4443 -0.4260
 1427SOL    HW115917   2.069   3.636   5.377 -0.7786  0.1123 -1.4139
 1427SOL    HW215918   2.087   3.783   5.390  1.5340 -0.3107  1.5559
 1428SOL     OW15919   3.689   2.096  15.033 -0.2293 -0.1900 -0.1178
 1428SOL    HW115920   3.680   2.187  15.005  3.1739  0.0450 -0.3494
 1428SOL    HW215921   3.596   2.072  15.036  0.1120 -1.2628  1.3698
 1429SOL     OW15922   0.487   4.455   3.444 -0.0271  0.4772  0.6942
 1429SOL    HW115923   0.510   4.435   3.534 -0.0519 -3.0608 -0.0982
 1429SOL    HW215924   0.420   4.392   3.417 -1.0209  1.2719  1.3050
 1430SOL     OW15925   2.310   2.634  16.744 -0.5478  0.4264 -0.1526
 1430SOL    HW115926   2.246   2.576  16.785 -1.0684  0.8724 -0.3309
 1430SOL    HW215927   2.317   2.590  16.659  0.2271  2.6459 -1.2357
 1431SOL     OW15928   1.183   1.070   4.955 -0.0153 -0.2562 -0.0760
 1431SOL    HW115929   1.176   0.987   4.908  1.5221 -0.3203 -0.1971
 1431SOL    HW215930   1.227   1.119   4.886 -0.1315  1.9473  1.4262
 1432SOL     OW15931   3.158   2.666   6.089 -0.0422  0.2314 -0.1802
 1432SOL    HW115932   3.169   2.725   6.014 -2.3526  0.0645 -0.6446
 1432SOL    HW215933   3.135   2.583   6.048 -2.0329  0.2577  0.8880
 1433SOL     OW15934   3.012   3.658   8.710  0.0732  0.4678 -0.3579
 1433SOL    HW115935   3.000   3.644   8.616 -0.4501  1.2794 -0.4072
 1433SOL    HW215936   3.106   3.641   8.715 -0.1289 -0.4332  0.3646
 1434SOL     OW15937   2.820   1.493  16.155 -0.1995  0.1920  0.1933
 1434SOL    HW115938   2.767   1.511  16.233 -1.3961  2.5431 -1.1767
 1434SOL    HW215939   2.895   1.450  16.196  0.2911  2.0350  1.2617
 1435SOL     OW15940   0.475   3.107   7.845  0.1702  0.3505  0.0983
 1435SOL    HW115941   0.540   3.167   7.807 -0.7979  1.4552  0.2013
 1435SOL    HW215942   0.428   3.153   7.914  2.2808  1.9221  0.4951
 1436SOL     OW15943   3.583   1.579   7.168  0.6456 -0.6057  0.2744
 1436SOL    HW115944   3.559   1.536   7.086  0.3267  1.1312 -0.5329
 1436SOL    HW215945   3.546   1.663   7.143 -2.4885 -1.1917  3.0060
 1437SOL     OW15946   0.628   4.626   7.996 -0.4797  0.2035 -0.1414
 1437SOL    HW115947   0.611   4.554   7.935  2.0886 -0.5738  0.0673
 1437SOL    HW215948   0.717   4.660   7.984  0.0761 -1.2908 -0.2734
 1438SOL     OW15949   0.642   1.432  12.629 -0.4803  0.0773  0.0395
 1438SOL    HW115950   0.582   1.385  12.686  0.1919 -0.5044  0.2576
 1438SOL    HW215951   0.635   1.383  12.547 -2.1173 -1.0527  0.8676
 1439SOL     OW15952   0.377   0.971   6.201  0.6151  0.0269  0.1281
 1439SOL    HW115953   0.369   1.058   6.238 -0.1764 -0.7449  1.7691
 1439SOL    HW215954   0.288   0.936   6.209  1.0110 -1.1968 -0.7475
 1440SOL     OW15955   1.050   1.470   0.317  0.6206 -0.0247  0.3665
 1440SOL    HW115956   1.054   1.419   0.397  1.7331 -0.5303 -0.0169
 1440SOL    HW215957   1.066   1.410   0.244 -0.6573  0.6719 -0.4971
 1441SOL     OW15958   0.107   1.521  16.277 -0.0137 -0.0970  0.3068
 1441SOL    HW115959   0.172   1.553  16.340 -1.2504 -2.1149  2.6237
 1441SOL    HW215960   0.034   1.583  16.282 -2.2423 -2.8026  1.6332
 1442SOL     OW15961   4.638   1.066  16.360 -0.0263  0.1511  0.1728
 1442SOL    HW115962   4.627   1.069  16.455 -0.4693  0.5240  0.1099
 1442SOL    HW215963   4.673   1.155  16.349  1.6102 -0.5547 -0.3519
 1443SOL     OW15964   3.978   0.846   0.271 -0.0837  0.1313  0.2253
 1443SOL    HW115965   3.929   0.833   0.190  0.1207 -0.0944  0.1389
 1443SOL    HW215966   3.964   0.766   0.321  0.3309 -0.6924 -1.0021
 1444SOL     OW15967   2.323   3.451  15.774  0.1439 -0.2063 -0.1371
 1444SOL    HW115968   2.318   3.359  15.748 -0.0471 -0.8310  2.0754
 1444SOL    HW215969   2.413   3.461  15.804 -0.6529 -2.2580  2.9661
 1445SOL     OW15970   3.993   1.352  15.774 -0.0556  0.3272  0.2495
 1445SOL    HW115971   3.997   1.393  15.688 -1.8602  2.2300  1.0820
 1445SOL    HW215972   3.900   1.340  15.794  0.5383 -2.8818  1.0979
 1446SOL     OW15973   0.795   0.680   9.294 -0.0379  0.6553  0.1873
 1446SOL    HW115974   0.837   0.663   9.378 -0.2292  1.1823  0.3933
 1446SOL    HW215975   0.735   0.751   9.319  0.3751  0.7502  0.9059
 1447SOL     OW15976   3.218   2.836   5.313  0.2185 -0.1679 -0.0552
 1447SOL    HW115977   3.195   2.746   5.337 -0.0731 -0.5098 -1.6005
 1447SOL    HW215978   3.274   2.859   5.387  1.3468 -0.5256 -0.7984
 1448SOL     OW15979   2.576   0.418   3.174  0.2953  0.0330  0.2851
 1448SOL    HW115980   2.639   0.460   3.231  2.4768  0.6200 -2.5548
 1448SOL    HW215981   2.494   0.466   3.187  0.0364 -0.0129 -1.1635
 1449SOL     OW15982   3.910   4.451  16.693 -0.1097 -0.1407 -0.6443
 1449SOL    HW115983   3.894   4.521  16.630 -2.3594  0.8092  0.9724
 1449SOL    HW215984   3.890   4.499  16.774 -3.1623 -0.2667 -1.3190
 1450SOL     OW15985   3.500   4.384   7.984  0.0790 -0.4534 -0.2890
 1450SOL    HW115986   3.559   4.423   8.048 -0.9041 -0.7485  0.7912
 1450SOL    HW215987   3.555   4.337   7.921  2.9837 -0.1460  2.0335
 1451SOL     OW15988   4.502   1.835   6.372  0.4791  0.7946  0.1373
 1451SOL    HW115989   4.427   1.864   6.423  0.0602 -1.8241  1.0011
 1451SOL    HW215990   4.531   1.762   6.427  0.8554  1.0596  0.2848
 1452SOL     OW15991   4.581   0.425   6.010  0.5036  0.5243 -0.2974
 1452SOL    HW115992   4.605   0.344   5.964 -1.3446  0.4718 -1.1507
 1452SOL    HW215993   4.617   0.405   6.096 -0.4228 -3.5787 -0.8736
 1453SOL     OW15994   4.065   3.829   7.669  0.1090  0.0357  0.0542
 1453SOL    HW115995   4.063   3.743   7.711  0.9229 -1.4511 -2.9587
 1453SOL    HW215996   3.996   3.874   7.718 -0.4611 -0.5517 -0.2279
 1454SOL     OW15997   0.240   0.018   9.311 -0.0826  0.4615  0.6387
 1454SOL    HW115998   0.275   0.045   9.227  0.3738  1.3354  1.1060
 1454SOL    HW215999   0.172   4.696   9.282  1.4165  0.0642 -2.0315
 1455SOL     OW16000   1.519   1.055   5.801 -0.1829 -0.1126 -0.4915
 1455SOL    HW116001   1.554   1.112   5.869 -2.5090  1.5623 -0.7013
 1455SOL    HW216002   1.584   0.988   5.783  0.4456 -0.0911  1.7185
 1456SOL     OW16003   3.820   1.554   5.924 -0.0518 -0.1236 -0.1379
 1456SOL    HW116004   3.819   1.597   6.009  1.0311  1.3577 -0.8972
 1456SOL    HW216005   3.726   1.551   5.906  0.4160 -0.9395 -2.4602
 1457SOL     OW16006   2.475   3.456   8.791  0.1032  0.2742 -0.7433
 1457SOL    HW116007   2.538   3.384   8.795  1.1344  1.1986 -0.2851
 1457SOL    HW216008   2.536   3.525   8.765  1.0441 -0.2264  0.1107
 1458SOL     OW16009   2.244   1.882   1.751 -0.5037  0.3729  0.0472
 1458SOL    HW116010   2.245   1.851   1.841 -1.1103 -0.2469 -0.1621
 1458SOL    HW216011   2.150   1.883   1.733 -0.3291  2.2488 -0.7507
 1459SOL     OW16012   2.451   1.216   6.288  0.5268 -0.2035 -0.0969
 1459SOL    HW116013   2.472   1.127   6.315 -1.4278 -0.9243 -0.9434
 1459SOL    HW216014   2.414   1.194   6.202 -1.2675 -0.1733  0.6716
 1460SOL     OW16015   4.162   0.320  12.184 -0.3094 -0.0807  0.4492
 1460SOL    HW116016   4.220   0.321  12.107 -0.9440  1.0990 -0.0179
 1460SOL    HW216017   4.216   0.307  12.261  1.4306 -0.6009 -0.8590
 1461SOL     OW16018   3.455   0.024  12.538  0.1367  0.6921 -0.6570
 1461SOL    HW116019   3.462   0.078  12.459  0.9916  1.1695 -0.2581
 1461SOL    HW216020   3.489   4.678  12.508  1.1424  0.6707  0.5493
 1462SOL     OW16021   2.620   3.842   3.655  0.2640  0.5751  0.3205
 1462SOL    HW116022   2.541   3.789   3.643  0.5103  0.1065  0.7693
 1462SOL    HW216023   2.645   3.830   3.746 -2.7834 -0.2714  1.0498
 1463SOL     OW16024   3.776   4.713   4.783  0.2041  0.1330 -0.3271
 1463SOL    HW116025   3.864   4.710   4.819 -0.9557  1.8190  2.6567
 1463SOL    HW216026   3.793   0.012   4.697  0.9632  1.6490  0.4643
 1464SOL     OW16027   2.249   4.144   6.748 -0.1305  0.0000  0.2538
 1464SOL    HW116028   2.253   4.196   6.828  0.8921 -1.0765  0.9052
 1464SOL    HW216029   2.316   4.080   6.774  1.5774  0.7215 -2.2487
 1465SOL     OW16030   3.773   2.037   5.264  0.4197  0.0997 -0.1989
 1465SOL    HW116031   3.799   1.960   5.315 -0.4027  1.8169  2.8264
 1465SOL    HW216032   3.682   2.046   5.292  0.7461 -0.1574  0.9507
 1466SOL     OW16033   1.667   0.095   1.330  0.1618 -0.4909 -0.0202
 1466SOL    HW116034   1.668   0.180   1.374  3.9738 -1.2626  1.3330
 1466SOL    HW216035   1.702   0.037   1.397 -3.9510 -1.9489  0.9075
 1467SOL     OW16036   4.235   3.239   0.220  0.0229 -0.0227 -0.8020
 1467SOL    HW116037   4.297   3.225   0.149  1.3615  0.6002  0.2227
 1467SOL    HW216038   4.152   3.225   0.175 -0.7284 -0.3824  0.6732
 1468SOL     OW16039   2.325   0.762   4.682 -0.1409 -0.2842 -0.4611
 1468SOL    HW116040   2.273   0.778   4.761  0.7667  2.2196 -0.3945
 1468SOL    HW216041   2.385   0.696   4.717 -0.8112 -2.0687 -2.6855
 1469SOL     OW16042   3.789   4.160   9.494  0.5054 -0.2547  0.4916
 1469SOL    HW116043   3.742   4.104   9.432 -1.9341 -0.3514  2.4001
 1469SOL    HW216044   3.712   4.201   9.535  1.0346  0.8688  0.3461
 1470SOL     OW16045   2.181   3.947  10.915  0.6974 -0.5782  0.0748
 1470SOL    HW116046   2.098   3.981  10.949  0.6747  0.2412 -0.7918
 1470SOL    HW216047   2.152   3.915  10.830  1.0031  1.1574 -0.6727
 1471SOL     OW16048   1.279   2.141   7.206  0.1185  0.4790 -0.3801
 1471SOL    HW116049   1.359   2.152   7.257  0.2756  0.6907 -0.6722
 1471SOL    HW216050   1.265   2.233   7.185 -0.4221  0.0526 -1.9226
 1472SOL     OW16051   3.538   2.858   7.352 -0.0078  0.0560  0.5252
 1472SOL    HW116052   3.498   2.778   7.386  2.0803 -1.3539 -0.3672
 1472SOL    HW216053   3.496   2.854   7.267  0.5959  0.7529  0.1927
 1473SOL     OW16054   1.462   3.359   6.240  0.5111 -0.3652  0.8535
 1473SOL    HW116055   1.427   3.371   6.152 -1.8448 -1.0667  1.6911
 1473SOL    HW216056   1.536   3.419   6.236 -1.2847  1.5950 -2.3441
 1474SOL     OW16057   0.076   3.404   6.303 -0.5501  0.0914 -0.1989
 1474SOL    HW116058   0.004   3.352   6.339 -1.6127  0.1136 -2.3299
 1474SOL    HW216059   0.122   3.331   6.262 -1.4390 -1.4784  1.5915
 1475SOL     OW16060   2.481   1.085   3.516  0.8744  0.4075  0.1044
 1475SOL    HW116061   2.532   1.006   3.534  1.0501 -0.2810 -3.3466
 1475SOL    HW216062   2.542   1.155   3.540  1.7969  1.0266 -4.1160
 1476SOL     OW16063   3.740   2.222  16.170 -0.3133  0.0865  0.2806
 1476SOL    HW116064   3.706   2.222  16.259  1.0803  1.7717  0.8092
 1476SOL    HW216065   3.697   2.298  16.131  0.2001 -0.1698 -0.7911
 1477SOL     OW16066   2.184   1.998   3.803  0.0959 -0.0185 -0.3594
 1477SOL    HW116067   2.277   1.978   3.789 -0.1054 -0.9287 -0.3793
 1477SOL    HW216068   2.161   2.056   3.731  0.4767  0.2589 -0.2622
 1478SOL     OW16069   4.572   4.472   8.464 -0.4249  0.8754  0.2157
 1478SOL    HW116070   4.546   4.444   8.552 -0.5960 -1.2914 -0.5402
 1478SOL    HW216071   4.630   4.547   8.480 -0.2591  0.8475 -0.2640
 1479SOL     OW16072   4.070   3.368   6.890  0.2793 -0.0634 -0.0866
 1479SOL    HW116073   4.084   3.286   6.939 -0.1521 -0.9551 -1.4568
 1479SOL    HW216074   3.975   3.373   6.886  0.3761 -1.1618 -3.8948
 1480SOL     OW16075   1.101   4.568   5.763 -0.6101 -0.3154 -0.0125
 1480SOL    HW116076   1.075   4.656   5.790 -0.0879 -1.0526  2.8746
 1480SOL    HW216077   1.025   4.545   5.710  1.9693 -2.0753 -2.9211
 1481SOL     OW16078   1.936   3.214   5.450 -0.1616  0.2333 -0.6319
 1481SOL    HW116079   2.026   3.183   5.437 -0.3742 -2.6223  5.0782
 1481SOL    HW216080   1.951   3.303   5.417  1.2429  1.3171  2.9153
 1482SOL     OW16081   4.111   3.718   6.062  0.3137  0.1372 -0.3280
 1482SOL    HW116082   4.105   3.672   6.147  1.1080  0.5210 -0.0628
 1482SOL    HW216083   4.204   3.704   6.043  0.1009 -2.0346  0.2521
 1483SOL     OW16084   3.572   2.929   4.424  0.2446 -0.7332 -0.7100
 1483SOL    HW116085   3.520   2.942   4.345 -0.7358 -3.8316 -0.5645
 1483SOL    HW216086   3.624   2.852   4.402 -1.7944 -1.6274 -2.3690
 1484SOL     OW16087   4.459   2.898   4.517 -0.1239  0.0284 -0.2451
 1484SOL    HW116088   4.455   2.808   4.551 -1.7175 -0.7586 -2.4250
 1484SOL    HW216089   4.419   2.882   4.431 -2.7975  2.9190  0.4537
 1485SOL     OW16090   4.234   3.400   5.504 -0.3353 -0.6508 -0.6234
 1485SOL    HW116091   4.143   3.431   5.508 -0.2528 -0.3842 -0.8112
 1485SOL    HW216092   4.247   3.384   5.597  0.4504 -0.3948 -0.6941
 1486SOL     OW16093   3.822   1.888  10.705 -0.1447 -0.5011 -0.3789
 1486SOL    HW116094   3.868   1.918  10.783 -2.1493 -2.9853  1.7384
 1486SOL    HW216095   3.741   1.861  10.749 -0.9131 -0.5520 -1.8059
 1487SOL     OW16096   1.035   1.000   6.648 -0.3439  0.4286 -0.3514
 1487SOL    HW116097   0.996   1.054   6.579 -0.0330  1.5885  0.3690
 1487SOL    HW216098   1.126   1.005   6.620  0.3376 -1.3911  1.5738
 1488SOL     OW16099   3.946   3.271   2.541 -0.5340 -0.4692 -0.5636
 1488SOL    HW116100   3.989   3.193   2.505 -0.4226 -0.5794 -0.1978
 1488SOL    HW216101   3.998   3.271   2.622 -0.5208  1.6843 -0.5764
 1489SOL     OW16102   0.832   1.523  14.478  0.0855 -0.8178 -0.7415
 1489SOL    HW116103   0.866   1.434  14.480  3.1904  0.3878 -0.5230
 1489SOL    HW216104   0.740   1.497  14.487 -0.9860  3.2845  0.2914
 1490SOL     OW16105   1.116   0.216   8.945 -0.5570  0.2701 -0.0686
 1490SOL    HW116106   1.057   0.239   8.873  1.5688  1.8055 -1.3182
 1490SOL    HW216107   1.164   0.299   8.944 -1.1413  0.6152 -0.0630
 1491SOL     OW16108   0.451   1.445   8.243 -0.5273 -1.1022  0.1738
 1491SOL    HW116109   0.420   1.528   8.279  0.0620 -1.2888  1.0978
 1491SOL    HW216110   0.450   1.390   8.321 -0.2383 -0.8896  0.3249
 1492SOL     OW16111   3.443   1.462   8.314 -0.1230  0.4088 -0.4913
 1492SOL    HW116112   3.400   1.547   8.326  0.3101  0.6019 -0.3187
 1492SOL    HW216113   3.533   1.493   8.316  0.4816 -1.3731  0.2378
 1493SOL     OW16114   1.267   0.043   2.421  0.0219  0.4064 -0.2282
 1493SOL    HW116115   1.213   4.718   2.374  1.6446  1.1666 -3.0981
 1493SOL    HW216116   1.280   4.727   2.499  0.7001  1.3783  0.3347
 1494SOL     OW16117   4.148   2.045  13.298 -0.3948  0.4843 -0.3699
 1494SOL    HW116118   4.234   2.028  13.260 -0.8169 -0.9213 -0.7119
 1494SOL    HW216119   4.171   2.102  13.371 -1.9867  2.6556 -1.5665
 1495SOL     OW16120   0.096   2.821  13.461  0.3610  0.0731 -0.1716
 1495SOL    HW116121   0.110   2.759  13.533  1.4223 -0.7837 -1.1095
 1495SOL    HW216122   0.010   2.856  13.483  1.1343  2.4951 -1.0165
 1496SOL     OW16123   3.669   3.472   5.457  0.4406  1.0378 -0.3679
 1496SOL    HW116124   3.623   3.476   5.373  2.6733  1.5380 -1.5576
 1496SOL    HW216125   3.620   3.523   5.521  1.2220  0.3373  0.7801
 1497SOL     OW16126   1.168   1.462   8.456  0.3351 -0.0431  0.2429
 1497SOL    HW116127   1.257   1.478   8.486 -0.3637  0.8698  1.8119
 1497SOL    HW216128   1.190   1.383   8.406  1.8796  0.1505  0.6278
 1498SOL     OW16129   3.596   0.425   5.631 -0.5003  0.7656 -0.7806
 1498SOL    HW116130   3.677   0.470   5.655 -1.4094  2.1011 -0.2293
 1498SOL    HW216131   3.629   0.342   5.596  0.2581  0.1229  1.4736
 1499SOL     OW16132   1.314   4.568   5.300  0.0464  0.2473 -0.2073
 1499SOL    HW116133   1.276   4.573   5.387  1.3441 -0.0071  0.3771
 1499SOL    HW216134   1.290   4.659   5.283  0.2887  0.2886 -0.3365
 1500SOL     OW16135   2.569   2.175   1.699 -0.0689  0.2927 -0.4607
 1500SOL    HW116136   2.585   2.098   1.753 -1.2093 -0.0278 -0.5794
 1500SOL    HW216137   2.474   2.187   1.696  0.3092  3.1827 -1.0320
 1501SOL     OW16138   0.883   2.232  13.669 -0.6397 -0.2058 -0.0418
 1501SOL    HW116139   0.895   2.213  13.762 -1.3729  0.3456  0.1651
 1501SOL    HW216140   0.973   2.252  13.645 -0.7859  0.7162  0.1726
 1502SOL     OW16141   2.048   2.810   2.939 -0.2670  0.3964  0.4541
 1502SOL    HW116142   2.000   2.738   2.898  0.5340 -0.5481  1.1913
 1502SOL    HW216143   2.072   2.858   2.860 -1.2259  1.0087  0.5278
 1503SOL     OW16144   0.034   4.448  10.441 -0.0524 -0.5839 -0.0637
 1503SOL    HW116145   0.001   4.507  10.373  0.6188  0.9468  0.9468
 1503SOL    HW216146   0.117   4.489  10.465 -1.0421  0.6098  1.2791
 1504SOL     OW16147   0.400   3.398   2.674 -0.1784  0.4279 -0.2339
 1504SOL    HW116148   0.326   3.392   2.734 -3.3312  2.5514 -3.9291
 1504SOL    HW216149   0.357   3.442   2.601 -1.6882  1.0444  1.0375
 1505SOL     OW16150   1.165   0.516   3.957 -0.0968  0.2345 -0.3725
 1505SOL    HW116151   1.164   0.571   4.036 -0.5526 -1.3075  0.6966
 1505SOL    HW216152   1.240   0.461   3.981 -0.4758 -0.3265 -0.4693
 1506SOL     OW16153   1.653   2.494   0.536 -0.2132 -0.4496 -0.7535
 1506SOL    HW116154   1.622   2.562   0.476  0.1477  0.6039  0.2733
 1506SOL    HW216155   1.738   2.479   0.495  0.9342 -0.0246  1.5079
 1507SOL     OW16156   0.524   4.154   3.310 -0.4038  0.2112  0.6198
 1507SOL    HW116157   0.492   4.170   3.398 -0.8200  1.5026  0.2287
 1507SOL    HW216158   0.610   4.114   3.325  0.3505  1.4450 -0.4794
 1508SOL     OW16159   3.639   0.776  11.149 -0.2296  0.3512  0.4152
 1508SOL    HW116160   3.666   0.835  11.078  1.4062  1.0448  1.6180
 1508SOL    HW216161   3.655   0.691  11.108  1.5124  0.5397  0.6912
 1509SOL     OW16162   0.164   4.123   6.159 -0.1814 -0.1701  0.3807
 1509SOL    HW116163   0.116   4.205   6.166 -0.8030 -0.4288 -0.9726
 1509SOL    HW216164   0.096   4.062   6.133  1.8160 -1.6670 -1.4108
 1510SOL     OW16165   0.247   3.477  10.734  0.2181 -0.8366 -0.4424
 1510SOL    HW116166   0.229   3.383  10.727 -2.6430 -0.4374  1.2253
 1510SOL    HW216167   0.335   3.461  10.768  0.5275  2.6294  0.3666
 1511SOL     OW16168   3.029   3.236   1.222  0.1972 -0.4433  0.2575
 1511SOL    HW116169   2.981   3.226   1.140 -0.1899 -1.9529  0.6658
 1511SOL    HW216170   3.090   3.165   1.204 -1.7576 -1.5825 -1.9397
 1512SOL     OW16171   2.623   3.739   7.841  0.0256 -0.3527  0.1584
 1512SOL    HW116172   2.569   3.663   7.860 -1.6114  0.7681 -0.0064
 1512SOL    HW216173   2.554   3.804   7.856 -0.7423 -0.5244 -2.5847
 1513SOL     OW16174   1.767   3.703   9.324  0.1752  0.3587 -0.0581
 1513SOL    HW116175   1.825   3.702   9.400  1.7769  0.2609 -1.2995
 1513SOL    HW216176   1.745   3.796   9.325  0.6819  0.4740  0.4764
 1514SOL     OW16177   1.643   2.901   5.060 -0.0280 -0.3666 -0.1590
 1514SOL    HW116178   1.595   2.957   5.121  1.9292 -0.3455  1.3577
 1514SOL    HW216179   1.656   2.819   5.108  2.2583  0.7636  1.1697
 1515SOL     OW16180   3.410   1.050   5.144 -0.2471 -0.2857  0.2406
 1515SOL    HW116181   3.362   0.968   5.129  0.5501 -0.5929 -0.5906
 1515SOL    HW216182   3.335   1.105   5.121 -0.7263 -1.1665 -0.3164
 1516SOL     OW16183   2.651   2.474   7.764 -0.0513 -0.4120  0.3038
 1516SOL    HW116184   2.584   2.459   7.831  1.2323 -1.9416  1.2246
 1516SOL    HW216185   2.657   2.569   7.753 -2.2198 -0.3694 -0.4789
 1517SOL     OW16186   1.899   2.465   0.921 -0.3680 -0.0913 -0.2823
 1517SOL    HW116187   1.958   2.394   0.948 -0.8610 -0.0450  0.9464
 1517SOL    HW216188   1.938   2.506   0.845 -0.8787  1.2195  0.1588
 1518SOL     OW16189   1.734   2.649  11.060  0.0137  0.0523  0.3602
 1518SOL    HW116190   1.765   2.684  10.976  0.0719  1.0562  0.7989
 1518SOL    HW216191   1.752   2.557  11.043  0.8552 -0.1502  2.4006
 1519SOL     OW16192   1.136   1.254  12.364  0.2985 -0.1610  0.5519
 1519SOL    HW116193   1.199   1.323  12.342  1.4002 -1.4894 -0.4470
 1519SOL    HW216194   1.058   1.306  12.343  1.0291  0.1390 -1.4276
 1520SOL     OW16195   1.765   3.770   7.739  0.0364  0.6524 -0.1214
 1520SOL    HW116196   1.779   3.842   7.678 -0.0866 -0.4894 -1.4864
 1520SOL    HW216197   1.781   3.687   7.694 -1.2082  0.4250 -0.1628
 1521SOL     OW16198   1.578   0.005   6.631 -0.0328 -0.2750  0.0777
 1521SOL    HW116199   1.606   4.656   6.658 -1.7581 -0.5912  0.8936
 1521SOL    HW216200   1.656   0.054   6.656 -1.1968  1.4124  0.4123
 1522SOL     OW16201   1.133   2.250   5.064 -0.1775 -0.5164  0.1145
 1522SOL    HW116202   1.164   2.338   5.040  2.4508 -1.7239 -0.8730
 1522SOL    HW216203   1.163   2.209   4.983 -2.2441 -0.3720 -0.7396
 1523SOL     OW16204   1.599   4.068   4.132  0.0603  0.5783 -0.0428
 1523SOL    HW116205   1.694   4.081   4.135 -0.0085  0.9546  0.5840
 1523SOL    HW216206   1.568   4.158   4.124 -1.3380  0.0567 -0.4296
 1524SOL     OW16207   2.657   4.067   7.652 -0.0313  0.3341  0.1629
 1524SOL    HW116208   2.659   3.971   7.656  1.1804  0.2938 -1.5669
 1524SOL    HW216209   2.642   4.083   7.559  4.4863 -0.9426 -0.7628
 1525SOL     OW16210   1.981   3.882   1.046  0.2508 -0.4549  0.0536
 1525SOL    HW116211   1.954   3.967   1.011 -2.7488 -0.9812  1.0720
 1525SOL    HW216212   2.025   3.840   0.973 -2.0954 -1.9238 -0.5228
 1526SOL     OW16213   1.757   2.283   5.627 -0.4076 -0.3298 -0.4285
 1526SOL    HW116214   1.841   2.297   5.583 -0.1408 -1.0429 -0.1451
 1526SOL    HW216215   1.767   2.189   5.645  1.3781 -0.5778 -2.7474
 1527SOL     OW16216   2.201   3.873  17.365  0.3732 -0.2368 -0.2530
 1527SOL    HW116217   2.120   3.894  17.319 -2.0749 -1.1648  3.6324
 1527SOL    HW216218   2.266   3.914  17.307 -0.3252 -1.6583 -2.0320
 1528SOL     OW16219   1.636   0.128   3.331  0.5587 -0.6469 -0.4414
 1528SOL    HW116220   1.682   0.106   3.411  0.3018  1.2820  0.2262
 1528SOL    HW216221   1.545   0.140   3.360  0.2363 -2.5565 -0.6722
 1529SOL     OW16222   2.364   0.099  17.101  0.6566 -0.0409 -0.0836
 1529SOL    HW116223   2.315   0.138  17.029  1.0954  1.7317  0.5868
 1529SOL    HW216224   2.431   0.166  17.109 -0.5673  0.8710  2.6605
 1530SOL     OW16225   4.236   0.990   8.589  0.6468  0.1362 -0.1895
 1530SOL    HW116226   4.318   0.942   8.575  1.3279  1.4669 -0.6951
 1530SOL    HW216227   4.182   0.937   8.531 -2.3143  0.2831  2.4011
 1531SOL     OW16228   3.694   3.513   2.556  0.2050  0.1544  0.0972
 1531SOL    HW116229   3.637   3.587   2.534 -2.5481 -1.8738  0.4602
 1531SOL    HW216230   3.688   3.504   2.652 -0.7516 -0.0168  0.0229
 1532SOL     OW16231   3.409   1.200   7.796 -0.1291 -0.5108  0.7559
 1532SOL    HW116232   3.484   1.229   7.849  0.6953 -1.4386  0.0989
 1532SOL    HW216233   3.443   1.218   7.708 -0.9751 -0.5893  0.4105
 1533SOL     OW16234   1.627   1.233   3.844 -0.2315 -0.1400 -0.1882
 1533SOL    HW116235   1.544   1.246   3.798  1.4688  0.0223 -3.2392
 1533SOL    HW216236   1.658   1.142   3.845  1.9411  0.5240 -3.7569
 1534SOL     OW16237   0.875   4.143   9.005  0.0454 -0.0846 -0.4207
 1534SOL    HW116238   0.883   4.236   8.985 -1.1462  0.4543  1.7038
 1534SOL    HW216239   0.874   4.100   8.919  0.2064 -0.5740 -0.1797
 1535SOL     OW16240   2.561   3.058   3.952 -0.0796 -0.2011  0.1966
 1535SOL    HW116241   2.587   3.016   4.034 -0.9738 -2.6335 -0.7512
 1535SOL    HW216242   2.646   3.086   3.919 -0.5830  1.8573  0.6920
 1536SOL     OW16243   1.983   3.607   7.980  0.2024 -0.3071 -0.0456
 1536SOL    HW116244   1.997   3.534   8.039  0.4707  0.3903  0.7493
 1536SOL    HW216245   1.958   3.680   8.036 -0.2139 -0.1380 -0.4524
 1537SOL     OW16246   4.118   1.933   8.451  0.2394 -0.2166 -0.0539
 1537SOL    HW116247   4.063   1.930   8.372  0.0538 -2.8207  0.1762
 1537SOL    HW216248   4.155   1.845   8.454  0.6673 -0.0663 -0.9941
 1538SOL     OW16249   0.193   2.804   6.986 -0.1193 -0.2401  0.2158
 1538SOL    HW116250   0.250   2.880   6.993  0.9881 -1.1088  0.5349
 1538SOL    HW216251   0.193   2.779   7.079 -0.6126 -1.3105 -0.0744
 1539SOL     OW16252   1.442   0.436   2.836  0.3418 -0.0983  0.2511
 1539SOL    HW116253   1.451   0.486   2.917 -0.1152  0.3427  0.0332
 1539SOL    HW216254   1.401   0.353   2.858 -0.6284  0.3796  0.2367
 1540SOL     OW16255   1.338   3.521   3.014 -0.2197 -0.0423  0.1291
 1540SOL    HW116256   1.362   3.602   3.059  0.1634  0.6177 -1.2441
 1540SOL    HW216257   1.371   3.453   3.072 -3.6668  0.7339  2.9824
 1541SOL     OW16258   2.457   1.631  12.097 -0.1709 -0.0416 -0.8839
 1541SOL    HW116259   2.539   1.615  12.051  0.0586  0.7017 -0.7318
 1541SOL    HW216260   2.482   1.705  12.152  0.3154 -0.3926 -0.6329
 1542SOL     OW16261   1.543   0.887   8.983  0.2410  0.2054  0.0197
 1542SOL    HW116262   1.500   0.821   9.039  0.7736 -0.7425 -0.6901
 1542SOL    HW216263   1.550   0.961   9.043  0.5473 -0.9050  1.3731
 1543SOL     OW16264   3.183   1.172   3.266 -0.2878 -0.2296  0.5552
 1543SOL    HW116265   3.125   1.215   3.203  1.5918 -0.5344 -1.3994
 1543SOL    HW216266   3.194   1.082   3.235  0.8249 -0.0515  0.4375
 1544SOL     OW16267   3.441   4.047   4.419 -0.3817  0.0383 -0.5781
 1544SOL    HW116268   3.439   4.121   4.479  2.1459 -0.3337 -0.0501
 1544SOL    HW216269   3.529   4.010   4.430  0.6901  2.6118 -0.6258
 1545SOL     OW16270   3.167   0.970  12.269 -0.3395 -0.1682 -0.5358
 1545SOL    HW116271   3.147   0.886  12.227  0.2774 -0.6391  0.1071
 1545SOL    HW216272   3.087   1.017  12.246 -1.3007 -1.3272  0.4201
 1546SOL     OW16273   4.716   1.468  12.362 -0.3956  0.0216  0.3947
 1546SOL    HW116274   0.017   1.544  12.404  0.0491  0.0254 -0.0208
 1546SOL    HW216275   0.006   1.490  12.273  2.1887  0.0591  1.2104
 1547SOL     OW16276   3.250   4.465   2.348 -0.0591  0.0618  0.2166
 1547SOL    HW116277   3.277   4.553   2.375  1.2618  0.2073 -1.5739
 1547SOL    HW216278   3.203   4.484   2.267  0.5439 -2.4169 -0.6839
 1548SOL     OW16279   3.734   1.956   9.792 -0.2024 -0.2812  0.3965
 1548SOL    HW116280   3.677   1.999   9.856  0.1107  0.6307  0.0573
 1548SOL    HW216281   3.823   1.965   9.825  0.3675 -1.3585 -0.8618
 1549SOL     OW16282   2.725   0.158   6.249  0.2048 -0.1264  0.2152
 1549SOL    HW116283   2.659   0.095   6.220 -1.5635  1.7816  0.0997
 1549SOL    HW216284   2.770   0.155   6.164  0.6632 -0.2087  0.4578
 1550SOL     OW16285   0.395   1.392  12.354  0.1762  0.1471 -0.0361
 1550SOL    HW116286   0.311   1.361  12.321  0.9512 -0.4773 -1.3977
 1550SOL    HW216287   0.393   1.361  12.445  0.0406 -0.1463 -0.1414
 1551SOL     OW16288   2.611   2.688  11.177  0.1529 -0.7302  0.3326
 1551SOL    HW116289   2.562   2.733  11.108  0.4221 -2.5774 -1.0450
 1551SOL    HW216290   2.595   2.597  11.154 -1.9038  0.4827 -3.0764
 1552SOL     OW16291   2.929   3.349   8.350  0.1895 -0.4870 -0.0426
 1552SOL    HW116292   3.016   3.377   8.378  0.9955 -0.8713 -2.1776
 1552SOL    HW216293   2.880   3.412   8.403 -1.6078 -0.8910 -1.2184
 1553SOL     OW16294   1.334   4.255   7.071 -0.5233 -0.2236 -0.3485
 1553SOL    HW116295   1.410   4.310   7.091 -0.6603 -1.6012  4.0286
 1553SOL    HW216296   1.299   4.234   7.158 -3.7063 -0.8654 -1.7798
 1554SOL     OW16297   4.125   1.547   5.619 -0.0997 -0.0764 -0.1360
 1554SOL    HW116298   4.202   1.491   5.632  1.4655  1.5068 -2.5363
 1554SOL    HW216299   4.108   1.550   5.525  0.6261 -0.4015 -0.2776
 1555SOL     OW16300   0.319   3.690   7.202  0.4756  0.4023  0.1790
 1555SOL    HW116301   0.234   3.699   7.160  1.5073  0.3614 -1.9193
 1555SOL    HW216302   0.282   3.659   7.285  1.4471 -1.6631 -0.1426
 1556SOL     OW16303   1.599   3.572   7.803  0.0263 -0.4381  0.0326
 1556SOL    HW116304   1.678   3.523   7.782  0.6562 -0.3282  2.1266
 1556SOL    HW216305   1.644   3.648   7.840  1.4951 -1.4837  0.4047
 1557SOL     OW16306   3.887   0.286   6.406 -0.0555  0.2929 -0.0671
 1557SOL    HW116307   3.950   0.336   6.458  0.2699  0.3246 -0.4889
 1557SOL    HW216308   3.816   0.349   6.394 -0.3500  0.0098  0.2047
 1558SOL     OW16309   3.267   1.606   7.148 -0.4071  0.1941 -0.0538
 1558SOL    HW116310   3.253   1.664   7.223 -1.1984  0.2630 -0.2565
 1558SOL    HW216311   3.245   1.663   7.075  1.6264 -0.8586 -1.5164
 1559SOL     OW16312   3.023   1.347   3.095  0.3214 -0.5409  0.4723
 1559SOL    HW116313   2.967   1.355   3.018  0.7263  0.0997  0.2419
 1559SOL    HW216314   3.042   1.441   3.099 -0.4632 -0.4703  2.4311
 1560SOL     OW16315   3.650   1.598   7.744  0.2647 -0.4201 -0.1437
 1560SOL    HW116316   3.558   1.576   7.731 -0.0061  0.1616  0.8296
 1560SOL    HW216317   3.683   1.550   7.668 -1.8126 -0.5948 -0.9452
 1561SOL     OW16318   3.819   0.990   9.670 -0.0375  0.1141  0.4093
 1561SOL    HW116319   3.740   1.041   9.649  0.0427 -0.2090 -0.7106
 1561SOL    HW216320   3.811   0.993   9.765 -2.2851 -0.7790  0.2552
 1562SOL     OW16321   0.422   1.620   8.938  0.5615  0.1537  0.4613
 1562SOL    HW116322   0.402   1.635   9.030 -0.1745 -2.0296  0.6537
 1562SOL    HW216323   0.346   1.658   8.892 -1.4731 -4.3651  0.0282
 1563SOL     OW16324   3.205   3.623   8.967  0.1161 -0.6510 -0.9991
 1563SOL    HW116325   3.273   3.629   8.900  1.0862  1.0342  0.1386
 1563SOL    HW216326   3.163   3.537   8.969 -2.9892  0.8737 -0.0876
 1564SOL     OW16327   1.808   2.335   3.825  0.4373 -0.3807  0.4581
 1564SOL    HW116328   1.744   2.399   3.856 -0.7282 -1.4452  0.2289
 1564SOL    HW216329   1.886   2.387   3.803 -0.0640  0.8054  1.4974
 1565SOL     OW16330   1.344   4.046   7.738 -0.8438  0.2536  0.1845
 1565SOL    HW116331   1.288   4.122   7.724  0.1226  0.8782 -0.2962
 1565SOL    HW216332   1.288   3.976   7.773 -0.7915  0.3943  0.5401
 1566SOL     OW16333   0.802   4.292   6.718 -0.8766  0.0455 -1.1394
 1566SOL    HW116334   0.752   4.216   6.690 -0.7967  0.0875 -1.3997
 1566SOL    HW216335   0.880   4.293   6.663  1.2920  3.0733  1.9856
 1567SOL     OW16336   4.419   1.930   7.012  0.3543  0.5746  0.1952
 1567SOL    HW116337   4.510   1.903   7.002  0.2755  0.7602 -1.0455
 1567SOL    HW216338   4.397   1.874   7.086  1.1660 -0.4739 -0.3628
 1568SOL     OW16339   2.539   0.271   0.161  0.4561  0.0812 -0.0802
 1568SOL    HW116340   2.536   0.343   0.224 -0.8254  0.8277 -0.9969
 1568SOL    HW216341   2.611   0.209   0.177 -0.3100 -0.6743  0.4309
 1569SOL     OW16342   0.665   0.359   4.824  0.0441  0.2039 -0.6175
 1569SOL    HW116343   0.647   0.357   4.918  0.7174 -2.0667 -0.5568
 1569SOL    HW216344   0.679   0.453   4.815  0.1311  0.1924 -0.6006
 1570SOL     OW16345   3.012   4.362  16.404 -0.1463  0.1599 -0.1555
 1570SOL    HW116346   3.086   4.402  16.359  0.0670 -1.7490 -1.4976
 1570SOL    HW216347   2.944   4.391  16.343  0.2706  0.1595 -0.6179
 1571SOL     OW16348   2.929   2.204  10.177  0.1508  0.4981  0.1829
 1571SOL    HW116349   3.003   2.194  10.118  0.0141  1.1873 -0.1026
 1571SOL    HW216350   2.858   2.217  10.114 -0.1209  3.0363  1.0425
 1572SOL     OW16351   2.319   1.803  17.266  0.3042  0.3613 -0.0117
 1572SOL    HW116352   2.250   1.841  17.212 -0.1688  1.9016  1.6777
 1572SOL    HW216353   2.374   1.751  17.207 -1.7876  1.1322 -2.6730
 1573SOL     OW16354   3.798   1.615   2.278  0.2791  0.3738 -0.2425
 1573SOL    HW116355   3.827   1.561   2.205  1.5291  0.9978 -0.2189
 1573SOL    HW216356   3.705   1.599   2.266 -0.0112  0.9234  1.2843
 1574SOL     OW16357   2.867   1.744   0.089  0.0685  0.3825  0.0091
 1574SOL    HW116358   2.841   1.664   0.135  2.3188 -0.9336 -1.0077
 1574SOL    HW216359   2.854   1.808   0.159 -4.2722  0.4190 -0.8767
 1575SOL     OW16360   0.361   3.900  17.079 -0.0922 -0.0924 -0.2384
 1575SOL    HW116361   0.317   3.824  17.040  0.8410 -0.3048 -0.8738
 1575SOL    HW216362   0.353   3.960  17.005 -1.5894 -2.0850 -1.6969
 1576SOL     OW16363   0.976   3.143  12.270 -0.2232  0.1192 -0.2435
 1576SOL    HW116364   1.063   3.182  12.269  0.8636 -2.2231  1.0201
 1576SOL    HW216365   0.944   3.162  12.182  1.0098 -1.0519 -0.9583
 1577SOL     OW16366   2.148   2.320   1.017 -0.0201 -0.0719 -0.1783
 1577SOL    HW116367   2.106   2.242   0.979 -0.7659  1.1474 -1.8714
 1577SOL    HW216368   2.219   2.335   0.954  0.2497  1.7743  0.5669
 1578SOL     OW16369   3.235   2.545   7.506  0.3075 -0.4352 -0.3911
 1578SOL    HW116370   3.165   2.482   7.521 -0.4890  1.0235  2.1143
 1578SOL    HW216371   3.306   2.511   7.562  1.8236 -0.5000 -2.3532
 1579SOL     OW16372   1.339   1.391   0.796  0.5022  0.2223  0.0958
 1579SOL    HW116373   1.383   1.421   0.875  1.7951 -2.3447  0.3675
 1579SOL    HW216374   1.390   1.436   0.729  0.3161 -0.0759 -0.2508
 1580SOL     OW16375   4.417   0.268  12.068  0.2762  1.0482 -0.6198
 1580SOL    HW116376   4.401   0.176  12.085  2.2244  0.8011 -0.1403
 1580SOL    HW216377   4.511   0.280  12.082 -0.0653  1.7245  1.0635
 1581SOL     OW16378   0.733   0.127   8.781 -0.2922  0.2861  0.1930
 1581SOL    HW116379   0.772   0.191   8.840  2.1072 -0.8158 -0.1783
 1581SOL    HW216380   0.667   0.176   8.733  0.6904  0.3075 -1.1285
 1582SOL     OW16381   0.958   3.481   5.700 -0.1036  0.3754 -0.0905
 1582SOL    HW116382   1.042   3.441   5.721 -0.7607  0.1990  2.2102
 1582SOL    HW216383   0.990   3.568   5.677  0.8428 -0.2148 -0.9889
 1583SOL     OW16384   0.501   4.637   8.564  0.0314 -0.5594  0.5564
 1583SOL    HW116385   0.514   4.662   8.473 -1.7769 -0.9378  0.1921
 1583SOL    HW216386   0.585   4.617   8.605 -1.1396 -2.2074  2.1135
 1584SOL     OW16387   3.069   1.134   6.571 -0.2736 -0.0955  0.0069
 1584SOL    HW116388   3.015   1.059   6.599  0.4360 -0.8070 -0.5296
 1584SOL    HW216389   3.155   1.095   6.561  0.8543  2.4431 -0.1747
 1585SOL     OW16390   4.357   0.937   9.230  0.2038 -0.0143 -0.1370
 1585SOL    HW116391   4.293   1.007   9.225 -0.2700 -0.4574 -0.3011
 1585SOL    HW216392   4.384   0.933   9.322 -1.9049 -1.3483  0.4214
 1586SOL     OW16393   2.760   2.695   7.356 -0.1578  0.3433  0.2978
 1586SOL    HW116394   2.765   2.777   7.307 -0.8077  0.1081 -0.1499
 1586SOL    HW216395   2.841   2.702   7.406 -1.5058  4.8742  1.8094
 1587SOL     OW16396   0.747   1.901   3.994  0.7994  0.6493  0.1897
 1587SOL    HW116397   0.760   1.826   4.052  1.7305 -0.3971 -1.3496
 1587SOL    HW216398   0.715   1.855   3.916  1.3704  1.4174 -0.5003
 1588SOL     OW16399   3.752   1.445   5.156 -0.3771 -0.2208  0.2092
 1588SOL    HW116400   3.712   1.451   5.069 -2.5469  0.7666  1.2664
 1588SOL    HW216401   3.844   1.433   5.132  0.2215  2.1602  1.3276
 1589SOL     OW16402   4.220   1.523   4.247  0.1991  0.3597  0.1489
 1589SOL    HW116403   4.277   1.546   4.173 -0.2857 -1.1884 -0.7204
 1589SOL    HW216404   4.159   1.596   4.239  1.1793  0.7368 -4.1388
 1590SOL     OW16405   2.370   4.058   0.438 -0.1376 -0.2361  0.1918
 1590SOL    HW116406   2.325   4.129   0.393  0.4673 -1.1276 -1.8056
 1590SOL    HW216407   2.429   4.106   0.497 -0.0272  2.9820 -2.5443
 1591SOL     OW16408   2.748   2.722  12.478  0.3839  0.0047  0.0786
 1591SOL    HW116409   2.699   2.802  12.496 -0.7896 -1.0304  1.4897
 1591SOL    HW216410   2.765   2.675  12.559 -1.9134 -0.1070  0.4783
 1592SOL     OW16411   1.130   2.626   4.735  0.2447 -0.1064  0.0099
 1592SOL    HW116412   1.169   2.589   4.814 -0.9160  1.3848  1.2929
 1592SOL    HW216413   1.166   2.714   4.747 -2.6475  0.9385  1.1152
 1593SOL     OW16414   2.551   4.151   5.153 -0.2510 -0.2924  0.2428
 1593SOL    HW116415   2.521   4.238   5.126  0.5468 -0.1786 -0.2631
 1593SOL    HW216416   2.496   4.144   5.231 -1.7308 -1.5649 -0.9037
 1594SOL     OW16417   4.656   1.153   0.260  0.4157 -0.6245  0.1016
 1594SOL    HW116418   4.631   1.101   0.335 -1.6509  0.9904  0.5287
 1594SOL    HW216419   0.008   1.120   0.259  0.1538 -1.2999 -1.9574
 1595SOL     OW16420   1.259   3.599   6.620  0.0814  0.0456  0.7321
 1595SOL    HW116421   1.291   3.527   6.566 -0.4609  0.3987 -0.0618
 1595SOL    HW216422   1.335   3.612   6.677  0.7026 -1.3025  0.1913
 1596SOL     OW16423   4.214   1.905   2.181  1.0454  0.3812 -0.3197
 1596SOL    HW116424   4.160   1.859   2.118  2.7214  1.1920 -2.3633
 1596SOL    HW216425   4.164   1.888   2.261  1.9621  0.0031  0.1754
 1597SOL     OW16426   0.868   1.967   3.687 -0.1856 -0.6687 -0.5992
 1597SOL    HW116427   0.788   1.925   3.720  0.3088 -1.1983 -0.0862
 1597SOL    HW216428   0.827   1.988   3.603 -1.5049 -0.6329  0.0525
 1598SOL     OW16429   3.581   1.511   7.445  0.2668 -0.0994 -0.2177
 1598SOL    HW116430   3.530   1.587   7.474  0.5190  0.0767 -0.2402
 1598SOL    HW216431   3.532   1.490   7.365 -1.2835 -2.5043  1.3708
 1599SOL     OW16432   1.921   0.579   6.149  0.5258  0.2401 -0.2674
 1599SOL    HW116433   1.979   0.520   6.198 -0.3435 -1.7836 -1.6797
 1599SOL    HW216434   1.987   0.639   6.112  2.0943 -0.7471  0.9195
 1600SOL     OW16435   0.083   0.312   8.470  0.0314  0.3669  0.6358
 1600SOL    HW116436   0.059   0.388   8.416  0.3502  0.7358  1.0050
 1600SOL    HW216437   0.141   0.266   8.410 -3.8155 -1.6529 -1.5109
 1601SOL     OW16438   3.540   2.743  17.295  0.4324 -0.1015 -0.3438
 1601SOL    HW116439   3.632   2.730  17.270 -0.2407 -2.3123 -1.7117
 1601SOL    HW216440   3.551   2.826  17.341  0.5756 -2.1050  3.1779
 1602SOL     OW16441   0.841   3.159   7.826 -0.8489  0.1720 -0.8774
 1602SOL    HW116442   0.828   3.065   7.823  1.2821 -0.2353  1.9069
 1602SOL    HW216443   0.842   3.171   7.921  1.8883 -2.2795 -0.5827
 1603SOL     OW16444   4.242   0.784  14.342  0.4032 -0.1547 -0.4824
 1603SOL    HW116445   4.304   0.810  14.274  1.3595 -1.5464 -0.1305
 1603SOL    HW216446   4.228   0.870  14.382  2.2976  0.0202 -0.2154
 1604SOL     OW16447   4.523   4.629  14.579  0.4629  0.2220  0.3401
 1604SOL    HW116448   4.501   4.540  14.552  1.8498 -0.3094  0.9481
 1604SOL    HW216449   4.606   4.643  14.534  0.6197 -0.1008  0.5260
 1605SOL     OW16450   2.191   0.153  17.575 -0.1716 -0.2369 -0.4567
 1605SOL    HW116451   2.261   0.109  17.526 -1.3196 -1.0607 -1.3533
 1605SOL    HW216452   2.219   0.241  17.553  1.1036  0.1533  2.7089
 1606SOL     OW16453   0.059   2.270   6.665  0.2130 -0.1529  0.5727
 1606SOL    HW116454   0.008   2.351   6.669 -0.0387 -0.2130 -1.4055
 1606SOL    HW216455   0.012   2.215   6.728 -2.0607  0.0781 -0.9205
 1607SOL     OW16456   4.637   4.019   8.388  0.3418 -0.8188 -0.1770
 1607SOL    HW116457   4.695   3.975   8.325 -0.3442 -1.3845 -0.4146
 1607SOL    HW216458   4.551   4.018   8.347 -0.5731 -1.4932  1.7625
 1608SOL     OW16459   2.247   3.956   8.518 -0.1085 -0.0627 -0.2330
 1608SOL    HW116460   2.330   3.967   8.564  0.7784  0.4736 -1.9489
 1608SOL    HW216461   2.217   4.044   8.543  0.5529 -0.1750  0.9063
 1609SOL     OW16462   0.991   2.537   3.571  0.2496 -0.4197  0.1292
 1609SOL    HW116463   1.027   2.615   3.528 -1.4454 -0.3843 -1.2100
 1609SOL    HW216464   0.901   2.553   3.545 -0.1008 -0.3706  1.3708
 1610SOL     OW16465   0.423   0.304   8.368  0.4029  0.2831  0.3295
 1610SOL    HW116466   0.422   0.399   8.380 -1.2807  0.3445 -0.4071
 1610SOL    HW216467   0.342   0.292   8.318  0.5568  2.3424 -0.3876
 1611SOL     OW16468   4.644   0.412   3.603 -0.4996 -0.1057  0.4407
 1611SOL    HW116469   4.731   0.420   3.564  0.6284 -2.0862  2.6011
 1611SOL    HW216470   4.630   0.317   3.595 -2.5542  0.1838  0.4893
 1612SOL     OW16471   1.982   3.490   0.012 -0.0358 -0.3547 -0.5980
 1612SOL    HW116472   2.059   3.520   0.060 -0.7307 -0.1375  0.3923
 1612SOL    HW216473   2.018   3.416  17.713 -0.3962  1.2933 -3.3552
 1613SOL     OW16474   4.551   4.336   8.987 -0.2079  0.2854 -0.5067
 1613SOL    HW116475   4.637   4.377   8.992 -0.2696  0.3102  0.3114
 1613SOL    HW216476   4.568   4.242   8.984  2.9531  0.8377  1.1354
 1614SOL     OW16477   4.130   4.509  14.760  0.0871 -0.3689 -0.2512
 1614SOL    HW116478   4.161   4.466  14.681 -0.1308 -0.7109 -0.1512
 1614SOL    HW216479   4.207   4.496  14.815 -0.1934  0.3009  0.3143
 1615SOL     OW16480   2.462   2.134   3.797  0.2609 -0.0668 -0.6107
 1615SOL    HW116481   2.423   2.186   3.727 -0.9689 -1.5928 -1.0692
 1615SOL    HW216482   2.552   2.128   3.765  0.6904  2.8836  0.0814
 1616SOL     OW16483   0.964   1.714   4.431 -0.6038 -0.1721  0.4723
 1616SOL    HW116484   0.953   1.670   4.515  0.5152  2.2786  1.8997
 1616SOL    HW216485   0.886   1.770   4.432 -2.1974 -2.3202 -2.0237
 1617SOL     OW16486   3.230   3.876   2.708 -0.3077 -0.2561  0.5408
 1617SOL    HW116487   3.326   3.879   2.714 -0.2730  1.9528 -0.8809
 1617SOL    HW216488   3.215   3.950   2.767  1.8739  0.6082  0.0228
 1618SOL     OW16489   0.447   4.288  10.422  0.0568  0.9916 -0.3638
 1618SOL    HW116490   0.535   4.279  10.384 -0.4554 -1.9444 -0.8222
 1618SOL    HW216491   0.457   4.336  10.505  1.4278 -1.0846  0.6750
 1619SOL     OW16492   3.232   0.887   4.993  0.4081 -0.0491  0.5660
 1619SOL    HW116493   3.263   0.806   4.953 -1.2141 -0.2720 -0.2440
 1619SOL    HW216494   3.195   0.853   5.074  1.0505  2.0757  1.7422
 1620SOL     OW16495   3.393   2.189   5.695  0.0669 -0.3016  0.2883
 1620SOL    HW116496   3.393   2.094   5.710 -0.0694 -0.6058 -1.6176
 1620SOL    HW216497   3.361   2.226   5.776  0.1209  1.3957 -0.4710
 1621SOL     OW16498   2.404   3.829  10.742 -0.1154 -0.5131  0.0706
 1621SOL    HW116499   2.360   3.747  10.720  2.4479 -2.1629  1.0972
 1621SOL    HW216500   2.351   3.897  10.702  0.8464 -0.5589 -1.2920
 1622SOL     OW16501   1.239   3.661   6.929 -0.0993  0.1485 -0.7199
 1622SOL    HW116502   1.324   3.618   6.932 -0.1606  0.0848  0.0383
 1622SOL    HW216503   1.196   3.585   6.967 -0.3005  0.4045 -0.4355
 1623SOL     OW16504   3.136   1.669  17.711  0.3938  0.1230  0.7241
 1623SOL    HW116505   3.175   1.744   0.006  2.2427  0.5508 -1.5823
 1623SOL    HW216506   3.064   1.658   0.024 -0.7966 -0.0757 -0.6653
 1624SOL     OW16507   1.310   0.835   5.884  0.2481  0.0604 -0.0378
 1624SOL    HW116508   1.278   0.818   5.973  1.2373  1.1803  0.5330
 1624SOL    HW216509   1.392   0.879   5.909  0.4556 -0.9359  1.0785
 1625SOL     OW16510   2.938   4.182   6.901 -0.6037  0.6797  0.3624
 1625SOL    HW116511   3.003   4.141   6.844 -2.3492 -0.5075 -0.7841
 1625SOL    HW216512   2.994   4.245   6.945 -1.0845  0.8700  0.7055
 1626SOL     OW16513   0.784   3.125   4.353 -0.2961  0.3574  0.3201
 1626SOL    HW116514   0.725   3.052   4.370  0.0722  0.0088  0.0988
 1626SOL    HW216515   0.808   3.132   4.260 -1.8898  2.2897  0.0443
 1627SOL     OW16516   2.697   4.648  15.763  0.2432  0.1013  0.1532
 1627SOL    HW116517   2.772   4.688  15.719  0.9804 -2.3446 -0.8265
 1627SOL    HW216518   2.683   4.708  15.836 -0.5730  2.0086 -1.5843
 1628SOL     OW16519   0.240   2.413   4.634 -0.0922 -0.7000  0.0891
 1628SOL    HW116520   0.280   2.493   4.600  2.6283 -2.0420  0.1365
 1628SOL    HW216521   0.196   2.377   4.557  1.3991 -1.3015 -0.4834
 1629SOL     OW16522   3.483   2.883  15.267  0.7090 -0.6642 -0.3816
 1629SOL    HW116523   3.515   2.800  15.304  1.4197 -0.3404 -0.2635
 1629SOL    HW216524   3.399   2.884  15.313  0.0598  0.6543 -1.6145
 1630SOL     OW16525   3.423   1.523   6.684  0.2148  0.4194  0.1116
 1630SOL    HW116526   3.331   1.517   6.660 -0.6522 -0.7854  3.5988
 1630SOL    HW216527   3.467   1.453   6.635 -0.3389  0.5274 -0.5323
 1631SOL     OW16528   4.551   1.888   4.072  0.4499 -0.3215 -0.1774
 1631SOL    HW116529   4.620   1.946   4.104  0.4100 -0.3476 -0.0409
 1631SOL    HW216530   4.477   1.945   4.091 -0.0202 -2.0726  3.2695
 1632SOL     OW16531   1.240   3.343   5.725 -0.3946 -0.0401  0.6568
 1632SOL    HW116532   1.276   3.263   5.762  1.1030  1.0723  1.5807
 1632SOL    HW216533   1.205   3.296   5.649 -1.5444  0.5914  0.8035
 1633SOL     OW16534   2.958   1.757   9.316  0.2419 -0.4974 -0.1466
 1633SOL    HW116535   2.949   1.852   9.328 -1.1295 -0.3328 -2.4785
 1633SOL    HW216536   2.999   1.720   9.394  2.5332  0.5168 -0.8582
 1634SOL     OW16537   4.639   3.397   5.964  0.5058  0.0163 -0.0458
 1634SOL    HW116538   4.730   3.371   5.978  1.0662  1.4312 -1.1511
 1634SOL    HW216539   4.646   3.449   5.884 -1.4932 -1.1960 -1.0041
 1635SOL     OW16540   3.619   3.042   1.774  0.3841 -0.2951 -0.1736
 1635SOL    HW116541   3.646   3.098   1.701  0.9835 -0.5717 -0.1583
 1635SOL    HW216542   3.703   3.006   1.801  1.2295  1.6724 -0.2213
 1636SOL     OW16543   2.718   0.968   5.958  0.6138  0.3268 -0.6538
 1636SOL    HW116544   2.763   0.995   6.038 -0.3556 -0.7112  0.2476
 1636SOL    HW216545   2.748   0.879   5.940 -3.4962 -1.2300  0.2660
 1637SOL     OW16546   3.390   0.800   5.321 -0.1154 -0.8287  0.3277
 1637SOL    HW116547   3.370   0.827   5.411 -1.0402 -0.7598  0.1040
 1637SOL    HW216548   3.469   0.751   5.342  0.2342 -1.0440 -1.4690
 1638SOL     OW16549   2.053   4.398   7.692 -0.2794 -0.3261  0.6329
 1638SOL    HW116550   2.084   4.348   7.767  3.0869  0.3087 -0.3576
 1638SOL    HW216551   1.959   4.397   7.713  0.0247 -1.0467  1.9571
 1639SOL     OW16552   0.427   0.756   5.928  0.2454 -0.2764 -0.1400
 1639SOL    HW116553   0.477   0.692   5.876 -1.4740 -0.4493 -1.5843
 1639SOL    HW216554   0.491   0.827   5.934 -0.2526  0.1966 -0.3801
 1640SOL     OW16555   3.250   3.090   7.243  0.4579  0.6391 -0.0682
 1640SOL    HW116556   3.291   3.153   7.183 -0.2040 -0.5638 -1.7949
 1640SOL    HW216557   3.252   3.139   7.325  0.2242 -0.6527  0.7018
 1641SOL     OW16558   4.279   4.520   1.813 -0.0063  0.0001 -0.2629
 1641SOL    HW116559   4.208   4.461   1.789 -1.1787  1.5663 -0.6230
 1641SOL    HW216560   4.354   4.461   1.800  0.0410  0.0907 -0.4048
 1642SOL     OW16561   1.737   2.836   4.094  0.4789 -0.0458  0.4547
 1642SOL    HW116562   1.657   2.841   4.146  0.7568  0.6451  0.8239
 1642SOL    HW216563   1.798   2.891   4.144  1.0942  0.2353 -0.6139
 1643SOL     OW16564   0.545   2.818   8.117 -0.2593  0.0252  0.4313
 1643SOL    HW116565   0.523   2.902   8.158 -0.4303  1.5281 -2.7659
 1643SOL    HW216566   0.537   2.760   8.193  1.7844 -1.4577 -0.4775
 1644SOL     OW16567   1.744   0.473   1.368  1.0305  0.0378  0.0613
 1644SOL    HW116568   1.797   0.482   1.448 -0.0593  0.9714  0.6848
 1644SOL    HW216569   1.752   0.565   1.343  1.8910 -0.4796 -1.5314
 1645SOL     OW16570   3.089   1.412   5.629  0.3141 -0.3065 -0.5428
 1645SOL    HW116571   3.112   1.503   5.610 -0.2204  0.3090  1.7927
 1645SOL    HW216572   3.127   1.405   5.716  0.7575  0.5604 -0.6627
 1646SOL     OW16573   4.388   0.396   8.240 -0.1768 -0.2749  0.1519
 1646SOL    HW116574   4.412   0.444   8.320  0.2443 -0.5294  0.1809
 1646SOL    HW216575   4.356   0.316   8.282 -1.7431  0.6730  0.7631
 1647SOL     OW16576   4.036   0.178  17.685  0.1794  0.7412 -0.0988
 1647SOL    HW116577   4.066   0.211   0.019 -0.3898 -1.5787  1.0270
 1647SOL    HW216578   4.118   0.195  17.638  0.6939  3.1404  1.6749
 1648SOL     OW16579   3.181   0.608  10.098 -0.0892  0.3010 -0.0301
 1648SOL    HW116580   3.088   0.601  10.119  0.1435 -0.5909  0.6772
 1648SOL    HW216581   3.164   0.694  10.058  2.9592  1.1607  0.5178
 1649SOL     OW16582   1.823   2.462   0.147  0.0955 -0.1352  0.4382
 1649SOL    HW116583   1.857   2.383   0.189 -1.4841 -0.3261  1.3748
 1649SOL    HW216584   1.806   2.530   0.213  2.4075  3.4342 -2.6326
 1650SOL     OW16585   3.837   1.394   7.536  0.4550  0.1068 -0.3426
 1650SOL    HW116586   3.775   1.410   7.465  1.9924  0.4035 -1.6367
 1650SOL    HW216587   3.909   1.354   7.487 -0.2258 -1.1670 -0.2916
 1651SOL     OW16588   4.025   2.862   5.295 -0.1676 -0.6452  0.1078
 1651SOL    HW116589   4.055   2.816   5.373  2.6695  0.1943 -0.5133
 1651SOL    HW216590   4.030   2.790   5.232  0.2998 -0.4429 -0.0884
 1652SOL     OW16591   1.527   4.277   1.905  0.1174 -0.6240  0.0265
 1652SOL    HW116592   1.582   4.339   1.857 -0.0254  0.1376  0.8331
 1652SOL    HW216593   1.586   4.237   1.968 -0.0677  2.4182  2.1146
 1653SOL     OW16594   2.719   1.968   5.000 -0.4282 -0.0360 -0.2234
 1653SOL    HW116595   2.697   1.877   4.981 -2.9607  1.0706 -2.5200
 1653SOL    HW216596   2.778   1.954   5.075  0.0179 -0.6316 -0.6895
 1654SOL     OW16597   3.456   0.255  13.886 -0.1575  0.2160 -0.0050
 1654SOL    HW116598   3.516   0.242  13.812 -0.0596 -1.3748  0.3598
 1654SOL    HW216599   3.513   0.238  13.961 -0.6034 -1.1981  0.0127
 1655SOL     OW16600   1.290   1.441  13.596  0.1576 -0.5877 -0.2908
 1655SOL    HW116601   1.245   1.422  13.513  0.4790  0.6253 -0.7362
 1655SOL    HW216602   1.254   1.527  13.615  1.4748 -0.0446 -0.2582
 1656SOL     OW16603   0.097   3.045   3.130  0.3006  0.2088  0.1530
 1656SOL    HW116604   0.094   3.116   3.195  0.0410  0.8824 -0.6022
 1656SOL    HW216605   0.049   3.091   3.062  0.7687  0.5164  0.0279
 1657SOL     OW16606   3.516   0.100   9.352  0.1517 -0.4454  0.3169
 1657SOL    HW116607   3.581   0.170   9.355  1.6921 -1.9587  2.4312
 1657SOL    HW216608   3.440   0.157   9.348  0.7806  0.3357 -0.5272
 1658SOL     OW16609   2.569   4.058   3.960 -0.1898  0.0694 -0.0640
 1658SOL    HW116610   2.649   4.063   3.907  0.6084  1.2275  1.2698
 1658SOL    HW216611   2.513   3.995   3.914 -0.8328  2.3771 -2.4836
 1659SOL     OW16612   1.249   1.241  10.370  0.2652 -0.0258 -0.0833
 1659SOL    HW116613   1.307   1.259  10.444  1.0415 -2.2461 -0.1215
 1659SOL    HW216614   1.245   1.146  10.387 -3.7056  0.2624  0.4280
 1660SOL     OW16615   1.517   4.186   8.686 -0.0405 -0.2163 -0.9198
 1660SOL    HW116616   1.449   4.190   8.619  0.0824 -2.9789 -1.1897
 1660SOL    HW216617   1.529   4.093   8.670 -2.6836 -0.5887 -0.8040
 1661SOL     OW16618   3.419   2.139   3.979 -0.0812  0.0193  0.3340
 1661SOL    HW116619   3.428   2.069   4.044 -0.1553 -0.9070 -0.6433
 1661SOL    HW216620   3.352   2.102   3.922  1.3404 -2.4906  0.2848
 1662SOL     OW16621   1.150   3.701  13.742  0.6530  0.9383  0.1648
 1662SOL    HW116622   1.147   3.628  13.804  1.9689 -0.5537 -1.5059
 1662SOL    HW216623   1.057   3.722  13.731  1.3367  2.9245 -1.8006
 1663SOL     OW16624   0.032   1.213   2.564 -0.3056 -0.2056 -0.2765
 1663SOL    HW116625   0.089   1.246   2.495 -0.2985  0.3338 -0.0057
 1663SOL    HW216626   0.080   1.235   2.644  0.9757  0.4260 -1.2379
 1664SOL     OW16627   1.639   1.201  14.083  0.1422  0.3732 -0.3269
 1664SOL    HW116628   1.576   1.130  14.071 -1.7024  1.7870  1.1486
 1664SOL    HW216629   1.589   1.271  14.125  0.3794 -0.2429  0.9801
 1665SOL     OW16630   3.226   0.921   1.799  0.5775  0.2672 -0.0853
 1665SOL    HW116631   3.275   0.932   1.881  0.7631 -0.4197 -0.1030
 1665SOL    HW216632   3.143   0.959   1.829  0.8753 -0.0887  1.1839
 1666SOL     OW16633   2.361   3.349   4.183 -0.0516 -0.0333  0.0899
 1666SOL    HW116634   2.374   3.262   4.220 -1.2415 -0.1422  0.2457
 1666SOL    HW216635   2.322   3.394   4.258  0.7642 -1.2607  1.2403
 1667SOL     OW16636   3.871   2.267  13.889 -0.1229  0.0115  0.2360
 1667SOL    HW116637   3.849   2.204  13.821 -1.6842  1.8212 -0.9122
 1667SOL    HW216638   3.847   2.219  13.968 -0.1251  1.0704  0.8776
 1668SOL     OW16639   4.047   2.357  13.496 -0.1202  0.3653  0.4811
 1668SOL    HW116640   4.126   2.306  13.479 -1.2383 -1.0964 -0.3162
 1668SOL    HW216641   4.062   2.428  13.433 -2.5368  0.3697 -0.0949
 1669SOL     OW16642   0.573   3.001  17.462 -0.4909 -0.1144 -0.3262
 1669SOL    HW116643   0.642   2.980  17.524  0.2810 -2.2308 -1.9018
 1669SOL    HW216644   0.532   2.914  17.467 -0.0962 -0.3223 -0.7076
 1670SOL     OW16645   1.652   1.322   9.191  0.5860  0.1127 -0.1719
 1670SOL    HW116646   1.680   1.361   9.274 -2.9637  0.6231  0.7955
 1670SOL    HW216647   1.648   1.401   9.137  1.3114  0.1274 -0.1949
 1671SOL     OW16648   1.425   2.436   2.984  0.1599  0.2145 -0.1737
 1671SOL    HW116649   1.443   2.528   3.007 -0.2032  0.2800 -0.1545
 1671SOL    HW216650   1.497   2.427   2.922 -0.4594  2.1584 -1.1923
 1672SOL     OW16651   2.650   2.147   3.424 -0.2365 -0.0128  0.3718
 1672SOL    HW116652   2.636   2.053   3.409 -2.1034  0.3861 -0.3997
 1672SOL    HW216653   2.697   2.146   3.507 -1.3500  0.3243  1.0091
 1673SOL     OW16654   4.111   2.774  16.893 -0.2398  0.6887 -0.3238
 1673SOL    HW116655   4.113   2.870  16.893 -0.5628  0.6883  1.5293
 1673SOL    HW216656   4.122   2.745  16.983  1.8040  1.7111 -0.2482
 1674SOL     OW16657   4.248   1.775   9.092  0.3764 -0.0106  0.3831
 1674SOL    HW116658   4.329   1.727   9.110 -0.2080 -0.2344  2.3969
 1674SOL    HW216659   4.231   1.759   8.999 -0.7723 -0.4999  0.6820
 1675SOL     OW16660   0.340   0.057   1.956  0.6273  0.1204  0.7225
 1675SOL    HW116661   0.407   0.080   1.891  0.6059  1.0020  1.0210
 1675SOL    HW216662   0.330   4.702   1.934 -0.2651  0.2058  0.7821
 1676SOL     OW16663   2.508   1.378   8.806  0.4422  0.2821 -0.0668
 1676SOL    HW116664   2.468   1.292   8.821  0.7384  0.4480  1.6805
 1676SOL    HW216665   2.590   1.355   8.763  0.4852  0.7006 -0.2086
 1677SOL     OW16666   4.689   0.594   8.735 -0.6997  0.1178  0.1362
 1677SOL    HW116667   4.735   0.543   8.801 -1.3917  0.5955  0.9773
 1677SOL    HW216668   0.023   0.619   8.678  0.0009  0.4556  1.1770
 1678SOL     OW16669   2.587   2.420   7.345 -0.4161  0.4086  0.0800
 1678SOL    HW116670   2.577   2.443   7.253  0.5957  0.5141 -0.0056
 1678SOL    HW216671   2.652   2.489   7.360  0.4371 -0.5506  0.7821
 1679SOL     OW16672   1.119   0.661   1.573  0.1686 -0.0857 -0.3060
 1679SOL    HW116673   1.153   0.691   1.488  0.2865  1.3308  0.2315
 1679SOL    HW216674   1.036   0.627   1.540 -0.5449 -0.4946  1.9269
 1680SOL     OW16675   1.162   2.635   8.626 -0.3737 -0.4769  0.1777
 1680SOL    HW116676   1.101   2.707   8.607 -0.7716 -0.3200  1.9885
 1680SOL    HW216677   1.113   2.606   8.703 -2.9740 -0.0386 -1.3116
 1681SOL     OW16678   0.848   3.190  12.494 -0.2685 -0.7849  0.0979
 1681SOL    HW116679   0.893   3.183  12.410  0.9764 -1.1729  0.7918
 1681SOL    HW216680   0.896   3.253  12.548  0.9604 -1.8814  0.2811
 1682SOL     OW16681   0.861   4.572   5.225  0.1781  0.1896  0.0183
 1682SOL    HW116682   0.896   4.659   5.208 -0.4591  0.5967  0.7723
 1682SOL    HW216683   0.869   4.537   5.137 -0.2925  1.8319 -0.6911
 1683SOL     OW16684   1.663   0.742   9.331  0.2442  0.4907  0.5292
 1683SOL    HW116685   1.653   0.651   9.301 -0.3921  0.9621 -0.6767
 1683SOL    HW216686   1.583   0.782   9.298  0.0490 -0.8710 -0.7041
 1684SOL     OW16687   3.588   0.832   3.585 -0.1254 -0.1433  0.2708
 1684SOL    HW116688   3.590   0.837   3.489 -0.4642 -0.7835  0.2272
 1684SOL    HW216689   3.570   0.739   3.598 -0.8248 -0.0791 -0.2480
 1685SOL     OW16690   2.056   1.013   7.308  0.2423  0.1692 -0.4178
 1685SOL    HW116691   2.114   0.992   7.381  1.7594  0.5923 -1.5173
 1685SOL    HW216692   2.068   0.925   7.272  3.4105  0.2884  0.3814
 1686SOL     OW16693   4.112   2.942  11.811  0.0774  0.0818 -0.1176
 1686SOL    HW116694   4.201   2.972  11.828  0.2694 -2.0838  2.7061
 1686SOL    HW216695   4.099   2.894  11.893 -2.1356  0.1242 -0.4391
 1687SOL     OW16696   4.653   1.036   1.181  0.3621 -0.2531 -0.3363
 1687SOL    HW116697   4.608   1.012   1.101 -1.2274  1.6759 -0.0148
 1687SOL    HW216698   4.688   0.948   1.189 -0.8845 -0.7077 -0.0586
 1688SOL     OW16699   3.079   0.968   2.977  0.0474  0.0571 -0.0268
 1688SOL    HW116700   3.153   1.025   2.957  0.2026 -0.3588 -0.6492
 1688SOL    HW216701   3.124   0.885   2.992 -1.9558 -1.3573 -1.7599
 1689SOL     OW16702   2.992   1.415   9.189  0.0060 -0.4872  0.0618
 1689SOL    HW116703   3.078   1.454   9.205  0.2929 -1.5165  1.0051
 1689SOL    HW216704   2.957   1.471   9.120  0.8284  0.8482  0.7401
 1690SOL     OW16705   1.735   1.496   1.726  0.1662  0.5004  0.9330
 1690SOL    HW116706   1.656   1.457   1.764  1.1450 -2.4001 -0.0172
 1690SOL    HW216707   1.706   1.586   1.736 -3.1517 -0.2902 -1.5433
 1691SOL     OW16708   4.663   0.666   3.200  0.5494  0.4585  0.0111
 1691SOL    HW116709   0.012   0.640   3.170  1.2854  1.4967  1.2498
 1691SOL    HW216710   4.637   0.586   3.246  2.7787 -0.8469 -0.9979
 1692SOL     OW16711   3.524   1.174  12.880 -0.3695  0.3618 -0.3640
 1692SOL    HW116712   3.554   1.255  12.838 -0.1275  1.4702  1.9714
 1692SOL    HW216713   3.605   1.127  12.902 -0.6857  0.2599  0.5823
 1693SOL     OW16714   0.170   1.875   2.966  0.5474 -0.3347  0.0164
 1693SOL    HW116715   0.108   1.912   2.903  1.5910 -1.0700 -1.4415
 1693SOL    HW216716   0.202   1.794   2.926 -0.0791 -0.9570  0.7941
 1694SOL     OW16717   1.142   2.970   6.134 -0.3459 -0.1793 -0.2726
 1694SOL    HW116718   1.113   3.059   6.114  1.9261  1.0388  1.7544
 1694SOL    HW216719   1.149   2.964   6.230 -0.0426 -1.2238 -0.3576
 1695SOL     OW16720   3.538   0.615  11.936 -0.4889 -0.3909 -0.5815
 1695SOL    HW116721   3.491   0.586  11.858 -0.9688 -0.5970 -0.2201
 1695SOL    HW216722   3.464   0.632  11.995  1.3256 -0.5912  1.7809
 1696SOL     OW16723   3.252   4.041   8.131  0.6966  0.1788 -0.0966
 1696SOL    HW116724   3.337   4.005   8.104  1.1189 -0.0682  1.5569
 1696SOL    HW216725   3.257   4.134   8.112  0.5935  0.7669  2.7034
 1697SOL     OW16726   3.373   2.641   6.565 -0.4046  0.4053  0.1642
 1697SOL    HW116727   3.385   2.558   6.611 -1.5667  1.0299  1.6302
 1697SOL    HW216728   3.458   2.679   6.583 -0.5275  1.2044 -0.9781
 1698SOL     OW16729   0.381   1.975   0.131  0.0575  0.1503  0.0372
 1698SOL    HW116730   0.427   2.020   0.060 -0.1304  1.7138  0.8979
 1698SOL    HW216731   0.453   1.936   0.182 -0.6288 -0.5093  0.4981
 1699SOL     OW16732   3.658   1.152   1.145  0.0653  0.0041  0.0042
 1699SOL    HW116733   3.606   1.093   1.090 -0.0985 -0.6463  0.8593
 1699SOL    HW216734   3.743   1.125   1.109 -0.0590  1.5290 -1.4221
 1700SOL     OW16735   4.383   3.423   1.978  0.0962  0.1533  0.0316
 1700SOL    HW116736   4.376   3.342   2.029  0.2092 -0.1581 -0.4433
 1700SOL    HW216737   4.397   3.392   1.888 -0.1064 -1.1585  0.4478
 1701SOL     OW16738   3.710   4.577  15.372 -0.0165  0.3277 -0.2182
 1701SOL    HW116739   3.767   4.546  15.442  1.1816  0.4545 -1.1237
 1701SOL    HW216740   3.634   4.613  15.419 -1.0476 -3.5316  1.0050
 1702SOL     OW16741   4.063   3.050   6.351  0.1030  0.1661 -0.1068
 1702SOL    HW116742   4.072   3.104   6.273 -2.4480 -0.0277 -0.5337
 1702SOL    HW216743   3.973   3.067   6.378 -0.6698 -3.0288 -0.6560
 1703SOL     OW16744   3.744   3.570   6.271 -0.4516 -0.2550  0.2699
 1703SOL    HW116745   3.729   3.557   6.364  0.7824 -2.9165  0.1058
 1703SOL    HW216746   3.800   3.647   6.270 -1.5160  0.5026 -1.1479
 1704SOL     OW16747   0.108   1.805  14.851 -0.2668 -0.4847 -0.3275
 1704SOL    HW116748   0.079   1.882  14.900  2.4945  0.0620  0.4362
 1704SOL    HW216749   0.135   1.741  14.918  1.4991  0.8595  0.2356
 1705SOL     OW16750   3.492   2.478  17.178 -0.1146  0.0101  0.3123
 1705SOL    HW116751   3.479   2.551  17.239  2.0841 -0.0407  0.8338
 1705SOL    HW216752   3.545   2.423  17.235 -1.4712  0.1552  1.7279
 1706SOL     OW16753   2.936   2.408   8.880  0.1213  0.3116  0.2205
 1706SOL    HW116754   2.963   2.448   8.797 -1.0772 -1.6140 -1.1252
 1706SOL    HW216755   2.944   2.313   8.870 -0.2015  0.0331  2.6097
 1707SOL     OW16756   2.304   2.607   0.540 -0.2637  0.2333 -0.2004
 1707SOL    HW116757   2.277   2.697   0.523  0.5136  0.6306  0.7095
 1707SOL    HW216758   2.397   2.628   0.548 -0.0468 -1.3209  1.3955
 1708SOL     OW16759   4.626   1.049   8.134  0.4407 -0.9710  0.4532
 1708SOL    HW116760   4.543   1.030   8.178  0.8353 -3.7781 -0.0136
 1708SOL    HW216761   4.599   1.039   8.043 -1.3543 -1.7330  1.0633
 1709SOL     OW16762   1.569   4.618   3.229  0.1137  0.0126  0.2503
 1709SOL    HW116763   1.608   4.694   3.273 -0.4336  0.8402 -0.6925
 1709SOL    HW216764   1.480   4.626   3.262  0.4097  0.0560  1.0251
 1710SOL     OW16765   0.312   3.417   1.656  0.2458 -0.1275 -0.0914
 1710SOL    HW116766   0.396   3.452   1.686 -0.5921  3.1854 -1.6273
 1710SOL    HW216767   0.257   3.477   1.706  0.2569 -0.4975  0.3678
 1711SOL     OW16768   0.399   3.805   9.202 -0.1702 -0.4766  0.0951
 1711SOL    HW116769   0.317   3.757   9.215 -1.0510  1.3137  1.1147
 1711SOL    HW216770   0.447   3.763   9.274  0.2863 -2.2428 -1.2398
 1712SOL     OW16771   1.263   3.021   5.828  0.2790 -0.1004 -0.0084
 1712SOL    HW116772   1.305   3.011   5.914  1.9665 -0.2813 -0.8555
 1712SOL    HW216773   1.287   2.935   5.792 -1.4424 -0.3985 -0.4127
 1713SOL     OW16774   2.747   1.399   8.542 -0.1091  0.5414  0.0504
 1713SOL    HW116775   2.767   1.386   8.450  0.5906 -0.0847  0.2852
 1713SOL    HW216776   2.697   1.480   8.545 -1.6082 -0.2791 -3.2807
 1714SOL     OW16777   4.411   1.883   3.406  0.4583 -0.4052  0.4773
 1714SOL    HW116778   4.424   1.859   3.314  0.4226  1.4840 -0.0225
 1714SOL    HW216779   4.441   1.974   3.407  0.8109 -0.4751 -2.0179
 1715SOL     OW16780   1.845   1.222   1.722  0.0841  0.4624  0.3514
 1715SOL    HW116781   1.856   1.253   1.632  0.4979 -2.3366 -0.5611
 1715SOL    HW216782   1.879   1.292   1.778 -0.2002  0.5320  0.4350
 1716SOL     OW16783   1.464   1.231   7.469 -0.1326  0.2736  0.0854
 1716SOL    HW116784   1.379   1.186   7.463 -1.0659  2.0329 -0.1113
 1716SOL    HW216785   1.493   1.231   7.378  2.5148 -0.4673  0.9576
 1717SOL     OW16786   0.164   2.102   4.962 -0.1062  0.3471 -0.0898
 1717SOL    HW116787   0.244   2.079   5.008  0.4993 -1.9127 -2.2717
 1717SOL    HW216788   0.185   2.057   4.880  0.3409 -0.2381  0.3469
 1718SOL     OW16789   3.034   2.555   1.797 -0.0731 -0.1894  0.0341
 1718SOL    HW116790   2.947   2.524   1.771  0.9246 -1.2995 -2.0542
 1718SOL    HW216791   3.071   2.579   1.711  0.6788 -0.8460  0.1690
 1719SOL     OW16792   1.094   3.438   7.010 -0.0923  0.3194 -0.5785
 1719SOL    HW116793   1.012   3.471   6.973 -1.4279 -1.8423  0.4378
 1719SOL    HW216794   1.074   3.436   7.104 -0.9670 -2.3425 -0.8094
 1720SOL     OW16795   2.643   4.230   8.385  0.5599 -0.0372  0.0701
 1720SOL    HW116796   2.703   4.291   8.342  0.2521  0.3322  0.1689
 1720SOL    HW216797   2.707   4.182   8.439 -2.4282  0.1861  3.8333
 1721SOL     OW16798   2.294   0.175   3.921 -0.1481 -0.5736  0.5196
 1721SOL    HW116799   2.363   0.123   3.961 -0.0268 -0.5496  0.3412
 1721SOL    HW216800   2.221   0.113   3.912  1.6128 -2.9468  2.6232
 1722SOL     OW16801   1.285   4.484  16.503 -0.4213 -0.7826  0.3334
 1722SOL    HW116802   1.297   4.407  16.558 -1.3218 -1.2461 -0.1242
 1722SOL    HW216803   1.219   4.448  16.444 -0.9456 -0.3810  0.6651
 1723SOL     OW16804   4.355   0.108  10.525 -0.0589  0.2232  0.3795
 1723SOL    HW116805   4.270   0.067  10.517 -0.5905  1.7836 -2.0586
 1723SOL    HW216806   4.393   0.045  10.586  1.9164  0.5289 -0.5116
 1724SOL     OW16807   1.029   3.973  16.421 -0.4110 -0.3476 -0.5184
 1724SOL    HW116808   0.990   4.029  16.488 -2.7184 -0.2916 -1.9371
 1724SOL    HW216809   1.038   4.034  16.348  0.2823  0.2482  0.0609
 1725SOL     OW16810   2.524   3.818   8.772  0.3875  0.4140 -0.1064
 1725SOL    HW116811   2.596   3.765   8.805  1.2313  1.3109 -0.5232
 1725SOL    HW216812   2.451   3.790   8.827  0.6947 -2.5759 -1.2166
 1726SOL     OW16813   0.941   2.312   2.223  0.0644  0.1237 -0.4369
 1726SOL    HW116814   0.912   2.268   2.302 -0.3180  0.4525 -0.3941
 1726SOL    HW216815   0.859   2.361   2.214  0.0918  0.1748 -0.4038
 1727SOL     OW16816   3.606   4.726   5.666 -0.3028 -0.4134 -0.6412
 1727SOL    HW116817   3.688   4.681   5.686 -0.6771  0.9439  4.0207
 1727SOL    HW216818   3.586   0.021   5.754 -0.0259  0.4255 -0.8941
 1728SOL     OW16819   0.033   1.358  11.467  0.2785  0.3592  0.4629
 1728SOL    HW116820   0.126   1.379  11.461  0.7181 -1.4913  0.7465
 1728SOL    HW216821   0.002   1.363  11.377  0.1439  1.9220  0.5890
 1729SOL     OW16822   4.197   0.711   6.322 -0.1470 -0.3714 -0.1797
 1729SOL    HW116823   4.233   0.690   6.408  1.8754 -0.8984 -1.1405
 1729SOL    HW216824   4.231   0.633   6.279 -0.2996  0.0496 -1.0733
 1730SOL     OW16825   3.604   3.051   1.334 -0.1685  0.0939  0.7719
 1730SOL    HW116826   3.555   3.021   1.410 -3.3587 -1.5899 -1.9331
 1730SOL    HW216827   3.532   3.098   1.291  1.2185 -0.2189 -1.9198
 1731SOL     OW16828   2.751   2.235   2.697  0.2441  0.1755  0.1211
 1731SOL    HW116829   2.664   2.207   2.725 -1.6188  4.7600 -1.0496
 1731SOL    HW216830   2.802   2.165   2.737 -0.1472  0.3716  0.9522
 1732SOL     OW16831   3.753   3.334   2.778 -0.3638 -0.1499  0.3241
 1732SOL    HW116832   3.799   3.350   2.697 -0.6996 -0.8977 -0.0211
 1732SOL    HW216833   3.668   3.323   2.734 -0.1158 -2.0490  0.3132
 1733SOL     OW16834   2.611   4.195  15.225 -0.5606  0.1447 -0.0760
 1733SOL    HW116835   2.661   4.142  15.163  0.3040  1.6730 -0.6945
 1733SOL    HW216836   2.540   4.220  15.166 -1.3348 -1.9735 -0.0625
 1734SOL     OW16837   3.647   2.309   5.721 -0.2753  0.5672 -0.3536
 1734SOL    HW116838   3.591   2.232   5.712  0.7080 -0.6940  4.6157
 1734SOL    HW216839   3.580   2.371   5.750  0.0846  0.8940 -0.2247
 1735SOL     OW16840   1.586   3.922   8.242 -0.4840  0.1582 -0.0348
 1735SOL    HW116841   1.626   3.863   8.306 -0.4319 -0.2209 -0.4186
 1735SOL    HW216842   1.624   3.893   8.159 -1.3499  1.3444 -0.8425
 1736SOL     OW16843   2.311   0.521  12.488 -0.4701 -0.2639 -0.5614
 1736SOL    HW116844   2.282   0.432  12.506  0.7453 -0.7165 -0.8666
 1736SOL    HW216845   2.406   0.511  12.494 -0.4431  1.4480  1.5595
 1737SOL     OW16846   2.571   0.524   2.719  0.4511  0.4558  0.9561
 1737SOL    HW116847   2.617   0.501   2.800  0.5295 -1.9506  0.2247
 1737SOL    HW216848   2.497   0.463   2.723  1.1586 -0.4466  0.4152
 1738SOL     OW16849   1.452   0.580   8.116 -0.3753 -0.1318 -0.3149
 1738SOL    HW116850   1.474   0.565   8.025 -0.7819  0.0780 -0.4504
 1738SOL    HW216851   1.467   0.675   8.121 -0.2901 -0.0222 -2.8174
 1739SOL     OW16852   2.767   4.582   3.016 -0.4006  0.2131 -0.0503
 1739SOL    HW116853   2.758   4.676   3.006 -1.0980 -0.0935 -2.2260
 1739SOL    HW216854   2.745   4.560   3.107  1.4036  1.6474  0.7261
 1740SOL     OW16855   0.169   3.887  12.161  0.1977 -0.2426 -0.4698
 1740SOL    HW116856   0.184   3.876  12.067 -0.3573 -0.6507 -0.5138
 1740SOL    HW216857   0.144   3.979  12.168 -1.4220 -0.8251  1.3717
 1741SOL     OW16858   3.809   3.224   4.463  0.0812  0.4075  0.8515
 1741SOL    HW116859   3.870   3.160   4.498  1.6218  1.3406 -0.1063
 1741SOL    HW216860   3.782   3.253   4.550  0.4780  0.8516  0.8304
 1742SOL     OW16861   1.799   2.881  16.879 -0.7938 -0.2442 -0.3645
 1742SOL    HW116862   1.794   2.895  16.784  0.6939  0.7419 -0.3056
 1742SOL    HW216863   1.835   2.793  16.877 -2.2163 -0.8281  0.0250
 1743SOL     OW16864   1.708   1.457   1.090 -0.4047  0.1342  0.2428
 1743SOL    HW116865   1.743   1.391   1.030 -0.2029 -1.9254  2.6192
 1743SOL    HW216866   1.782   1.515   1.108  0.0726 -0.5373  0.4516
 1744SOL     OW16867   0.557   2.015   8.176  0.4219 -0.7861  0.0115
 1744SOL    HW116868   0.609   2.026   8.096  0.8492  1.2442  0.5607
 1744SOL    HW216869   0.469   2.027   8.139  0.1446 -0.2878  0.8397
 1745SOL     OW16870   2.182   1.069   1.034 -0.0658 -0.2988  0.5637
 1745SOL    HW116871   2.108   1.125   1.008  0.7069  0.7761  0.6580
 1745SOL    HW216872   2.150   0.980   1.020  0.8865 -0.4977 -0.3324
 1746SOL     OW16873   3.102   4.004   6.486  0.3913  0.7754  0.3910
 1746SOL    HW116874   3.124   4.054   6.564  0.1883  0.1810  0.8301
 1746SOL    HW216875   3.066   3.934   6.540  1.4163  0.4138  0.6043
 1747SOL     OW16876   1.917   0.870  13.355  0.9580  0.0231  0.2717
 1747SOL    HW116877   1.854   0.852  13.425  0.5440  2.0444  0.4282
 1747SOL    HW216878   1.852   0.876  13.285  1.9738 -3.4293 -0.9227
 1748SOL     OW16879   3.058   3.470   5.688 -0.1879  0.9773 -0.0168
 1748SOL    HW116880   3.122   3.431   5.629  0.2153  0.3362  0.8492
 1748SOL    HW216881   2.982   3.454   5.631 -0.4002 -0.4596  0.6702
 1749SOL     OW16882   2.606   1.374   9.367 -0.2292 -0.2776 -0.1251
 1749SOL    HW116883   2.681   1.348   9.420 -0.8244  0.2722  0.9806
 1749SOL    HW216884   2.653   1.425   9.300  0.4596  0.0093  0.5816
 1750SOL     OW16885   3.235   2.608   8.558 -0.0405 -0.5177  0.2031
 1750SOL    HW116886   3.288   2.600   8.479 -0.1082  1.6889 -0.0761
 1750SOL    HW216887   3.265   2.692   8.593  2.6446 -1.7281  0.7764
 1751SOL     OW16888   0.231   0.186  13.812  0.3027  0.1542 -0.0270
 1751SOL    HW116889   0.218   0.163  13.904 -0.1403  1.1113  0.1411
 1751SOL    HW216890   0.313   0.233  13.821 -0.0195  0.6690  0.1868
 1752SOL     OW16891   0.141   0.469  12.395  0.6031 -0.0681 -0.5253
 1752SOL    HW116892   0.056   0.505  12.417  0.8877 -0.8524  1.9981
 1752SOL    HW216893   0.144   0.493  12.303  0.8738  0.8902 -0.2656
 1753SOL     OW16894   4.320   2.810  15.372  0.1786 -0.0611  0.2937
 1753SOL    HW116895   4.248   2.802  15.434 -2.3153 -0.6182 -2.6440
 1753SOL    HW216896   4.388   2.798  15.438 -0.4033  0.3159  0.9634
 1754SOL     OW16897   0.325   2.825  16.763 -0.4342 -0.4772 -0.1837
 1754SOL    HW116898   0.233   2.817  16.738 -0.2544  1.5096 -1.5540
 1754SOL    HW216899   0.360   2.845  16.676 -1.5064 -0.7224 -0.6695
 1755SOL     OW16900   2.446   1.729   3.714 -0.3024 -0.5930  0.2088
 1755SOL    HW116901   2.382   1.730   3.786 -2.0802  0.8108 -1.4026
 1755SOL    HW216902   2.519   1.688   3.761 -0.5182 -0.0107  1.0693
 1756SOL     OW16903   0.018   3.041   8.477 -0.1861 -0.3223  0.7169
 1756SOL    HW116904   4.686   3.025   8.414  2.0352 -0.7731 -1.6297
 1756SOL    HW216905   0.063   3.116   8.437 -0.8575 -0.0523  0.4743
 1757SOL     OW16906   2.987   3.747  15.612 -0.2021 -0.0692  0.2018
 1757SOL    HW116907   2.951   3.750  15.700  1.1545  0.3346  0.7417
 1757SOL    HW216908   3.062   3.804  15.629  1.3826 -2.1536  0.1754
 1758SOL     OW16909   0.705   0.504   1.282  0.3234 -0.4038 -0.2228
 1758SOL    HW116910   0.715   0.488   1.188 -0.2425 -1.7620 -0.0432
 1758SOL    HW216911   0.680   0.414   1.300  0.7227  0.1069  2.7828
 1759SOL     OW16912   0.887   0.695   9.793  0.6145  0.1669  0.4679
 1759SOL    HW116913   0.974   0.734   9.795  0.5395  0.4426 -1.7295
 1759SOL    HW216914   0.833   0.774   9.801  3.7760  2.4866 -1.1364
 1760SOL     OW16915   2.160   1.729   1.131 -0.0202  0.1593 -0.3526
 1760SOL    HW116916   2.219   1.665   1.171  1.2323 -0.3025 -2.9488
 1760SOL    HW216917   2.220   1.770   1.069  1.8191 -0.1894  1.2022
 1761SOL     OW16918   3.863   0.961   9.945  0.1901  0.1331  0.3727
 1761SOL    HW116919   3.914   1.038   9.971  0.5028  0.1359 -0.2442
 1761SOL    HW216920   3.924   0.902   9.990  0.4242 -0.3079 -0.5165
 1762SOL     OW16921   2.674   1.907   1.376  0.8385  0.2869  0.3922
 1762SOL    HW116922   2.679   1.816   1.347  1.0315  0.0281  1.2444
 1762SOL    HW216923   2.750   1.913   1.434 -0.2814 -0.6338  1.9607
 1763SOL     OW16924   3.630   1.605   8.956  0.4853 -0.0208  0.0748
 1763SOL    HW116925   3.580   1.679   8.921 -3.3737 -1.8434  1.6583
 1763SOL    HW216926   3.565   1.579   9.021 -1.7695 -0.3226 -2.2674
 1764SOL     OW16927   0.197   0.680   3.475  0.2123  0.1742 -0.3649
 1764SOL    HW116928   0.181   0.759   3.423 -0.4557  0.3089  0.0437
 1764SOL    HW216929   0.203   0.727   3.558  1.1265  3.5331 -2.3067
 1765SOL     OW16930   3.949   2.702   6.074 -0.0885 -0.0548  0.4601
 1765SOL    HW116931   4.010   2.663   6.137  0.1831 -1.3864 -0.6226
 1765SOL    HW216932   3.942   2.623   6.021 -2.4397  1.1023 -0.9344
 1766SOL     OW16933   1.975   4.030   1.301  0.1926 -0.0216  0.3865
 1766SOL    HW116934   2.062   4.028   1.340 -0.4976  0.6090  1.9686
 1766SOL    HW216935   2.002   4.036   1.210 -0.0352 -1.7732  0.2103
 1767SOL     OW16936   0.460   0.588   8.392 -0.3352  0.1691 -0.1378
 1767SOL    HW116937   0.481   0.627   8.308 -0.7643 -0.7386 -0.6646
 1767SOL    HW216938   0.381   0.628   8.428  0.5257 -0.6569  2.7001
 1768SOL     OW16939   1.167   0.769   0.588  0.3051 -0.3236  0.0467
 1768SOL    HW116940   1.137   0.708   0.654  0.8310  0.0099  0.5900
 1768SOL    HW216941   1.114   0.849   0.590 -1.8521 -1.8672  3.1841
 1769SOL     OW16942   3.623   4.652   1.489  0.0332 -0.4166  0.1740
 1769SOL    HW116943   3.603   4.679   1.579 -2.8708 -2.1678  0.0647
 1769SOL    HW216944   3.717   4.643   1.506 -0.5959 -4.1699  1.5970
 1770SOL     OW16945   0.151   2.366   4.910  0.0445  0.3643 -0.9148
 1770SOL    HW116946   0.151   2.271   4.922  1.5105  0.4336 -0.2871
 1770SOL    HW216947   0.182   2.373   4.820 -1.1572  0.2617 -1.3364
 1771SOL     OW16948   3.971   3.416  13.170 -0.0225  0.0755 -0.2451
 1771SOL    HW116949   4.045   3.371  13.130 -0.2661 -0.1732 -0.4122
 1771SOL    HW216950   3.948   3.474  13.098  1.9378  1.4757  0.2589
 1772SOL     OW16951   1.010   3.776   2.145 -0.7346 -0.5693  0.3840
 1772SOL    HW116952   1.032   3.704   2.085 -0.8768  0.4707 -0.9143
 1772SOL    HW216953   1.086   3.834   2.142 -0.4779 -0.8434  1.7295
 1773SOL     OW16954   0.148   1.440   4.240 -0.1872 -0.7161  0.2717
 1773SOL    HW116955   0.142   1.466   4.332 -1.0691  0.8148 -0.2266
 1773SOL    HW216956   0.097   1.507   4.195  0.5523  0.8185  1.7342
 1774SOL     OW16957   3.695   2.898   8.846  0.1412 -0.0700  0.0499
 1774SOL    HW116958   3.769   2.917   8.788 -0.3939 -0.7814 -0.8590
 1774SOL    HW216959   3.741   2.887   8.929  1.0718 -3.3798 -0.8749
 1775SOL     OW16960   4.454   0.974   0.678 -0.2682  0.5803 -0.1904
 1775SOL    HW116961   4.457   1.004   0.768  2.1228 -0.1899 -0.0098
 1775SOL    HW216962   4.456   0.880   0.691 -0.2010  0.8732  1.8560
 1776SOL     OW16963   3.219   4.137  17.605 -0.1196  0.6599 -0.1501
 1776SOL    HW116964   3.132   4.136  17.646 -0.0651 -0.5937 -0.0581
 1776SOL    HW216965   3.257   4.224  17.615 -1.0776  1.1747 -0.9126
 1777SOL     OW16966   4.470   0.930   0.964  0.1859  0.2889 -0.0460
 1777SOL    HW116967   4.382   0.953   0.996 -0.6586 -0.8505 -1.5181
 1777SOL    HW216968   4.480   0.843   1.001  3.3014  0.4220 -0.6383
 1778SOL     OW16969   3.778   2.784   9.356  0.0227 -0.1066 -0.3647
 1778SOL    HW116970   3.696   2.794   9.307 -0.4167 -0.7173  0.2255
 1778SOL    HW216971   3.828   2.732   9.293  0.3705 -0.1476 -0.0555
 1779SOL     OW16972   3.183   2.090   6.143 -0.3142 -0.5900  0.2452
 1779SOL    HW116973   3.247   2.021   6.157 -0.6748 -0.9108  0.2985
 1779SOL    HW216974   3.234   2.166   6.116  1.9485 -1.3797  2.3152
 1780SOL     OW16975   3.233   4.498   6.103  0.3931  0.3158  0.5645
 1780SOL    HW116976   3.204   4.509   6.194 -1.2237 -1.0358  0.2067
 1780SOL    HW216977   3.156   4.448   6.075  0.4693 -1.0303  2.7190
 1781SOL     OW16978   1.499   2.271   4.187 -0.0924 -0.5643  0.0724
 1781SOL    HW116979   1.417   2.319   4.188  0.4199  0.3435 -0.5820
 1781SOL    HW216980   1.559   2.340   4.216 -4.5619  1.9688  3.2597
 1782SOL     OW16981   3.296   3.815   7.627  0.8280  0.7486 -0.0697
 1782SOL    HW116982   3.338   3.801   7.712  1.3800 -2.0679 -0.7930
 1782SOL    HW216983   3.254   3.729   7.634  0.3698  1.2006  2.4676
 1783SOL     OW16984   2.989   4.114   1.795 -0.3923 -0.1430  0.2585
 1783SOL    HW116985   2.897   4.134   1.780 -1.0084 -3.9647 -0.8912
 1783SOL    HW216986   2.992   4.137   1.888  0.4705 -0.7287  0.3763
 1784SOL     OW16987   3.045   3.525   7.609  0.1030 -0.2806 -0.3025
 1784SOL    HW116988   3.023   3.577   7.686  0.1936  0.4699 -0.7842
 1784SOL    HW216989   2.985   3.564   7.545  0.1799 -0.1157 -0.2736
 1785SOL     OW16990   3.860   4.550   2.149  0.2087 -0.3026 -0.2737
 1785SOL    HW116991   3.829   4.574   2.062 -0.0885  0.2747 -0.0155
 1785SOL    HW216992   3.954   4.554   2.130  0.3238 -0.5943  0.2161
 1786SOL     OW16993   3.886   4.469   8.283  0.3787 -0.1382  0.2138
 1786SOL    HW116994   3.923   4.385   8.311  1.6353  0.0709 -0.8445
 1786SOL    HW216995   3.873   4.503   8.372  1.3572 -2.9957  1.4554
 1787SOL     OW16996   3.506   3.606   6.792  0.0315  0.1623 -0.5195
 1787SOL    HW116997   3.433   3.554   6.826  1.1639  0.3851  2.2040
 1787SOL    HW216998   3.575   3.598   6.858  2.7552  3.3508 -2.9549
 1788SOL     OW16999   1.786   3.389   7.768 -1.2022  0.0263  0.0522
 1788SOL    HW117000   1.819   3.333   7.838  1.0301  1.0363 -0.1898
 1788SOL    HW217001   1.873   3.415   7.736 -1.8706  0.7443 -1.1905
 1789SOL     OW17002   0.666   4.392  16.178 -0.3038 -0.1471  0.4316
 1789SOL    HW117003   0.644   4.354  16.264  0.7583 -0.0237  0.7612
 1789SOL    HW217004   0.584   4.438  16.159  0.2852  0.5944 -0.2983
 1790SOL     OW17005   2.635   2.591   2.833  0.4168 -0.2236  0.2411
 1790SOL    HW117006   2.670   2.515   2.880 -0.1050 -1.1548 -0.8801
 1790SOL    HW217007   2.718   2.621   2.796 -0.1590 -0.1911 -1.0078
 1791SOL     OW17008   1.383   1.477   8.617  0.1624 -0.1396  0.0587
 1791SOL    HW117009   1.455   1.469   8.679  0.3310  1.4416  0.0690
 1791SOL    HW217010   1.312   1.494   8.679 -0.9373 -3.9879 -0.1600
 1792SOL     OW17011   0.924   2.202   6.035  0.2460 -0.2818  0.1506
 1792SOL    HW117012   0.976   2.185   6.114 -1.7601 -1.4881  1.2359
 1792SOL    HW217013   0.962   2.144   5.969  0.2181 -1.7560  1.4239
 1793SOL     OW17014   2.404   3.990   3.379 -0.3386 -0.0542  0.4877
 1793SOL    HW117015   2.429   4.070   3.425 -0.0605 -0.2006  0.5933
 1793SOL    HW217016   2.488   3.947   3.362  0.4875  2.6358 -2.3083
 1794SOL     OW17017   4.646   2.648   6.388  0.8786  0.1088 -0.2671
 1794SOL    HW117018   4.607   2.693   6.313  0.9779  0.7267  0.0535
 1794SOL    HW217019   4.595   2.567   6.387  1.1221 -0.0572  0.6115
 1795SOL     OW17020   1.853   3.857   3.807 -0.1872 -0.1959 -0.2234
 1795SOL    HW117021   1.840   3.762   3.798 -3.1626  0.2616 -0.7089
 1795SOL    HW217022   1.765   3.895   3.800  0.0024 -0.0569 -1.8197
 1796SOL     OW17023   4.419   4.192   3.119  0.1175 -0.0299 -0.2110
 1796SOL    HW117024   4.447   4.101   3.107  2.4623  0.6905 -0.2517
 1796SOL    HW217025   4.345   4.180   3.178  0.2849 -0.3860 -0.0707
 1797SOL     OW17026   1.092   1.861   8.003  0.5366 -0.5257 -0.2942
 1797SOL    HW117027   1.103   1.956   8.011 -0.2964 -0.5491  1.1153
 1797SOL    HW217028   1.002   1.858   7.973 -0.0238 -0.1942  1.3695
 1798SOL     OW17029   1.876   3.973   7.510 -0.3259 -0.6659 -0.4141
 1798SOL    HW117030   1.809   4.034   7.479 -0.5567  0.0565  1.5113
 1798SOL    HW217031   1.935   3.963   7.436  0.6661  0.1297  0.2767
 1799SOL     OW17032   2.410   0.986   6.696 -0.2538  0.3987 -0.0776
 1799SOL    HW117033   2.349   1.008   6.766 -0.8456  0.1070 -0.5060
 1799SOL    HW217034   2.414   0.890   6.694  1.0319  0.4878 -1.3832
 1800SOL     OW17035   3.839   3.941   8.953  0.8429 -0.0064 -0.4354
 1800SOL    HW117036   3.828   3.989   9.035  3.1039  0.7637 -0.5927
 1800SOL    HW217037   3.799   4.005   8.894  1.6168  1.5290  0.7061
 1801SOL     OW17038   0.596   3.117  13.998  0.0174  0.5932  0.0988
 1801SOL    HW117039   0.644   3.193  13.966 -1.4055  1.4367 -0.0608
 1801SOL    HW217040   0.521   3.156  14.044  1.4306  1.2309  1.8279
 1802SOL     OW17041   0.120   3.852  13.389 -0.1518  0.2828 -0.2439
 1802SOL    HW117042   0.091   3.780  13.445 -0.7660  0.5402 -0.2245
 1802SOL    HW217043   0.071   3.924  13.429  0.4841  0.1266  0.8082
 1803SOL     OW17044   2.147   1.477   2.388 -0.0159  0.1601 -0.0833
 1803SOL    HW117045   2.067   1.517   2.356  0.2187 -0.2116 -1.1268
 1803SOL    HW217046   2.111   1.400   2.433  0.4543  1.1508  2.0093
 1804SOL     OW17047   3.534   2.380   4.111 -0.1345 -0.5856 -0.3416
 1804SOL    HW117048   3.511   2.300   4.063 -1.1840  1.5670 -3.4206
 1804SOL    HW217049   3.446   2.417   4.124  0.8164  1.2838  0.7812
 1805SOL     OW17050   1.054   2.458  14.298 -0.6917 -0.1960  0.1865
 1805SOL    HW117051   1.144   2.488  14.294 -1.0149  0.7387  0.1196
 1805SOL    HW217052   1.025   2.515  14.369 -0.2020  0.7131 -0.3598
 1806SOL     OW17053   3.545   2.153   7.124 -1.0039 -0.5243 -0.4920
 1806SOL    HW117054   3.568   2.060   7.122 -1.5652 -0.6731 -0.2021
 1806SOL    HW217055   3.581   2.176   7.038  0.7409 -0.4472  0.2786
 1807SOL     OW17056   4.323   0.577  16.398  0.4081  0.4464  0.1871
 1807SOL    HW117057   4.383   0.648  16.375  0.1945  1.3613  2.4607
 1807SOL    HW217058   4.237   0.621  16.396  1.3890  2.4132  1.0156
 1808SOL     OW17059   0.766   0.971   6.365 -0.4548  0.2028 -0.1372
 1808SOL    HW117060   0.729   0.962   6.277  0.8101  0.9494 -0.7646
 1808SOL    HW217061   0.758   0.883   6.401 -1.9389  0.5181  0.2949
 1809SOL     OW17062   4.173   2.856   1.494  0.1925  0.7013 -0.0925
 1809SOL    HW117063   4.240   2.788   1.499  1.3514  1.8413 -0.1967
 1809SOL    HW217064   4.222   2.936   1.515  0.4263  0.4840  0.1881
 1810SOL     OW17065   3.030   0.460  10.862  0.3171 -0.0803  0.2823
 1810SOL    HW117066   3.051   0.428  10.774  0.0176  3.0306 -0.9124
 1810SOL    HW217067   3.025   0.554  10.846 -0.6816 -0.6126 -2.5280
 1811SOL     OW17068   4.119   3.420  12.476  0.3222 -0.2696 -0.3931
 1811SOL    HW117069   4.044   3.370  12.444  0.3917 -1.7715  1.7397
 1811SOL    HW217070   4.115   3.501  12.425  1.2737  1.2709  1.9986
 1812SOL     OW17071   1.829   3.169   4.666  0.4452  0.0522 -0.0655
 1812SOL    HW117072   1.774   3.157   4.743 -0.3030  0.0057 -0.6032
 1812SOL    HW217073   1.919   3.184   4.693  1.0571 -0.7004 -1.6587
 1813SOL     OW17074   1.399   1.265   8.048  0.1397  0.4144  0.0798
 1813SOL    HW117075   1.360   1.290   7.965 -0.2582  0.0413  0.1566
 1813SOL    HW217076   1.385   1.170   8.050  0.4519  0.3654  0.0602
 1814SOL     OW17077   1.865   2.817   2.137  1.1195  0.1834 -0.0581
 1814SOL    HW117078   1.869   2.869   2.056 -2.5382 -0.1283 -0.4367
 1814SOL    HW217079   1.788   2.763   2.120 -0.3496  2.2518 -0.0742
 1815SOL     OW17080   4.507   4.013   9.449 -0.1974  0.6687  0.4207
 1815SOL    HW117081   4.530   3.967   9.369  1.2703 -1.0194  1.8228
 1815SOL    HW217082   4.411   4.017   9.445 -0.1725  0.1494 -0.7081
 1816SOL     OW17083   2.420   3.372   2.360  0.1549  0.4016 -0.1991
 1816SOL    HW117084   2.417   3.425   2.281 -1.4924 -0.2010 -0.5592
 1816SOL    HW217085   2.376   3.294   2.326 -0.3773 -0.2969  2.1238
 1817SOL     OW17086   2.342   3.844   0.264 -0.5768 -0.5324 -0.3411
 1817SOL    HW117087   2.389   3.867   0.183 -0.8098 -0.2821 -0.4060
 1817SOL    HW217088   2.364   3.924   0.312 -0.5395 -0.1523 -0.9774
 1818SOL     OW17089   0.882   2.197   4.519  0.1208  0.2396  0.0606
 1818SOL    HW117090   0.947   2.179   4.451  1.5285  0.9181  1.2272
 1818SOL    HW217091   0.925   2.246   4.590 -0.7447 -1.5544  1.8486
 1819SOL     OW17092   0.773   1.272   3.778 -0.6253 -0.4840 -0.0632
 1819SOL    HW117093   0.814   1.352   3.811  1.1232 -1.4852  0.2021
 1819SOL    HW217094   0.810   1.276   3.690 -1.0238 -2.0784 -0.3004
 1820SOL     OW17095   3.198   4.269   5.193 -0.1110  0.2963  0.6556
 1820SOL    HW117096   3.252   4.316   5.255  0.8145  0.6129 -0.3937
 1820SOL    HW217097   3.134   4.329   5.155 -0.2891 -0.2111  0.1411
 1821SOL     OW17098   0.717   2.515   4.341 -0.3025  0.3212 -0.1310
 1821SOL    HW117099   0.749   2.541   4.255  0.6223 -0.0160  0.1162
 1821SOL    HW217100   0.713   2.599   4.387 -4.2648  0.4789 -0.7546
 1822SOL     OW17101   0.199   0.932   3.316  0.0971 -0.5553  0.0166
 1822SOL    HW117102   0.128   0.979   3.274  1.3764 -0.5541 -2.1769
 1822SOL    HW217103   0.262   0.926   3.243 -0.5092  1.6603 -0.6656
 1823SOL     OW17104   3.970   0.430  10.273  0.3553 -0.0610  0.0979
 1823SOL    HW117105   3.994   0.340  10.297  0.6870 -0.4385 -1.6254
 1823SOL    HW217106   4.052   0.479  10.273  1.0323 -1.1846 -2.0435
 1824SOL     OW17107   4.350   2.018   0.446  0.3409 -0.6239 -0.0171
 1824SOL    HW117108   4.413   2.007   0.375 -0.2315  1.3557 -0.8527
 1824SOL    HW217109   4.367   1.929   0.477 -0.7634 -1.2333 -1.1673
 1825SOL     OW17110   2.072   2.202   1.355  0.3459 -0.3620  0.6083
 1825SOL    HW117111   2.053   2.258   1.281  0.6219  0.7610  1.3855
 1825SOL    HW217112   2.158   2.176   1.322  0.1988  0.4287 -0.3842
 1826SOL     OW17113   3.971   0.563   3.553 -0.5450 -0.2123 -0.3633
 1826SOL    HW117114   3.957   0.505   3.628  2.5416  0.0996  0.4347
 1826SOL    HW217115   3.988   0.502   3.481  0.0751  0.5319 -0.8445
 1827SOL     OW17116   0.940   4.258   1.848 -0.7390  0.1767  0.0910
 1827SOL    HW117117   0.868   4.200   1.827  0.1063 -1.1862  0.9409
 1827SOL    HW217118   1.002   4.201   1.893  0.2784 -0.6211 -2.3640
 1828SOL     OW17119   0.624   3.454  17.342  0.1856  0.5916  0.2430
 1828SOL    HW117120   0.654   3.444  17.252 -4.2814 -0.6849 -1.0866
 1828SOL    HW217121   0.712   3.480  17.370  1.0921  0.2974 -2.3823
 1829SOL     OW17122   4.327   1.091   7.345 -0.3676 -0.4365 -0.2136
 1829SOL    HW117123   4.250   1.148   7.344  1.8900  2.6242  0.6561
 1829SOL    HW217124   4.321   1.067   7.437  1.2087 -0.5043 -0.1372
 1830SOL     OW17125   0.643   2.915   5.177  0.1953 -0.2990 -0.3353
 1830SOL    HW117126   0.678   2.922   5.088  0.0974  0.5045 -0.3156
 1830SOL    HW217127   0.602   2.829   5.174  1.8570 -1.1222  0.1897
 1831SOL     OW17128   2.128   4.670   7.038 -0.1294 -0.0245 -0.2172
 1831SOL    HW117129   2.195   0.001   7.044 -0.7294  0.4891  0.5500
 1831SOL    HW217130   2.182   4.598   7.070  0.8284  0.3747 -0.9475
 1832SOL     OW17131   0.003   1.406   3.901 -0.3191 -0.5238  0.2944
 1832SOL    HW117132   0.039   1.330   3.856  0.2764 -0.0854  0.0290
 1832SOL    HW217133   0.085   1.448   3.926  0.1289 -1.4247  0.3231
 1833SOL     OW17134   3.101   4.109   7.234  0.4374  0.1212 -0.2246
 1833SOL    HW117135   3.167   4.083   7.299 -0.8187  2.7488  2.0850
 1833SOL    HW217136   3.153   4.157   7.170 -0.1970  1.5221  0.3068
 1834SOL     OW17137   2.211   1.211   3.548  0.6087  0.9005 -0.7449
 1834SOL    HW117138   2.244   1.271   3.615 -3.0387 -0.9397  2.7035
 1834SOL    HW217139   2.275   1.141   3.553 -1.6481 -1.3693 -3.1449
 1835SOL     OW17140   0.642   4.571  16.748  0.5533  0.1070 -0.1022
 1835SOL    HW117141   0.729   4.580  16.709  0.1301 -2.5331 -1.6534
 1835SOL    HW217142   0.593   4.625  16.686  0.7961 -0.8428 -1.1157
 1836SOL     OW17143   1.806   0.125   6.776 -0.4572 -0.0377  0.0372
 1836SOL    HW117144   1.781   0.213   6.804 -1.1370 -0.0043 -0.6430
 1836SOL    HW217145   1.842   0.088   6.856  0.8632 -0.0496 -0.5618
 1837SOL     OW17146   2.600   1.408   2.492 -0.1750 -0.0483 -0.2941
 1837SOL    HW117147   2.531   1.423   2.557  2.7058  2.3222  2.2421
 1837SOL    HW217148   2.602   1.499   2.461 -0.6396  0.6032  1.5286
 1838SOL     OW17149   4.654   3.718   7.350  0.1971 -0.4901  0.0010
 1838SOL    HW117150   4.596   3.728   7.425  1.7660  0.4811  1.0769
 1838SOL    HW217151   4.634   3.796   7.298  0.8191  1.5521  2.7996
 1839SOL     OW17152   3.951   2.258  17.199  0.7276  0.0538 -0.0041
 1839SOL    HW117153   4.046   2.267  17.204  1.0427 -2.6345 -0.9774
 1839SOL    HW217154   3.940   2.340  17.152 -0.4283  0.1700  0.4772
 1840SOL     OW17155   0.639   1.564   6.790  0.2226 -0.1965  0.0438
 1840SOL    HW117156   0.567   1.546   6.730  1.6998  0.1761 -1.8506
 1840SOL    HW217157   0.694   1.623   6.738  0.1262  0.5993  0.8393
 1841SOL     OW17158   4.091   2.763  17.446  0.1402  0.2956  0.3243
 1841SOL    HW117159   4.129   2.691  17.496 -1.0436 -1.7330 -1.6761
 1841SOL    HW217160   3.999   2.737  17.443  0.0502  0.8159 -1.3501
 1842SOL     OW17161   2.397   1.463   3.184 -0.2414  0.5676 -0.5430
 1842SOL    HW117162   2.463   1.478   3.251 -1.7501 -1.9679  1.5116
 1842SOL    HW217163   2.382   1.371   3.207  0.2268  0.3908 -0.9421
 1843SOL     OW17164   3.808   3.064   9.443 -0.7142 -0.1662  0.5510
 1843SOL    HW117165   3.724   3.080   9.401 -0.4163 -0.2318 -0.0634
 1843SOL    HW217166   3.827   2.973   9.422 -0.3776  0.0639 -0.1537
 1844SOL     OW17167   4.151   3.746   2.231 -0.0715 -0.3536  0.0503
 1844SOL    HW117168   4.091   3.705   2.169  1.6052 -2.1895 -0.3970
 1844SOL    HW217169   4.228   3.695   2.204  0.3000 -0.3974  1.2052
 1845SOL     OW17170   0.759   3.310   9.301 -0.1608  0.5214 -0.0511
 1845SOL    HW117171   0.664   3.299   9.303 -0.0856  0.0877  0.9649
 1845SOL    HW217172   0.781   3.321   9.393 -0.2915 -0.2692  0.0687
 1846SOL     OW17173   4.450   4.377   5.269  0.6931  0.2019 -0.0958
 1846SOL    HW117174   4.454   4.473   5.264 -0.4890  0.1687 -1.5842
 1846SOL    HW217175   4.464   4.372   5.364 -0.7538  1.9833  0.2311
 1847SOL     OW17176   0.250   4.625   7.773 -0.0719  0.2192  0.1647
 1847SOL    HW117177   0.335   4.665   7.753 -1.3321  1.4164 -2.9275
 1847SOL    HW217178   0.216   4.695   7.828 -1.8731  0.9497 -1.8635
 1848SOL     OW17179   1.345   1.958   3.301  0.1473 -0.0919  0.6269
 1848SOL    HW117180   1.355   2.048   3.332  3.7163 -0.4307  0.4351
 1848SOL    HW217181   1.374   1.888   3.359  3.2103  1.5143  1.0350
 1849SOL     OW17182   0.546   0.293   8.632 -0.1154 -0.8043  0.1729
 1849SOL    HW117183   0.542   0.283   8.537  0.8350  1.2580 -0.0671
 1849SOL    HW217184   0.452   0.311   8.641 -0.1886 -0.8788 -0.4383
 1850SOL     OW17185   3.591   4.620  13.229  0.1922  0.1856 -0.0908
 1850SOL    HW117186   3.501   4.621  13.197  0.6341 -0.7700 -1.3552
 1850SOL    HW217187   3.608   4.714  13.237 -0.5578  0.3520 -0.4115
 1851SOL     OW17188   0.699   2.885   7.441  0.8881 -0.8078  0.1530
 1851SOL    HW117189   0.683   2.959   7.383  2.6308 -1.5385 -1.2684
 1851SOL    HW217190   0.664   2.810   7.393 -0.5645  0.6046 -0.9620
 1852SOL     OW17191   2.063   4.391   6.266  0.6716  0.0959  1.0259
 1852SOL    HW117192   1.984   4.440   6.245 -0.1752 -1.2555  1.1290
 1852SOL    HW217193   2.069   4.400   6.362 -0.3192  0.6251  1.0374
 1853SOL     OW17194   3.445   2.325  12.728  0.3857  0.1501  0.1334
 1853SOL    HW117195   3.413   2.401  12.680 -0.0475 -0.6557 -0.8527
 1853SOL    HW217196   3.432   2.368  12.812  0.6843 -1.0685  0.7943
 1854SOL     OW17197   0.693   1.204  17.576 -0.0461 -0.5721 -0.5623
 1854SOL    HW117198   0.659   1.204  17.487 -1.0555  2.0103 -0.1937
 1854SOL    HW217199   0.628   1.263  17.616  1.4950  1.3074 -0.8087
 1855SOL     OW17200   4.578   2.927   1.454  0.9307 -0.1483 -0.6750
 1855SOL    HW117201   4.660   2.888   1.424  0.3265 -1.8641 -0.0769
 1855SOL    HW217202   4.516   2.900   1.387 -0.0860 -1.4842  0.7958
 1856SOL     OW17203   1.731   1.018   3.697 -0.0269  0.3631  0.4085
 1856SOL    HW117204   1.796   0.961   3.740  1.1263  1.9175  0.7078
 1856SOL    HW217205   1.785   1.068   3.636 -1.3154  2.7633  1.2812
 1857SOL     OW17206   4.733   4.712  10.043  0.0921 -0.2750 -0.3214
 1857SOL    HW117207   0.022   0.056  10.002  1.0650 -0.1943  0.4768
 1857SOL    HW217208   0.076   4.669  10.017 -0.4727 -1.3962 -0.2204
 1858SOL     OW17209   4.268   2.995   1.864  0.5591  0.0057 -0.0740
 1858SOL    HW117210   4.349   3.035   1.831  1.6460  0.8674  3.5775
 1858SOL    HW217211   4.284   2.902   1.851  0.2132 -0.0250 -0.2511
 1859SOL     OW17212   1.154   1.360   6.747  0.3673 -0.6095 -0.5460
 1859SOL    HW117213   1.062   1.348   6.769  0.2751  0.5310 -0.2946
 1859SOL    HW217214   1.162   1.451   6.718 -1.4687 -0.0695  0.6622
 1860SOL     OW17215   0.251   1.067   7.362 -0.4322 -0.3378 -0.1011
 1860SOL    HW117216   0.185   1.135   7.377 -1.3580 -0.9340 -1.4947
 1860SOL    HW217217   0.283   1.107   7.281  1.5994  0.5297  1.1130
 1861SOL     OW17218   1.980   1.174  11.518 -0.0834  0.1741 -0.0976
 1861SOL    HW117219   2.055   1.141  11.468  0.3589  0.5908  0.2791
 1861SOL    HW217220   2.013   1.246  11.572  1.2171  0.2359 -0.9656
 1862SOL     OW17221   3.591   1.517  15.866  0.1260  0.6061 -0.1216
 1862SOL    HW117222   3.541   1.573  15.807  0.5939  0.6534 -0.4694
 1862SOL    HW217223   3.644   1.471  15.801  0.4125 -1.1593  1.3503
 1863SOL     OW17224   1.531   0.400   5.272  0.0729  0.1701  0.4091
 1863SOL    HW117225   1.610   0.392   5.218 -0.2143 -1.5063  0.2515
 1863SOL    HW217226   1.525   0.316   5.317 -0.1547  0.8586  1.6382
 1864SOL     OW17227   4.213   0.478   8.036  0.6998 -0.0316 -0.8253
 1864SOL    HW117228   4.287   0.456   8.093  3.5977  0.9254 -4.2083
 1864SOL    HW217229   4.137   0.439   8.080  0.5716  0.1103 -0.9202
 1865SOL     OW17230   1.790   0.079   8.659  0.2778 -0.4961 -0.2779
 1865SOL    HW117231   1.788   4.728   8.696  0.0478  1.1201  3.6089
 1865SOL    HW217232   1.773   0.131   8.737 -1.6378 -0.4745 -0.6937
 1866SOL     OW17233   4.470   0.962   3.839  0.7800 -0.2138  0.7461
 1866SOL    HW117234   4.397   0.997   3.787  1.5838 -3.1117 -2.3887
 1866SOL    HW217235   4.484   0.878   3.794 -1.2709 -0.1424 -0.0419
 1867SOL     OW17236   0.947   0.945   8.895 -0.2397  0.0696 -0.4492
 1867SOL    HW117237   0.959   0.857   8.932  0.6066  0.1654 -0.4962
 1867SOL    HW217238   1.021   0.949   8.835 -1.0333  0.1109 -1.4336
 1868SOL     OW17239   3.495   3.870   4.067  0.3734  0.2450 -0.4819
 1868SOL    HW117240   3.407   3.876   4.103  0.3498 -0.7509 -0.3559
 1868SOL    HW217241   3.533   3.956   4.082 -0.9147  0.7001  0.1525
 1869SOL     OW17242   0.723   3.483   2.336 -0.6112 -0.5831  0.0398
 1869SOL    HW117243   0.637   3.480   2.296 -1.2355  2.2293  1.1686
 1869SOL    HW217244   0.742   3.575   2.355  0.3811 -0.3182 -2.3095
 1870SOL     OW17245   0.126   1.437   3.466  0.7223 -0.1544 -0.3661
 1870SOL    HW117246   0.135   1.344   3.489 -1.3681 -0.4045 -0.5220
 1870SOL    HW217247   0.083   1.434   3.381 -1.8731  0.1936  0.9523
 1871SOL     OW17248   3.567   0.153  10.532 -0.4664  0.2495 -0.1219
 1871SOL    HW117249   3.529   0.216  10.471 -1.7075 -1.2121 -0.8644
 1871SOL    HW217250   3.505   0.167  10.603  3.2107  0.6719  3.0276
 1872SOL     OW17251   0.535   0.062   6.196 -0.4808 -0.2892  0.0814
 1872SOL    HW117252   0.620   0.070   6.239  0.5947 -3.4202 -1.4310
 1872SOL    HW217253   0.485   0.131   6.240 -0.2160 -0.6743  0.9784
 1873SOL     OW17254   4.673   2.887  12.487  0.9291  0.6338  0.4251
 1873SOL    HW117255   4.614   2.829  12.438  1.2437  0.1277  0.6441
 1873SOL    HW217256   0.014   2.844  12.455 -0.4177 -1.9153  0.5341
 1874SOL     OW17257   4.640   3.595   6.148 -0.2747  0.8339 -0.3306
 1874SOL    HW117258   4.622   3.543   6.069  0.9509  0.7742 -0.5583
 1874SOL    HW217259   4.696   3.532   6.194  0.2389  1.2374 -0.4152
 1875SOL     OW17260   1.930   1.929   7.779 -0.2046 -0.4862 -0.3961
 1875SOL    HW117261   1.865   1.987   7.740 -0.2858  0.8659  1.7889
 1875SOL    HW217262   1.967   1.894   7.698  1.7926 -0.0878  0.3408
 1876SOL     OW17263   2.376   2.386   4.590 -0.4693  0.2294  0.4256
 1876SOL    HW117264   2.321   2.308   4.595 -1.5193  1.0028  0.9458
 1876SOL    HW217265   2.458   2.355   4.628  0.8698  1.7225 -1.2124
 1877SOL     OW17266   2.820   2.223  14.732 -0.8109  0.1461 -0.2588
 1877SOL    HW117267   2.761   2.245  14.661  0.3794  0.6461 -1.0949
 1877SOL    HW217268   2.852   2.136  14.709  0.3023  0.6473 -0.6013
 1878SOL     OW17269   3.167   0.007  12.497 -0.4580 -0.8599 -0.1838
 1878SOL    HW117270   3.234   0.048  12.551 -0.9989  1.2773 -1.1022
 1878SOL    HW217271   3.213   4.666  12.468  1.1948  0.4661 -1.2106
 1879SOL     OW17272   2.272   3.447  13.855 -0.1622 -0.0871 -0.2284
 1879SOL    HW117273   2.194   3.397  13.829 -0.3947  1.1462 -1.9005
 1879SOL    HW217274   2.237   3.481  13.937 -1.6188 -5.1157  1.2699
 1880SOL     OW17275   0.457   2.154   3.054 -0.0601  0.2916 -0.3100
 1880SOL    HW117276   0.422   2.154   3.143  0.9193 -0.1101  0.0652
 1880SOL    HW217277   0.468   2.059   3.048  1.0448  0.4987 -1.5060
 1881SOL     OW17278   2.846   2.642   4.829 -0.1306 -0.2812  0.9291
 1881SOL    HW117279   2.920   2.681   4.874  0.4054 -1.3210  0.9523
 1881SOL    HW217280   2.859   2.547   4.838  0.8154 -0.1300  1.1121
 1882SOL     OW17281   2.402   0.048   4.114  0.5231 -0.5241  0.6771
 1882SOL    HW117282   2.426   4.697   4.090  0.5594 -0.2668 -0.2523
 1882SOL    HW217283   2.316   0.043   4.156  0.2728  1.3958  0.4292
 1883SOL     OW17284   1.261   1.197   4.071  0.0650  1.1004  0.3285
 1883SOL    HW117285   1.200   1.134   4.109 -2.0220  2.4755 -0.7280
 1883SOL    HW217286   1.347   1.155   4.074 -1.0295 -1.1481  0.0472
 1884SOL     OW17287   1.544   3.527   7.108 -0.1027  0.0491  0.1810
 1884SOL    HW117288   1.503   3.482   7.181  1.2363  1.1703  1.6128
 1884SOL    HW217289   1.547   3.610   7.155 -1.5348  0.6950 -0.8619
 1885SOL     OW17290   2.542   3.217   2.643 -0.0236  0.7379  0.0870
 1885SOL    HW117291   2.554   3.303   2.605  0.5174  0.3859 -0.5383
 1885SOL    HW217292   2.455   3.227   2.683  0.2994 -0.4171  1.0747
 1886SOL     OW17293   2.572   2.529   2.202  0.0214  0.1565  0.3789
 1886SOL    HW117294   2.571   2.459   2.137  0.6818 -0.4673  1.0316
 1886SOL    HW217295   2.604   2.604   2.152  1.3172 -1.4737 -1.2354
 1887SOL     OW17296   1.692   1.076   2.240 -0.4337  0.3331  0.1721
 1887SOL    HW117297   1.735   0.993   2.221 -1.0914 -0.0910  0.5338
 1887SOL    HW217298   1.610   1.041   2.203  1.0906 -2.3486 -0.6615
 1888SOL     OW17299   1.198   0.541   1.809 -0.0911  0.1241 -0.1374
 1888SOL    HW117300   1.161   0.589   1.734 -1.3653  2.5610  2.0713
 1888SOL    HW217301   1.289   0.536   1.777 -0.0869  0.6232 -0.2159
 1889SOL     OW17302   3.166   0.446   5.174 -0.0112  0.3439 -0.2390
 1889SOL    HW117303   3.149   0.540   5.167  2.1147  0.8267  0.9613
 1889SOL    HW217304   3.230   0.449   5.245  0.1361  2.1840 -0.4346
 1890SOL     OW17305   1.299   0.918   0.070  0.2184  0.1414 -0.3862
 1890SOL    HW117306   1.323   1.010   0.062  1.7391 -0.3144 -1.1686
 1890SOL    HW217307   1.219   0.918   0.122 -0.7884 -0.8897 -1.9276
 1891SOL     OW17308   1.179   2.343   4.344  0.1653  0.3679  0.1291
 1891SOL    HW117309   1.164   2.312   4.255 -0.7918  0.3175  0.3067
 1891SOL    HW217310   1.220   2.268   4.388  0.1623  0.0227 -0.4611
 1892SOL     OW17311   4.479   1.060   5.861  0.6976 -0.0795  0.0565
 1892SOL    HW117312   4.475   0.994   5.792  1.5300 -0.2141  0.1451
 1892SOL    HW217313   4.573   1.052   5.873  0.4922 -0.9323  1.1046
 1893SOL     OW17314   2.083   0.390   2.045  0.1425  0.1299  0.2976
 1893SOL    HW117315   2.083   0.392   2.141  1.1185 -2.3721  0.3360
 1893SOL    HW217316   2.153   0.330   2.022 -0.4799 -0.7981  0.8396
 1894SOL     OW17317   2.100   2.259  16.746  0.3116 -0.2406 -0.3042
 1894SOL    HW117318   2.136   2.331  16.797 -0.6487 -2.0153  2.8599
 1894SOL    HW217319   2.139   2.275  16.659 -0.9570 -0.4489 -0.9124
 1895SOL     OW17320   0.831   0.374   3.231  0.0558 -0.1389  0.2047
 1895SOL    HW117321   0.788   0.363   3.316  2.1166  0.9214  1.3860
 1895SOL    HW217322   0.882   0.453   3.250 -0.6457 -0.0112  1.5618
 1896SOL     OW17323   3.109   1.839   8.105  0.2744  0.2612  0.2982
 1896SOL    HW117324   3.040   1.818   8.168 -1.9220  2.2285 -1.4455
 1896SOL    HW217325   3.083   1.927   8.076  0.7171 -0.0844 -1.1109
 1897SOL     OW17326   1.463   2.288   6.079  0.1192  0.2006  0.1154
 1897SOL    HW117327   1.430   2.331   6.000  0.6651 -0.4828 -0.4837
 1897SOL    HW217328   1.487   2.200   6.049  1.8482  1.1556 -1.3422
 1898SOL     OW17329   3.874   0.210   1.934 -0.2833 -0.5105  0.0190
 1898SOL    HW117330   3.909   0.213   1.845 -0.2249  3.1089  0.1511
 1898SOL    HW217331   3.889   0.301   1.962 -1.8473  0.4437 -2.2506
 1899SOL     OW17332   3.522   3.070   4.171 -0.0413  0.4529 -0.4944
 1899SOL    HW117333   3.553   3.100   4.085 -2.4954 -0.4347 -1.6890
 1899SOL    HW217334   3.495   3.144   4.226 -1.1830 -0.1475 -0.2389
 1900SOL     OW17335   1.145   3.767   6.451 -0.6086  0.4344  0.2363
 1900SOL    HW117336   1.166   3.707   6.522 -1.1453  0.3977  0.3632
 1900SOL    HW217337   1.183   3.736   6.368 -0.4270  0.4547  0.3119
 1901SOL     OW17338   3.453   0.760   2.339 -0.1387 -0.2692  0.7618
 1901SOL    HW117339   3.484   0.847   2.366  0.6737 -0.8355  1.6560
 1901SOL    HW217340   3.360   0.781   2.346  0.1512  1.8443 -1.6599
 1902SOL     OW17341   0.343   0.119   3.412 -0.2926  0.2001 -0.3096
 1902SOL    HW117342   0.338   0.133   3.507  1.5892 -1.4924  0.0502
 1902SOL    HW217343   0.432   0.086   3.397  0.0648  1.2291 -0.4530
 1903SOL     OW17344   1.955   1.590   4.381 -0.7655 -0.0798 -0.8878
 1903SOL    HW117345   1.898   1.572   4.455  0.3337  1.8743  0.4327
 1903SOL    HW217346   1.954   1.502   4.344  0.0065 -0.2702 -0.4457
 1904SOL     OW17347   1.032   1.628   7.243  0.0148 -0.0883  0.8886
 1904SOL    HW117348   1.020   1.713   7.285 -2.7695  0.6437 -1.3864
 1904SOL    HW217349   1.120   1.597   7.266  0.6952  1.5814  0.5779
 1905SOL     OW17350   4.114   2.684   5.087  0.5959  0.3424  0.0713
 1905SOL    HW117351   4.114   2.589   5.096 -0.1059  0.2779 -0.5916
 1905SOL    HW217352   4.158   2.690   5.002 -1.1109 -0.6242 -0.8847
 1906SOL     OW17353   2.643   3.492   8.245 -0.2029  0.0454  0.4219
 1906SOL    HW117354   2.573   3.535   8.294  1.4957  0.5981  2.3980
 1906SOL    HW217355   2.634   3.404   8.281  0.5700  0.3166  1.2856
 1907SOL     OW17356   3.364   4.619  14.139  0.8840  0.3855  0.3309
 1907SOL    HW117357   3.374   4.566  14.060 -0.3927 -1.2003  1.2439
 1907SOL    HW217358   3.323   4.698  14.103 -0.6097  1.7730  5.1255
 1908SOL     OW17359   2.507   4.448  15.689  0.0844 -0.4851 -0.1036
 1908SOL    HW117360   2.577   4.469  15.750 -0.6147  3.4620 -0.7157
 1908SOL    HW217361   2.554   4.375  15.646 -1.1364 -0.5083 -1.4088
 1909SOL     OW17362   0.239   2.244  16.165 -0.4896  0.2994 -0.3957
 1909SOL    HW117363   0.282   2.309  16.220  0.5685 -1.2233  0.5802
 1909SOL    HW217364   0.230   2.172  16.228  0.6150 -0.3590 -0.9808
 1910SOL     OW17365   4.671   4.286  12.278 -0.2986 -0.2818  0.2610
 1910SOL    HW117366   4.644   4.226  12.347 -1.1985  1.8990  1.7795
 1910SOL    HW217367   4.712   4.352  12.334 -2.9861  1.0249  0.6952
 1911SOL     OW17368   2.950   0.085  15.195 -0.0148  0.2584 -0.8196
 1911SOL    HW117369   2.964   0.000  15.152  1.5497  0.8201 -1.4436
 1911SOL    HW217370   2.887   0.063  15.264  1.2887  1.3132  0.7074
 1912SOL     OW17371   0.154   4.174  12.133  0.1433  0.0650 -0.4718
 1912SOL    HW117372   0.077   4.203  12.181  0.7385  0.7663  0.0528
 1912SOL    HW217373   0.119   4.173  12.044 -0.6506 -2.2983 -0.1392
 1913SOL     OW17374   1.949   3.880   3.290  0.2335 -0.1717  0.5536
 1913SOL    HW117375   1.982   3.864   3.379 -2.3951  0.9761  1.7498
 1913SOL    HW217376   2.013   3.832   3.238  1.3417  0.0809  1.6572
 1914SOL     OW17377   1.513   4.449   8.768 -0.3504 -0.3574 -0.5363
 1914SOL    HW117378   1.507   4.357   8.746 -2.2115 -0.3891  0.0989
 1914SOL    HW217379   1.475   4.484   8.687 -0.5175  3.3690  1.1562
 1915SOL     OW17380   2.368   4.218   2.072  0.1641  0.3583  0.1936
 1915SOL    HW117381   2.295   4.188   2.126  0.7399 -0.3092  0.6000
 1915SOL    HW217382   2.447   4.199   2.123  1.0770 -0.9540 -1.7213
 1916SOL     OW17383   1.908   3.617   3.545 -0.5265  0.2692  0.5152
 1916SOL    HW117384   1.908   3.581   3.456  3.1368  0.5680  0.4252
 1916SOL    HW217385   1.942   3.706   3.534  0.4581 -0.1524  0.1970
 1917SOL     OW17386   4.617   0.675   3.733  0.1128 -0.0186 -0.4656
 1917SOL    HW117387   4.700   0.685   3.781 -1.3682  0.8149  1.9114
 1917SOL    HW217388   4.628   0.607   3.667  0.5852  0.4271 -0.8476
 1918SOL     OW17389   0.888   3.217   3.292  0.5613  0.2081  0.3941
 1918SOL    HW117390   0.823   3.275   3.253  0.3359 -1.0640 -1.1095
 1918SOL    HW217391   0.945   3.219   3.215  0.1308  1.0488  0.0915
 1919SOL     OW17392   2.566   0.746  10.946 -0.5399  0.4793  0.1991
 1919SOL    HW117393   2.661   0.745  10.935 -0.5236 -0.6401  0.4435
 1919SOL    HW217394   2.545   0.839  10.958  1.0454  0.9339 -0.6010
 1920SOL     OW17395   2.565   3.840   2.645 -0.5991 -0.1951 -0.2258
 1920SOL    HW117396   2.579   3.746   2.631 -1.5799 -0.0500 -2.1182
 1920SOL    HW217397   2.574   3.860   2.738 -0.1337 -2.2976  0.1776
 1921SOL     OW17398   2.685   4.247   4.260  0.0289 -0.3505  0.1772
 1921SOL    HW117399   2.750   4.230   4.192  1.9573  0.5738  1.8014
 1921SOL    HW217400   2.620   4.283   4.200  0.1549 -0.1017  0.1859
 1922SOL     OW17401   2.414   4.210   1.506 -1.0499  0.0765 -0.1359
 1922SOL    HW117402   2.443   4.220   1.596  0.2406 -0.1567 -0.5249
 1922SOL    HW217403   2.487   4.170   1.459 -2.2619 -1.1175 -1.0257
 1923SOL     OW17404   2.858   2.741   5.133 -0.0395 -0.3399 -0.4273
 1923SOL    HW117405   2.851   2.819   5.078  2.4727  0.1324 -0.1013
 1923SOL    HW217406   2.860   2.785   5.217  0.8524  3.5436 -2.4708
 1924SOL     OW17407   0.527   0.510   3.813  0.2236  0.2275 -0.2734
 1924SOL    HW117408   0.600   0.458   3.847 -1.9145 -3.3194 -1.1133
 1924SOL    HW217409   0.579   0.571   3.760  0.4458  0.3288  0.0644
 1925SOL     OW17410   1.191   2.317   2.624 -0.3072 -0.3159  0.3566
 1925SOL    HW117411   1.246   2.261   2.680  0.1363  0.4291  0.6705
 1925SOL    HW217412   1.161   2.251   2.562 -0.9437  0.1586  0.1702
 1926SOL     OW17413   4.155   0.116  11.108 -0.1072  0.5008  0.1046
 1926SOL    HW117414   4.245   0.081  11.109 -1.3099 -2.6537 -0.0409
 1926SOL    HW217415   4.098   0.069  11.047  0.5535  0.1527 -0.2504
 1927SOL     OW17416   4.591   3.305  10.428 -0.5440  0.2052 -0.0809
 1927SOL    HW117417   4.642   3.378  10.391 -0.6393  0.4135  0.1993
 1927SOL    HW217418   4.530   3.347  10.489  0.2303  1.7590 -0.3816
 1928SOL     OW17419   3.508   4.694  14.353  0.0089 -0.0723  0.1697
 1928SOL    HW117420   3.457   4.663  14.278  0.8709  0.4377 -0.6253
 1928SOL    HW217421   3.589   4.644  14.343  0.8226  1.6623 -2.0350
 1929SOL     OW17422   2.843   0.043   9.717 -0.4995 -0.1133  0.6877
 1929SOL    HW117423   2.928   0.030   9.757  0.0150 -0.6561 -0.5800
 1929SOL    HW217424   2.833   4.714   9.649  1.5332  1.3714 -1.0929
 1930SOL     OW17425   1.977   2.488  13.838  0.0295  0.0296 -0.3220
 1930SOL    HW117426   1.890   2.490  13.797  0.2540  0.6986 -0.7666
 1930SOL    HW217427   1.974   2.395  13.860 -4.2131  0.3431  0.4355
 1931SOL     OW17428   2.127   0.979   3.078  0.1726 -0.3088 -0.6442
 1931SOL    HW117429   2.137   1.043   3.148 -3.7219  0.4673 -0.8107
 1931SOL    HW217430   2.032   0.966   3.082  0.2993 -1.7437 -2.2450
 1932SOL     OW17431   1.846   2.727   2.792  0.4465  0.0330  0.1569
 1932SOL    HW117432   1.900   2.719   2.713 -0.8420  0.2354 -0.7269
 1932SOL    HW217433   1.795   2.805   2.771  0.1065 -0.1992  0.1208
 1933SOL     OW17434   3.108   1.842   3.072  0.1088  0.1685 -0.0456
 1933SOL    HW117435   3.089   1.760   3.027  2.0658  1.8599 -4.0243
 1933SOL    HW217436   3.125   1.900   2.998  0.3928 -0.5763 -0.5613
 1934SOL     OW17437   0.980   0.629   7.184  0.0442  0.1822  0.2724
 1934SOL    HW117438   0.981   0.704   7.245  1.3947 -0.5097  1.1060
 1934SOL    HW217439   1.054   0.644   7.126 -1.0471 -1.8203 -1.6181
 1935SOL     OW17440   0.174   2.023   4.695 -0.0381 -0.3485 -0.0528
 1935SOL    HW117441   0.129   2.053   4.616 -1.8486 -1.1001  0.6917
 1935SOL    HW217442   0.259   2.005   4.656 -1.9195 -2.5591 -3.1426
 1936SOL     OW17443   0.739   4.575   6.634 -0.0308 -0.2630 -0.1370
 1936SOL    HW117444   0.815   4.633   6.631 -1.0771  0.9575 -2.9973
 1936SOL    HW217445   0.774   4.491   6.663  1.4036 -0.1016 -1.4307
 1937SOL     OW17446   1.448   1.813   6.313  0.0655  0.5149 -0.3556
 1937SOL    HW117447   1.541   1.813   6.337 -0.0638 -1.7875  0.1278
 1937SOL    HW217448   1.426   1.902   6.341 -0.2734 -0.2505  1.8067
 1938SOL     OW17449   1.068   0.659   0.264  0.0761  0.2635  0.2291
 1938SOL    HW117450   1.158   0.665   0.233 -0.4933 -1.1790 -1.7314
 1938SOL    HW217451   1.045   0.752   0.263  0.3382  0.3320  0.7755
 1939SOL     OW17452   2.416   4.289   8.780  0.1732  0.3458 -0.3303
 1939SOL    HW117453   2.435   4.206   8.737  1.8213 -0.8483  2.6805
 1939SOL    HW217454   2.491   4.347   8.768  2.7752 -2.9377  0.4109
 1940SOL     OW17455   0.366   3.976   9.734 -0.4381 -0.1708 -0.3105
 1940SOL    HW117456   0.311   4.054   9.736 -0.0089  0.1038  0.6333
 1940SOL    HW217457   0.401   3.988   9.822 -1.2220  0.4294 -0.0856
 1941SOL     OW17458   4.483   1.821   3.172  0.1159  0.4655  0.0251
 1941SOL    HW117459   4.447   1.732   3.172  1.1137  0.0706  1.5828
 1941SOL    HW217460   4.441   1.862   3.096  0.0370 -0.0142 -0.1911
 1942SOL     OW17461   0.859   1.330   0.018  0.0255  0.4288 -0.2024
 1942SOL    HW117462   0.805   1.298   0.091  0.3714  0.6408  0.1478
 1942SOL    HW217463   0.819   1.289  17.693 -0.9748 -0.1904  0.6729
 1943SOL     OW17464   2.060   1.433   1.700  0.8351 -0.1991 -0.0763
 1943SOL    HW117465   2.053   1.499   1.769 -0.2967  0.8129 -1.1531
 1943SOL    HW217466   2.024   1.472   1.620  1.1532  0.4544  0.0990
 1944SOL     OW17467   2.960   4.287  15.061 -0.5217  0.1850  0.1994
 1944SOL    HW117468   2.948   4.381  15.054  2.2637  0.5377 -0.0022
 1944SOL    HW217469   3.055   4.278  15.067 -0.5731 -0.2983  0.2900
 1945SOL     OW17470   0.040   2.772  16.746  0.7615  0.0971  0.5629
 1945SOL    HW117471   4.693   2.729  16.743 -0.5049  2.4045  3.4472
 1945SOL    HW217472   0.044   2.786  16.840  4.1894  0.1943  0.4121
 1946SOL     OW17473   3.574   0.149   4.445  0.1233  1.1471 -0.3261
 1946SOL    HW117474   3.646   0.089   4.465  0.5428  1.1035 -1.9835
 1946SOL    HW217475   3.578   0.175   4.354  1.7628 -1.1279 -0.9171
 1947SOL     OW17476   0.485   3.949   3.523  0.3774  0.2648  0.4425
 1947SOL    HW117477   0.434   4.022   3.558  3.0905  1.2758  2.3057
 1947SOL    HW217478   0.474   3.947   3.428  1.6967 -1.1254  0.3267
 1948SOL     OW17479   0.906   0.136   4.862  0.3573  0.3953 -0.0102
 1948SOL    HW117480   0.838   0.151   4.797 -1.6204 -1.5626  1.5911
 1948SOL    HW217481   0.939   0.226   4.866 -2.5156  1.3321  2.4992
 1949SOL     OW17482   3.232   3.352   8.350 -0.2273 -0.0490  0.1064
 1949SOL    HW117483   3.256   3.279   8.293 -0.8285 -0.0095 -0.2026
 1949SOL    HW217484   3.308   3.409   8.347 -0.0153 -0.4989 -2.6801
 1950SOL     OW17485   2.552   1.485   3.412 -0.2371 -0.7487  0.1950
 1950SOL    HW117486   2.586   1.419   3.473  1.8001  1.9503  1.9983
 1950SOL    HW217487   2.628   1.498   3.355  0.6167 -0.2166  1.4374
 1951SOL     OW17488   3.160   3.092  16.947 -0.3038  0.0706 -0.2524
 1951SOL    HW117489   3.107   3.162  16.908 -0.9930 -1.6002 -2.2855
 1951SOL    HW217490   3.246   3.134  16.942 -0.4489  0.5530  1.1793
 1952SOL     OW17491   4.676   1.732  16.263  0.2889 -1.1420 -0.3645
 1952SOL    HW117492   4.680   1.773  16.349  0.7604 -2.1178  0.0703
 1952SOL    HW217493   4.724   1.788  16.202 -0.3834  2.1575  2.1502
 1953SOL     OW17494   2.138   1.953  17.128 -0.3094  0.4623  0.1329
 1953SOL    HW117495   2.050   1.991  17.124 -0.6352 -0.2461  0.6315
 1953SOL    HW217496   2.163   1.959  17.036  0.8735 -0.7251  0.3842
 1954SOL     OW17497   2.921   2.299   5.627 -0.3839  0.3751  0.0574
 1954SOL    HW117498   2.868   2.287   5.549  1.1856  0.6059 -1.0362
 1954SOL    HW217499   2.989   2.233   5.610 -1.0461 -0.5152  0.8535
 1955SOL     OW17500   3.939   3.452   5.547  0.6153  0.1501 -0.4007
 1955SOL    HW117501   3.844   3.448   5.541  0.5818 -0.9016  0.7945
 1955SOL    HW217502   3.951   3.547   5.540  1.1177  0.2432  1.6636
 1956SOL     OW17503   3.138   2.116   5.542 -0.1255  0.5173 -0.5158
 1956SOL    HW117504   3.169   2.115   5.633 -1.6596 -0.1949 -0.0019
 1956SOL    HW217505   3.134   2.022   5.523 -0.8167  0.1142  1.6013
 1957SOL     OW17506   4.411   1.188   8.954 -0.5021  1.1708 -0.2982
 1957SOL    HW117507   4.329   1.229   8.983 -1.8498 -1.1680 -0.7504
 1957SOL    HW217508   4.427   1.242   8.877  0.3728  0.7820 -0.3865
 1958SOL     OW17509   1.405   2.512   2.537 -0.4178 -0.0811 -0.0898
 1958SOL    HW117510   1.484   2.460   2.524  0.9524  1.9329  0.0965
 1958SOL    HW217511   1.357   2.449   2.591 -0.3968 -0.2106 -0.2244
 1959SOL     OW17512   2.529   1.421   7.314 -0.1985  0.0451 -0.0868
 1959SOL    HW117513   2.601   1.385   7.262  1.8615  1.3599  1.8760
 1959SOL    HW217514   2.568   1.487   7.371 -1.3707 -2.1431  3.2998
 1960SOL     OW17515   1.466   2.458   5.107 -0.1392 -0.1192  0.3914
 1960SOL    HW117516   1.521   2.384   5.081 -0.3795 -0.5898  1.2324
 1960SOL    HW217517   1.421   2.418   5.182 -2.0591  1.0896 -0.1104
 1961SOL     OW17518   2.881   1.170  15.031  0.4023 -0.3488  0.5938
 1961SOL    HW117519   2.922   1.095  14.987 -2.1293 -1.6824  0.4681
 1961SOL    HW217520   2.788   1.155  15.015  1.1728 -2.5057 -2.0083
 1962SOL     OW17521   4.014   2.873   7.040 -0.1124  0.6120 -0.1985
 1962SOL    HW117522   4.011   2.880   6.945  0.1435 -1.2989 -0.3603
 1962SOL    HW217523   4.044   2.783   7.053 -0.8130  0.2208 -1.2679
 1963SOL     OW17524   1.404   2.052   6.445  0.0928  0.2903  0.0123
 1963SOL    HW117525   1.384   2.101   6.524 -0.3066 -1.9080  1.2604
 1963SOL    HW217526   1.323   2.071   6.397 -0.3233 -0.6516  0.3515
 1964SOL     OW17527   4.427   4.197   9.632  0.2628 -0.6848 -0.1686
 1964SOL    HW117528   4.510   4.233   9.665  0.0052 -1.1785  1.0060
 1964SOL    HW217529   4.456   4.114   9.595  0.5080  0.1757 -1.9155
 1965SOL     OW17530   0.680   0.080   5.843  0.5880 -0.7509  0.6344
 1965SOL    HW117531   0.683   4.737   5.792  0.0449  0.8866 -1.9765
 1965SOL    HW217532   0.659   0.140   5.771 -1.7793 -1.0825  1.0634
 1966SOL     OW17533   2.662   2.750   5.860  0.0942 -0.2705 -0.2975
 1966SOL    HW117534   2.663   2.717   5.770  0.9111 -0.1552 -0.3301
 1966SOL    HW217535   2.740   2.806   5.863 -0.8727  0.9940  1.2053
 1967SOL     OW17536   3.968   1.833   8.246 -0.3023  0.2395  0.3242
 1967SOL    HW117537   3.936   1.774   8.315  0.3009 -2.9205 -2.0912
 1967SOL    HW217538   4.025   1.776   8.194 -0.2661  0.1910  0.4160
 1968SOL     OW17539   0.406   3.291   2.068  0.4514  0.1987  0.1427
 1968SOL    HW117540   0.418   3.361   2.004  1.2818  2.3041  2.5737
 1968SOL    HW217541   0.312   3.293   2.086  0.7217  4.5182  1.1197
 1969SOL     OW17542   2.270   3.271  15.411 -0.5635 -0.1932  0.1501
 1969SOL    HW117543   2.227   3.355  15.429 -2.2895 -1.4276  1.8331
 1969SOL    HW217544   2.261   3.228  15.496 -0.1972 -1.0586 -0.2519
 1970SOL     OW17545   3.403   1.394  14.718 -0.8273  0.2086 -0.1112
 1970SOL    HW117546   3.373   1.361  14.634  0.7056  0.3251 -0.7068
 1970SOL    HW217547   3.370   1.484  14.716  1.2712  0.9307 -2.7892
 1971SOL     OW17548   1.274   3.386   4.432 -0.2255  0.2420 -0.3062
 1971SOL    HW117549   1.246   3.464   4.479 -1.3982  0.0805 -0.7389
 1971SOL    HW217550   1.353   3.359   4.479  0.1156 -1.3805 -1.7744
 1972SOL     OW17551   0.195   4.219  10.439 -0.3917 -0.1129  0.1667
 1972SOL    HW117552   0.169   4.309  10.456  2.0132  1.2509 -3.2778
 1972SOL    HW217553   0.288   4.228  10.415 -0.6679  0.0552 -0.8123
 1973SOL     OW17554   3.984   0.784   4.716 -0.3360  0.6223  0.6882
 1973SOL    HW117555   3.968   0.712   4.777 -0.1388  0.1902  0.2253
 1973SOL    HW217556   4.075   0.775   4.688 -0.6653 -0.0581 -0.1433
 1974SOL     OW17557   3.890   2.992   0.380  0.1327 -0.7042  0.2119
 1974SOL    HW117558   3.876   3.084   0.359  0.6816 -0.9360 -1.1848
 1974SOL    HW217559   3.802   2.957   0.365 -1.9246  4.1739  0.7404
 1975SOL     OW17560   2.269   0.235   5.971 -0.3504  0.2425 -0.3255
 1975SOL    HW117561   2.247   0.153   6.015 -1.3295 -1.0581 -3.2296
 1975SOL    HW217562   2.286   0.202   5.882  1.0970 -0.7001  0.2972
 1976SOL     OW17563   2.743   4.602   6.487 -0.1105  0.6096 -0.3006
 1976SOL    HW117564   2.814   4.566   6.540  0.1914  2.8826  0.8250
 1976SOL    HW217565   2.715   4.665   6.553 -0.3134 -1.2639  1.4352
 1977SOL     OW17566   4.464   0.752   7.280  0.2143  0.0343 -0.1582
 1977SOL    HW117567   4.452   0.662   7.310  0.7216  0.0020 -0.0491
 1977SOL    HW217568   4.373   0.781   7.270  0.0469 -0.8550 -1.2566
 1978SOL     OW17569   4.615   1.254  15.008 -0.2517 -0.2340 -0.2399
 1978SOL    HW117570   4.664   1.177  14.983  0.5510  0.5441 -1.0590
 1978SOL    HW217571   4.693   1.308  15.019 -0.6896 -0.3343  3.5367
 1979SOL     OW17572   4.173   0.859  16.424 -0.0422 -0.1622 -0.4410
 1979SOL    HW117573   4.212   0.833  16.508 -1.5287  0.3699  0.4043
 1979SOL    HW217574   4.232   0.934  16.415 -1.0681  0.7513  0.5272
 1980SOL     OW17575   1.812   3.534   1.104 -0.1385  0.4522  0.5385
 1980SOL    HW117576   1.895   3.486   1.099  0.7643  1.5659  4.4752
 1980SOL    HW217577   1.804   3.567   1.015  1.0472  1.8001  0.9120
 1981SOL     OW17578   1.816   3.989  13.242  0.1267 -0.1866 -0.7523
 1981SOL    HW117579   1.908   3.961  13.243  0.7927  2.0002 -0.4256
 1981SOL    HW217580   1.783   3.946  13.321 -0.3032 -0.8100 -1.2697
 1982SOL     OW17581   2.024   2.798  15.835 -0.2127 -0.0936  0.2992
 1982SOL    HW117582   2.045   2.737  15.765  3.4045  0.1464  1.1724
 1982SOL    HW217583   2.115   2.816  15.856 -0.3673 -0.7547  1.5917
 1983SOL     OW17584   3.997   0.098   2.204 -0.4822  0.1542  0.2765
 1983SOL    HW117585   3.982   0.091   2.110  0.1277  0.5158  0.1570
 1983SOL    HW217586   4.091   0.105   2.218 -0.4868 -1.3940  1.0687
 1984SOL     OW17587   1.902   2.361  17.668  0.9213 -0.5869  0.0263
 1984SOL    HW117588   1.881   2.397   0.003 -0.8890 -2.0277  0.2004
 1984SOL    HW217589   1.957   2.435  17.643 -0.6171  0.7986  0.7151
 1985SOL     OW17590   3.784   1.522   1.204  0.3602  0.4469 -0.2688
 1985SOL    HW117591   3.836   1.602   1.213 -0.5122  1.1290 -1.2891
 1985SOL    HW217592   3.850   1.453   1.189  0.0612  0.1689 -0.3061
 1986SOL     OW17593   3.683   0.359   2.982 -0.1690  0.2615  0.9720
 1986SOL    HW117594   3.606   0.302   2.985  0.2060 -0.2243  1.3846
 1986SOL    HW217595   3.754   0.306   2.946 -2.1778 -0.2923 -2.0699
 1987SOL     OW17596   1.573   0.324   6.237  0.2422  0.2019 -0.3695
 1987SOL    HW117597   1.630   0.367   6.174 -0.4235  3.0509  0.9357
 1987SOL    HW217598   1.633   0.279   6.296 -0.2204  1.2232  0.9179
 1988SOL     OW17599   2.111   3.615  16.503 -0.4398  0.7532 -0.1940
 1988SOL    HW117600   2.104   3.680  16.433  1.7267 -0.2823 -1.3761
 1988SOL    HW217601   2.124   3.529  16.462 -0.3975  1.8176 -2.3905
 1989SOL     OW17602   3.915   2.909   9.792  0.8137  0.3530 -0.1077
 1989SOL    HW117603   3.841   2.880   9.738  1.5365 -1.8298  0.0613
 1989SOL    HW217604   3.879   2.885   9.877  1.3954 -1.0800 -0.2590
 1990SOL     OW17605   1.546   1.573   7.370  0.1842 -0.2456  0.6275
 1990SOL    HW117606   1.499   1.579   7.453  0.0893  0.7276  0.5054
 1990SOL    HW217607   1.473   1.557   7.310  0.3200 -0.7799  0.6077
 1991SOL     OW17608   2.336   1.283   4.171  0.6277  0.2034  0.0882
 1991SOL    HW117609   2.301   1.240   4.248  1.6465  0.0017  0.4390
 1991SOL    HW217610   2.264   1.332   4.131  2.3277  4.0827  1.7969
 1992SOL     OW17611   1.128   2.095   2.441 -0.0485 -0.2402  0.2490
 1992SOL    HW117612   1.035   2.082   2.424  0.1179  2.5668 -2.8743
 1992SOL    HW217613   1.167   2.055   2.364  1.3909  1.6704 -0.0303
 1993SOL     OW17614   0.543   1.956   6.702 -0.4782  0.7725 -0.6811
 1993SOL    HW117615   0.476   2.022   6.722 -0.3949  0.6317  0.0436
 1993SOL    HW217616   0.480   1.884   6.697  1.8842 -1.3572  0.9411
 1994SOL     OW17617   2.710   4.226   9.340  0.0651 -0.4647  0.7140
 1994SOL    HW117618   2.685   4.316   9.361  1.1682 -0.3181  1.3988
 1994SOL    HW217619   2.625   4.184   9.329 -0.3140  1.3763 -3.4111
 1995SOL     OW17620   2.131   0.345   6.898 -0.5925  1.0110  0.4635
 1995SOL    HW117621   2.117   0.311   6.810 -0.6429  1.3125  0.3534
 1995SOL    HW217622   2.206   0.402   6.882 -0.5471  0.9139  0.3305
 1996SOL     OW17623   1.840   2.779  16.037 -0.1933  0.0196  0.1936
 1996SOL    HW117624   1.891   2.781  15.956  1.0011  0.9279  0.9644
 1996SOL    HW217625   1.792   2.862  16.034  0.5443  0.4631  0.7687
 1997SOL     OW17626   0.202   3.754   8.407  0.6815  0.3389 -0.4199
 1997SOL    HW117627   0.250   3.775   8.327  0.8745  0.5669 -0.2442
 1997SOL    HW217628   0.113   3.776   8.379  1.0829  0.0728 -1.9185
 1998SOL     OW17629   0.478   3.530   1.859  0.0907 -0.4767  0.1719
 1998SOL    HW117630   0.512   3.590   1.793 -0.4265 -0.5981 -0.2003
 1998SOL    HW217631   0.428   3.594   1.910 -0.2563  0.1770 -0.9902
 1999SOL     OW17632   4.490   4.492   6.130 -0.3188  0.5966 -0.2302
 1999SOL    HW117633   4.424   4.440   6.083  1.8889 -1.6036 -0.9226
 1999SOL    HW217634   4.440   4.549   6.188  0.1458  0.3506  0.4088
 2000SOL     OW17635   4.168   3.585   4.393  0.4037  0.2773 -0.0999
 2000SOL    HW117636   4.210   3.544   4.469 -0.7034 -1.1558 -0.2627
 2000SOL    HW217637   4.077   3.561   4.410 -0.2171  2.2878 -0.5545
 2001SOL     OW17638   4.715   2.231  17.088 -0.5657 -0.6885 -0.0828
 2001SOL    HW117639   4.704   2.326  17.079 -1.5233 -0.7825  0.0483
 2001SOL    HW217640   4.713   2.223  16.993 -2.6545 -0.6680 -0.0399
 2002SOL     OW17641   4.694   2.665  15.937  0.0644 -0.2200 -0.1657
 2002SOL    HW117642   4.661   2.624  15.857 -0.9918  0.8364 -0.2729
 2002SOL    HW217643   4.727   2.582  15.974 -1.7695 -1.1505 -0.5956
 2003SOL     OW17644   4.654   4.714   7.064 -0.2141 -0.0422  0.0923
 2003SOL    HW117645   4.688   4.675   7.145  0.6981  0.4121 -0.0778
 2003SOL    HW217646   4.676   4.642   7.005  0.2157  0.4479 -0.3408
 2004SOL     OW17647   1.227   1.707  13.685 -0.0480 -0.3808 -0.8822
 2004SOL    HW117648   1.209   1.702  13.778  0.8639  0.2130 -0.6688
 2004SOL    HW217649   1.295   1.774  13.692 -0.1583 -0.2845 -0.7352
 2005SOL     OW17650   1.226   0.293   8.375 -0.3463  0.2140  0.2849
 2005SOL    HW117651   1.170   0.238   8.321  1.9074 -1.8669  0.0441
 2005SOL    HW217652   1.246   0.234   8.448 -0.0149 -1.7016 -1.3454
 2006SOL     OW17653   0.883   2.043   2.357  0.2584 -0.2232 -0.2618
 2006SOL    HW117654   0.789   2.058   2.370  0.2879 -0.4063  0.1771
 2006SOL    HW217655   0.897   1.949   2.342 -0.8007 -0.4663  0.2202
 2007SOL     OW17656   3.892   2.543  12.371  0.4210 -0.0668 -0.3938
 2007SOL    HW117657   3.902   2.637  12.386 -0.4344  0.0545 -0.6035
 2007SOL    HW217658   3.866   2.544  12.279  2.6803  0.7068 -1.0182
 2008SOL     OW17659   0.135   2.706  16.439  0.3550 -0.0148  0.0227
 2008SOL    HW117660   0.089   2.770  16.492 -1.4326  0.9787 -2.7370
 2008SOL    HW217661   0.145   2.633  16.500  0.3426 -0.0234  0.0147
 2009SOL     OW17662   1.824   1.306  15.018  0.1785 -0.3253 -0.2718
 2009SOL    HW117663   1.760   1.311  14.947 -0.9204  1.3233  0.8365
 2009SOL    HW217664   1.884   1.376  14.991 -2.2609  0.5020 -3.4954
 2010SOL     OW17665   4.105   1.061  12.414 -0.2521  0.0798  0.1621
 2010SOL    HW117666   4.019   1.093  12.442 -0.0243 -2.4432  3.6944
 2010SOL    HW217667   4.154   1.067  12.495  0.0698 -2.3159  0.1395
 2011SOL     OW17668   2.305   3.670   5.954  0.4121  0.5612  0.1584
 2011SOL    HW117669   2.273   3.599   5.898  0.6800  1.5181 -1.2017
 2011SOL    HW217670   2.400   3.660   5.965  0.1973 -0.7394  0.7997
 2012SOL     OW17671   4.584   1.387   9.419 -0.7411  0.1331  0.4591
 2012SOL    HW117672   4.571   1.302   9.379 -1.5473  1.2507 -1.6557
 2012SOL    HW217673   4.643   1.365   9.491  0.1934  1.4419  0.0908
 2013SOL     OW17674   0.127   1.230   1.495 -0.4201  0.7094  0.2805
 2013SOL    HW117675   0.053   1.246   1.436 -1.4759  0.7620  1.6075
 2013SOL    HW217676   0.101   1.196   1.581  1.4666 -0.2220  0.4735
 2014SOL     OW17677   1.164   2.412   7.495  0.6127  0.3211  0.1060
 2014SOL    HW117678   1.192   2.495   7.456  1.6430  0.4420  1.0950
 2014SOL    HW217679   1.222   2.344   7.461 -0.5349 -0.9095  0.6052
 2015SOL     OW17680   4.343   1.332   5.699 -0.4294  0.3933 -0.1497
 2015SOL    HW117681   4.315   1.242   5.718 -0.4916 -0.1532 -2.7642
 2015SOL    HW217682   4.364   1.380   5.779  0.5109  2.3340 -1.5796
 2016SOL     OW17683   0.900   3.798   7.456 -0.5797 -0.5279  1.0524
 2016SOL    HW117684   0.892   3.893   7.463 -0.1575 -0.3272 -1.4646
 2016SOL    HW217685   0.911   3.775   7.549  1.7513 -3.0253  0.1408
 2017SOL     OW17686   4.081   2.789   4.145 -0.3708  0.5147 -0.0763
 2017SOL    HW117687   3.998   2.837   4.141 -0.3672  0.5482  0.2644
 2017SOL    HW217688   4.056   2.699   4.169  1.4220  0.3537  1.2176
 2018SOL     OW17689   4.683   1.487   6.361 -0.2904 -0.5866 -0.9555
 2018SOL    HW117690   4.626   1.531   6.424 -0.2792 -2.9484  0.7210
 2018SOL    HW217691   4.640   1.511   6.279 -3.6249 -1.3301  0.5968
 2019SOL     OW17692   3.776   1.744   9.570 -0.0535  0.0750  0.0647
 2019SOL    HW117693   3.694   1.761   9.523 -0.4708  0.2326  0.8400
 2019SOL    HW217694   3.776   1.817   9.633 -0.6594  1.8228 -1.9774
 2020SOL     OW17695   3.433   2.404  13.010 -0.1223 -0.0769 -1.0001
 2020SOL    HW117696   3.402   2.476  13.065  4.5597  1.8128 -0.8122
 2020SOL    HW217697   3.478   2.351  13.076  1.5654  2.0982 -0.4274
 2021SOL     OW17698   2.844   1.565   1.859 -0.4584 -0.1750  0.1837
 2021SOL    HW117699   2.810   1.627   1.795 -1.1722 -1.4729 -0.6914
 2021SOL    HW217700   2.759   1.535   1.891 -1.1880  1.6727  0.0024
 2022SOL     OW17701   0.873   4.400  11.883 -0.1125  0.1243  0.9948
 2022SOL    HW117702   0.812   4.473  11.891  0.8245  0.8187  1.8977
 2022SOL    HW217703   0.820   4.322  11.899 -1.2974  0.7054 -0.1159
 2023SOL     OW17704   4.100   0.960  12.133  0.2851  0.2160  0.1932
 2023SOL    HW117705   4.115   1.025  12.202 -0.7772  0.2449  0.3858
 2023SOL    HW217706   4.178   0.960  12.077  0.3688  4.8548  0.2882
 2024SOL     OW17707   0.880   0.206   7.343 -0.5565  0.4203 -0.3233
 2024SOL    HW117708   0.955   0.251   7.303  0.0849 -0.6288 -0.2900
 2024SOL    HW217709   0.906   0.116   7.329 -0.7817  0.3450 -0.2573
 2025SOL     OW17710   2.355   0.650  15.539 -0.3593 -0.8337 -0.4446
 2025SOL    HW117711   2.287   0.717  15.526 -0.8022 -0.8373  1.9537
 2025SOL    HW217712   2.298   0.578  15.567  1.1961 -1.0567  2.1509
 2026SOL     OW17713   3.693   0.911  11.375  0.3038  0.1729 -0.5008
 2026SOL    HW117714   3.786   0.920  11.355  0.8377 -0.1829  1.7728
 2026SOL    HW217715   3.668   0.851  11.304  0.2628 -1.2877  0.7314
 2027SOL     OW17716   3.932   2.733  13.395 -0.0992  0.2094 -0.1932
 2027SOL    HW117717   3.976   2.725  13.480  0.9416 -1.0881 -0.8602
 2027SOL    HW217718   3.845   2.709  13.428 -0.2915  0.3647 -0.5843
 2028SOL     OW17719   1.261   3.672   8.858  0.2041  0.0889 -0.8284
 2028SOL    HW117720   1.201   3.726   8.807  0.0154  2.4287  1.8855
 2028SOL    HW217721   1.249   3.717   8.941  4.3470 -1.9042  0.8322
 2029SOL     OW17722   2.384   2.718   1.473 -0.1252 -0.2017  0.2778
 2029SOL    HW117723   2.374   2.662   1.396 -0.0721 -0.6798  0.6206
 2029SOL    HW217724   2.296   2.712   1.511 -1.4661  3.8069 -2.2008
 2030SOL     OW17725   0.545   1.809  17.132 -0.1038 -0.4966 -0.1811
 2030SOL    HW117726   0.623   1.773  17.090  0.4266 -0.2203  0.5635
 2030SOL    HW217727   0.563   1.793  17.225  0.6984 -0.4810 -0.3365
 2031SOL     OW17728   1.716   2.079  11.625  0.5450 -0.2365 -0.0656
 2031SOL    HW117729   1.683   2.098  11.537 -0.4325 -0.8565  0.1702
 2031SOL    HW217730   1.807   2.054  11.613  1.0544  1.3938  0.4090
 2032SOL     OW17731   3.224   2.865  15.368 -0.1306  0.0332  0.1748
 2032SOL    HW117732   3.180   2.902  15.444 -0.5281  0.3101 -0.1921
 2032SOL    HW217733   3.164   2.900  15.302 -0.2464  0.0053  0.2665
 2033SOL     OW17734   3.910   0.092   6.170  0.1257  0.0601  0.1147
 2033SOL    HW117735   3.890   0.179   6.204 -0.0154  0.5260 -1.1450
 2033SOL    HW217736   3.896   0.106   6.076  1.9776  0.4713 -0.0888
 2034SOL     OW17737   3.878   1.060  11.148  0.0378  0.0755  0.4951
 2034SOL    HW117738   3.819   1.010  11.091 -0.6763  1.9154 -0.3843
 2034SOL    HW217739   3.872   1.145  11.105  0.3398 -0.1694 -0.0285
 2035SOL     OW17740   4.175   3.773   7.197  0.4446  0.3374 -0.1154
 2035SOL    HW117741   4.195   3.750   7.288  0.2177 -0.4157 -0.2565
 2035SOL    HW217742   4.178   3.682   7.167 -2.5076  0.2258 -0.0383
 2036SOL     OW17743   1.948   3.258   6.812 -0.1364 -0.1407  0.0173
 2036SOL    HW117744   1.957   3.192   6.881  0.4181  0.7102  0.7635
 2036SOL    HW217745   1.863   3.298   6.831 -0.0265 -0.1301  0.5098
 2037SOL     OW17746   3.617   1.951   4.956 -0.0815 -0.1182  0.4192
 2037SOL    HW117747   3.620   2.037   4.999  1.7362 -0.1554  0.3808
 2037SOL    HW217748   3.609   1.902   5.037  0.5686  0.2121  0.6915
 2038SOL     OW17749   0.749   4.304   3.009 -0.4818  0.1756  0.0697
 2038SOL    HW117750   0.725   4.228   3.063  2.1463  0.0298  1.0456
 2038SOL    HW217751   0.678   4.362   3.036 -1.1539 -0.2739 -0.7010
 2039SOL     OW17752   0.081   0.224   7.658  0.1294 -0.4804  0.6161
 2039SOL    HW117753   0.097   0.184   7.572 -1.1129  1.0382 -0.3350
 2039SOL    HW217754   4.733   0.261   7.639  0.1372 -0.7832 -0.0103
 2040SOL     OW17755   4.583   0.537  13.104  0.2389 -0.5755 -0.1393
 2040SOL    HW117756   4.568   0.521  13.198 -1.8642 -3.5498 -0.9814
 2040SOL    HW217757   4.639   0.461  13.089  2.3754  0.5651  2.1306
 2041SOL     OW17758   4.656   0.862   6.197 -0.9284  0.5088  0.0024
 2041SOL    HW117759   4.606   0.794   6.151 -1.3085  0.9074 -0.1752
 2041SOL    HW217760   4.687   0.816   6.275 -0.6563 -2.3544 -1.8012
 2042SOL     OW17761   2.414   0.797   6.146 -0.2197 -0.2538  0.3450
 2042SOL    HW117762   2.421   0.727   6.081 -1.0247  0.6994 -0.7751
 2042SOL    HW217763   2.320   0.784   6.153 -0.1826 -0.5055  0.3475
 2043SOL     OW17764   3.172   1.427   7.454  0.3007 -0.0705  0.1454
 2043SOL    HW117765   3.174   1.400   7.546 -2.1978  0.4661  0.3441
 2043SOL    HW217766   3.083   1.409   7.423  0.0955 -0.4012  0.9104
 2044SOL     OW17767   1.646   0.555   8.351 -0.1024 -0.2418 -0.1574
 2044SOL    HW117768   1.574   0.608   8.318  0.8954  0.6009 -0.9984
 2044SOL    HW217769   1.600   0.505   8.418  0.7623  0.6101  1.0724
 2045SOL     OW17770   1.205   1.310   3.218 -0.3096  0.7011  0.5180
 2045SOL    HW117771   1.196   1.293   3.124 -1.1612  2.0396  0.3496
 2045SOL    HW217772   1.226   1.224   3.254 -1.0269  0.8133  1.1911
 2046SOL     OW17773   3.225   0.059   1.834  0.0710  0.3122 -0.1771
 2046SOL    HW117774   3.207   0.138   1.783  0.4723  1.0160  0.7894
 2046SOL    HW217775   3.137   0.032   1.862 -0.6517  1.2755 -1.5293
 2047SOL     OW17776   2.477   3.142   9.470 -0.0314  0.0244 -0.1661
 2047SOL    HW117777   2.569   3.122   9.484 -0.2964 -0.1695  1.2902
 2047SOL    HW217778   2.452   3.055   9.436 -1.5890  0.2890  0.2892
 2048SOL     OW17779   1.960   3.842   4.037  0.6447  0.5277 -0.0363
 2048SOL    HW117780   1.923   3.864   3.952 -0.7456  1.2191  0.7321
 2048SOL    HW217781   1.947   3.927   4.080 -3.2941 -0.1924  0.1969
 2049SOL     OW17782   2.011   1.453   9.048  0.1120  0.1059  0.0756
 2049SOL    HW117783   1.942   1.507   9.009  1.8759  1.5186 -1.0786
 2049SOL    HW217784   2.073   1.525   9.059 -0.1302 -0.0981  2.8005
 2050SOL     OW17785   2.906   1.504  12.834  0.3268  0.3276  0.3765
 2050SOL    HW117786   2.836   1.532  12.892  1.0884  0.6393  1.1506
 2050SOL    HW217787   2.937   1.423  12.873  1.7392  0.8694  0.4058
 2051SOL     OW17788   3.515   2.029   0.367  0.2988  0.0577 -0.3397
 2051SOL    HW117789   3.509   2.076   0.450 -0.3797 -0.7150  0.0530
 2051SOL    HW217790   3.450   2.070   0.310 -0.2370 -0.5546 -0.1723
 2052SOL     OW17791   2.120   1.070   1.822  0.7279 -0.1231  0.1769
 2052SOL    HW117792   2.093   1.141   1.881  0.6321 -0.2571  0.2941
 2052SOL    HW217793   2.034   1.052   1.783  1.8224 -0.0150 -2.2460
 2053SOL     OW17794   4.296   3.995   6.176  0.7156  0.0579 -0.0885
 2053SOL    HW117795   4.302   3.904   6.146  1.7395 -0.0090  0.3149
 2053SOL    HW217796   4.388   4.008   6.198  0.6007 -1.2368  1.1351
 2054SOL     OW17797   4.664   1.689   0.698  0.1250  0.1829 -0.1383
 2054SOL    HW117798   4.626   1.633   0.630  2.0163  1.7488 -2.5145
 2054SOL    HW217799   4.587   1.738   0.725  0.0859  0.5127 -0.8361
 2055SOL     OW17800   1.494   3.650   8.718 -0.3633  0.2985 -0.4329
 2055SOL    HW117801   1.401   3.648   8.740 -0.7928 -0.8050 -2.3243
 2055SOL    HW217802   1.510   3.745   8.713  1.2390 -0.0510 -1.8242
 2056SOL     OW17803   4.281   1.100   4.028  0.4034 -0.5026  0.4269
 2056SOL    HW117804   4.264   1.056   3.945  0.7445 -0.7307  0.4791
 2056SOL    HW217805   4.369   1.072   4.053  0.2056 -1.3600  0.1384
 2057SOL     OW17806   2.777   2.628  12.005  0.2378 -0.2513  0.1278
 2057SOL    HW117807   2.872   2.629  12.021  0.4632 -0.6638 -1.1913
 2057SOL    HW217808   2.747   2.620  12.096 -0.3629  1.3979  0.0772
 2058SOL     OW17809   1.287   1.740   2.823  0.6940 -0.0990  0.2204
 2058SOL    HW117810   1.371   1.763   2.863  0.4593  2.4486 -0.7525
 2058SOL    HW217811   1.261   1.811   2.765 -0.2099 -1.0024 -0.4919
 2059SOL     OW17812   0.224   0.470  10.086  0.3083  0.0354  0.4802
 2059SOL    HW117813   0.165   0.418  10.141 -1.9581  0.5665 -1.4370
 2059SOL    HW217814   0.304   0.466  10.137  0.0842 -2.5351  0.6502
 2060SOL     OW17815   4.222   4.528   5.887  0.5351 -0.0722 -0.5828
 2060SOL    HW117816   4.176   4.467   5.944  0.2995 -0.8408 -1.5927
 2060SOL    HW217817   4.218   4.609   5.938 -1.1717  1.0832 -2.5388
 2061SOL     OW17818   0.276   1.176   4.497  0.5745 -0.1156 -0.1030
 2061SOL    HW117819   0.181   1.175   4.492  0.5168  0.3913  0.7905
 2061SOL    HW217820   0.302   1.192   4.406 -0.2837  3.6458  0.3392
 2062SOL     OW17821   0.866   0.571  16.590 -0.3906  0.5784  0.3040
 2062SOL    HW117822   0.797   0.616  16.540 -0.6441 -0.5692 -0.3836
 2062SOL    HW217823   0.840   0.599  16.678  0.8441 -0.3671  0.9606
 2063SOL     OW17824   0.470   3.330   7.572  0.2113 -0.5692 -0.6699
 2063SOL    HW117825   0.514   3.413   7.551 -1.4718  0.2935 -0.8112
 2063SOL    HW217826   0.545   3.271   7.567  0.6202 -0.0763 -0.4301
 2064SOL     OW17827   0.159   1.692   5.839 -0.0027 -0.0692  0.0171
 2064SOL    HW117828   0.107   1.655   5.910  0.6154 -0.5860  0.2111
 2064SOL    HW217829   0.182   1.608   5.799  0.0074 -0.1970  0.2905
 2065SOL     OW17830   1.922   4.002   9.881 -0.3636 -0.5726  0.5310
 2065SOL    HW117831   1.856   3.939   9.909 -1.8007  0.7511  0.0988
 2065SOL    HW217832   1.964   3.951   9.812 -1.7390 -0.4940 -0.3689
 2066SOL     OW17833   2.067   2.071   2.697 -0.2352 -0.3266 -0.1115
 2066SOL    HW117834   2.136   2.041   2.638 -0.7190  1.1129 -1.3802
 2066SOL    HW217835   2.116   2.067   2.780 -0.0578  0.7083 -0.1703
 2067SOL     OW17836   2.531   3.333  13.843 -0.2934 -0.0859  0.6087
 2067SOL    HW117837   2.531   3.309  13.750  0.8822  0.3651  0.4905
 2067SOL    HW217838   2.445   3.372  13.856 -0.8187 -0.2382 -2.2784
 2068SOL     OW17839   0.289   4.341   6.319  0.6389 -0.3761 -0.0757
 2068SOL    HW117840   0.324   4.413   6.267 -0.7383 -0.1709 -0.7244
 2068SOL    HW217841   0.223   4.303   6.261 -0.1003 -0.9282  1.1196
 2069SOL     OW17842   2.444   3.927   7.903 -0.4949  0.4770  0.3542
 2069SOL    HW117843   2.432   4.021   7.887 -0.7946  0.5731  1.1714
 2069SOL    HW217844   2.402   3.906   7.986 -1.4597  1.7433  0.1779
 2070SOL     OW17845   4.138   3.512   8.055 -0.0140  0.0666 -0.4181
 2070SOL    HW117846   4.232   3.522   8.037  0.1859 -1.5961 -0.3151
 2070SOL    HW217847   4.114   3.595   8.095  1.4434  0.9741 -1.4158
 2071SOL     OW17848   3.638   2.697  12.505 -0.4236  0.3961 -0.3163
 2071SOL    HW117849   3.687   2.654  12.436  0.7596 -1.2425  1.5343
 2071SOL    HW217850   3.567   2.745  12.463  0.2832  0.6465 -1.2296
 2072SOL     OW17851   3.281   0.255   5.026  0.0600 -0.3223  0.0603
 2072SOL    HW117852   3.309   0.197   5.097 -3.7715  0.4156  2.1611
 2072SOL    HW217853   3.263   0.327   5.085 -0.5207  0.3455 -0.9395
 2073SOL     OW17854   4.705   0.814   2.659  0.1474 -0.0069 -0.2072
 2073SOL    HW117855   4.624   0.764   2.673  0.8174 -0.2760  2.8256
 2073SOL    HW217856   4.733   0.794   2.570 -0.8927  1.4187 -0.8385
 2074SOL     OW17857   1.032   3.821   5.131 -0.6963  0.0908 -0.4600
 2074SOL    HW117858   0.939   3.840   5.115 -1.3353 -2.3166  0.3850
 2074SOL    HW217859   1.025   3.818   5.226  0.3381 -0.0881 -0.3926
 2075SOL     OW17860   3.609   2.224  13.223 -0.0365  0.0907  0.3535
 2075SOL    HW117861   3.607   2.177  13.140  3.3046 -0.8897  0.8178
 2075SOL    HW217862   3.698   2.202  13.252  0.1967  2.2203  1.2186
 2076SOL     OW17863   3.634   2.869  12.766  0.3559  0.3658  0.2021
 2076SOL    HW117864   3.565   2.823  12.717  0.5158  0.8743 -0.4938
 2076SOL    HW217865   3.650   2.802  12.832 -2.6372 -1.0924 -0.5152
 2077SOL     OW17866   1.107   3.513   3.479  0.3396 -0.5513  0.2440
 2077SOL    HW117867   1.048   3.481   3.411 -3.1468  0.3506  2.8642
 2077SOL    HW217868   1.048   3.534   3.551  3.6963 -0.0811  2.8791
 2078SOL     OW17869   2.675   0.548   6.117 -0.2676  0.2869 -0.7771
 2078SOL    HW117870   2.586   0.534   6.085 -0.3121  0.7758 -0.8746
 2078SOL    HW217871   2.681   0.489   6.191  1.9149  0.8071 -0.5141
 2079SOL     OW17872   2.146   2.219  16.470 -0.0841  0.0141 -0.0366
 2079SOL    HW117873   2.127   2.289  16.407  0.0601  0.2711  0.2035
 2079SOL    HW217874   2.075   2.157  16.454  0.0577  0.4395 -2.3016
 2080SOL     OW17875   4.459   4.713   4.461 -0.0610  0.0589 -0.2280
 2080SOL    HW117876   4.394   0.043   4.478  0.0816  0.0498  0.3397
 2080SOL    HW217877   4.520   0.030   4.413  0.2132 -0.9169 -1.0040
 2081SOL     OW17878   1.966   3.017   5.804  0.4608  0.1175  0.4803
 2081SOL    HW117879   1.922   2.974   5.877 -0.7363  0.0667 -0.2706
 2081SOL    HW217880   2.053   3.021   5.843  0.0857  0.6703  1.2631
 2082SOL     OW17881   3.688   1.903  10.226  0.5827 -0.2097  0.0649
 2082SOL    HW117882   3.775   1.888  10.262  0.0725  0.8184  1.7642
 2082SOL    HW217883   3.645   1.838  10.282  1.3013 -1.7263 -1.1562
 2083SOL     OW17884   4.325   0.114   8.526 -0.1597  0.5964  0.2907
 2083SOL    HW117885   4.417   0.121   8.504  0.1870 -1.0842  1.1711
 2083SOL    HW217886   4.335   0.099   8.620  0.2600  0.5722  0.2395
 2084SOL     OW17887   3.175   1.895   2.420  0.2440 -0.1748 -0.2211
 2084SOL    HW117888   3.129   1.967   2.464 -2.0536 -1.4115 -0.5769
 2084SOL    HW217889   3.187   1.925   2.329  0.2969 -0.6652 -0.3764
 2085SOL     OW17890   3.314   3.317   3.801  0.0922  0.4173  0.7099
 2085SOL    HW117891   3.358   3.257   3.741 -0.3784  0.6767  0.1084
 2085SOL    HW217892   3.390   3.372   3.818  0.0912  1.4573 -2.7832
 2086SOL     OW17893   2.490   0.429   5.151  0.3526 -0.7437 -0.4594
 2086SOL    HW117894   2.560   0.487   5.121 -0.2953 -1.1504 -2.7886
 2086SOL    HW217895   2.526   0.348   5.116  1.0725 -1.0565  1.0084
 2087SOL     OW17896   0.712   0.335   3.883 -0.2184 -0.2351 -0.2595
 2087SOL    HW117897   0.785   0.383   3.922 -0.0181 -1.2338  0.5984
 2087SOL    HW217898   0.764   0.262   3.851 -1.9571 -1.7585  0.4208
 2088SOL     OW17899   2.706   0.783   6.297 -0.1926  0.0859  0.3555
 2088SOL    HW117900   2.688   0.758   6.207  0.3532  0.1052  0.2415
 2088SOL    HW217901   2.749   0.702   6.324  0.2022 -0.0826 -0.8153
 2089SOL     OW17902   0.815   0.438  11.446  0.3235 -0.3022  0.3253
 2089SOL    HW117903   0.863   0.433  11.529  0.7933 -2.0402 -0.0538
 2089SOL    HW217904   0.803   0.343  11.438  1.4980 -0.3286 -0.9938
 2090SOL     OW17905   2.808   2.508  14.982  0.1114  0.2348  0.2014
 2090SOL    HW117906   2.845   2.556  15.056  0.4501 -0.0958  0.2481
 2090SOL    HW217907   2.876   2.512  14.915 -0.3298 -1.3207 -0.3544
 2091SOL     OW17908   2.666   3.420   3.259 -0.5310 -0.2730  0.0770
 2091SOL    HW117909   2.748   3.424   3.210  0.3290  3.7451  1.8325
 2091SOL    HW217910   2.606   3.421   3.184  0.8388 -0.8498 -1.0289
 2092SOL     OW17911   3.959   1.681  14.608  0.3420 -0.0040 -0.6546
 2092SOL    HW117912   4.038   1.711  14.654 -0.3661 -0.5249  0.9046
 2092SOL    HW217913   3.898   1.750  14.633 -0.9574 -0.6555 -2.0346
 2093SOL     OW17914   3.476   4.645   5.425  0.0315  0.4836  0.0064
 2093SOL    HW117915   3.433   4.562   5.446 -1.4398  1.3443  0.4219
 2093SOL    HW217916   3.510   4.664   5.512  2.2582 -1.0969 -0.5175
 2094SOL     OW17917   0.212   3.754  13.148  0.3497  0.0310 -0.8287
 2094SOL    HW117918   0.210   3.805  13.229 -1.5201 -3.0513  1.0676
 2094SOL    HW217919   0.306   3.745  13.130  0.4790  0.6703 -0.4882
 2095SOL     OW17920   0.705   3.298  10.620  0.3548 -0.8407 -0.0603
 2095SOL    HW117921   0.789   3.339  10.603 -1.2905  2.3269 -0.6103
 2095SOL    HW217922   0.724   3.213  10.660  0.3487  0.0989  1.9418
 2096SOL     OW17923   3.527   1.076   7.313  0.1213 -0.0067  0.3833
 2096SOL    HW117924   3.535   1.000   7.371 -1.0038 -0.2622  0.2091
 2096SOL    HW217925   3.448   1.049   7.266  0.0164 -1.6852  1.5188
 2097SOL     OW17926   1.973   0.832   5.055  0.0852  0.4165  0.5070
 2097SOL    HW117927   1.903   0.875   5.005  0.2178 -0.8022 -0.7187
 2097SOL    HW217928   1.998   0.910   5.105  1.5931  0.3612 -0.1663
 2098SOL     OW17929   4.479   4.154   4.525 -0.1095  0.3525  0.1110
 2098SOL    HW117930   4.548   4.221   4.529 -0.6539  0.8718  0.8544
 2098SOL    HW217931   4.404   4.211   4.507 -2.4794 -2.0543  2.4330
 2099SOL     OW17932   3.395   0.928   2.066 -0.3045 -0.3105  0.1985
 2099SOL    HW117933   3.481   0.937   2.106 -0.4899  0.1772  0.4835
 2099SOL    HW217934   3.359   1.015   2.078  0.3860 -0.3681  2.6891
 2100SOL     OW17935   1.302   2.477   5.746 -0.1201  0.1296 -0.0496
 2100SOL    HW117936   1.254   2.449   5.824 -0.0308  2.7003  0.9314
 2100SOL    HW217937   1.369   2.409   5.734  0.1939  0.1856  1.3553
 2101SOL     OW17938   0.893   0.458   5.814 -0.0140  0.1330 -0.6251
 2101SOL    HW117939   0.852   0.451   5.900  1.1741  2.4875  0.1035
 2101SOL    HW217940   0.982   0.453   5.846 -0.4762  0.3433  0.6975
 2102SOL     OW17941   1.617   2.658   1.799  0.1416 -0.8012  0.2506
 2102SOL    HW117942   1.594   2.728   1.737  0.1176 -1.6414 -0.6967
 2102SOL    HW217943   1.634   2.575   1.754  1.3447 -2.4274  3.7101
 2103SOL     OW17944   1.293   3.618  17.022  0.9439 -0.3000  0.0135
 2103SOL    HW117945   1.220   3.622  17.084  0.3878  1.3645 -0.7492
 2103SOL    HW217946   1.354   3.550  17.050 -0.6212 -1.6755  0.0439
 2104SOL     OW17947   0.457   3.223   4.531 -0.5475  0.4488 -0.1505
 2104SOL    HW117948   0.415   3.287   4.475 -0.8893 -0.4515 -0.9302
 2104SOL    HW217949   0.417   3.142   4.499  0.5444 -0.1765  0.0479
 2105SOL     OW17950   1.404   1.651   3.155 -0.2690 -0.5385  0.0525
 2105SOL    HW117951   1.345   1.607   3.217 -3.0158 -0.5343 -2.5840
 2105SOL    HW217952   1.450   1.578   3.113  0.6585  0.5617 -0.8529
 2106SOL     OW17953   3.336   4.088   8.977 -0.2604  0.2571 -0.5206
 2106SOL    HW117954   3.410   4.037   8.944  2.5025  1.4751  3.8568
 2106SOL    HW217955   3.268   4.021   8.973 -0.6880  0.7060 -0.8113
 2107SOL     OW17956   3.691   4.505   9.834 -0.3261 -0.2878  0.1811
 2107SOL    HW117957   3.666   4.458   9.755 -1.0065 -0.8059  0.7038
 2107SOL    HW217958   3.784   4.526   9.826 -0.6591  1.1712  0.1689
 2108SOL     OW17959   4.584   0.992   2.000  0.3102  0.0638 -0.5403
 2108SOL    HW117960   4.508   1.002   1.943  0.3391  0.2386 -0.5485
 2108SOL    HW217961   4.596   1.070   2.054  1.2989 -0.6712  0.3032
 2109SOL     OW17962   2.785   3.608   7.199 -0.5677 -0.1578 -0.1073
 2109SOL    HW117963   2.860   3.644   7.150 -1.9982  1.2277 -1.2879
 2109SOL    HW217964   2.806   3.515   7.192  2.0118  0.4568 -0.8091
 2110SOL     OW17965   3.927   1.407   7.815 -0.3129 -0.5860  0.4969
 2110SOL    HW117966   3.858   1.340   7.820  1.1602 -2.1028  0.3890
 2110SOL    HW217967   3.941   1.422   7.721  0.7492  0.1234  0.7760
 2111SOL     OW17968   1.621   1.721  14.572 -0.2044  0.4166  0.2272
 2111SOL    HW117969   1.684   1.763  14.513  0.8833 -1.3684  0.1382
 2111SOL    HW217970   1.617   1.629  14.547 -0.4090  0.2754  0.7713
 2112SOL     OW17971   1.761   4.034   7.852  0.5393  0.1892 -0.1727
 2112SOL    HW117972   1.750   4.088   7.930  1.1157 -1.3786  0.9980
 2112SOL    HW217973   1.709   4.081   7.786  0.9254 -1.0549 -1.3881
 2113SOL     OW17974   0.571   4.524   9.944 -0.2999 -0.1650  0.2882
 2113SOL    HW117975   0.635   4.523   9.873 -0.3383  1.2825  0.2324
 2113SOL    HW217976   0.508   4.480   9.888  0.2016  0.6858 -0.9473
 2114SOL     OW17977   4.509   3.448   2.766 -0.0443 -0.2930  0.6255
 2114SOL    HW117978   4.441   3.431   2.701  0.6913  1.8699 -0.6869
 2114SOL    HW217979   4.562   3.368   2.764  1.1499  0.5452 -1.5572
 2115SOL     OW17980   3.286   0.318   8.625  0.4482  0.2815 -0.3665
 2115SOL    HW117981   3.381   0.325   8.626  0.4596  0.1176  0.3370
 2115SOL    HW217982   3.261   0.369   8.702  2.2734  0.4870  0.0909
 2116SOL     OW17983   2.997   4.503   5.646  0.0169  0.0673 -0.5943
 2116SOL    HW117984   2.996   4.536   5.736  1.1349 -0.4004 -0.4099
 2116SOL    HW217985   2.974   4.410   5.650 -0.9010  0.3870  2.0549
 2117SOL     OW17986   4.435   2.408   5.668  0.2445 -0.6716 -0.2810
 2117SOL    HW117987   4.350   2.442   5.696  0.4181 -1.3838  1.1391
 2117SOL    HW217988   4.458   2.493   5.631 -3.0778  0.6658  0.7425
 2118SOL     OW17989   3.672   2.665   0.205 -0.5116 -0.4041  0.2030
 2118SOL    HW117990   3.632   2.586   0.169  1.6180 -2.0104  1.3774
 2118SOL    HW217991   3.686   2.733   0.139 -1.6086 -2.7888 -2.4710
 2119SOL     OW17992   1.389   3.483  16.641 -0.3870 -0.3367  0.4175
 2119SOL    HW117993   1.322   3.551  16.638 -0.8025 -0.7646 -0.0276
 2119SOL    HW217994   1.339   3.413  16.599  0.7707 -0.8477 -0.1415
 2120SOL     OW17995   3.368   0.836   5.607 -0.2995 -0.2752 -0.4089
 2120SOL    HW117996   3.429   0.855   5.678 -0.3879  0.7034 -0.6010
 2120SOL    HW217997   3.374   0.742   5.625 -0.9980 -0.6314 -2.0617
 2121SOL     OW17998   4.724   2.901  14.824 -0.1135 -0.1892 -0.3888
 2121SOL    HW117999   4.659   2.971  14.836  1.1510  1.0410 -0.6276
 2121SOL    HW218000   4.702   2.878  14.734 -3.5829  0.2100  0.3606
 2122SOL     OW18001   1.848   3.203   6.092  0.3479  0.3747 -1.2257
 2122SOL    HW118002   1.785   3.180   6.024 -0.9359 -1.3456  0.5468
 2122SOL    HW218003   1.806   3.164   6.169  0.8692 -1.1706 -1.7303
 2123SOL     OW18004   1.124   1.643   6.392  0.0822  0.1952 -0.2934
 2123SOL    HW118005   1.064   1.571   6.373 -0.2750  0.3053  0.4299
 2123SOL    HW218006   1.147   1.680   6.307 -1.5201 -0.3939 -0.9784
 2124SOL     OW18007   3.867   4.134   7.280  0.1262  0.4498  0.2439
 2124SOL    HW118008   3.807   4.150   7.206 -0.5544 -2.2921  0.1809
 2124SOL    HW218009   3.947   4.108   7.235  0.3079  1.1793  0.1442
 2125SOL     OW18010   0.938   4.161   8.289  0.4827  0.1524 -0.3874
 2125SOL    HW118011   0.923   4.179   8.196  1.0870  2.0584 -0.1048
 2125SOL    HW218012   1.031   4.135   8.292  0.6579  0.4530 -2.8787
 2126SOL     OW18013   0.986   2.059   2.957  0.0292 -0.2330 -0.8238
 2126SOL    HW118014   0.929   1.983   2.939  0.4487 -0.9063  0.7103
 2126SOL    HW218015   0.925   2.129   2.934  1.2807  1.1178 -0.0547
 2127SOL     OW18016   2.175   2.330   5.176  0.3008  0.6480 -0.1065
 2127SOL    HW118017   2.210   2.299   5.092 -0.0389 -1.2359  0.4477
 2127SOL    HW218018   2.205   2.419   5.156  0.6386  0.4637 -0.4112
 2128SOL     OW18019   4.178   2.036  11.396 -0.5123  0.5866  0.5485
 2128SOL    HW118020   4.203   1.945  11.383 -1.0308  0.1256  2.7950
 2128SOL    HW218021   4.106   2.031  11.460 -1.0521  0.6804 -0.0537
 2129SOL     OW18022   4.562   1.957   5.289 -0.4082  0.2690  0.3210
 2129SOL    HW118023   4.655   1.937   5.279 -0.8307 -1.1803 -0.7347
 2129SOL    HW218024   4.531   1.873   5.255  2.2371 -0.9277  0.9068
 2130SOL     OW18025   1.376   3.964   6.587  0.5534  0.1913  0.1393
 2130SOL    HW118026   1.349   4.013   6.510 -0.4565  0.3682  0.6027
 2130SOL    HW218027   1.294   3.943   6.633  1.0431  0.0928  0.9646
 2131SOL     OW18028   3.142   1.154   7.267  0.3328  0.9841  0.6961
 2131SOL    HW118029   3.069   1.198   7.311  0.0098 -0.1310  1.2894
 2131SOL    HW218030   3.184   1.234   7.236 -1.7662  1.7635 -0.1750
 2132SOL     OW18031   1.026   0.184   2.865  0.1429 -0.0968 -0.3929
 2132SOL    HW118032   1.115   0.185   2.899 -0.0577  2.0538  0.1006
 2132SOL    HW218033   1.025   0.260   2.806 -0.4532 -0.6637 -1.1045
 2133SOL     OW18034   1.608   4.456   6.646 -0.1785  0.3453  0.2409
 2133SOL    HW118035   1.534   4.419   6.598  0.1650  1.7109 -1.3646
 2133SOL    HW218036   1.673   4.444   6.577  1.1235  2.1105  1.1636
 2134SOL     OW18037   0.561   1.998   7.263  0.1151  0.3213  0.4107
 2134SOL    HW118038   0.531   2.036   7.345  0.2350  0.2441  0.4900
 2134SOL    HW218039   0.567   1.907   7.291 -1.8767  0.0682  0.0055
 2135SOL     OW18040   0.830   4.468   9.204 -0.3880 -0.0138  0.1308
 2135SOL    HW118041   0.818   4.393   9.262  0.3468  0.0369  0.3465
 2135SOL    HW218042   0.905   4.512   9.242  0.8216 -2.3257  0.3617
 2136SOL     OW18043   2.945   4.029  15.904 -0.3793 -0.2075 -0.2186
 2136SOL    HW118044   2.921   4.051  15.994  1.2161  1.6292 -0.2456
 2136SOL    HW218045   2.951   4.117  15.868 -1.4878 -0.0875 -0.1217
 2137SOL     OW18046   1.555   0.492  16.032 -0.4710 -0.3747 -0.0184
 2137SOL    HW118047   1.515   0.565  16.079 -3.2492 -0.6476 -1.8950
 2137SOL    HW218048   1.493   0.471  15.961  0.0597 -3.1808  0.3420
 2138SOL     OW18049   4.279   3.103   1.521  0.3416 -0.0500  0.2298
 2138SOL    HW118050   4.358   3.157   1.512  0.9467 -1.0656 -0.5577
 2138SOL    HW218051   4.219   3.164   1.562 -0.4435  0.6178 -1.9283
 2139SOL     OW18052   4.038   0.534   8.529  0.0721  0.2081  0.1914
 2139SOL    HW118053   3.964   0.474   8.534  1.0587 -0.9333  1.1741
 2139SOL    HW218054   4.114   0.477   8.544 -1.8470 -2.4086 -0.2062
 2140SOL     OW18055   1.341   1.112   8.921  0.0888  0.4486 -0.1424
 2140SOL    HW118056   1.427   1.153   8.919  0.6851 -0.7851  0.4565
 2140SOL    HW218057   1.365   1.029   8.964 -0.4158  1.8758  2.8978
 2141SOL     OW18058   1.072   2.089   6.641 -0.0203 -0.0184 -0.4919
 2141SOL    HW118059   1.053   2.022   6.707 -2.3935 -1.1617 -2.3403
 2141SOL    HW218060   0.988   2.133   6.646  0.3090  0.4656  0.8355
 2142SOL     OW18061   3.770   2.563   1.364  0.1525  0.2055 -0.3127
 2142SOL    HW118062   3.837   2.631   1.360 -0.3435  0.7443  0.3647
 2142SOL    HW218063   3.813   2.482   1.390  1.4914  1.0274  0.0078
 2143SOL     OW18064   3.005   0.060  16.483 -0.4454 -0.2679 -0.2376
 2143SOL    HW118065   2.919   0.103  16.484 -0.8831 -1.1600  0.5489
 2143SOL    HW218066   3.014   0.024  16.395 -2.3070  1.2765 -1.0585
 2144SOL     OW18067   2.942   2.708   3.043  0.2692 -0.0589  0.0003
 2144SOL    HW118068   2.925   2.710   2.948  1.0202  0.0067 -0.1351
 2144SOL    HW218069   3.013   2.771   3.053 -0.1434  0.3883  0.0967
 2145SOL     OW18070   2.840   0.098   5.981 -0.0007 -0.1614 -0.3193
 2145SOL    HW118071   2.796   0.022   5.944 -0.8529 -1.0679  2.5057
 2145SOL    HW218072   2.789   0.169   5.941 -1.5016 -0.7438  0.5392
 2146SOL     OW18073   1.518   2.693   0.379  0.0601 -0.0786  0.1078
 2146SOL    HW118074   1.453   2.652   0.322  1.3318 -2.3672  0.3070
 2146SOL    HW218075   1.595   2.700   0.321  1.0499  1.5529  1.6064
 2147SOL     OW18076   1.855   2.406   5.190 -0.0694  0.4456  0.4026
 2147SOL    HW118077   1.933   2.381   5.239  0.6716  2.6989  0.3958
 2147SOL    HW218078   1.841   2.325   5.142  0.7228 -1.1845  2.9221
 2148SOL     OW18079   3.636   1.598  13.919 -0.1767  0.2115  0.1777
 2148SOL    HW118080   3.620   1.638  13.833 -1.8127  0.3816  0.5610
 2148SOL    HW218081   3.677   1.669  13.968 -1.3218  0.2156  1.1282
 2149SOL     OW18082   1.134   4.372   3.637 -0.0457  0.5921  0.1873
 2149SOL    HW118083   1.149   4.352   3.544  0.1765  0.7831  0.1805
 2149SOL    HW218084   1.048   4.339   3.660  0.5182  1.6988  3.7748
 2150SOL     OW18085   3.678   4.155   2.358 -0.3429 -0.5213 -0.0869
 2150SOL    HW118086   3.599   4.204   2.336  0.0018 -0.1545 -0.5044
 2150SOL    HW218087   3.641   4.074   2.392  1.4080 -0.9592  0.7856
 2151SOL     OW18088   4.137   0.723   7.507 -0.1548  0.1514  0.1461
 2151SOL    HW118089   4.143   0.634   7.543  1.1175 -0.3970 -1.4143
 2151SOL    HW218090   4.175   0.704   7.421  0.9186  1.0002  0.4419
 2152SOL     OW18091   1.165   1.048   7.687  0.0808  0.2152  0.0822
 2152SOL    HW118092   1.074   1.058   7.717 -0.2689 -2.2569 -0.1781
 2152SOL    HW218093   1.170   0.953   7.680 -1.0319  0.0810  1.0383
 2153SOL     OW18094   4.358   3.084   2.998  0.0184  1.4978  0.5039
 2153SOL    HW118095   4.377   3.177   2.987 -0.1507  1.3127 -1.3921
 2153SOL    HW218096   4.381   3.037   2.918  2.5111  1.1359  1.4247
 2154SOL     OW18097   1.253   3.212   4.895  0.3238  0.1755 -0.1602
 2154SOL    HW118098   1.253   3.138   4.955  0.7271  0.9196  0.7604
 2154SOL    HW218099   1.258   3.168   4.810  1.5307  1.4771 -0.7612
 2155SOL     OW18100   0.221   1.949   3.206  0.8085  0.4462  0.4413
 2155SOL    HW118101   0.219   1.919   3.115 -0.5566 -0.6509  0.8287
 2155SOL    HW218102   0.234   1.868   3.255  0.2589 -0.0197 -0.1880
 2156SOL     OW18103   1.331   0.235   9.395  0.7739  0.1933  0.2963
 2156SOL    HW118104   1.373   0.245   9.480  1.1272 -0.0208  0.1480
 2156SOL    HW218105   1.408   0.239   9.338  0.4144 -2.2173 -0.3555
 2157SOL     OW18106   0.113   3.322   5.180 -0.1443  0.5321  0.4715
 2157SOL    HW118107   0.057   3.385   5.225 -0.1665 -0.1162  1.3530
 2157SOL    HW218108   0.050   3.261   5.140  0.0209 -1.9405  3.9695
 2158SOL     OW18109   1.085   4.575  15.300  0.2224  0.2937  0.0681
 2158SOL    HW118110   1.167   4.573  15.350  0.3474  2.9228 -0.0268
 2158SOL    HW218111   1.033   4.533  15.369 -0.9616 -0.5261 -1.3221
 2159SOL     OW18112   1.604   0.695   4.399  0.2565  0.0605 -0.1556
 2159SOL    HW118113   1.646   0.780   4.409 -2.3980  1.8433 -4.0537
 2159SOL    HW218114   1.675   0.632   4.401  0.9166  0.7226 -2.2689
 2160SOL     OW18115   0.330   4.209  12.960 -0.5974  0.0837 -0.0616
 2160SOL    HW118116   0.305   4.217  13.052 -1.2409  0.2928 -0.2522
 2160SOL    HW218117   0.424   4.194  12.958 -0.1978  2.7422 -0.4715
 2161SOL     OW18118   0.746   2.840   6.417  0.7530  0.6111 -0.0622
 2161SOL    HW118119   0.767   2.849   6.324 -1.7114 -0.1628 -0.6914
 2161SOL    HW218120   0.698   2.922   6.422 -0.5547 -0.2388  1.2214
 2162SOL     OW18121   3.045   1.830   3.856 -0.2504 -0.2291  0.1397
 2162SOL    HW118122   3.052   1.864   3.945  0.1183 -1.9508  0.7591
 2162SOL    HW218123   2.951   1.818   3.844 -0.6035 -0.2825  2.9990
 2163SOL     OW18124   1.583   0.356  13.297 -0.7734 -0.3086  0.7469
 2163SOL    HW118125   1.542   0.318  13.219  0.1156  1.5608 -0.6435
 2163SOL    HW218126   1.676   0.364  13.274 -0.6186 -0.9972  1.1146
 2164SOL     OW18127   1.512   2.356  14.186  0.4200 -0.4512 -0.0887
 2164SOL    HW118128   1.488   2.444  14.214  0.4614  0.2199 -2.1568
 2164SOL    HW218129   1.548   2.310  14.262  3.2407 -1.0249 -1.7804
 2165SOL     OW18130   2.332   2.120   5.575 -0.1776 -0.1574 -0.2561
 2165SOL    HW118131   2.284   2.071   5.508  0.7497 -0.7034 -0.5211
 2165SOL    HW218132   2.327   2.206   5.534 -0.9457 -0.9321 -1.7690
 2166SOL     OW18133   2.655   0.003   1.860 -0.2213 -0.0232  0.2675
 2166SOL    HW118134   2.651   0.040   1.772  0.1791 -1.6718 -0.4328
 2166SOL    HW218135   2.573   4.692   1.865 -0.1437 -0.3314 -1.5147
 2167SOL     OW18136   2.302   0.652  16.683 -0.9177 -0.4191 -0.2293
 2167SOL    HW118137   2.377   0.652  16.624 -0.3966 -0.2914  0.4206
 2167SOL    HW218138   2.304   0.560  16.709 -1.1417  0.1588  1.8744
 2168SOL     OW18139   3.868   2.575  17.398  0.3576 -0.2996  0.0447
 2168SOL    HW118140   3.882   2.566  17.492  1.2338 -1.1775 -0.1711
 2168SOL    HW218141   3.853   2.487  17.365  0.2435  0.1592 -1.1635
 2169SOL     OW18142   0.806   3.839   5.309  0.0821  0.2566 -0.5723
 2169SOL    HW118143   0.787   3.795   5.392  0.6190  0.7399 -0.1943
 2169SOL    HW218144   0.725   3.840   5.258  0.9956 -2.2653 -2.0776
 2170SOL     OW18145   0.348   0.132   9.910 -0.5389 -0.1843  0.2874
 2170SOL    HW118146   0.433   0.133   9.956 -1.2502  2.9137  1.5340
 2170SOL    HW218147   0.322   0.040   9.915 -0.2551 -0.4033 -2.3811
 2171SOL     OW18148   4.477   0.887   5.156  0.2462 -0.4159  0.1981
 2171SOL    HW118149   4.501   0.821   5.091 -0.3194 -0.4268  0.0070
 2171SOL    HW218150   4.418   0.938   5.101 -1.5244  0.7241  3.1672
 2172SOL     OW18151   1.821   1.055   4.119 -0.0491 -0.1662 -0.5100
 2172SOL    HW118152   1.888   1.048   4.051  0.1272 -0.5323 -0.3018
 2172SOL    HW218153   1.876   1.049   4.197 -0.0974 -1.6892 -0.5856
 2173SOL     OW18154   4.524   2.279   2.217 -0.5647 -0.6692  0.2491
 2173SOL    HW118155   4.439   2.235   2.227 -0.8198 -0.6946 -2.1649
 2173SOL    HW218156   4.544   2.307   2.307  2.0742 -1.7086 -0.0178
 2174SOL     OW18157   4.357   1.281   2.756  0.1162 -0.3263 -0.2606
 2174SOL    HW118158   4.317   1.246   2.835 -1.1169 -1.5448 -1.4300
 2174SOL    HW218159   4.311   1.235   2.686  1.4124 -2.0723  0.0573
 2175SOL     OW18160   1.749   0.088   4.238 -0.2907 -0.3986  0.1126
 2175SOL    HW118161   1.747   0.109   4.331 -2.5017  0.9129 -0.2223
 2175SOL    HW218162   1.658   0.061   4.232 -0.7078  0.7881  1.1000
 2176SOL     OW18163   0.710   4.532   3.951 -0.5408  0.3853  0.1001
 2176SOL    HW118164   0.680   4.569   4.034 -2.0933 -2.1647  0.6562
 2176SOL    HW218165   0.725   4.612   3.900  0.2597 -0.6533 -1.3103
 2177SOL     OW18166   3.442   4.095   7.704 -0.1633 -0.3026  0.5720
 2177SOL    HW118167   3.497   4.105   7.782  0.2923 -0.2448  0.2409
 2177SOL    HW218168   3.484   4.023   7.658  1.2315  2.5192 -2.5635
 2178SOL     OW18169   1.939   2.596   2.543  0.0447 -0.1106  0.2877
 2178SOL    HW118170   2.014   2.537   2.554  0.0826 -0.2722 -0.8475
 2178SOL    HW218171   1.942   2.607   2.448  0.3077  0.9040  0.4188
 2179SOL     OW18172   2.285   3.717  13.494 -0.4695  0.0972 -0.1034
 2179SOL    HW118173   2.227   3.689  13.565  1.1753  1.6628  1.8306
 2179SOL    HW218174   2.254   3.807  13.485  1.7485  0.5563 -2.9240
 2180SOL     OW18175   0.686   0.996   3.793  0.9589  0.0717  0.7122
 2180SOL    HW118176   0.728   1.081   3.801  0.6410  0.2591  0.4036
 2180SOL    HW218177   0.634   0.998   3.712  0.1907 -0.7824  1.1785
 2181SOL     OW18178   1.134   2.811   5.523  0.5436  0.1099  0.2583
 2181SOL    HW118179   1.081   2.879   5.481  1.1508  0.3730 -0.0834
 2181SOL    HW218180   1.065   2.745   5.517 -0.3404  1.2483 -1.8339
 2182SOL     OW18181   3.696   0.505  16.892  0.6883  0.5013 -0.0773
 2182SOL    HW118182   3.732   0.467  16.812  1.7535  2.1495 -0.3792
 2182SOL    HW218183   3.694   0.426  16.945  0.5173 -0.7703 -1.9576
 2183SOL     OW18184   2.323   2.665   6.480  0.1170 -0.0921  0.2367
 2183SOL    HW118185   2.347   2.638   6.391 -1.7403 -1.4684  0.1548
 2183SOL    HW218186   2.260   2.735   6.467  0.4374  0.2495  0.5187
 2184SOL     OW18187   0.867   3.979   0.682 -0.1402 -0.0933  0.0511
 2184SOL    HW118188   0.852   4.068   0.716 -1.8989  0.2201 -1.5242
 2184SOL    HW218189   0.945   3.995   0.630 -0.3305 -1.9637 -0.7810
 2185SOL     OW18190   2.685   1.581  10.136 -0.5816  0.1349 -0.3171
 2185SOL    HW118191   2.618   1.635  10.095  0.2997  0.8973 -0.7466
 2185SOL    HW218192   2.639   1.551  10.214  0.7465  0.2349  0.5146
 2186SOL     OW18193   2.944   1.901   6.546  0.0854  0.2813  0.1594
 2186SOL    HW118194   2.991   1.860   6.474  3.3044 -1.7639  3.3773
 2186SOL    HW218195   2.886   1.956   6.494  1.0020 -0.3179 -1.4859
 2187SOL     OW18196   3.103   4.446   2.101 -0.1813 -0.1782 -0.3352
 2187SOL    HW118197   3.020   4.489   2.078  0.1927  0.2495 -0.8857
 2187SOL    HW218198   3.074   4.354   2.098  1.2039 -0.6265  0.4184
 2188SOL     OW18199   1.169   2.000  17.355  0.1782 -0.0048 -0.0280
 2188SOL    HW118200   1.119   2.081  17.364 -1.0388 -1.1636  3.7032
 2188SOL    HW218201   1.139   1.972  17.269  1.5805 -0.2844 -0.4181
 2189SOL     OW18202   0.968   1.457  12.350 -0.0623 -0.1826 -0.3790
 2189SOL    HW118203   1.022   1.523  12.306 -2.0026  1.5406 -0.1793
 2189SOL    HW218204   0.918   1.512  12.410 -0.4313 -0.6002 -0.3028
 2190SOL     OW18205   0.110   3.087   2.182  0.5448  0.1096 -0.3301
 2190SOL    HW118206   0.102   2.993   2.170 -1.2621  0.3377 -0.9278
 2190SOL    HW218207   0.154   3.114   2.101 -0.6474  1.5324 -0.4973
 2191SOL     OW18208   3.034   1.859   3.342  0.4908  0.9471  0.0942
 2191SOL    HW118209   3.057   1.851   3.250 -1.0161  2.4491 -0.4111
 2191SOL    HW218210   2.940   1.840   3.345  0.0835  2.7316 -2.0105
 2192SOL     OW18211   2.585   2.814   6.406  0.3396  0.4639 -0.7781
 2192SOL    HW118212   2.502   2.770   6.427  1.0857 -1.5106 -1.9765
 2192SOL    HW218213   2.651   2.761   6.450 -1.4938  0.9304  2.5834
 2193SOL     OW18214   2.239   2.199   9.353 -0.1301 -0.8746 -0.2022
 2193SOL    HW118215   2.185   2.240   9.420  1.9064  0.3080  0.7090
 2193SOL    HW218216   2.194   2.119   9.324 -1.3268 -0.2130 -0.1685
 2194SOL     OW18217   2.844   1.708   4.620  0.1729 -0.5611  0.3128
 2194SOL    HW118218   2.915   1.707   4.556 -2.2724  1.7478 -2.3780
 2194SOL    HW218219   2.823   1.801   4.616 -0.3696 -0.6978  0.1125
 2195SOL     OW18220   3.900   2.474  17.036  0.8890 -0.5946  0.2871
 2195SOL    HW118221   3.948   2.499  16.956  0.2183 -0.8096 -0.1831
 2195SOL    HW218222   3.813   2.468  16.996  0.7462  1.8141  0.2390
 2196SOL     OW18223   1.473   4.649   1.416 -0.2360 -0.4008 -0.1157
 2196SOL    HW118224   1.526   4.713   1.368 -1.2497  1.6076  1.4282
 2196SOL    HW218225   1.454   4.590   1.342  0.6575 -0.9739  0.1157
 2197SOL     OW18226   3.959   3.176   0.159 -0.2360 -0.4573  0.5305
 2197SOL    HW118227   3.931   3.152   0.071 -1.2152  0.6464  0.5507
 2197SOL    HW218228   3.880   3.218   0.192 -1.8959 -2.4175 -0.9357
 2198SOL     OW18229   0.282   4.218   7.516  0.3537 -0.0812 -0.3832
 2198SOL    HW118230   0.355   4.167   7.552  1.1683  1.2832 -0.1108
 2198SOL    HW218231   0.319   4.300   7.550 -1.4817  0.7790 -0.4762
 2199SOL     OW18232   1.812   4.121  15.047 -0.4924 -0.3700  0.2518
 2199SOL    HW118233   1.876   4.110  14.976 -0.2543  0.5746  0.3211
 2199SOL    HW218234   1.801   4.216  15.041 -0.2804 -0.2012  2.5951
 2200SOL     OW18235   1.301   4.612   3.322 -0.1264 -0.2454  0.2551
 2200SOL    HW118236   1.272   4.651   3.240 -1.5609 -0.2746  0.7326
 2200SOL    HW218237   1.277   4.520   3.311 -1.9235  0.4471 -1.6069
 2201SOL     OW18238   2.471   3.014   6.960  0.6846  0.3021  0.5146
 2201SOL    HW118239   2.524   3.084   6.999  2.1279 -0.6027  0.1645
 2201SOL    HW218240   2.468   2.953   7.033 -1.0850  0.3989  0.5304
 2202SOL     OW18241   0.474   4.021   8.213  0.1858 -0.7507 -0.5487
 2202SOL    HW118242   0.427   3.940   8.195  1.2919 -1.6414  0.5554
 2202SOL    HW218243   0.557   3.993   8.173 -1.0539 -2.2126 -2.0874
 2203SOL     OW18244   2.364   3.961   2.500  0.4362 -0.5701  0.1093
 2203SOL    HW118245   2.305   3.886   2.502 -1.0385  0.5078 -2.4615
 2203SOL    HW218246   2.435   3.927   2.554  0.8195 -1.3385 -0.8892
 2204SOL     OW18247   1.446   4.192  17.178 -0.0958 -0.2073  0.0796
 2204SOL    HW118248   1.423   4.272  17.225  1.4111  0.3005 -0.0469
 2204SOL    HW218249   1.473   4.136  17.251  2.0619  1.6689  0.7157
 2205SOL     OW18250   1.797   2.947   6.843  0.6247  0.2119 -0.7133
 2205SOL    HW118251   1.840   2.989   6.918  0.3450  0.4058 -0.6587
 2205SOL    HW218252   1.804   2.855   6.866  0.9795  0.7222  1.2139
 2206SOL     OW18253   3.122   2.274   5.045 -0.2740  0.0610 -0.1651
 2206SOL    HW118254   3.093   2.220   5.118 -1.2681 -0.9225 -1.2798
 2206SOL    HW218255   3.188   2.322   5.094  0.5605 -0.7935 -0.4539
 2207SOL     OW18256   0.706   4.118   2.011 -0.1580  0.4872 -0.0744
 2207SOL    HW118257   0.666   4.104   1.926 -1.5125  0.2439  0.6059
 2207SOL    HW218258   0.748   4.034   2.030  0.0263  0.4404 -0.6943
 2208SOL     OW18259   4.119   0.164   9.027  0.0576 -0.1503  0.3461
 2208SOL    HW118260   4.136   0.237   8.967 -0.6459 -0.9258 -0.7857
 2208SOL    HW218261   4.150   0.194   9.113  0.3278 -0.6084  0.4082
 2209SOL     OW18262   4.050   3.826  16.926  0.0894  0.1854 -0.7180
 2209SOL    HW118263   4.090   3.744  16.899 -1.2519 -1.4009  2.1305
 2209SOL    HW218264   4.125   3.882  16.945  0.2483 -0.6088  0.9985
 2210SOL     OW18265   0.524   2.964   6.772  0.3157 -0.1243  0.0138
 2210SOL    HW118266   0.528   3.057   6.794 -2.6402  0.1699 -0.7012
 2210SOL    HW218267   0.435   2.965   6.738 -0.4050 -1.2238  1.8539
 2211SOL     OW18268   2.978   4.484   7.901  0.1780  0.1309  0.7549
 2211SOL    HW118269   2.916   4.417   7.930 -0.9747  1.2678  0.8868
 2211SOL    HW218270   2.977   4.536   7.980  1.7520  0.2246  0.7187
 2212SOL     OW18271   1.857   3.734  14.648 -0.3992 -0.0852  0.4917
 2212SOL    HW118272   1.857   3.638  14.657 -0.7983 -0.0691  0.6251
 2212SOL    HW218273   1.929   3.753  14.588 -0.5392 -2.0345 -0.3014
 2213SOL     OW18274   1.644   2.715   7.784  0.5228  0.0198  0.0603
 2213SOL    HW118275   1.710   2.705   7.715 -0.0482 -1.1041 -0.3200
 2213SOL    HW218276   1.578   2.769   7.740  1.3220 -0.2458 -1.4673
 2214SOL     OW18277   1.018   0.737  13.793 -0.2332 -0.0275 -0.1629
 2214SOL    HW118278   0.978   0.823  13.781 -2.5181 -1.4287 -2.5422
 2214SOL    HW218279   1.059   0.718  13.709  1.9469 -0.9829  1.0914
 2215SOL     OW18280   3.557   0.922  11.790  0.5478  0.0309  0.6326
 2215SOL    HW118281   3.488   0.958  11.846 -0.6835 -0.0516 -0.8352
 2215SOL    HW218282   3.504   0.856  11.746  0.9992  0.5020 -0.6238
 2216SOL     OW18283   1.059   3.364  15.121  0.0334  0.1321 -0.0559
 2216SOL    HW118284   1.008   3.397  15.194 -0.8910  2.1218 -1.6021
 2216SOL    HW218285   1.145   3.396  15.148  0.1852 -0.0208 -0.3518
 2217SOL     OW18286   1.353   0.437   8.841 -0.1034  0.5492  0.0055
 2217SOL    HW118287   1.436   0.460   8.885 -0.7839 -0.1626  1.6428
 2217SOL    HW218288   1.395   0.384   8.773 -1.6017 -1.0224  0.3203
 2218SOL     OW18289   1.755   4.213   8.917  0.4091 -0.0272 -0.1965
 2218SOL    HW118290   1.696   4.235   8.844  1.6665  2.0943 -0.5605
 2218SOL    HW218291   1.694   4.210   8.991 -1.1048  0.8240 -1.3874
 2219SOL     OW18292   0.573   4.272   7.142 -0.7288  0.2630  0.2935
 2219SOL    HW118293   0.537   4.198   7.191 -1.9773  0.0346 -0.9934
 2219SOL    HW218294   0.666   4.250   7.132 -0.7261 -0.7145  2.4340
 2220SOL     OW18295   2.545   1.163  17.534  0.6770 -0.2348 -0.0313
 2220SOL    HW118296   2.484   1.122  17.472  0.2136 -0.3550  0.5045
 2220SOL    HW218297   2.626   1.171  17.484  0.6495  2.2288  0.3160
 2221SOL     OW18298   4.650   0.077   4.747  0.1954  0.5986 -0.3142
 2221SOL    HW118299   4.728   0.024   4.762  0.7825  1.0798 -1.7214
 2221SOL    HW218300   4.590   0.004   4.730 -0.1265  0.9585 -0.7291
 2222SOL     OW18301   1.546   0.018   8.565  0.2692  0.0800 -0.3480
 2222SOL    HW118302   1.640   0.007   8.576  0.2091 -0.4682 -0.3866
 2222SOL    HW218303   1.539   0.028   8.470 -2.3363  1.5434 -0.0117
 2223SOL     OW18304   3.666   3.584   7.001 -0.3831 -0.2629  0.3497
 2223SOL    HW118305   3.741   3.543   6.957 -0.3438  1.2108 -0.9466
 2223SOL    HW218306   3.699   3.622   7.082 -1.0651  1.8530 -0.3735
 2224SOL     OW18307   4.494   2.649   2.162  0.0931  0.0610 -0.0144
 2224SOL    HW118308   4.411   2.603   2.150  0.2050 -0.0998 -0.1588
 2224SOL    HW218309   4.457   2.725   2.207 -3.7916 -1.9585  0.2270
 2225SOL     OW18310   3.050   4.654   3.729 -0.3486  0.2435 -0.3030
 2225SOL    HW118311   3.049   0.008   3.704  0.1686 -0.1039 -1.6039
 2225SOL    HW218312   3.096   4.607   3.659  0.4891 -1.4344  1.3790
 2226SOL     OW18313   0.354   0.505  15.039  0.0640 -0.3057  0.2819
 2226SOL    HW118314   0.407   0.574  15.080 -0.2481 -1.0650  1.9540
 2226SOL    HW218315   0.408   0.431  15.066 -0.7351 -0.7995  0.5166
 2227SOL     OW18316   4.608   4.627   7.577 -0.4574  0.3116  0.2556
 2227SOL    HW118317   4.674   4.569   7.539  0.5578  1.7172 -0.1087
 2227SOL    HW218318   4.590   4.671   7.495 -0.0518 -0.6474 -0.3517
 2228SOL     OW18319   0.072   0.758  11.297  0.1556  0.3327  0.0802
 2228SOL    HW118320   0.167   0.751  11.297  0.1503  0.2431  0.2269
 2228SOL    HW218321   0.045   0.671  11.266  0.8585 -0.0462  0.5392
 2229SOL     OW18322   2.415   1.779  10.953 -0.5315  0.3004 -0.3838
 2229SOL    HW118323   2.476   1.762  11.025  0.2327  2.3241 -0.5645
 2229SOL    HW218324   2.340   1.725  10.979  0.2860 -1.3025 -1.3215
 2230SOL     OW18325   0.933   4.362   3.933 -0.5426 -0.6050 -0.2094
 2230SOL    HW118326   0.898   4.342   3.846  0.2578 -2.6558 -0.0567
 2230SOL    HW218327   0.858   4.407   3.972 -0.9523  0.3177 -2.0377
 2231SOL     OW18328   3.189   3.511   9.534 -0.4098  0.4754 -0.5368
 2231SOL    HW118329   3.155   3.555   9.457 -1.9589 -2.9892 -1.8384
 2231SOL    HW218330   3.117   3.531   9.594 -0.6178  0.3099 -0.7312
 2232SOL     OW18331   1.077   1.491  10.178 -0.0867 -0.3391  0.2084
 2232SOL    HW118332   1.092   1.574  10.224  0.5167  0.3906 -1.3140
 2232SOL    HW218333   1.152   1.499  10.119  0.7744 -0.8131  1.2212
 2233SOL     OW18334   2.369   1.551   2.566  0.1212  0.6736 -0.2002
 2233SOL    HW118335   2.294   1.512   2.521  0.7089  1.5276 -1.9074
 2233SOL    HW218336   2.328   1.595   2.641 -2.7443 -0.8552 -0.8535
 2234SOL     OW18337   3.695   3.257   7.114  0.2050 -0.4151  0.7928
 2234SOL    HW118338   3.717   3.164   7.125 -2.7113 -1.3761 -1.4839
 2234SOL    HW218339   3.724   3.277   7.025  0.5118  1.4361  1.3103
 2235SOL     OW18340   4.388   2.290  16.756  0.2865 -0.0062 -0.3086
 2235SOL    HW118341   4.321   2.333  16.810  1.1132  1.8685 -0.7484
 2235SOL    HW218342   4.326   2.266  16.687  0.2400 -2.1121  0.4790
 2236SOL     OW18343   1.560   1.995   6.077  0.0379 -0.4120  0.0888
 2236SOL    HW118344   1.601   2.013   6.162  0.9003 -0.9350 -0.2179
 2236SOL    HW218345   1.519   1.911   6.095 -0.0025 -0.4846 -0.3414
 2237SOL     OW18346   3.843   0.445   6.057 -0.0031 -0.5342 -0.5138
 2237SOL    HW118347   3.811   0.457   6.146  0.5250 -0.8432 -0.2785
 2237SOL    HW218348   3.934   0.415   6.066 -0.4202 -2.0683 -1.2946
 2238SOL     OW18349   0.066   3.940   7.743  0.6450 -0.1572  0.0449
 2238SOL    HW118350   4.716   3.922   7.776  1.0040 -1.3761  0.3562
 2238SOL    HW218351   0.050   4.020   7.693  1.0739 -0.9218 -1.3291
 2239SOL     OW18352   2.436   3.955   6.912  0.0108 -0.5411  0.0222
 2239SOL    HW118353   2.498   3.994   6.973  0.8325 -1.3692 -0.2902
 2239SOL    HW218354   2.485   3.878   6.882  1.6433  0.9496 -1.1827
 2240SOL     OW18355   3.190   3.999  17.332 -0.8900  0.4692  0.3008
 2240SOL    HW118356   3.258   3.943  17.370 -2.0055 -1.0334  0.0698
 2240SOL    HW218357   3.226   4.084  17.357 -0.6293  0.4213  0.0948
 2241SOL     OW18358   2.536   1.060   5.557  0.0477 -0.2300 -0.2113
 2241SOL    HW118359   2.539   1.066   5.652  1.6786 -0.3562 -0.2472
 2241SOL    HW218360   2.441   1.067   5.547 -0.3245 -1.3599  2.5231
 2242SOL     OW18361   2.209   1.196   0.071  0.0243  0.1905 -0.0322
 2242SOL    HW118362   2.298   1.215   0.040 -0.1303 -1.1054 -1.2723
 2242SOL    HW218363   2.161   1.187  17.739 -1.0105  0.5448  0.5300
 2243SOL     OW18364   3.701   2.963  17.082 -0.2200  0.0756 -0.2667
 2243SOL    HW118365   3.762   2.904  17.125 -1.6771 -1.8308 -0.8249
 2243SOL    HW218366   3.763   3.021  17.038  1.4910 -0.8428  0.9597
 2244SOL     OW18367   0.975   0.640   5.307  0.2682 -0.2117 -0.4909
 2244SOL    HW118368   1.065   0.619   5.282  0.9303 -0.3642  1.9721
 2244SOL    HW218369   0.990   0.663   5.399  1.1269 -1.0570 -0.4221
 2245SOL     OW18370   1.015   4.314  14.664  1.0687  0.8119  0.3656
 2245SOL    HW118371   1.059   4.393  14.694  0.8830  0.6507  1.0746
 2245SOL    HW218372   1.055   4.248  14.721  0.5172 -0.6254 -0.9088
 2246SOL     OW18373   1.681   1.801   1.394 -0.2603 -0.3151 -0.5477
 2246SOL    HW118374   1.672   1.848   1.311 -1.9599 -0.0158 -0.1918
 2246SOL    HW218375   1.679   1.866   1.464  1.6903  0.2330 -0.9961
 2247SOL     OW18376   0.476   2.153   7.481  0.3136  0.2679 -0.1056
 2247SOL    HW118377   0.443   2.242   7.470 -0.0755  0.0053 -1.0037
 2247SOL    HW218378   0.523   2.168   7.563  1.1805 -1.0329 -0.3811
 2248SOL     OW18379   3.674   1.663   4.654 -0.0606 -0.2217 -0.3368
 2248SOL    HW118380   3.742   1.615   4.607  0.3534  2.4111 -2.3853
 2248SOL    HW218381   3.638   1.719   4.585 -2.5242 -0.3504  0.8170
 2249SOL     OW18382   2.747   0.392   7.546 -0.2520  0.0956  0.0481
 2249SOL    HW118383   2.724   0.453   7.617 -2.2520 -0.2299 -0.3493
 2249SOL    HW218384   2.815   0.446   7.505  0.4490 -0.3474  0.6214
 2250SOL     OW18385   3.226   3.618  12.838  0.0116  0.0427 -0.2235
 2250SOL    HW118386   3.279   3.666  12.774  1.1256 -1.6548 -0.5731
 2250SOL    HW218387   3.292   3.567  12.885  0.6729  1.2250  0.1290
 2251SOL     OW18388   1.421   0.676   0.079 -0.2845  0.4529 -0.5358
 2251SOL    HW118389   1.383   0.763   0.068  0.5532  0.6899 -1.5480
 2251SOL    HW218390   1.492   0.684   0.016  1.5838  0.7165  1.5981
 2252SOL     OW18391   4.696   2.535   3.788  0.8754  0.1169  0.4506
 2252SOL    HW118392   0.053   2.542   3.777  0.7388  2.5750  0.7188
 2252SOL    HW218393   4.674   2.612   3.841 -1.2308  1.5102 -2.4171
 2253SOL     OW18394   1.039   3.273   1.298 -0.4405  0.2736  0.1461
 2253SOL    HW118395   1.105   3.297   1.363  1.1776  1.9668 -2.1259
 2253SOL    HW218396   1.067   3.329   1.226 -1.0366  0.2558 -0.1019
 2254SOL     OW18397   2.358   3.753  14.036  0.6532 -0.4814 -0.0349
 2254SOL    HW118398   2.265   3.733  14.052  0.5665 -0.6050 -0.6968
 2254SOL    HW218399   2.368   3.799  13.953 -0.4097 -0.9703 -0.4313
 2255SOL     OW18400   1.996   4.252   2.079  0.5018 -0.0950 -0.5516
 2255SOL    HW118401   2.030   4.342   2.072 -1.7598  1.0618  3.3050
 2255SOL    HW218402   1.986   4.250   2.174  0.7734  1.2312 -0.4824
 2256SOL     OW18403   3.195   3.346  14.841 -0.2016 -0.6776 -0.2656
 2256SOL    HW118404   3.113   3.298  14.850  0.2518 -1.4454 -0.2782
 2256SOL    HW218405   3.223   3.322  14.752  1.5713 -0.6073  0.2736
 2257SOL     OW18406   0.295   4.397  10.180  0.2207  0.2386 -0.4696
 2257SOL    HW118407   0.326   4.405  10.270 -1.7892  0.0366  0.2451
 2257SOL    HW218408   0.377   4.359  10.150  1.0727  1.9702 -0.3506
 2258SOL     OW18409   3.627   0.819   5.763 -0.1822 -0.9135 -0.3110
 2258SOL    HW118410   3.612   0.755   5.832  0.5740  2.1507  2.7182
 2258SOL    HW218411   3.689   0.883   5.796  0.3889 -0.0406 -3.0697
 2259SOL     OW18412   4.218   0.498   4.856 -0.1012 -0.5039  0.2389
 2259SOL    HW118413   4.138   0.448   4.875  0.3193 -0.2800  2.6113
 2259SOL    HW218414   4.281   0.439   4.896  0.6754  0.4916  0.4749
 2260SOL     OW18415   1.537   3.827  13.501  0.2544  0.5494 -0.0730
 2260SOL    HW118416   1.505   3.914  13.477 -1.1532  0.0873  0.1639
 2260SOL    HW218417   1.550   3.839  13.595 -1.8235 -1.1907  0.4241
 2261SOL     OW18418   0.046   3.188   4.149  0.6973  0.3577 -0.1886
 2261SOL    HW118419   0.022   3.275   4.115 -3.8437 -0.0898  1.8422
 2261SOL    HW218420   4.700   3.157   4.183  0.4410  2.1195  0.8273
 2262SOL     OW18421   3.282   0.283   2.166 -0.2095 -0.3887 -0.0717
 2262SOL    HW118422   3.288   0.338   2.088 -0.7348  0.5138  0.5234
 2262SOL    HW218423   3.306   0.201   2.122 -0.6467  0.2006 -1.3889
 2263SOL     OW18424   2.590   3.968   4.652 -0.1304  0.2267  0.2971
 2263SOL    HW118425   2.575   3.951   4.745 -1.0527  2.4839  0.5645
 2263SOL    HW218426   2.669   3.917   4.630 -0.8286 -1.4685  1.7555
 2264SOL     OW18427   2.273   4.207   6.345 -0.3273 -0.4207 -0.6424
 2264SOL    HW118428   2.330   4.173   6.276  1.0675 -0.6095  0.5910
 2264SOL    HW218429   2.213   4.266   6.300  2.1953  2.2074 -0.5722
 2265SOL     OW18430   1.177   2.252   3.019  0.0304 -0.0839 -1.0650
 2265SOL    HW118431   1.238   2.263   2.946  0.7236  1.1734 -0.2840
 2265SOL    HW218432   1.133   2.169   2.997  1.9848 -1.8298  1.6100
 2266SOL     OW18433   4.363   3.821  15.503 -0.1916  0.3817 -0.1611
 2266SOL    HW118434   4.402   3.802  15.589 -2.8740 -0.5475  0.8612
 2266SOL    HW218435   4.272   3.794  15.514 -0.3469  0.2235 -1.9058
 2267SOL     OW18436   4.268   4.022   7.687  0.3436 -0.0135  0.0447
 2267SOL    HW118437   4.285   4.081   7.613  0.0216 -0.3333 -0.2859
 2267SOL    HW218438   4.219   3.950   7.647  1.3325  0.6669 -2.4320
 2268SOL     OW18439   4.486   2.436   3.651  0.1137  0.3124  0.0143
 2268SOL    HW118440   4.569   2.453   3.695 -0.2634  1.5618  0.2469
 2268SOL    HW218441   4.435   2.397   3.723  1.4458  0.2394  0.9127
 2269SOL     OW18442   0.478   2.244   3.885 -0.3982 -0.6129 -0.5718
 2269SOL    HW118443   0.519   2.280   3.964  0.0810  2.0883 -2.0310
 2269SOL    HW218444   0.395   2.291   3.879  0.2027  0.6890  1.4398
 2270SOL     OW18445   3.829   4.629   3.987  0.4666  0.3523  0.6564
 2270SOL    HW118446   3.844   4.703   4.046 -0.0003  0.3869  0.7374
 2270SOL    HW218447   3.918   4.600   3.969  0.2394 -0.4075  0.7721
 2271SOL     OW18448   0.139   2.949  10.641  0.3103  0.2669  0.0869
 2271SOL    HW118449   0.098   3.026  10.679 -1.6051  0.0586 -1.5382
 2271SOL    HW218450   0.061   2.920  10.594  2.4330 -1.4487 -2.3798
 2272SOL     OW18451   1.284   2.267   3.320  0.1747  0.0718 -0.0960
 2272SOL    HW118452   1.195   2.276   3.356  0.4866 -0.1527  0.7237
 2272SOL    HW218453   1.257   2.254   3.229  0.4759  4.8611 -0.8847
 2273SOL     OW18454   0.206   4.485   9.617  0.5393  0.1800  0.3134
 2273SOL    HW118455   0.279   4.507   9.558 -1.3991  1.9343 -1.4549
 2273SOL    HW218456   0.178   4.571   9.649  1.1850  0.4487  0.1590
 2274SOL     OW18457   0.216   0.853   2.936 -0.1475 -0.1695 -0.1839
 2274SOL    HW118458   0.263   0.881   2.857 -1.1946 -1.3572 -1.2139
 2274SOL    HW218459   0.267   0.778   2.966  0.4890  0.5151  0.4738
 2275SOL     OW18460   1.213   0.171   4.221 -0.0428 -0.2131 -0.6252
 2275SOL    HW118461   1.140   0.160   4.161 -0.1113 -0.0181 -0.5786
 2275SOL    HW218462   1.213   0.266   4.230  0.5749 -0.3837  1.1654
 2276SOL     OW18463   1.363   0.727  16.300 -0.6507  0.0695 -0.2723
 2276SOL    HW118464   1.430   0.764  16.243  0.9216 -1.0898  0.8123
 2276SOL    HW218465   1.288   0.781  16.273  0.1830  0.8774 -0.9570
 2277SOL     OW18466   2.447   0.858   3.000 -0.0120 -0.2540 -0.6727
 2277SOL    HW118467   2.377   0.909   2.960  0.3477  0.4905 -0.3399
 2277SOL    HW218468   2.405   0.789   3.053  2.4998 -2.6396 -1.7896
 2278SOL     OW18469   0.479   1.061   2.829  0.0054 -0.3200 -0.3385
 2278SOL    HW118470   0.479   1.149   2.793 -1.7884 -0.1230  0.1483
 2278SOL    HW218471   0.415   1.026   2.768 -2.0299 -0.3195  1.7916
 2279SOL     OW18472   4.721   3.429   3.812  0.4155  0.5268  0.2961
 2279SOL    HW118473   4.720   3.338   3.783  0.7547  0.1958  1.3418
 2279SOL    HW218474   4.737   3.465   3.725  2.2957  0.5854  0.6687
 2280SOL     OW18475   3.708   0.656  11.634 -0.0144  0.3161 -0.0606
 2280SOL    HW118476   3.782   0.692  11.683  0.2156  0.0195 -0.1894
 2280SOL    HW218477   3.713   0.561  11.648  1.6340  0.4803  0.4680
 2281SOL     OW18478   2.330   3.673  17.674 -0.2050 -0.1680  0.0695
 2281SOL    HW118479   2.316   3.654   0.017  1.2090  1.6771  0.6818
 2281SOL    HW218480   2.417   3.640  17.649  0.4378  0.8575  0.9496
 2282SOL     OW18481   2.250   2.001  13.674 -0.7099  0.4397 -0.3258
 2282SOL    HW118482   2.233   1.933  13.739 -0.0807 -1.3639 -2.0216
 2282SOL    HW218483   2.284   2.068  13.734  1.5266 -2.4631  1.6768
 2283SOL     OW18484   4.035   2.525   0.911  0.1108  0.0160 -0.1942
 2283SOL    HW118485   4.089   2.487   0.842 -0.6344 -0.0275 -0.7628
 2283SOL    HW218486   3.959   2.466   0.912 -0.7005  1.0767  2.1865
 2284SOL     OW18487   1.441   0.305   8.615  0.0515  0.3395 -0.6151
 2284SOL    HW118488   1.526   0.265   8.597  0.2433  0.1692  0.6705
 2284SOL    HW218489   1.428   0.357   8.535 -1.9748  2.0102  0.8167
 2285SOL     OW18490   3.966   1.185   9.192 -0.0190  0.3706 -0.4623
 2285SOL    HW118491   3.966   1.171   9.286  0.4028 -2.2832 -0.8618
 2285SOL    HW218492   3.997   1.102   9.156  0.9502  0.3164  0.4963
 2286SOL     OW18493   3.752   0.268   5.122 -0.4227 -0.3200  0.3779
 2286SOL    HW118494   3.710   0.351   5.142  2.1500  0.8120  1.1094
 2286SOL    HW218495   3.803   0.291   5.044 -0.0616  0.0003  0.7102
 2287SOL     OW18496   1.840   0.241  14.698 -0.5504 -0.3221 -0.2870
 2287SOL    HW118497   1.839   0.145  14.699  1.4034 -0.3357 -0.7290
 2287SOL    HW218498   1.932   0.264  14.685 -0.2626 -1.2075  0.1526
 2288SOL     OW18499   2.564   2.393   4.889  0.6532  0.1814 -0.0360
 2288SOL    HW118500   2.473   2.421   4.882  0.5689 -0.4665 -1.6767
 2288SOL    HW218501   2.569   2.323   4.824 -2.7009 -0.8756  0.8813
 2289SOL     OW18502   1.964   4.572  16.348 -0.7065 -0.1218  0.3834
 2289SOL    HW118503   1.871   4.551  16.347 -0.4000 -1.3697 -1.0668
 2289SOL    HW218504   1.952   4.657  16.391  0.8110 -0.6308  1.8107
 2290SOL     OW18505   4.697   1.774  12.323 -0.1092 -0.1228 -0.1712
 2290SOL    HW118506   4.672   1.780  12.231  3.0815 -2.7930 -1.2040
 2290SOL    HW218507   0.026   1.842  12.329 -0.5265  0.3773 -1.0886
 2291SOL     OW18508   2.194   1.716   4.391  0.0466  0.3328  0.4478
 2291SOL    HW118509   2.116   1.661   4.394  0.8351 -0.8545 -1.2791
 2291SOL    HW218510   2.264   1.655   4.415  0.0698 -0.2592 -1.1787
 2292SOL     OW18511   0.287   4.650   5.809 -0.4001 -0.6222 -0.7565
 2292SOL    HW118512   0.287   4.736   5.852 -3.5798 -0.6114 -0.7720
 2292SOL    HW218513   0.298   4.674   5.717  2.1330 -0.4291 -0.3979
 2293SOL     OW18514   0.968   3.339   8.929 -0.0565  0.4683 -0.1031
 2293SOL    HW118515   1.016   3.392   8.866 -0.9355  1.3676 -0.0150
 2293SOL    HW218516   1.039   3.309   8.986 -0.8194  1.5563  1.4223
 2294SOL     OW18517   3.675   4.107  10.975 -0.1113  0.4845 -0.1054
 2294SOL    HW118518   3.694   4.187  11.023 -2.7876  0.1805  1.4488
 2294SOL    HW218519   3.726   4.038  11.017  1.1723  0.9666 -0.8754
 2295SOL     OW18520   1.317   1.929   1.565 -1.1446 -0.0758  0.0728
 2295SOL    HW118521   1.324   1.847   1.612  1.1419  0.2924  0.3757
 2295SOL    HW218522   1.340   1.983   1.641 -0.6150 -0.0309 -0.1212
 2296SOL     OW18523   0.701   0.419   1.912  0.1034 -0.3597  0.5221
 2296SOL    HW118524   0.676   0.335   1.948  0.0231 -1.4306 -2.0081
 2296SOL    HW218525   0.618   0.465   1.927  0.9743  1.0261  1.1666
 2297SOL     OW18526   0.652   3.669  12.452 -0.2675 -0.2674  0.1999
 2297SOL    HW118527   0.600   3.598  12.489 -1.1362  0.4688  0.4028
 2297SOL    HW218528   0.598   3.748  12.454  0.0401 -0.0955  2.1649
 2298SOL     OW18529   2.418   0.474   6.047  0.0566  0.0486  0.5101
 2298SOL    HW118530   2.399   0.383   6.025 -0.7734  0.7602 -1.8050
 2298SOL    HW218531   2.369   0.513   5.974  0.7098  0.1451  0.1199
 2299SOL     OW18532   0.445   1.922   4.622 -0.1502  0.6262 -0.6038
 2299SOL    HW118533   0.536   1.922   4.652 -0.8639  0.9640  1.5478
 2299SOL    HW218534   0.451   1.986   4.551  2.3676 -1.3071 -2.1029
 2300SOL     OW18535   1.420   0.324   2.454 -0.0691  0.3384  0.0755
 2300SOL    HW118536   1.371   0.351   2.376  0.9568 -0.0028 -0.6838
 2300SOL    HW218537   1.382   0.239   2.476  1.4568 -1.3893 -4.0417
 2301SOL     OW18538   0.215   3.194   0.207  0.1595  0.3924 -0.0154
 2301SOL    HW118539   0.120   3.196   0.216  0.2687 -0.7051  1.3394
 2301SOL    HW218540   0.239   3.106   0.179  1.2364  1.0722 -1.2636
 2302SOL     OW18541   2.806   2.621  15.721  0.1339  0.6557 -0.4606
 2302SOL    HW118542   2.736   2.561  15.695 -2.2048  2.1155  2.4106
 2302SOL    HW218543   2.865   2.619  15.646  0.2922  2.2677 -0.3631
 2303SOL     OW18544   4.382   1.844   1.615  0.2312  0.6596 -0.6626
 2303SOL    HW118545   4.451   1.906   1.590  1.2788  0.6689  2.1702
 2303SOL    HW218546   4.320   1.915   1.630  3.0683  2.9662  0.1350
 2304SOL     OW18547   2.790   1.856  17.349  0.4931  0.2439 -0.2279
 2304SOL    HW118548   2.851   1.790  17.318 -0.6111 -1.3484  0.9797
 2304SOL    HW218549   2.843   1.875  17.427 -2.2670  0.6764  1.5584
 2305SOL     OW18550   4.530   3.645  17.507 -0.3987  0.4015 -0.3433
 2305SOL    HW118551   4.594   3.716  17.502  0.3938 -0.3968 -1.7910
 2305SOL    HW218552   4.449   3.686  17.535  0.1801  1.2986  0.0403
 2306SOL     OW18553   1.255   2.782   4.268 -0.4924 -0.0428  0.5881
 2306SOL    HW118554   1.218   2.730   4.339 -0.6856  0.2688  0.7156
 2306SOL    HW218555   1.345   2.789   4.300 -0.0641 -2.2025 -0.1532
 2307SOL     OW18556   4.566   2.898   2.430 -0.1170 -0.2443 -0.4221
 2307SOL    HW118557   4.609   2.877   2.513  2.0943  2.4054 -0.8843
 2307SOL    HW218558   4.499   2.831   2.421 -0.8440  0.4237  0.0935
 2308SOL     OW18559   3.908   1.669  14.913  0.0120 -0.5788  0.4192
 2308SOL    HW118560   3.816   1.689  14.899  0.8250  2.1087 -1.0599
 2308SOL    HW218561   3.953   1.753  14.924 -0.6330 -0.0692 -0.8007
 2309SOL     OW18562   3.231   4.429   0.068  0.6632  0.0318 -0.0395
 2309SOL    HW118563   3.169   4.433  17.745  1.7077  2.2513 -0.7966
 2309SOL    HW218564   3.226   4.340   0.103  2.0756 -0.0152  0.0479
 2310SOL     OW18565   4.427   1.565   3.152  0.5621  0.0081  0.7885
 2310SOL    HW118566   4.392   1.492   3.204  0.1728  0.2981  0.9293
 2310SOL    HW218567   4.398   1.541   3.064 -0.7900  1.6280  0.7929
 2311SOL     OW18568   3.622   2.953   2.902 -0.0457  0.0615  0.6229
 2311SOL    HW118569   3.627   3.034   2.953  1.8821  0.8251 -0.7726
 2311SOL    HW218570   3.711   2.945   2.867  0.4421  1.5650  1.5017
 2312SOL     OW18571   3.117   1.215   1.054 -0.3832 -0.2522 -0.3074
 2312SOL    HW118572   3.079   1.302   1.040 -0.3916 -0.5034 -1.8600
 2312SOL    HW218573   3.178   1.206   0.980  0.5194  0.0230  0.4005
 2313SOL     OW18574   0.774   1.632   6.002 -0.3302  0.4036 -0.0628
 2313SOL    HW118575   0.696   1.686   6.014  0.0398  1.4864 -2.5394
 2313SOL    HW218576   0.792   1.654   5.911 -0.5041  2.0004  0.2818
 2314SOL     OW18577   4.088   0.285   3.640  0.0730  0.4850  0.6289
 2314SOL    HW118578   4.168   0.324   3.604 -0.0352 -0.4708 -0.6700
 2314SOL    HW218579   4.061   0.345   3.709 -3.5542 -0.0797 -0.2661
 2315SOL     OW18580   0.194   1.313  12.134 -0.2598  0.4571 -0.1980
 2315SOL    HW118581   0.216   1.291  12.044  0.7532 -0.8463  0.3608
 2315SOL    HW218582   0.183   1.406  12.118 -1.6899  0.5641  1.3308
 2316SOL     OW18583   3.222   3.993   8.643  0.2659  0.3685 -0.4283
 2316SOL    HW118584   3.137   3.960   8.672  0.5135  0.1258  0.0179
 2316SOL    HW218585   3.204   4.031   8.557 -1.6040  2.3288  0.8187
 2317SOL     OW18586   0.163   3.003   1.604  0.0872  0.3206 -0.5345
 2317SOL    HW118587   0.201   2.950   1.674  0.6621 -1.2589 -2.0510
 2317SOL    HW218588   0.233   3.048   1.558 -0.3597  0.3207 -1.2207
 2318SOL     OW18589   1.249   4.610   6.983 -0.0565  0.3309 -0.2839
 2318SOL    HW118590   1.227   4.701   6.966 -3.4534 -1.0122 -3.0207
 2318SOL    HW218591   1.186   4.565   6.927 -2.6753 -0.9154  3.6438
 2319SOL     OW18592   1.779   4.106   4.710  0.6153 -0.2910 -0.1644
 2319SOL    HW118593   1.720   4.176   4.739 -0.2858 -1.1972  0.1913
 2319SOL    HW218594   1.862   4.138   4.745 -1.0155  0.4996  3.0022
 2320SOL     OW18595   1.337   3.648   7.950 -0.2749 -0.0028 -0.3774
 2320SOL    HW118596   1.277   3.575   7.968  1.2345 -0.9915  0.6754
 2320SOL    HW218597   1.420   3.601   7.961 -0.6224 -0.7132 -0.7491
 2321SOL     OW18598   1.055   2.989  16.665  0.0175 -0.0854 -0.3056
 2321SOL    HW118599   1.126   2.969  16.727 -0.6162  0.3191  0.5524
 2321SOL    HW218600   1.100   2.976  16.581  0.1929  0.2476 -0.2628
 2322SOL     OW18601   1.993   3.829   6.776  0.4494  0.5236  0.1530
 2322SOL    HW118602   2.054   3.837   6.849 -1.6457  0.3366  1.8993
 2322SOL    HW218603   1.918   3.787   6.819  1.6357 -1.5838  0.1284
 2323SOL     OW18604   2.006   2.132   0.901  0.5322  0.1913 -0.4345
 2323SOL    HW118605   1.917   2.109   0.874 -0.0419  1.3752  0.4480
 2323SOL    HW218606   2.026   2.164   0.813  0.7184  0.9438 -0.1126
 2324SOL     OW18607   1.108   0.428   7.321  0.1679  0.0353 -0.1991
 2324SOL    HW118608   1.056   0.498   7.282 -0.6634 -0.5756 -0.1793
 2324SOL    HW218609   1.180   0.433   7.257  2.3158 -0.7968  2.1642
 2325SOL     OW18610   3.799   0.872   7.194 -0.0150 -0.4362 -0.3636
 2325SOL    HW118611   3.870   0.935   7.191 -0.2421 -0.1290  0.5656
 2325SOL    HW218612   3.819   0.813   7.267  1.9493  1.7639  0.8644
 2326SOL     OW18613   0.248   2.286  15.627  0.3957  0.4217  0.2692
 2326SOL    HW118614   0.325   2.333  15.596  0.0841  2.3126  2.3969
 2326SOL    HW218615   0.276   2.257  15.713 -1.1908 -0.3009  0.5322
 2327SOL     OW18616   4.325   3.530  11.893 -0.4195 -0.7229  0.9679
 2327SOL    HW118617   4.376   3.539  11.974  0.6920 -0.6778  0.2572
 2327SOL    HW218618   4.315   3.622  11.870 -0.1013 -1.6306 -2.7025
 2328SOL     OW18619   4.065   1.313  16.590 -0.0179  0.4341 -0.3425
 2328SOL    HW118620   4.053   1.266  16.508 -0.3770 -1.5356  0.8219
 2328SOL    HW218621   4.136   1.372  16.566  0.8300 -0.6379 -0.4520
 2329SOL     OW18622   1.764   2.033  16.616 -0.0635  0.0495 -0.9552
 2329SOL    HW118623   1.852   2.016  16.581  1.0704 -1.2106  2.4011
 2329SOL    HW218624   1.720   2.020  16.533  1.9909 -0.1033 -2.0266
 2330SOL     OW18625   4.705   3.414   1.805  0.4579  0.0963 -0.3355
 2330SOL    HW118626   0.002   3.441   1.720 -1.7003 -1.1368 -1.6439
 2330SOL    HW218627   4.616   3.388   1.778  0.2725 -1.5871  1.8914
 2331SOL     OW18628   0.973   1.323   5.240 -0.0580 -0.0816 -0.2242
 2331SOL    HW118629   0.905   1.256   5.242  1.3260 -1.4593  0.3778
 2331SOL    HW218630   1.001   1.315   5.331  1.3774 -1.1052 -0.7462
 2332SOL     OW18631   1.468   1.766   1.878 -0.0024  0.2753  0.1851
 2332SOL    HW118632   1.382   1.785   1.915  0.5933  0.1407  1.6241
 2332SOL    HW218633   1.458   1.775   1.783 -0.9641  0.1041  0.2674
 2333SOL     OW18634   4.414   2.069   1.909  0.5289  0.1674  0.1437
 2333SOL    HW118635   4.443   1.978   1.908  1.3149  0.4277 -0.4604
 2333SOL    HW218636   4.492   2.116   1.938  2.2118 -2.2160 -0.5849
 2334SOL     OW18637   0.180   0.411   5.665  0.6889  0.3743  0.4270
 2334SOL    HW118638   0.167   0.432   5.757  0.8357  0.3250  0.4595
 2334SOL    HW218639   0.091   0.440   5.643  0.4896 -1.0308 -0.6088
 2335SOL     OW18640   0.347   0.635   4.762 -0.0692  0.4066  0.8389
 2335SOL    HW118641   0.346   0.619   4.668  1.8022 -1.4937  1.1301
 2335SOL    HW218642   0.440   0.641   4.784 -0.0297 -1.3537  1.1841
 2336SOL     OW18643   2.627   1.494   0.480  0.2994  0.1447  0.2730
 2336SOL    HW118644   2.669   1.437   0.544 -0.1422 -2.1112 -1.4702
 2336SOL    HW218645   2.541   1.453   0.477  0.9619 -1.1338 -1.5010
 2337SOL     OW18646   0.236   0.877   6.720  0.1516  0.2562  0.3425
 2337SOL    HW118647   0.291   0.799   6.728 -0.2724 -0.0762  0.0253
 2337SOL    HW218648   0.260   0.915   6.635 -0.3702 -2.9001 -1.2084
 2338SOL     OW18649   2.152   2.529   3.456 -0.2118  0.1757 -0.1356
 2338SOL    HW118650   2.185   2.601   3.510 -1.8470 -0.3550  1.5629
 2338SOL    HW218651   2.113   2.574   3.380 -1.5153 -0.1362  0.3373
 2339SOL     OW18652   1.445   3.759   3.192  0.0424  0.5156 -0.1897
 2339SOL    HW118653   1.524   3.768   3.245  0.5644  1.8219 -1.1999
 2339SOL    HW218654   1.376   3.746   3.257 -1.8200  2.4402 -1.8050
 2340SOL     OW18655   3.513   2.331   7.487 -0.2391  0.2190  0.0498
 2340SOL    HW118656   3.481   2.369   7.569  1.4530  1.0791  0.2995
 2340SOL    HW218657   3.491   2.240   7.509  1.3189  0.5969  3.0769
 2341SOL     OW18658   2.533   4.429   5.685  0.6692 -0.1581  0.2388
 2341SOL    HW118659   2.488   4.386   5.613 -0.3234 -0.2724  0.9184
 2341SOL    HW218660   2.594   4.361   5.714 -1.1867 -3.0283 -2.6414
 2342SOL     OW18661   1.875   3.915   5.918 -0.2912  0.3601  0.3130
 2342SOL    HW118662   1.834   3.954   5.995 -1.4881  0.5198 -0.4064
 2342SOL    HW218663   1.968   3.934   5.933  0.1488  0.4370 -2.4153
 2343SOL     OW18664   0.443   4.059   7.258 -0.1557  0.3349 -0.0369
 2343SOL    HW118665   0.464   3.973   7.295  0.2856  1.1418  1.5746
 2343SOL    HW218666   0.364   4.048   7.205 -1.0834 -0.1224  1.4474
 2344SOL     OW18667   0.464   0.707   7.753  0.0370 -0.6687  0.5447
 2344SOL    HW118668   0.519   0.762   7.698 -1.6923  0.7385  0.2303
 2344SOL    HW218669   0.385   0.686   7.703  0.6999  2.7363 -1.9500
 2345SOL     OW18670   1.082   0.397  11.083  0.3140 -0.5972  0.3808
 2345SOL    HW118671   1.088   0.485  11.121  1.2906  0.2947 -1.9055
 2345SOL    HW218672   1.100   0.345  11.162 -1.9130 -1.5703  0.2636
 2346SOL     OW18673   2.022   0.053   8.491 -0.5907  0.5813  0.0432
 2346SOL    HW118674   1.953   0.005   8.445 -1.9401 -0.5837  3.2561
 2346SOL    HW218675   1.976   0.078   8.571  0.4547  0.1930  0.7644
 2347SOL     OW18676   0.136   2.454  15.994 -0.6244  0.0567 -0.4360
 2347SOL    HW118677   0.148   2.397  16.070  0.1996  0.5586 -0.1906
 2347SOL    HW218678   0.166   2.386  15.933  0.8702 -0.4153  0.8359
 2348SOL     OW18679   2.292   1.606   2.206 -0.4770  0.2708  0.0769
 2348SOL    HW118680   2.216   1.582   2.259  0.3825 -2.2588  0.1710
 2348SOL    HW218681   2.355   1.534   2.212 -1.2626 -0.6576 -2.8265
 2349SOL     OW18682   0.797   3.883  13.521  0.2029 -0.0661  0.2099
 2349SOL    HW118683   0.774   3.792  13.540 -1.1619 -0.1523 -1.7683
 2349SOL    HW218684   0.892   3.878  13.523  0.3325  2.2580 -0.0058
 2350SOL     OW18685   3.197   4.096   7.811 -0.2247  0.2108  0.1900
 2350SOL    HW118686   3.205   4.181   7.768  1.6097 -0.1642 -0.1848
 2350SOL    HW218687   3.273   4.054   7.771 -1.5685 -2.7321  0.6373
 2351SOL     OW18688   0.443   0.353   7.054  0.0512  0.2377  0.0304
 2351SOL    HW118689   0.439   0.441   7.018  1.4657  0.9937  1.6910
 2351SOL    HW218690   0.350   0.331   7.048  0.0764  0.4715 -1.1451
 2352SOL     OW18691   1.148   1.438   4.107  0.6442  0.0010  0.3777
 2352SOL    HW118692   1.185   1.351   4.098 -3.0148 -1.6320  1.3186
 2352SOL    HW218693   1.235   1.479   4.115  1.7558 -2.2854 -0.0154
 2353SOL     OW18694   1.014   0.138   3.202 -0.1701  0.0901 -0.1597
 2353SOL    HW118695   0.964   0.215   3.174 -1.0054  1.0380  3.9006
 2353SOL    HW218696   1.079   0.182   3.258 -0.0675 -0.3306  0.0518
 2354SOL     OW18697   4.134   0.565   6.802  0.0088  0.1188  0.0943
 2354SOL    HW118698   4.110   0.495   6.741  0.7502  0.0260 -0.0917
 2354SOL    HW218699   4.196   0.609   6.744  0.1464 -0.8635 -0.4968
 2355SOL     OW18700   4.588   2.874   5.789  0.3994  0.0504  0.0394
 2355SOL    HW118701   4.629   2.794   5.823 -1.6488 -0.5700  1.0321
 2355SOL    HW218702   4.611   2.938   5.856 -0.7474 -0.3442  0.8061
 2356SOL     OW18703   0.722   1.429   4.429  0.0171 -0.2682 -0.1411
 2356SOL    HW118704   0.807   1.424   4.385 -0.9590  1.3883 -2.1886
 2356SOL    HW218705   0.660   1.443   4.357 -0.1343 -0.8984 -0.1384
 2357SOL     OW18706   4.281   1.603   1.342  0.5541  0.4643  0.3343
 2357SOL    HW118707   4.298   1.529   1.400  0.2404 -1.5332 -2.1145
 2357SOL    HW218708   4.218   1.649   1.399 -0.8738 -0.2807 -0.6486
 2358SOL     OW18709   2.490   4.540   2.001  0.3518 -0.6603  0.1230
 2358SOL    HW118710   2.488   4.586   2.084 -0.1429  1.0962 -0.8592
 2358SOL    HW218711   2.545   4.462   2.013 -0.2788 -1.2088 -0.5404
 2359SOL     OW18712   4.124   2.740   2.634 -0.4999  0.2195 -0.2353
 2359SOL    HW118713   4.095   2.653   2.661 -0.8915  0.2909 -0.4219
 2359SOL    HW218714   4.118   2.782   2.719  1.6849  3.4900 -1.6934
 2360SOL     OW18715   1.069   2.212   9.441  1.2153  0.5623 -0.2153
 2360SOL    HW118716   1.128   2.144   9.408  2.8237  1.4110  0.9018
 2360SOL    HW218717   1.067   2.270   9.366 -2.7824  2.2062  1.1754
 2361SOL     OW18718   2.499   3.276   5.121  0.6205  0.0986 -0.2314
 2361SOL    HW118719   2.560   3.332   5.168 -0.6064  1.5054 -0.3217
 2361SOL    HW218720   2.460   3.222   5.189  2.0737 -1.7949 -0.8811
 2362SOL     OW18721   3.645   3.338   7.607 -0.2830 -0.2144  0.0626
 2362SOL    HW118722   3.690   3.414   7.569 -2.5452  1.9810  1.8719
 2362SOL    HW218723   3.691   3.267   7.560  1.7036  0.5155  0.9033
 2363SOL     OW18724   1.310   3.106   4.631 -0.1213  0.2053  0.0357
 2363SOL    HW118725   1.236   3.140   4.580  0.3850 -1.2569 -1.7071
 2363SOL    HW218726   1.372   3.179   4.627  0.3023 -0.1389  0.2152
 2364SOL     OW18727   0.359   4.342   8.126 -0.0542 -0.1502 -0.0272
 2364SOL    HW118728   0.432   4.393   8.162 -0.8667  1.1924 -0.2701
 2364SOL    HW218729   0.417   4.294   8.067  0.9297 -0.5142  1.2398
 2365SOL     OW18730   4.134   4.564   5.084  0.4349 -0.0473 -0.0817
 2365SOL    HW118731   4.098   4.478   5.104 -0.4332  0.4007  0.2864
 2365SOL    HW218732   4.068   4.619   5.127  1.5305  0.4386  0.9916
 2366SOL     OW18733   0.925   1.621   9.819  0.1468 -0.2321 -0.0231
 2366SOL    HW118734   1.006   1.658   9.784 -1.1295  2.2616 -0.3327
 2366SOL    HW218735   0.879   1.607   9.737  1.0196 -0.8117 -0.4114
 2367SOL     OW18736   2.479   4.573   3.949  0.3506  0.1794 -0.0220
 2367SOL    HW118737   2.406   4.517   3.923  2.1159 -0.9907 -2.4358
 2367SOL    HW218738   2.552   4.516   3.927  0.4022 -0.1512  1.0130
 2368SOL     OW18739   0.238   0.992   2.698  0.3513  0.7120 -0.1123
 2368SOL    HW118740   0.158   0.944   2.678  0.5811  0.0284  0.6125
 2368SOL    HW218741   0.297   0.964   2.628  0.0896  2.5141 -1.0454
 2369SOL     OW18742   1.055   3.495   0.213 -0.2126  0.5088 -0.0205
 2369SOL    HW118743   1.040   3.464   0.123  1.2221  0.9124 -0.4014
 2369SOL    HW218744   1.148   3.514   0.203 -0.3198  1.2966  0.5029
 2370SOL     OW18745   3.434   3.470  14.913  0.5010 -0.1589 -0.5575
 2370SOL    HW118746   3.467   3.508  14.831  2.6417 -0.8117  0.0186
 2370SOL    HW218747   3.351   3.432  14.883  0.2956  0.0626 -0.2692
 2371SOL     OW18748   0.354   1.694   1.798  0.3907 -0.0064 -0.0609
 2371SOL    HW118749   0.356   1.783   1.832 -0.5283 -0.1069  0.2550
 2371SOL    HW218750   0.281   1.652   1.842  0.9717 -1.2229 -0.2368
 2372SOL     OW18751   2.310   1.177   2.298 -0.5098 -0.1508 -0.2522
 2372SOL    HW118752   2.351   1.156   2.382 -0.7557  2.2805  0.4600
 2372SOL    HW218753   2.246   1.235   2.340 -0.0642 -0.1803  0.4666
 2373SOL     OW18754   4.623   0.146   6.823 -0.1273  0.0899 -0.6280
 2373SOL    HW118755   4.640   0.194   6.904 -2.2027 -1.2908  0.6272
 2373SOL    HW218756   4.552   0.086   6.842 -0.3307 -0.0621 -1.8506
 2374SOL     OW18757   4.109   2.470   9.023 -0.5576  0.6124  0.3034
 2374SOL    HW118758   4.189   2.457   8.972 -1.5346 -2.4100 -0.4982
 2374SOL    HW218759   4.066   2.384   9.029  0.7057 -0.0848 -0.6170
 2375SOL     OW18760   2.743   3.606   8.762 -0.2520  0.0280  0.0917
 2375SOL    HW118761   2.727   3.528   8.814  1.3314  2.0613  3.6269
 2375SOL    HW218762   2.838   3.593   8.762 -0.5130 -1.8958  0.8586
 2376SOL     OW18763   3.112   4.285   6.299  0.6072  0.1501  0.8879
 2376SOL    HW118764   3.111   4.189   6.294  1.9660  0.1550  0.5979
 2376SOL    HW218765   3.059   4.302   6.376  1.4525  2.6871  0.9309
 2377SOL     OW18766   3.871   2.564   4.845 -0.2385 -0.4334  0.1819
 2377SOL    HW118767   3.880   2.501   4.773  2.1577  0.5589 -0.3993
 2377SOL    HW218768   3.874   2.650   4.803  0.3126 -1.3450 -1.6336
 2378SOL     OW18769   2.760   2.683  16.884 -0.1955 -0.0423 -0.2513
 2378SOL    HW118770   2.665   2.691  16.893 -0.2703  1.6292 -2.4013
 2378SOL    HW218771   2.766   2.748  16.813  0.3170  2.0886  1.7321
 2379SOL     OW18772   2.642   3.213   7.085 -0.3825 -0.3067  0.5933
 2379SOL    HW118773   2.697   3.184   7.012 -1.0845  0.2867 -0.1803
 2379SOL    HW218774   2.707   3.242   7.150  0.2192 -1.8812  0.6900
 2380SOL     OW18775   3.868   2.282   1.390 -0.8360 -0.0160 -0.2975
 2380SOL    HW118776   3.821   2.252   1.468  0.1449  2.1485  1.1575
 2380SOL    HW218777   3.945   2.226   1.386  0.6808  2.2368 -3.1141
 2381SOL     OW18778   2.384   4.551   0.938 -0.1461 -0.4354 -0.2923
 2381SOL    HW118779   2.326   4.555   0.862 -1.2569  0.5586  0.6130
 2381SOL    HW218780   2.468   4.530   0.897  0.7493  0.6625  1.0043
 2382SOL     OW18781   2.717   3.474  10.257  0.1217 -0.5286  0.1831
 2382SOL    HW118782   2.699   3.398  10.201  1.3482 -1.3968  0.9572
 2382SOL    HW218783   2.629   3.504  10.279 -0.0499 -1.1308  0.3236
 2383SOL     OW18784   0.136   1.851   7.221 -0.3978  0.6592 -0.0578
 2383SOL    HW118785   0.203   1.899   7.172 -0.5224  0.9169  0.0256
 2383SOL    HW218786   0.095   1.911   7.283 -1.0919 -0.8691  0.9518
 2384SOL     OW18787   2.459   4.259   4.095 -0.2046  0.2075 -0.5399
 2384SOL    HW118788   2.425   4.288   4.011 -0.2677  1.1534 -0.1882
 2384SOL    HW218789   2.493   4.173   4.070 -4.8593 -1.6577 -0.3762
 2385SOL     OW18790   1.641   3.140   6.666 -0.4221  0.3077  0.7616
 2385SOL    HW118791   1.666   3.096   6.748  3.0933  1.1089  0.1294
 2385SOL    HW218792   1.713   3.116   6.608  0.2728 -0.8225  2.0702
 2386SOL     OW18793   0.846   3.153   8.089  0.2277  0.3416 -0.1329
 2386SOL    HW118794   0.941   3.153   8.075  0.0515  2.1117 -1.2875
 2386SOL    HW218795   0.837   3.117   8.177 -1.7254 -2.1843 -1.3660
 2387SOL     OW18796   0.624   0.404   8.033  0.5328 -0.2112 -0.6880
 2387SOL    HW118797   0.707   0.450   8.023 -0.1096  0.9522 -0.7067
 2387SOL    HW218798   0.649   0.336   8.095  0.3528 -0.3617 -0.7814
 2388SOL     OW18799   0.481   1.949  12.084  0.7709 -0.5788 -0.0558
 2388SOL    HW118800   0.511   2.022  12.031 -0.1944 -0.8907 -1.0443
 2388SOL    HW218801   0.550   1.940  12.150 -0.0055  0.1536  0.8576
 2389SOL     OW18802   2.209   3.925   5.953 -0.1268  0.3714 -0.2956
 2389SOL    HW118803   2.263   3.846   5.953 -1.9898 -0.9173 -0.2184
 2389SOL    HW218804   2.245   3.964   6.033 -0.6411 -0.8970  0.5436
 2390SOL     OW18805   1.793   4.253   9.925 -0.2084 -0.3624  0.2823
 2390SOL    HW118806   1.824   4.267  10.015 -0.2975  0.7781  0.1311
 2390SOL    HW218807   1.821   4.165   9.900 -2.7632 -0.5589 -1.8038
 2391SOL     OW18808   3.436   1.475   6.089 -0.4720 -0.1866  0.4305
 2391SOL    HW118809   3.522   1.516   6.098 -1.2026  1.5003 -0.4839
 2391SOL    HW218810   3.402   1.514   6.169 -0.4225 -0.5855  0.6489
 2392SOL     OW18811   2.311   1.762  14.351 -0.2678 -0.6415 -0.0491
 2392SOL    HW118812   2.298   1.752  14.446 -1.0897 -2.6256 -0.3636
 2392SOL    HW218813   2.290   1.671  14.332 -1.1161 -0.2878 -0.7692
 2393SOL     OW18814   0.673   1.171   4.498  0.0326  0.1417 -0.1829
 2393SOL    HW118815   0.669   1.264   4.518 -2.7277 -0.1107  0.3601
 2393SOL    HW218816   0.753   1.140   4.541 -0.0196 -0.7067 -0.6823
 2394SOL     OW18817   2.802   3.518   2.419  0.0518  0.1870 -0.2764
 2394SOL    HW118818   2.849   3.600   2.412 -1.5884  1.3454  1.9749
 2394SOL    HW218819   2.867   3.459   2.457 -0.5378  0.8061  1.7079
 2395SOL     OW18820   2.408   3.673   7.108 -0.2156 -0.1342  0.0824
 2395SOL    HW118821   2.485   3.726   7.127  0.1219 -0.1273 -1.2974
 2395SOL    HW218822   2.381   3.659   7.199 -1.9719 -1.9433 -0.7083
 2396SOL     OW18823   1.139   3.916   8.996 -0.4687 -0.0641 -0.7444
 2396SOL    HW118824   1.071   3.874   9.049  0.8176 -1.7252 -0.3960
 2396SOL    HW218825   1.134   4.002   9.039 -1.3652 -0.2367 -0.5113
 2397SOL     OW18826   3.950   2.384   0.261  0.6125 -0.0826  0.0897
 2397SOL    HW118827   3.969   2.291   0.280  0.3375  0.1825  1.6534
 2397SOL    HW218828   4.018   2.397   0.194  0.1907  0.9868 -0.1261
 2398SOL     OW18829   1.367   4.593  10.895  0.2598 -0.3288  0.5842
 2398SOL    HW118830   1.362   4.504  10.931  0.6385 -1.3183 -1.7690
 2398SOL    HW218831   1.420   4.635  10.961  0.8865  0.9774 -0.7540
 2399SOL     OW18832   0.083   4.259   8.411  0.0169  0.2676 -0.3471
 2399SOL    HW118833   0.028   4.181   8.418  1.7845 -0.8843  0.7489
 2399SOL    HW218834   0.065   4.312   8.489 -3.7552 -0.0092 -1.0311
 2400SOL     OW18835   3.130   1.011   5.977  0.8564 -0.3602 -0.0912
 2400SOL    HW118836   3.194   1.029   5.908  0.3373  2.1989  0.1173
 2400SOL    HW218837   3.116   1.097   6.015 -0.5980 -0.8532  0.4857
 2401SOL     OW18838   2.117   1.826   8.707 -0.0630  0.3922  0.3247
 2401SOL    HW118839   2.130   1.921   8.713 -0.4366  0.5164 -0.7844
 2401SOL    HW218840   2.124   1.822   8.612  0.6038 -1.5452  0.4460
 2402SOL     OW18841   2.090   1.190   7.713  0.6956  0.4546  0.5333
 2402SOL    HW118842   2.118   1.103   7.684 -1.8921 -0.6998  1.4949
 2402SOL    HW218843   2.012   1.190   7.768  1.5659  0.2971  1.7699
 2403SOL     OW18844   1.214   2.647   2.061 -0.2545  0.3545 -0.3293
 2403SOL    HW118845   1.263   2.725   2.089  1.4952 -0.2480 -1.7198
 2403SOL    HW218846   1.205   2.610   2.148  1.2922  0.8347  0.0459
 2404SOL     OW18847   0.798   3.509   9.125  0.0891  0.3117 -0.4126
 2404SOL    HW118848   0.862   3.450   9.085 -0.5327 -0.1954 -0.6442
 2404SOL    HW218849   0.765   3.457   9.198  3.3055  1.7112  2.0481
 2405SOL     OW18850   3.601   3.617   8.590  0.2553 -0.2961 -0.7840
 2405SOL    HW118851   3.645   3.685   8.539  3.4298 -1.7650  0.0181
 2405SOL    HW218852   3.582   3.657   8.675 -0.0666 -0.6156 -0.7059
 2406SOL     OW18853   2.188   1.294   5.432 -0.1494 -0.2321 -0.2519
 2406SOL    HW118854   2.218   1.349   5.359  0.7059  0.2732  0.4884
 2406SOL    HW218855   2.103   1.337   5.443 -0.0442 -0.1970  0.3826
 2407SOL     OW18856   0.763   4.725   1.159 -0.3830 -0.1992  0.5658
 2407SOL    HW118857   0.810   0.044   1.098  0.5556  1.9197  3.2809
 2407SOL    HW218858   0.695   4.696   1.098  0.0245  0.6502 -0.2906
 2408SOL     OW18859   2.238   0.520   5.572  0.0390 -0.3856 -0.2172
 2408SOL    HW118860   2.157   0.539   5.524 -0.3580  0.8810  0.9393
 2408SOL    HW218861   2.292   0.481   5.504 -0.6058 -0.7754 -0.5009
 2409SOL     OW18862   0.461   2.608  16.497 -0.4804  0.1164 -0.3287
 2409SOL    HW118863   0.388   2.668  16.513 -1.0427 -0.7474  0.4336
 2409SOL    HW218864   0.535   2.657  16.462  0.0170  1.1839  2.2186
 2410SOL     OW18865   3.474   2.276  15.237 -0.1648 -0.3712 -0.0315
 2410SOL    HW118866   3.403   2.340  15.240  0.1161  0.1234 -3.4579
 2410SOL    HW218867   3.516   2.292  15.153  0.2568  0.0961  0.2708
 2411SOL     OW18868   0.257   1.948   4.105 -0.3177 -0.5865 -0.6577
 2411SOL    HW118869   0.189   1.982   4.046  0.1712  2.0474  0.2643
 2411SOL    HW218870   0.310   2.021   4.137  0.1649 -0.7028 -1.1957
 2412SOL     OW18871   2.106   0.006   4.609 -0.4129  0.1722  0.2944
 2412SOL    HW118872   2.058   0.002   4.527 -0.6623  2.3995  0.3308
 2412SOL    HW218873   2.141   4.655   4.607 -1.8092 -0.3788  0.6315
 2413SOL     OW18874   1.848   3.899   5.290  0.4334 -0.2938 -0.2623
 2413SOL    HW118875   1.865   3.933   5.378  0.9689  1.0051 -0.8636
 2413SOL    HW218876   1.937   3.911   5.258 -0.7612  0.5094 -3.3175
 2414SOL     OW18877   0.933   4.085   8.742  0.4184  0.0089  0.0263
 2414SOL    HW118878   1.006   4.143   8.718  1.1016 -0.8636 -0.0180
 2414SOL    HW218879   0.876   4.104   8.668  1.4192  1.2103 -0.4361
 2415SOL     OW18880   1.878   0.502   3.190  0.3042 -0.4105 -0.0349
 2415SOL    HW118881   1.931   0.539   3.260  0.4166  1.8165 -1.3017
 2415SOL    HW218882   1.850   0.420   3.230 -3.4427  0.4162 -0.9702
 2416SOL     OW18883   0.369   1.271   9.095 -0.6777 -0.3122  0.1229
 2416SOL    HW118884   0.435   1.202   9.099 -1.3601 -1.0104 -0.5551
 2416SOL    HW218885   0.410   1.325   9.027 -0.0897  0.8050  1.3848
 2417SOL     OW18886   0.766   4.115   8.522  0.2262  0.1573 -0.5778
 2417SOL    HW118887   0.824   4.116   8.446  2.6255 -1.9746  1.2215
 2417SOL    HW218888   0.687   4.136   8.473 -0.8588 -1.2280  0.5645
 2418SOL     OW18889   4.517   1.536   0.485 -0.4102  0.1248 -0.0065
 2418SOL    HW118890   4.501   1.514   0.393 -1.6166 -2.8568  0.9135
 2418SOL    HW218891   4.542   1.449   0.514  1.8226  0.0503 -2.1591
 2419SOL     OW18892   1.364   2.195   7.489  0.1670 -0.4136 -0.2275
 2419SOL    HW118893   1.332   2.110   7.520  0.6746 -0.4563  0.1781
 2419SOL    HW218894   1.455   2.188   7.519  0.1826 -1.6567 -0.5469
 2420SOL     OW18895   1.766   4.330   7.335  0.5055 -0.2390 -0.0588
 2420SOL    HW118896   1.707   4.259   7.361  0.2111  0.3186  0.8012
 2420SOL    HW218897   1.711   4.367   7.266  0.7952  0.9537  0.3507
 2421SOL     OW18898   3.710   4.400   6.613 -0.3705 -0.0092 -0.0315
 2421SOL    HW118899   3.735   4.366   6.699  1.2084 -0.6974 -0.7630
 2421SOL    HW218900   3.772   4.356   6.555  1.4768  0.7565  1.3866
 2422SOL     OW18901   1.560   0.769  13.989  0.0088  0.0404  0.2522
 2422SOL    HW118902   1.516   0.836  14.041  0.8596  0.2128  0.7546
 2422SOL    HW218903   1.640   0.810  13.956 -0.0455 -0.1223 -0.0837
 2423SOL     OW18904   2.187   0.235  16.433 -0.7209  0.2692  0.4107
 2423SOL    HW118905   2.150   0.210  16.518 -0.1306 -0.8373  0.3514
 2423SOL    HW218906   2.283   0.235  16.443 -0.4487  0.7511 -2.2068
 2424SOL     OW18907   1.938   2.534   8.740  0.4376 -0.3434  0.8007
 2424SOL    HW118908   1.861   2.585   8.767  0.1362 -1.9668  2.9798
 2424SOL    HW218909   1.960   2.505   8.828  1.6597  1.6441  1.1587
 2425SOL     OW18910   2.845   0.837   4.945 -0.4388  0.0473 -0.4510
 2425SOL    HW118911   2.880   0.748   4.943 -0.4206  0.0596 -0.6733
 2425SOL    HW218912   2.818   0.843   5.036  0.3017  0.5680 -0.2565
 2426SOL     OW18913   0.437   3.842   5.610  0.3254  0.2586 -0.3223
 2426SOL    HW118914   0.347   3.819   5.586 -0.7545  1.7725  2.2882
 2426SOL    HW218915   0.452   3.791   5.689 -0.3322  1.7946  0.7863
 2427SOL     OW18916   0.787   4.190  16.532  0.4553 -0.1804 -0.3556
 2427SOL    HW118917   0.756   4.105  16.499 -0.0791 -0.5190  0.9732
 2427SOL    HW218918   0.723   4.246  16.489  0.2688 -0.7333 -0.8082
 2428SOL     OW18919   2.456   1.731   5.154 -0.4045 -0.2004 -0.7864
 2428SOL    HW118920   2.460   1.826   5.141 -4.3560  0.0693  0.0566
 2428SOL    HW218921   2.502   1.704   5.075 -0.0631 -1.8153 -0.0266
 2429SOL     OW18922   3.679   2.783  12.041 -0.0408 -0.4578 -0.0033
 2429SOL    HW118923   3.701   2.857  12.097  1.8190 -0.4629 -0.7091
 2429SOL    HW218924   3.597   2.752  12.079 -1.5149  2.7106 -0.6216
 2430SOL     OW18925   0.947   1.388   5.803 -0.6752  0.1261  0.2956
 2430SOL    HW118926   0.998   1.447   5.749  0.3505 -0.8227  0.2275
 2430SOL    HW218927   0.857   1.393   5.772 -0.8769 -1.2806  0.6378
 2431SOL     OW18928   1.051   0.867   1.760 -0.2587  0.2763 -0.0200
 2431SOL    HW118929   1.034   0.793   1.702 -0.5165  0.4613 -0.1783
 2431SOL    HW218930   0.985   0.929   1.729  0.3788  0.6430 -0.6415
 2432SOL     OW18931   3.134   2.173   9.631 -0.1612  0.1282 -0.1695
 2432SOL    HW118932   3.108   2.265   9.630 -0.3361  0.0608 -1.4828
 2432SOL    HW218933   3.054   2.122   9.615 -0.0902  0.5147 -1.7177
 2433SOL     OW18934   1.490   0.387  13.753  0.2953 -0.3185  0.1247
 2433SOL    HW118935   1.540   0.317  13.710  0.0115 -0.5595  0.1908
 2433SOL    HW218936   1.475   0.428  13.668  1.1338 -1.7895 -0.7354
 2434SOL     OW18937   0.470   1.191  11.805 -0.0140 -0.3726  0.8482
 2434SOL    HW118938   0.382   1.164  11.834 -1.5906  0.9476 -2.6839
 2434SOL    HW218939   0.523   1.195  11.884  0.8413 -2.9372  0.3917
 2435SOL     OW18940   0.307   4.346   2.033 -0.6274  0.1787  0.1037
 2435SOL    HW118941   0.276   4.265   2.074 -2.0629  0.1923 -0.9192
 2435SOL    HW218942   0.383   4.363   2.087 -1.3848  0.4113  1.0964
 2436SOL     OW18943   1.395   2.578   3.636  0.3885  0.3309  0.5360
 2436SOL    HW118944   1.435   2.562   3.722  1.3759  2.5626  0.5013
 2436SOL    HW218945   1.321   2.521   3.658  0.2035 -0.0102 -1.0250
 2437SOL     OW18946   2.642   4.589   9.081 -0.3152 -0.0762 -0.8361
 2437SOL    HW118947   2.559   4.567   9.124  0.3696 -1.1859 -0.0679
 2437SOL    HW218948   2.623   4.555   8.994  1.5184 -2.5120 -0.2798
 2438SOL     OW18949   3.354   2.594   3.449  0.2512  0.3539 -0.0667
 2438SOL    HW118950   3.319   2.506   3.434 -0.3010  0.6483 -0.5074
 2438SOL    HW218951   3.444   2.581   3.419 -0.0435 -2.3325  0.2014
 2439SOL     OW18952   4.265   0.087  14.802  0.4621  0.1423  0.4761
 2439SOL    HW118953   4.215   0.109  14.881 -1.7158 -1.2253 -0.5254
 2439SOL    HW218954   4.288   0.000  14.835  0.3283 -0.1023 -0.0838
 2440SOL     OW18955   1.299   2.102   4.413  0.8801  0.1242 -0.0254
 2440SOL    HW118956   1.264   2.013   4.414  0.1647  0.3698 -1.7687
 2440SOL    HW218957   1.313   2.116   4.319  1.4647  1.8787  0.3377
 2441SOL     OW18958   2.155   1.234   6.098  0.2657  0.0514  0.1243
 2441SOL    HW118959   2.063   1.225   6.122  0.5368  0.6182  1.4001
 2441SOL    HW218960   2.180   1.322   6.128  1.2958  0.2666 -1.3890
 2442SOL     OW18961   1.903   0.274   3.381 -0.1243  0.0104  0.2599
 2442SOL    HW118962   1.853   0.194   3.397  0.3816 -0.3276  0.1415
 2442SOL    HW218963   1.837   0.325   3.427 -1.1143 -0.4464 -0.6253
 2443SOL     OW18964   4.220   4.702   5.422 -0.2804 -0.6177 -0.0015
 2443SOL    HW118965   4.133   4.673   5.449 -0.9471  1.2635 -0.1402
 2443SOL    HW218966   4.274   4.656   5.487  0.1548  0.0991  0.1423
 2444SOL     OW18967   2.563   3.473  17.050 -0.4138 -0.6787 -0.2664
 2444SOL    HW118968   2.521   3.557  17.066 -1.6492 -1.3402 -0.0626
 2444SOL    HW218969   2.510   3.449  16.973  0.3848 -2.4958 -0.2581
 2445SOL     OW18970   3.980   3.085   8.837  0.1897 -0.6580  0.0675
 2445SOL    HW118971   4.014   3.031   8.766 -2.2320 -1.7536 -0.2650
 2445SOL    HW218972   4.058   3.139   8.848  1.0134 -1.8182 -0.1106
 2446SOL     OW18973   1.458   1.817  12.729 -0.0183  0.2537  0.1325
 2446SOL    HW118974   1.402   1.890  12.702  0.9889  0.9653 -0.0465
 2446SOL    HW218975   1.514   1.793  12.655 -2.0395 -3.6504 -0.1254
 2447SOL     OW18976   1.536   3.919   6.324  0.3738 -0.7853 -0.1876
 2447SOL    HW118977   1.471   3.954   6.384  1.7232  0.6100  0.4690
 2447SOL    HW218978   1.482   3.918   6.244 -0.9378  0.3904  0.6928
 2448SOL     OW18979   2.829   2.289   3.239 -0.2654 -0.5261  0.2479
 2448SOL    HW118980   2.786   2.217   3.284 -2.5498  0.9094  0.3578
 2448SOL    HW218981   2.916   2.295   3.279 -0.9106 -1.6203  1.7876
 2449SOL     OW18982   2.308   1.251   0.902  0.3630 -0.8372 -0.2241
 2449SOL    HW118983   2.327   1.310   0.974  2.1269 -4.0124  1.9068
 2449SOL    HW218984   2.293   1.170   0.951 -1.8418  0.1302  0.6921
 2450SOL     OW18985   3.714   3.578   4.597  0.1680 -0.4968 -0.0053
 2450SOL    HW118986   3.659   3.642   4.552  0.7987 -0.1372 -0.2638
 2450SOL    HW218987   3.651   3.505   4.589 -1.0487  0.5480  0.0406
 2451SOL     OW18988   2.702   1.330  10.014  0.2255 -0.0224 -0.0531
 2451SOL    HW118989   2.727   1.326   9.921 -1.0503  3.0536 -0.5341
 2451SOL    HW218990   2.643   1.405  10.004 -1.0972 -0.8325  1.7270
 2452SOL     OW18991   0.760   0.081   2.923 -0.4073  0.5831 -0.1532
 2452SOL    HW118992   0.850   0.111   2.916  0.2322 -1.9139 -2.3092
 2452SOL    HW218993   0.718   0.133   2.854 -0.8928  0.4606  0.0474
 2453SOL     OW18994   1.817   4.027   5.693 -0.4139  0.1297 -0.1638
 2453SOL    HW118995   1.845   4.015   5.784 -1.1037  1.3715  0.2146
 2453SOL    HW218996   1.869   4.106   5.679  0.7827 -0.5890  0.2615
 2454SOL     OW18997   3.997   2.500   8.006 -0.2608  0.1499  0.4683
 2454SOL    HW118998   4.006   2.493   7.911  1.1920 -0.5524  0.6520
 2454SOL    HW218999   3.963   2.589   8.012  1.8273  0.9711  0.1465
 2455SOL     OW19000   4.108   2.828   5.651  0.4004 -0.2270  0.3382
 2455SOL    HW119001   4.119   2.747   5.602 -1.8952 -1.6876  2.2377
 2455SOL    HW219002   4.016   2.847   5.635  0.3640 -0.6092  0.0888
 2456SOL     OW19003   4.432   1.524   2.305 -0.2268 -0.5430  0.5032
 2456SOL    HW119004   4.424   1.429   2.297 -0.6741 -0.3611 -1.1123
 2456SOL    HW219005   4.410   1.534   2.398  1.2658 -0.5724  0.8561
 2457SOL     OW19006   4.200   2.035   3.190 -0.7583  0.4980 -0.1582
 2457SOL    HW119007   4.154   1.987   3.259  1.0229  0.4097  0.9751
 2457SOL    HW219008   4.212   2.123   3.227 -1.0263  0.6030 -0.3242
 2458SOL     OW19009   3.658   4.617   3.638 -0.6365  0.6878  0.0394
 2458SOL    HW119010   3.641   4.620   3.732 -2.0815  0.7868 -0.2324
 2458SOL    HW219011   3.708   4.537   3.622  0.1871  1.2282 -0.1265
 2459SOL     OW19012   1.968   1.803   4.952 -0.4421 -0.0591  0.0965
 2459SOL    HW119013   2.004   1.833   5.036 -1.6582 -1.0972  0.9838
 2459SOL    HW219014   2.016   1.723   4.933 -1.3054 -0.2223 -1.3278
 2460SOL     OW19015   0.603   1.254  12.869  0.2078  1.2085  0.1878
 2460SOL    HW119016   0.681   1.204  12.893  0.0968  0.7298 -0.4447
 2460SOL    HW219017   0.546   1.190  12.825 -0.4949  2.2325 -0.3888
 2461SOL     OW19018   2.861   0.325  15.084 -0.4459 -0.0339  0.5346
 2461SOL    HW119019   2.927   0.387  15.116 -0.4828 -0.5426  1.6071
 2461SOL    HW219020   2.889   0.249  15.135 -0.2474 -2.1481 -2.7234
 2462SOL     OW19021   2.562   0.194   4.709 -0.5643  0.2276 -0.1624
 2462SOL    HW119022   2.574   0.114   4.759 -0.1670 -0.8251 -1.9298
 2462SOL    HW219023   2.649   0.228   4.727 -0.4253 -0.2016 -0.0138
 2463SOL     OW19024   1.546   1.258   7.721 -0.7623 -0.4999  0.4834
 2463SOL    HW119025   1.537   1.263   7.626 -4.6095  1.0272  0.8932
 2463SOL    HW219026   1.590   1.342   7.730  0.5031 -1.2118  0.9370
 2464SOL     OW19027   2.868   2.366   8.381 -0.4919 -0.2374 -0.0530
 2464SOL    HW119028   2.794   2.392   8.436  0.0136  0.2924  0.3727
 2464SOL    HW219029   2.824   2.301   8.326  0.6234 -1.6620  0.7554
 2465SOL     OW19030   1.878   0.957   6.894  0.3193  0.2635 -0.2579
 2465SOL    HW119031   1.859   0.993   6.981  3.3335  0.7107  0.2364
 2465SOL    HW219032   1.847   1.028   6.839  1.4694 -0.1205 -1.4005
 2466SOL     OW19033   2.584   0.964   2.767 -0.2189 -0.1415 -0.4186
 2466SOL    HW119034   2.616   1.033   2.825 -0.1108 -1.4509  1.0769
 2466SOL    HW219035   2.489   0.969   2.778 -0.1257 -0.6913  0.6625
 2467SOL     OW19036   2.671   3.331   7.366  0.0921  0.0085  0.1865
 2467SOL    HW119037   2.577   3.343   7.356 -0.0999 -0.6350  1.2019
 2467SOL    HW219038   2.698   3.411   7.410 -0.9093  0.9700 -0.9564
 2468SOL     OW19039   1.343   1.399   1.725  0.3658 -0.0770  0.0974
 2468SOL    HW119040   1.404   1.343   1.677 -0.6043 -1.5899  0.6508
 2468SOL    HW219041   1.271   1.337   1.714 -0.3556  0.7231  0.3835
 2469SOL     OW19042   0.523   0.899   8.468 -0.1220 -0.0243 -0.1264
 2469SOL    HW119043   0.431   0.891   8.443  0.4353 -1.0814 -1.8653
 2469SOL    HW219044   0.575   0.866   8.395 -2.0431  0.5260 -1.7404
 2470SOL     OW19045   0.906   2.947   3.882  0.3953  0.0188 -0.1847
 2470SOL    HW119046   0.965   2.923   3.953  0.8722 -2.0176 -1.2790
 2470SOL    HW219047   0.967   2.933   3.810 -0.8358  0.2105 -1.2565
 2471SOL     OW19048   1.019   1.294   8.069 -0.3850 -0.1355  0.5635
 2471SOL    HW119049   1.062   1.338   7.996 -0.0420  2.2222  2.1656
 2471SOL    HW219050   0.969   1.370   8.100 -2.6243 -1.4009  0.0547
 2472SOL     OW19051   3.485   4.336   2.278 -0.3186  0.4501 -0.1700
 2472SOL    HW119052   3.404   4.364   2.319  0.8741  2.0541  1.1156
 2472SOL    HW219053   3.548   4.387   2.330 -1.7087  0.2244  1.7090
 2473SOL     OW19054   4.063   2.578  11.802  0.4493  0.0605 -0.5673
 2473SOL    HW119055   4.048   2.535  11.718 -0.2555  2.2647 -1.5644
 2473SOL    HW219056   3.984   2.632  11.806  0.1257 -0.6098  2.7344
 2474SOL     OW19057   3.044   4.616   4.240 -0.3429  0.6328  0.0989
 2474SOL    HW119058   3.023   4.537   4.291  4.6242  0.3018  1.6464
 2474SOL    HW219059   3.108   4.658   4.297  3.8853 -2.9530 -2.0449
 2475SOL     OW19060   3.945   0.345   4.937 -0.0687  0.2499 -0.2926
 2475SOL    HW119061   3.919   0.436   4.925 -1.4537 -0.1640 -0.4078
 2475SOL    HW219062   3.959   0.319   4.846 -2.2102  2.0700 -1.1305
 2476SOL     OW19063   0.825   0.549  13.331 -0.3626 -0.2411  0.1149
 2476SOL    HW119064   0.896   0.538  13.266  0.7350 -0.5643  1.3686
 2476SOL    HW219065   0.775   0.619  13.289  1.0708  0.2408 -0.7998
 2477SOL     OW19066   0.469   0.866   3.942  0.4428  0.2187  0.2482
 2477SOL    HW119067   0.440   0.837   3.856 -2.7449 -1.5456  1.9493
 2477SOL    HW219068   0.398   0.925   3.967 -0.1348  0.1694 -1.2930
 2478SOL     OW19069   0.682   3.845   4.238 -0.6252 -0.4625  0.8945
 2478SOL    HW119070   0.673   3.787   4.162  0.5222 -0.5096  0.7880
 2478SOL    HW219071   0.746   3.911   4.210  2.0261 -2.3119  2.5048
 2479SOL     OW19072   3.729   3.964   4.438  0.2256  0.4910 -0.5808
 2479SOL    HW119073   3.777   4.026   4.492  1.1944 -0.4840 -0.3276
 2479SOL    HW219074   3.788   3.935   4.368  0.0281 -1.1194 -0.0663
 2480SOL     OW19075   0.043   2.848  11.043  0.5555  0.4618  0.0095
 2480SOL    HW119076   0.087   2.814  11.121 -0.3208 -0.6626  0.0066
 2480SOL    HW219077   4.695   2.807  11.049  1.6872 -2.1898 -1.5682
 2481SOL     OW19078   1.401   2.399   1.625  0.9460  0.0501 -0.4454
 2481SOL    HW119079   1.416   2.476   1.569 -0.3090  0.7709  0.2116
 2481SOL    HW219080   1.324   2.424   1.676 -1.0363 -0.7657 -3.0315
 2482SOL     OW19081   1.636   0.127   2.061  0.0773 -0.0651  0.2850
 2482SOL    HW119082   1.563   0.172   2.104  0.6839  0.6668  0.5498
 2482SOL    HW219083   1.608   0.042   2.027  1.0864 -0.4831  0.5127
 2483SOL     OW19084   1.827   3.323  15.827 -0.7208  0.5516 -0.3011
 2483SOL    HW119085   1.762   3.263  15.863 -1.7914  1.6338 -0.4631
 2483SOL    HW219086   1.810   3.404  15.875  1.4694 -0.4595  2.2096
 2484SOL     OW19087   2.640   2.724  10.816 -0.7752 -0.2772 -0.2394
 2484SOL    HW119088   2.597   2.750  10.897 -1.4647  1.7553 -1.2577
 2484SOL    HW219089   2.730   2.731  10.849 -1.5224  2.5982  1.1901
 2485SOL     OW19090   3.142   0.942  16.500 -0.0186  0.5151  0.3829
 2485SOL    HW119091   3.172   0.908  16.584 -0.6914 -0.6585  0.1559
 2485SOL    HW219092   3.162   1.035  16.499  1.0638  0.2865  0.4933
 2486SOL     OW19093   4.627   3.456   4.710 -0.3594  0.1171 -0.2919
 2486SOL    HW119094   4.580   3.538   4.726 -0.0364  0.4477 -1.0460
 2486SOL    HW219095   4.684   3.457   4.787 -0.9899  1.3406  0.1506
 2487SOL     OW19096   3.089   2.194   6.580 -0.2082 -0.4866 -0.0888
 2487SOL    HW119097   3.098   2.250   6.656 -0.0838  0.3018 -0.6883
 2487SOL    HW219098   2.996   2.169   6.588 -0.8291  1.8584  0.0588
 2488SOL     OW19099   3.894   1.236   4.151  0.1686  0.3574  0.1443
 2488SOL    HW119100   3.953   1.311   4.159 -1.0126  1.4205 -1.0015
 2488SOL    HW219101   3.882   1.228   4.056 -0.8959  1.6906  0.1575
 2489SOL     OW19102   2.535   3.896   8.383 -0.2885 -0.3262  0.0930
 2489SOL    HW119103   2.477   3.904   8.306  0.8730 -1.2712 -0.8723
 2489SOL    HW219104   2.513   3.972   8.437  2.7869 -0.4191  1.4304
 2490SOL     OW19105   0.242   3.512   8.528 -0.6782 -0.5579  0.0623
 2490SOL    HW119106   0.222   3.598   8.491 -0.0306  0.1005  1.2244
 2490SOL    HW219107   0.263   3.541   8.617 -0.9841  1.0435 -0.3777
 2491SOL     OW19108   2.414   0.565   7.545 -0.2234 -0.2900 -0.4942
 2491SOL    HW119109   2.345   0.500   7.562  0.1139 -0.9074 -1.4822
 2491SOL    HW219110   2.448   0.539   7.459 -0.2596 -1.7210 -0.0803
 2492SOL     OW19111   0.829   0.766   7.801  0.0290 -0.1560  0.2789
 2492SOL    HW119112   0.751   0.815   7.774 -1.0893 -1.6777  0.7737
 2492SOL    HW219113   0.860   0.733   7.717  0.3473  1.6025 -0.3033
 2493SOL     OW19114   0.714   0.637   8.444 -0.1113 -0.2641  0.5241
 2493SOL    HW119115   0.627   0.604   8.418  0.4684 -2.1261  0.9354
 2493SOL    HW219116   0.720   0.705   8.377 -0.8880  0.4176  1.1417
 2494SOL     OW19117   0.154   3.817   5.648  0.3839  0.6671  0.7094
 2494SOL    HW119118   0.060   3.830   5.661  0.0538 -1.1530  0.1879
 2494SOL    HW219119   0.154   3.723   5.664 -0.8714  0.5446 -0.0606
 2495SOL     OW19120   3.469   1.415   6.959 -0.1921  0.4629  0.3023
 2495SOL    HW119121   3.453   1.328   6.924 -0.7089  1.5063 -1.9984
 2495SOL    HW219122   3.444   1.464   6.881  0.1599  0.4077  0.1566
 2496SOL     OW19123   4.714   4.540  17.318  0.3071 -0.5376  0.5131
 2496SOL    HW119124   4.689   4.468  17.375 -1.3162  0.5853  1.2576
 2496SOL    HW219125   0.045   4.506  17.262 -0.4317  0.5666 -1.1127
 2497SOL     OW19126   1.675   0.551   6.050 -0.0424  0.5756 -0.4713
 2497SOL    HW119127   1.701   0.584   5.963 -1.6588 -3.3245 -2.4136
 2497SOL    HW219128   1.764   0.554   6.086  0.0969  0.2963 -0.7933
 2498SOL     OW19129   1.106   0.906   4.332 -0.2421 -0.5675  0.5024
 2498SOL    HW119130   1.039   0.875   4.392  0.7621 -0.9143  1.4377
 2498SOL    HW219131   1.154   0.967   4.389 -1.1539 -0.7045  1.4223
 2499SOL     OW19132   3.841   0.321   7.383 -0.0583  0.1720  0.5274
 2499SOL    HW119133   3.834   0.342   7.476 -0.0824 -0.7792  0.7480
 2499SOL    HW219134   3.893   0.390   7.343  0.2329  0.0133  0.6367
 2500SOL     OW19135   1.886   1.386   8.045  0.1912  0.4465 -0.0961
 2500SOL    HW119136   1.843   1.314   8.091 -0.7491  0.0990 -1.5261
 2500SOL    HW219137   1.815   1.424   7.993 -0.6518 -0.8290  0.1186
 2501SOL     OW19138   3.838   1.381   9.549 -0.6768  0.0188  0.5395
 2501SOL    HW119139   3.831   1.403   9.457 -1.0306 -1.5266  0.2023
 2501SOL    HW219140   3.913   1.426   9.589 -1.7098  1.4784  0.8168
 2502SOL     OW19141   2.758   3.659   5.497  0.3154 -0.1947 -0.0659
 2502SOL    HW119142   2.830   3.702   5.543 -2.5447  0.4137  3.7713
 2502SOL    HW219143   2.760   3.714   5.418  1.3541  1.1251  0.8683
 2503SOL     OW19144   1.106   4.461  11.778  0.1537  0.3539  0.0120
 2503SOL    HW119145   1.028   4.424  11.818  0.7801 -0.8829  0.0932
 2503SOL    HW219146   1.062   4.497  11.701 -2.7417 -2.6582  0.2571
 2504SOL     OW19147   0.812   1.971   7.973 -0.1530  0.1035 -0.2545
 2504SOL    HW119148   0.762   2.044   7.937 -1.1127 -0.2984  0.2441
 2504SOL    HW219149   0.895   2.015   7.988 -0.1136 -0.7847  2.1940
 2505SOL     OW19150   3.374   0.263  17.597 -0.0801 -0.3226  0.1226
 2505SOL    HW119151   3.459   0.308  17.596 -0.3777  0.2739  1.6750
 2505SOL    HW219152   3.395   0.200  17.528  0.0720  1.2465 -1.2731
 2506SOL     OW19153   0.211   2.493  15.327 -1.0315 -0.0012 -0.3565
 2506SOL    HW119154   0.254   2.576  15.347 -0.6982 -0.4768  0.8861
 2506SOL    HW219155   0.237   2.441  15.403  2.1817  0.5548 -1.0693
 2507SOL     OW19156   4.459   2.322   5.374 -0.2056 -0.0707  0.5022
 2507SOL    HW119157   4.394   2.382   5.412 -0.3565  0.1327 -0.0851
 2507SOL    HW219158   4.462   2.247   5.433  0.0186 -0.5795 -0.1577
 2508SOL     OW19159   3.625   0.167   1.397 -0.0822  0.0144  0.3247
 2508SOL    HW119160   3.640   0.162   1.302 -1.9387  4.7806 -0.2139
 2508SOL    HW219161   3.605   0.077   1.420 -1.9872  0.6704  1.1973
 2509SOL     OW19162   4.585   0.272   7.581 -0.3568  0.4255  0.1197
 2509SOL    HW119163   4.544   0.237   7.502 -0.8424  1.5540 -0.1316
 2509SOL    HW219164   4.527   0.242   7.650  0.9164 -0.9968  0.5593
 2510SOL     OW19165   3.578   1.083  16.461  0.8979  0.1446  0.8480
 2510SOL    HW119166   3.508   1.138  16.425  1.3411  0.0613 -0.1344
 2510SOL    HW219167   3.540   1.052  16.543  0.9085 -0.7480  0.5129
 2511SOL     OW19168   1.953   3.105   7.038 -0.0722  0.6242 -1.0937
 2511SOL    HW119169   2.012   3.030   7.054 -0.1910  0.8890  0.5710
 2511SOL    HW219170   1.891   3.109   7.110  1.9371 -0.6071  0.7051
 2512SOL     OW19171   2.018   2.479   3.724 -0.2524 -0.2843  0.4108
 2512SOL    HW119172   1.948   2.526   3.679  0.2715  0.7915  0.7321
 2512SOL    HW219173   2.068   2.551   3.762  0.7070  0.0160 -1.4425
 2513SOL     OW19174   2.897   1.966  16.901 -0.4973  0.0061  0.4645
 2513SOL    HW119175   2.896   2.045  16.846  0.1777 -1.7926 -2.1051
 2513SOL    HW219176   2.990   1.948  16.892 -0.7478 -0.9820 -0.2157
 2514SOL     OW19177   0.813   3.260   5.436  0.0284  0.5047  0.3117
 2514SOL    HW119178   0.815   3.291   5.346  0.1410  0.5703  0.3359
 2514SOL    HW219179   0.763   3.179   5.444 -1.1687  1.2356  0.1593
 2515SOL     OW19180   2.482   2.786   4.765  0.5629 -0.0154 -0.1987
 2515SOL    HW119181   2.440   2.701   4.763  1.2706 -0.3593 -0.4900
 2515SOL    HW219182   2.526   2.781   4.851 -0.1817  0.1366  0.1897
 2516SOL     OW19183   4.615   1.251   4.230  0.0700  0.1297  0.2235
 2516SOL    HW119184   4.632   1.256   4.136  2.5406 -2.0452  0.5511
 2516SOL    HW219185   4.620   1.343   4.254  0.2751  0.4234 -0.9442
 2517SOL     OW19186   0.816   0.848   2.593  0.0402 -0.1686 -0.3765
 2517SOL    HW119187   0.839   0.806   2.510 -3.3144 -0.8255 -1.0048
 2517SOL    HW219188   0.768   0.924   2.560 -0.5575  0.0413  0.9932
 2518SOL     OW19189   2.291   4.242   7.555 -0.2891 -0.1809  0.7424
 2518SOL    HW119190   2.274   4.164   7.609  2.4104 -0.5866  0.9907
 2518SOL    HW219191   2.215   4.295   7.581 -0.1446 -0.2357  1.2864
 2519SOL     OW19192   3.197   0.801  13.266  0.2947  0.2281 -0.8819
 2519SOL    HW119193   3.224   0.786  13.175 -1.4642  0.7465 -1.4881
 2519SOL    HW219194   3.264   0.752  13.313  1.2835  0.4879 -2.0257
 2520SOL     OW19195   0.062   0.502   2.621 -0.0016 -0.0039 -0.5367
 2520SOL    HW119196   4.710   0.497   2.588 -0.3967 -0.0483  0.5560
 2520SOL    HW219197   0.064   0.569   2.688  1.3704 -0.8382  0.2585
 2521SOL     OW19198   1.991   1.042  10.378 -0.0496  0.2990  0.1362
 2521SOL    HW119199   1.962   1.054  10.469  2.1999  0.6482  0.8109
 2521SOL    HW219200   2.022   0.951  10.382 -2.3279 -0.4187  2.1606
 2522SOL     OW19201   2.223   4.514   5.154 -0.1154  0.4223  0.4141
 2522SOL    HW119202   2.178   4.501   5.071  0.6618  0.1252  0.0438
 2522SOL    HW219203   2.191   4.598   5.188 -1.8072 -0.0667  0.0348
 2523SOL     OW19204   0.759   4.605   4.967 -0.0779  0.2771 -0.1040
 2523SOL    HW119205   0.684   4.547   4.959  0.1035  0.0462 -0.1591
 2523SOL    HW219206   0.733   4.679   5.022  0.4446 -1.4453  2.4556
 2524SOL     OW19207   2.815   3.795   6.042 -0.2166  0.3385 -0.6462
 2524SOL    HW119208   2.837   3.743   5.965 -0.0372  0.5967 -0.7719
 2524SOL    HW219209   2.905   3.827   6.043  0.8877 -2.7400 -2.0446
 2525SOL     OW19210   3.999   0.715   5.223 -0.0399  0.5848  0.5946
 2525SOL    HW119211   3.904   0.716   5.209 -0.3434 -1.9008  2.6355
 2525SOL    HW219212   4.013   0.633   5.270 -0.2395  0.7820  0.9954
 2526SOL     OW19213   3.152   2.767   1.271 -0.3602 -0.4643  0.5479
 2526SOL    HW119214   3.095   2.823   1.323 -1.5614 -1.6598  0.5358
 2526SOL    HW219215   3.219   2.741   1.334  0.2344  0.7356  0.4077
 2527SOL     OW19216   1.440   3.500   4.701  0.0537  0.7070  0.0188
 2527SOL    HW119217   1.478   3.427   4.653  2.8363  1.0348  1.7592
 2527SOL    HW219218   1.514   3.561   4.706 -0.1723  0.8849  1.3329
 2528SOL     OW19219   3.034   1.509   3.480  0.3179  0.4857 -0.0503
 2528SOL    HW119220   2.954   1.553   3.508 -0.2956 -1.0887  0.6544
 2528SOL    HW219221   3.045   1.446   3.551  1.9896  0.4331 -0.3512
 2529SOL     OW19222   2.711   1.783   6.693  0.6121  0.0471 -0.0262
 2529SOL    HW119223   2.714   1.699   6.648 -0.0842  0.7774 -1.4105
 2529SOL    HW219224   2.784   1.834   6.660  1.6926  0.2641  2.6697
 2530SOL     OW19225   4.094   3.006   2.085  0.1686  0.3943 -0.8532
 2530SOL    HW119226   4.159   2.988   2.017  0.9540  0.9003 -0.2334
 2530SOL    HW219227   4.069   2.914   2.082  0.9080  0.1194  1.7200
 2531SOL     OW19228   3.522   1.360   9.430 -0.0201  0.1084 -0.3301
 2531SOL    HW119229   3.432   1.377   9.459 -0.2049 -0.8883 -0.3221
 2531SOL    HW219230   3.554   1.449   9.418  0.4699  0.0515  0.5668
 2532SOL     OW19231   2.094   3.344   6.579  0.0618  0.1930  0.1321
 2532SOL    HW119232   2.058   3.303   6.658  0.4841 -1.0338 -0.2995
 2532SOL    HW219233   2.044   3.426   6.578  0.8861  0.6699 -1.3960
 2533SOL     OW19234   3.428   3.384   1.603  0.0523 -0.3070 -0.2657
 2533SOL    HW119235   3.371   3.422   1.536 -0.5273 -2.8962 -1.2555
 2533SOL    HW219236   3.377   3.407   1.681 -1.0643 -2.3009 -0.4079
 2534SOL     OW19237   1.297   2.845   4.765  0.5285 -0.1191 -0.0119
 2534SOL    HW119238   1.294   2.928   4.717 -0.7156 -0.6300 -0.8208
 2534SOL    HW219239   1.387   2.814   4.763  1.6237  3.0465  0.9675
 2535SOL     OW19240   0.649   1.609   1.413 -0.6258  0.3245  0.4556
 2535SOL    HW119241   0.608   1.644   1.492 -0.4062 -0.6662  1.0003
 2535SOL    HW219242   0.729   1.560   1.427 -0.3681  0.2641 -1.1400
 2536SOL     OW19243   4.114   2.226   6.202 -0.2582  0.1964 -0.2135
 2536SOL    HW119244   4.067   2.245   6.284  0.6522 -3.4587  1.1554
 2536SOL    HW219245   4.048   2.252   6.138  0.4432 -0.5619 -1.2396
 2537SOL     OW19246   3.959   3.350   3.174  0.4333  0.4420 -0.2273
 2537SOL    HW119247   3.895   3.364   3.103 -0.1715  2.8407  0.7870
 2537SOL    HW219248   3.896   3.313   3.236 -0.4605  1.0185 -0.7869
 2538SOL     OW19249   3.999   1.013  11.875  0.0194  0.1841  0.1913
 2538SOL    HW119250   4.087   0.976  11.868 -1.1533 -2.7105  0.7931
 2538SOL    HW219251   3.986   1.010  11.970  0.1668  0.6422  0.2240
 2539SOL     OW19252   0.948   2.815  11.503 -0.0451 -0.4426  0.5727
 2539SOL    HW119253   0.935   2.755  11.430  1.0371  0.6878 -0.5617
 2539SOL    HW219254   0.857   2.839  11.518 -0.4912 -1.8852  0.0811
 2540SOL     OW19255   1.264   0.112   5.210  0.1368 -0.0006 -0.1028
 2540SOL    HW119256   1.183   0.139   5.254  1.6688  0.9229  2.1612
 2540SOL    HW219257   1.326   0.175   5.246  1.3891 -1.1284 -0.2776
 2541SOL     OW19258   4.636   1.153   5.329 -0.0603 -0.2449  0.1529
 2541SOL    HW119259   4.549   1.131   5.361 -1.2509 -1.7297 -4.0031
 2541SOL    HW219260   4.618   1.165   5.235 -0.3268  2.7622  0.5973
 2542SOL     OW19261   3.601   1.895   2.949  0.6475  1.3445 -0.2996
 2542SOL    HW119262   3.566   1.849   3.026  0.1209  0.4145 -1.1004
 2542SOL    HW219263   3.694   1.879   2.963  0.4447 -0.5841 -1.0981
 2543SOL     OW19264   0.088   1.132   3.508 -0.3636 -0.2195 -0.5698
 2543SOL    HW119265   0.127   1.066   3.450 -0.2472 -2.0460  1.6017
 2543SOL    HW219266   4.736   1.113   3.483  0.0669  1.1880 -3.1938
 2544SOL     OW19267   3.073   0.246   4.575 -0.5246 -0.4633 -0.2431
 2544SOL    HW119268   3.077   0.295   4.493 -0.9610 -0.9059 -0.5262
 2544SOL    HW219269   3.067   0.155   4.545 -0.3713  0.9686 -4.5843
 2545SOL     OW19270   0.894   3.535  17.364 -0.2321 -0.0853  0.4945
 2545SOL    HW119271   0.925   3.615  17.406  0.1313 -0.7200  1.4285
 2545SOL    HW219272   0.939   3.469  17.417 -0.7837 -1.0495 -0.2332
 2546SOL     OW19273   3.183   0.278  16.399  0.2128 -0.0532 -0.2946
 2546SOL    HW119274   3.142   0.295  16.315 -0.4511 -2.4107 -0.4607
 2546SOL    HW219275   3.133   0.215  16.451  0.4924 -2.0034 -2.3801
 2547SOL     OW19276   1.730   2.992   7.187  0.3297 -0.3695 -0.2645
 2547SOL    HW119277   1.776   2.931   7.244  1.9602 -0.7834 -2.0511
 2547SOL    HW219278   1.650   2.950   7.155  0.7870  0.8768 -3.0840
 2548SOL     OW19279   0.973   3.194   3.562  0.0328 -0.4419  0.4975
 2548SOL    HW119280   0.910   3.256   3.598  1.6755  0.5808  1.6025
 2548SOL    HW219281   0.945   3.188   3.471  0.8921 -1.6413  0.3180
 2549SOL     OW19282   2.037   0.843   1.041  0.8239 -0.0928  0.6750
 2549SOL    HW119283   2.012   0.823   0.950 -2.7442  2.1802  1.1508
 2549SOL    HW219284   1.965   0.800   1.088  2.3919 -2.2762  1.1134
 2550SOL     OW19285   3.890   0.309   8.807 -0.3314 -0.6480 -0.4899
 2550SOL    HW119286   3.863   0.259   8.884  1.7747 -0.6360  0.2517
 2550SOL    HW219287   3.981   0.334   8.823 -0.8051  2.4384 -2.5578
 2551SOL     OW19288   4.149   1.779   8.762 -0.2339 -0.1904  0.7652
 2551SOL    HW119289   4.160   1.784   8.667 -1.2456  1.5744  0.7319
 2551SOL    HW219290   4.142   1.684   8.768  0.6963 -0.4639 -2.3052
 2552SOL     OW19291   1.748   4.407   8.318  0.0961  0.3531 -0.1446
 2552SOL    HW119292   1.709   4.358   8.391  1.5508 -0.0970  0.3322
 2552SOL    HW219293   1.813   4.341   8.294 -0.0765  0.8809 -2.0232
 2553SOL     OW19294   4.561   1.402   4.717  0.6164 -0.3396 -0.2592
 2553SOL    HW119295   4.586   1.441   4.633 -1.4854  0.5983 -0.4736
 2553SOL    HW219296   4.579   1.310   4.701 -1.3202 -0.9961  1.2557
 2554SOL     OW19297   4.678   0.557   7.202 -0.4613  0.2971  0.1740
 2554SOL    HW119298   4.621   0.519   7.269  2.7273 -0.9457  2.1433
 2554SOL    HW219299   4.731   0.622   7.247 -0.4356 -0.2171  0.8767
 2555SOL     OW19300   0.925   2.653   5.378  0.1848 -0.0259  0.1242
 2555SOL    HW119301   0.859   2.613   5.321  0.8995  0.3344 -0.9669
 2555SOL    HW219302   1.007   2.620   5.341  0.8296  0.9199  0.7229
 2556SOL     OW19303   2.975   0.319   6.319  0.0764  0.5851 -0.1514
 2556SOL    HW119304   2.950   0.395   6.372  1.6773  1.2893 -0.4306
 2556SOL    HW219305   2.995   0.362   6.236  1.3209  0.3281  0.0190
 2557SOL     OW19306   2.967   3.280  16.771  0.2357  0.1994  0.2233
 2557SOL    HW119307   2.994   3.372  16.780  1.3203 -0.4002  2.9669
 2557SOL    HW219308   2.912   3.267  16.848  0.4914 -1.1594  0.1740
 2558SOL     OW19309   1.400   3.172   6.426 -0.0752 -0.3996  0.1039
 2558SOL    HW119310   1.423   3.240   6.362 -0.7803 -2.5146 -2.4163
 2558SOL    HW219311   1.407   3.222   6.507 -3.2448  1.3316 -0.7027
 2559SOL     OW19312   4.059   2.369  14.721  0.4247 -0.5500  0.1391
 2559SOL    HW119313   4.031   2.431  14.788  0.2746 -0.6519  0.1714
 2559SOL    HW219314   4.008   2.401  14.646  0.0010 -1.4871  0.0223
 2560SOL     OW19315   4.030   2.704   1.807 -0.1085 -0.5588  0.1385
 2560SOL    HW119316   4.064   2.714   1.718  0.5484  1.9656  0.6786
 2560SOL    HW219317   4.032   2.608   1.801 -1.1523 -0.4823 -1.3264
 2561SOL     OW19318   3.339   0.533   4.114 -0.2462 -0.1868 -0.0055
 2561SOL    HW119319   3.309   0.495   4.197  3.0971 -0.3069  1.1316
 2561SOL    HW219320   3.378   0.614   4.147 -2.9727  0.5934  1.2941
 2562SOL     OW19321   2.323   3.633  14.369  0.2487 -0.3689  0.1347
 2562SOL    HW119322   2.412   3.651  14.339 -0.4204  0.9512 -1.0668
 2562SOL    HW219323   2.290   3.583  14.294  1.0527 -0.6032 -0.0559
 2563SOL     OW19324   4.156   3.893   3.707 -0.5060 -0.0147 -0.6323
 2563SOL    HW119325   4.194   3.808   3.684 -0.6773  0.3415 -2.1983
 2563SOL    HW219326   4.226   3.953   3.733 -1.1406  1.0172 -1.2803
 2564SOL     OW19327   3.346   4.102  13.156  0.2250  0.2408  0.4365
 2564SOL    HW119328   3.382   4.033  13.213 -2.0203 -0.1139  1.4082
 2564SOL    HW219329   3.331   4.048  13.078 -1.2042 -2.4499  2.5606
 2565SOL     OW19330   1.951   0.638   1.980  0.2770  0.1928  0.1909
 2565SOL    HW119331   1.876   0.598   2.025  2.0831 -1.5392  1.6840
 2565SOL    HW219332   2.008   0.561   1.986 -1.8717 -1.5373 -1.9651
 2566SOL     OW19333   0.042   3.526   7.246 -0.4191 -0.1548  0.3728
 2566SOL    HW119334   0.032   3.541   7.152 -1.3435  0.2804  0.5375
 2566SOL    HW219335   4.722   3.596   7.276 -0.1407  0.7133 -1.0791
 2567SOL     OW19336   0.943   1.347   2.497  0.6555  0.1233  0.5505
 2567SOL    HW119337   0.945   1.299   2.580  0.4925 -2.6246 -1.0180
 2567SOL    HW219338   0.928   1.435   2.530  0.0705  0.2011  0.0769
 2568SOL     OW19339   1.911   0.034   8.075 -0.7200 -0.1998  0.7174
 2568SOL    HW119340   1.949   4.719   8.005 -2.3379 -1.7789  1.0235
 2568SOL    HW219341   1.940   4.731   8.156  0.0659  0.4229  0.7487
 2569SOL     OW19342   1.510   1.192   3.578 -0.1143 -0.3292  0.2529
 2569SOL    HW119343   1.581   1.255   3.567 -1.6905  1.5782  1.1469
 2569SOL    HW219344   1.566   1.118   3.602  0.0334  0.0759  1.1782
 2570SOL     OW19345   2.346   3.702   4.501 -0.1018 -0.1737 -0.8321
 2570SOL    HW119346   2.274   3.726   4.559 -0.0093 -0.9229 -0.3999
 2570SOL    HW219347   2.410   3.665   4.562 -1.0265  2.7835  1.9142
 2571SOL     OW19348   2.580   0.838   5.444 -0.0599 -0.3101  0.2114
 2571SOL    HW119349   2.498   0.859   5.399  0.4149 -2.3213 -1.5888
 2571SOL    HW219350   2.593   0.913   5.502 -0.5294 -0.3921  0.4194
 2572SOL     OW19351   2.293   2.803  15.930  0.4632  0.2093 -0.0922
 2572SOL    HW119352   2.339   2.742  15.872 -0.0228 -1.0017  0.7980
 2572SOL    HW219353   2.358   2.870  15.948 -1.3025  1.8382  0.2614
 2573SOL     OW19354   3.910   2.210  10.327 -0.0073  0.4930  0.3996
 2573SOL    HW119355   3.882   2.280  10.267  1.1734  1.6057  1.1408
 2573SOL    HW219356   3.829   2.185  10.371  1.7053 -0.8459  2.7760
 2574SOL     OW19357   2.181   3.562   4.825  0.1331  0.0166 -0.3735
 2574SOL    HW119358   2.105   3.584   4.878 -0.0235 -1.1705 -0.1166
 2574SOL    HW219359   2.251   3.556   4.890 -0.1500  0.2125 -0.0565
 2575SOL     OW19360   4.724   4.182   9.490 -0.3616 -0.4391  0.5893
 2575SOL    HW119361   4.642   4.154   9.451  0.1464 -0.5550 -0.4016
 2575SOL    HW219362   0.057   4.127   9.455 -1.9341 -2.2689  0.3115
 2576SOL     OW19363   2.277   1.668  11.887  0.0085 -0.4269 -0.7262
 2576SOL    HW119364   2.339   1.662  11.960  0.0297 -1.1518 -0.8092
 2576SOL    HW219365   2.289   1.589  11.834  0.7036 -0.4602 -0.5126
 2577SOL     OW19366   3.186   3.172   5.642  0.3606  0.1162  0.6103
 2577SOL    HW119367   3.257   3.133   5.591  1.3291  0.4138  1.7294
 2577SOL    HW219368   3.225   3.187   5.728  1.5591 -2.7584  0.5837
 2578SOL     OW19369   1.032   1.470   3.515  0.1041  0.1624  0.0775
 2578SOL    HW119370   1.035   1.487   3.609 -1.0455  3.4808 -0.5095
 2578SOL    HW219371   1.098   1.530   3.481  0.2103  0.3617  0.6277
 2579SOL     OW19372   4.229   2.504   5.794 -0.8555  0.0163  0.2292
 2579SOL    HW119373   4.258   2.431   5.848 -0.4169  0.3755  0.4746
 2579SOL    HW219374   4.230   2.575   5.858  3.1357  1.3827 -1.3252
 2580SOL     OW19375   4.180   3.634   7.455 -0.5300  0.0731 -0.0047
 2580SOL    HW119376   4.127   3.574   7.508  0.3470 -0.0569  0.7295
 2580SOL    HW219377   4.235   3.566   7.417 -0.7495 -0.2840  0.3126
 2581SOL     OW19378   1.189   4.073   6.082 -0.2954 -0.0615  0.0208
 2581SOL    HW119379   1.126   4.142   6.063  0.5638  0.5904 -0.4249
 2581SOL    HW219380   1.137   3.994   6.063  2.5178 -1.4082 -2.1179
 2582SOL     OW19381   1.178   1.348  11.158  0.1261  0.7346  0.2434
 2582SOL    HW119382   1.204   1.345  11.066  2.6071  0.1838  0.9607
 2582SOL    HW219383   1.225   1.425  11.190 -2.0478  1.3125  2.0102
 2583SOL     OW19384   3.667   1.032   5.223  0.7106  0.0975  0.5925
 2583SOL    HW119385   3.671   1.112   5.275 -1.1375  0.4775  0.1522
 2583SOL    HW219386   3.579   1.034   5.184  0.2973  0.1799  1.5278
 2584SOL     OW19387   0.583   3.171   5.203 -0.4355  0.2575 -0.3795
 2584SOL    HW119388   0.652   3.237   5.208 -0.2264 -0.0983  1.5938
 2584SOL    HW219389   0.622   3.084   5.216 -2.8765 -0.8396 -0.3665
 2585SOL     OW19390   4.411   3.598   5.799  0.5383  0.0089  0.0546
 2585SOL    HW119391   4.332   3.545   5.805 -0.0159  0.6126 -1.8423
 2585SOL    HW219392   4.472   3.534   5.763 -0.5584 -0.5853 -0.7595
 2586SOL     OW19393   1.661   1.621   3.337  0.1814 -0.0938 -0.2760
 2586SOL    HW119394   1.711   1.616   3.255 -1.0658  1.0957 -1.0944
 2586SOL    HW219395   1.663   1.716   3.344  1.3602 -0.2672  1.8746
 2587SOL     OW19396   0.628   2.269   5.151  0.0455  0.2257  0.1433
 2587SOL    HW119397   0.704   2.223   5.115 -1.4894 -2.0332 -0.2062
 2587SOL    HW219398   0.559   2.245   5.090  0.1025  1.1552 -0.2865
 2588SOL     OW19399   4.267   0.744   6.944 -0.4139 -0.2206 -0.4712
 2588SOL    HW119400   4.218   0.674   6.900  0.5122 -0.5021 -1.0584
 2588SOL    HW219401   4.354   0.703   6.953 -0.3776  0.4312  2.1121
 2589SOL     OW19402   4.183   4.088  17.445 -0.0053  0.0236  0.0834
 2589SOL    HW119403   4.260   4.120  17.398  0.4066  0.2579  0.9220
 2589SOL    HW219404   4.160   4.010  17.395 -2.1577 -0.5123  1.9249
 2590SOL     OW19405   2.074   0.034   1.680  0.0326 -0.5410 -0.2147
 2590SOL    HW119406   2.043   0.022   1.590 -0.1486  1.0676 -0.3749
 2590SOL    HW219407   2.002   0.084   1.720  0.9367  0.7302 -0.1885
 2591SOL     OW19408   4.588   4.581  14.017 -0.1768 -0.1139  0.2454
 2591SOL    HW119409   4.546   4.572  13.931 -0.3561 -0.2406  0.3475
 2591SOL    HW219410   4.604   4.676  14.019 -0.8409  0.0183 -0.6452
 2592SOL     OW19411   3.123   3.029  12.360 -0.0505 -0.1325  0.5633
 2592SOL    HW119412   3.133   2.952  12.416  0.9703 -0.4468 -0.0504
 2592SOL    HW219413   3.028   3.034  12.346 -0.3686  1.3244  3.4490
 2593SOL     OW19414   4.412   3.762   8.139  0.1977 -0.1827  0.3694
 2593SOL    HW119415   4.467   3.839   8.126  0.2660 -0.0748  1.2967
 2593SOL    HW219416   4.325   3.801   8.133  0.4677  0.3573 -0.0659
 2594SOL     OW19417   2.042   1.995  16.712  0.1506  0.0297  0.0645
 2594SOL    HW119418   2.037   2.087  16.738  0.8112  0.3812 -1.0727
 2594SOL    HW219419   2.129   1.982  16.748  0.0972  2.1252  0.9482
 2595SOL     OW19420   0.345   0.611   3.972 -0.2042  0.0788  0.4566
 2595SOL    HW119421   0.416   0.571   3.923 -0.6468  0.7466 -0.7261
 2595SOL    HW219422   0.383   0.693   4.005  1.0522  0.3588 -1.6703
 2596SOL     OW19423   1.918   2.259   8.523 -0.4233  0.4143 -0.3279
 2596SOL    HW119424   1.872   2.214   8.593 -0.6998  1.1545 -0.0329
 2596SOL    HW219425   1.850   2.323   8.502 -2.3171 -1.4409  0.1358
 2597SOL     OW19426   3.496   4.312   0.597 -0.2048  0.0127 -0.0307
 2597SOL    HW119427   3.406   4.332   0.625 -0.4646  0.3158 -1.1009
 2597SOL    HW219428   3.485   4.245   0.529  1.4490 -0.0702 -0.2132
 2598SOL     OW19429   3.351   3.186   0.687 -0.3729  0.1063  0.0189
 2598SOL    HW119430   3.378   3.099   0.658 -0.6316 -0.2930  0.9918
 2598SOL    HW219431   3.397   3.206   0.768 -0.2871  0.6645 -0.1659
 2599SOL     OW19432   1.196   0.610   6.334  0.3830 -0.1707  0.9210
 2599SOL    HW119433   1.222   0.645   6.249 -1.2312 -0.5449  0.2573
 2599SOL    HW219434   1.210   0.516   6.319  0.9154 -0.0731  0.8159
 2600SOL     OW19435   4.495   4.426   4.923 -0.5824 -0.0242  0.5541
 2600SOL    HW119436   4.582   4.384   4.921 -0.2073  0.8005 -0.3606
 2600SOL    HW219437   4.482   4.452   4.832  0.7195  1.3705  0.7588
 2601SOL     OW19438   2.837   2.247   5.881 -0.0367  0.3734 -0.4293
 2601SOL    HW119439   2.837   2.338   5.909  0.4417 -0.3564  1.9033
 2601SOL    HW219440   2.884   2.246   5.797  1.5823  2.2581  0.4734
 2602SOL     OW19441   3.215   4.033   3.052 -0.0436 -0.6639  0.7207
 2602SOL    HW119442   3.230   4.096   2.982  0.6232 -0.8350  0.7029
 2602SOL    HW219443   3.303   3.994   3.048  0.8266  1.4506 -0.8476
 2603SOL     OW19444   3.059   2.350   6.783  0.5869 -0.3152  0.5277
 2603SOL    HW119445   2.982   2.363   6.839  0.4026  2.8739 -0.4597
 2603SOL    HW219446   3.055   2.439   6.748  0.8649 -1.1819 -1.7027
 2604SOL     OW19447   1.373   2.871   7.899  0.2494  0.2440  0.8131
 2604SOL    HW119448   1.354   2.781   7.923  2.2653 -0.1799  0.7926
 2604SOL    HW219449   1.462   2.868   7.863 -0.5147  1.4598 -1.1902
 2605SOL     OW19450   0.494   4.030   4.259 -0.0832 -0.2412 -0.0225
 2605SOL    HW119451   0.569   3.971   4.247 -2.1068 -2.8664  0.4592
 2605SOL    HW219452   0.429   3.961   4.252  0.2139 -0.5785  0.5554
 2606SOL     OW19453   2.886   1.868  17.595 -0.0326  0.2409 -0.6752
 2606SOL    HW119454   2.970   1.912  17.587  0.4236 -0.5986 -0.4419
 2606SOL    HW219455   2.890   1.821  17.678  0.8270 -0.0698 -0.8948
 2607SOL     OW19456   0.036   3.544   1.533  0.3019 -0.5231 -0.3330
 2607SOL    HW119457   4.731   3.616   1.578 -2.3649 -2.0755 -0.4098
 2607SOL    HW219458   0.124   3.579   1.520 -0.0757 -0.4875 -2.7068
 2608SOL     OW19459   3.041   0.666   2.132 -0.5282  0.3242  0.1089
 2608SOL    HW119460   3.005   0.667   2.044  0.8169  0.8176 -0.4344
 2608SOL    HW219461   2.985   0.725   2.182 -0.4538  0.8020 -0.3715
 2609SOL     OW19462   3.923   4.060   9.792 -0.0459 -0.0541 -0.2671
 2609SOL    HW119463   3.835   4.065   9.753 -0.0367 -0.0831 -0.2913
 2609SOL    HW219464   3.974   4.085   9.714  1.3583 -0.8071  0.4134
 2610SOL     OW19465   1.902   2.937   7.784  0.4135  0.4795  0.3094
 2610SOL    HW119466   1.830   2.985   7.744  0.3740 -1.1648 -1.5838
 2610SOL    HW219467   1.964   2.942   7.712  0.7708 -2.2425  0.4306
 2611SOL     OW19468   3.018   4.326   3.150  0.2112 -0.0466 -0.3433
 2611SOL    HW119469   2.932   4.302   3.185 -0.2840  2.1201 -0.0843
 2611SOL    HW219470   3.005   4.300   3.059  2.9047  0.4131 -0.8590
 2612SOL     OW19471   3.110   0.379   2.809  0.0516  0.4189 -0.4789
 2612SOL    HW119472   3.171   0.313   2.841 -0.7984  0.4743  1.2496
 2612SOL    HW219473   3.052   0.329   2.751  0.6041 -1.0609  0.2354
 2613SOL     OW19474   0.489   0.737  15.090 -0.1026  0.1425 -0.0427
 2613SOL    HW119475   0.537   0.762  15.011  0.1822  1.5675  0.5745
 2613SOL    HW219476   0.523   0.812  15.139 -2.7122  0.6713  0.9684
 2614SOL     OW19477   1.515   4.313   4.104  0.3638  0.5736  0.7449
 2614SOL    HW119478   1.434   4.296   4.055  0.4936  0.0031  0.7374
 2614SOL    HW219479   1.471   4.336   4.186 -0.2683  2.3829 -0.1030
 2615SOL     OW19480   3.931   3.749  14.486 -0.2346  0.0387  0.1682
 2615SOL    HW119481   3.951   3.838  14.457 -0.1565 -0.3038 -0.8398
 2615SOL    HW219482   4.022   3.722  14.499  0.6740  2.7993 -0.5200
 2616SOL     OW19483   1.688   0.444  10.870  0.6037 -0.0217 -0.1746
 2616SOL    HW119484   1.662   0.514  10.929 -2.9102 -2.9410  1.6501
 2616SOL    HW219485   1.604   0.401  10.857 -0.4560  1.8046  0.6278
 2617SOL     OW19486   3.742   3.909   2.877 -0.0709 -0.8480  0.3528
 2617SOL    HW119487   3.731   3.820   2.911  0.9908 -1.7644 -1.6804
 2617SOL    HW219488   3.837   3.913   2.887  0.0428 -2.7663  0.1042
 2618SOL     OW19489   4.631   2.818   2.710  0.3917 -0.2646  1.0451
 2618SOL    HW119490   4.637   2.724   2.695 -0.8756 -0.4269  1.5473
 2618SOL    HW219491   4.694   2.816   2.782  0.2307 -0.3165  1.1852
 2619SOL     OW19492   1.760   1.761   4.137  0.7019  0.0501  0.1845
 2619SOL    HW119493   1.681   1.799   4.097  1.4062  2.1570  0.8047
 2619SOL    HW219494   1.822   1.801   4.075  2.0502 -1.6105  0.4770
 2620SOL     OW19495   3.641   4.089   4.061 -0.8267  0.8075 -0.7260
 2620SOL    HW119496   3.695   4.104   3.983  0.6620 -0.3318  0.0879
 2620SOL    HW219497   3.674   4.146   4.129  0.5942 -1.6833  0.6712
 2621SOL     OW19498   0.501   4.166   8.429  0.1959  0.6377 -0.4551
 2621SOL    HW119499   0.433   4.141   8.492  1.3399  1.4942  1.1248
 2621SOL    HW219500   0.470   4.128   8.347  0.2803  0.5402 -0.4419
 2622SOL     OW19501   2.709   3.052   9.416 -0.4055  0.3933 -0.3969
 2622SOL    HW119502   2.722   2.957   9.415 -1.8362  0.1745  2.7473
 2622SOL    HW219503   2.792   3.072   9.372  0.3818 -0.8777  0.5145
 2623SOL     OW19504   2.987   4.293   7.627 -0.1820 -0.0788 -0.0744
 2623SOL    HW119505   3.079   4.305   7.653 -0.3010  3.1578 -1.1668
 2623SOL    HW219506   2.961   4.384   7.635  0.5535 -0.0510  2.0194
 2624SOL     OW19507   1.676   3.198   4.883  0.2771  0.2778 -0.6482
 2624SOL    HW119508   1.730   3.276   4.888 -0.5351  0.7756  0.4361
 2624SOL    HW219509   1.592   3.221   4.843  0.5231 -0.7427 -1.7731
 2625SOL     OW19510   2.240   0.014   3.484  0.3518 -0.1536 -0.3321
 2625SOL    HW119511   2.274   0.088   3.433  0.7601 -1.0425 -1.3799
 2625SOL    HW219512   2.153   0.002   3.446 -1.1492  0.3587  2.9570
 2626SOL     OW19513   2.037   3.699   5.049 -0.7036 -0.5306 -0.4457
 2626SOL    HW119514   1.947   3.704   5.080 -0.0535  0.0884  1.3939
 2626SOL    HW219515   2.079   3.690   5.135 -0.8263 -1.7906 -0.5251
 2627SOL     OW19516   0.327   1.917   0.510  0.2255 -0.3593  0.2547
 2627SOL    HW119517   0.309   1.931   0.603  0.1573  2.7721 -0.2016
 2627SOL    HW219518   0.342   2.010   0.489 -1.2597 -0.5024 -1.4310
 2628SOL     OW19519   2.904   3.356   8.683  0.0185  0.1265 -0.2078
 2628SOL    HW119520   2.877   3.425   8.623  0.0472 -0.3843 -0.8177
 2628SOL    HW219521   2.997   3.377   8.695 -0.5167  1.2065  1.8042
 2629SOL     OW19522   3.570   3.262   6.469  0.4290  0.1421  0.2919
 2629SOL    HW119523   3.577   3.302   6.556 -0.6405 -1.2780  1.0160
 2629SOL    HW219524   3.478   3.239   6.466  0.4297  0.1937 -0.2050
 2630SOL     OW19525   0.434   1.450   5.028  0.2503  0.4653 -0.6026
 2630SOL    HW119526   0.348   1.407   5.024  0.1254  0.2204  3.8394
 2630SOL    HW219527   0.422   1.500   4.948 -1.1730 -1.5174 -1.6212
 2631SOL     OW19528   2.938   1.374   4.491 -0.0216 -0.1276  0.6289
 2631SOL    HW119529   2.843   1.372   4.489  0.0425 -3.0956 -0.0523
 2631SOL    HW219530   2.944   1.323   4.572  0.3254 -1.4762 -0.2368
 2632SOL     OW19531   3.421   2.715  12.108  0.0524  0.3346 -0.4591
 2632SOL    HW119532   3.424   2.705  12.013  2.4846  0.6980 -0.4122
 2632SOL    HW219533   3.363   2.791  12.108  0.1747  0.4307  1.7018
 2633SOL     OW19534   2.833   3.795  14.957  0.0103 -0.6667 -0.3253
 2633SOL    HW119535   2.747   3.772  14.992 -0.7122 -0.0714 -1.7397
 2633SOL    HW219536   2.887   3.716  14.953  1.4703  0.1924  2.0262
 2634SOL     OW19537   1.607   1.975   7.531  0.1943  0.2797  0.0557
 2634SOL    HW119538   1.523   1.938   7.505 -0.3011  1.1140  0.4902
 2634SOL    HW219539   1.599   2.005   7.621  1.1613 -1.6124  0.7778
 2635SOL     OW19540   2.921   3.945   8.774 -0.2352 -0.2558 -0.7453
 2635SOL    HW119541   2.914   3.850   8.770  0.2089 -0.2524 -1.7147
 2635SOL    HW219542   2.853   3.976   8.834  1.0165  2.8448 -0.9084
 2636SOL     OW19543   3.360   1.772  10.873  0.0538  0.0526 -0.3632
 2636SOL    HW119544   3.304   1.711  10.826  2.9984 -0.4023 -3.2841
 2636SOL    HW219545   3.333   1.761  10.964  0.6262  0.3418 -0.1578
 2637SOL     OW19546   1.701   0.582   8.656 -0.2006  0.0513 -0.2904
 2637SOL    HW119547   1.715   0.663   8.705  3.8589 -0.3212 -0.8977
 2637SOL    HW219548   1.775   0.572   8.596  0.7713 -0.2192  0.9538
 2638SOL     OW19549   2.182   0.869  15.223  0.0520 -0.2966 -0.0728
 2638SOL    HW119550   2.149   0.832  15.305  1.6500  0.7856  1.0527
 2638SOL    HW219551   2.150   0.958  15.232  1.1006  0.1307 -0.5274
 2639SOL     OW19552   2.677   1.015  13.672 -0.6316 -0.0810 -0.1922
 2639SOL    HW119553   2.668   0.929  13.713  1.6593  0.4560  1.4120
 2639SOL    HW219554   2.740   1.062  13.727 -1.2197  0.4258  0.0534
 2640SOL     OW19555   1.163   0.637   8.753  0.3697  0.1543 -0.4230
 2640SOL    HW119556   1.189   0.553   8.791 -1.7770  0.0484  0.7762
 2640SOL    HW219557   1.248   0.680   8.741  0.7716 -0.9290 -1.4694
 2641SOL     OW19558   3.263   2.941  12.146 -0.3023  0.2088 -0.1251
 2641SOL    HW119559   3.261   2.998  12.069 -1.3403 -0.2547 -0.4435
 2641SOL    HW219560   3.212   2.993  12.208  0.3671  0.5187  0.1695
 2642SOL     OW19561   3.373   3.966  12.915 -0.4649 -0.0495  0.4432
 2642SOL    HW119562   3.372   3.887  12.861 -0.1474  0.7377 -0.7198
 2642SOL    HW219563   3.379   4.030  12.844  1.7584 -2.2391 -1.3320
 2643SOL     OW19564   0.672   1.655   1.874 -0.2030  0.7053  0.6188
 2643SOL    HW119565   0.709   1.599   1.942  0.1327 -0.4042 -0.4797
 2643SOL    HW219566   0.626   1.580   1.836 -1.0973  1.0606  1.0017
 2644SOL     OW19567   3.705   0.981   2.849  0.9925  0.1638 -0.1912
 2644SOL    HW119568   3.723   0.887   2.847  2.0922  0.3425  1.2439
 2644SOL    HW219569   3.640   0.990   2.780 -0.0969 -0.5479  0.7556
 2645SOL     OW19570   4.245   0.575   6.054  0.1756 -0.2028 -0.2873
 2645SOL    HW119571   4.279   0.569   5.965  0.9542 -1.1824  0.0846
 2645SOL    HW219572   4.266   0.488   6.087 -0.7260 -0.9561 -1.7203
 2646SOL     OW19573   2.364   2.579   3.255 -0.3360 -0.8002  0.3085
 2646SOL    HW119574   2.401   2.506   3.305 -1.1593 -1.2314  0.3018
 2646SOL    HW219575   2.273   2.549   3.247 -0.8436  0.1887  2.2274
 2647SOL     OW19576   2.896   4.346  16.638 -0.1555  0.0132 -0.5866
 2647SOL    HW119577   2.817   4.398  16.626 -1.3270 -2.4056 -3.4019
 2647SOL    HW219578   2.949   4.365  16.561 -1.5074 -3.3584 -2.3620
 2648SOL     OW19579   0.506   4.118   3.023 -0.0187 -0.1803  0.2346
 2648SOL    HW119580   0.452   4.192   2.996  2.5192  2.0431  1.2078
 2648SOL    HW219581   0.497   4.122   3.118 -1.2052  0.1506  0.1148
 2649SOL     OW19582   3.217   3.515   3.243  0.6308  0.4590 -0.5874
 2649SOL    HW119583   3.149   3.493   3.179  0.3351  3.0117 -1.1140
 2649SOL    HW219584   3.173   3.586   3.290 -0.0752 -1.2196  1.3537
 2650SOL     OW19585   2.336   3.112   6.355 -0.2289 -0.0592 -0.6349
 2650SOL    HW119586   2.353   3.037   6.412 -0.5575  0.6262  0.3458
 2650SOL    HW219587   2.369   3.179   6.414 -1.3229 -1.5403  1.6428
 2651SOL     OW19588   0.094   2.812   4.756 -0.4857 -0.2839 -0.2899
 2651SOL    HW119589   0.092   2.836   4.849 -0.6539  2.4683 -1.0287
 2651SOL    HW219590   0.019   2.860   4.723  0.6944  1.5752 -0.2862
 2652SOL     OW19591   3.148   1.432  16.477 -0.2905  0.4316 -0.1269
 2652SOL    HW119592   3.124   1.402  16.389  0.2790 -0.2949 -0.0309
 2652SOL    HW219593   3.095   1.511  16.473 -2.0382 -0.7767 -1.1003
 2653SOL     OW19594   1.997   1.071  15.220 -0.1497  0.4560 -0.1498
 2653SOL    HW119595   2.003   1.148  15.163  0.1333 -0.1754 -0.9755
 2653SOL    HW219596   1.906   1.043  15.212  0.3943 -1.8055  1.5631
 2654SOL     OW19597   3.006   4.421   5.062  0.1946 -0.0810  0.3635
 2654SOL    HW119598   2.991   4.506   5.020  1.1612  0.3702  0.9311
 2654SOL    HW219599   2.938   4.428   5.129  0.7045 -1.9529  1.0760
 2655SOL     OW19600   3.886   0.063   7.296  0.1103 -0.1290  0.4374
 2655SOL    HW119601   3.921   0.089   7.382 -0.2819 -2.2043  1.2213
 2655SOL    HW219602   3.845   0.146   7.270 -0.9017 -0.8040 -0.0824
 2656SOL     OW19603   3.769   1.026   9.035 -0.0934 -0.3818 -0.1859
 2656SOL    HW119604   3.840   1.003   9.094  0.0260  0.8499  0.1333
 2656SOL    HW219605   3.711   1.077   9.092  0.3601 -0.4735  0.3499
 2657SOL     OW19606   2.100   4.731   6.611 -0.2319 -0.5864 -0.1615
 2657SOL    HW119607   2.173   0.022   6.665  0.0152 -0.8285 -0.3655
 2657SOL    HW219608   2.081   4.641   6.638  1.0589 -1.0899 -0.9537
 2658SOL     OW19609   2.590   4.365  16.952  0.4191 -0.7290  0.0037
 2658SOL    HW119610   2.555   4.289  16.905 -0.2451 -1.5416  1.7832
 2658SOL    HW219611   2.651   4.324  17.013  1.6314 -0.9393 -1.3622
 2659SOL     OW19612   1.613   2.443   8.297 -0.1542 -0.1844  0.5292
 2659SOL    HW119613   1.635   2.436   8.390 -0.7286  1.1763  0.7726
 2659SOL    HW219614   1.564   2.361   8.287 -1.9260  1.1643 -2.1776
 2660SOL     OW19615   3.741   3.277   0.239  0.2485  0.4118 -0.3496
 2660SOL    HW119616   3.729   3.348   0.301  1.2685  1.1203 -0.9596
 2660SOL    HW219617   3.688   3.205   0.274  1.1898 -0.2614 -0.3055
 2661SOL     OW19618   4.041   3.882   9.273  0.3652  0.6899 -0.4999
 2661SOL    HW119619   4.005   3.969   9.254  0.2617 -0.2175 -4.4126
 2661SOL    HW219620   4.128   3.882   9.232 -0.0475 -0.1124 -1.3507
 2662SOL     OW19621   0.661   2.203   5.921 -0.0578  0.3198 -0.6181
 2662SOL    HW119622   0.685   2.152   5.844 -0.4218 -0.2396 -0.3602
 2662SOL    HW219623   0.748   2.217   5.957 -0.2249  0.5491 -0.2998
 2663SOL     OW19624   1.014   2.505   2.705  0.5164 -0.0102  0.5309
 2663SOL    HW119625   0.938   2.449   2.719 -0.3638  1.5483  2.0687
 2663SOL    HW219626   1.079   2.442   2.673 -0.7132 -0.6259 -0.7589
 2664SOL     OW19627   2.843   3.066   8.531 -0.3397 -0.4603  0.7231
 2664SOL    HW119628   2.915   3.088   8.590  0.7380 -1.9462 -0.0366
 2664SOL    HW219629   2.834   3.143   8.475  1.5172 -1.7909 -1.4047
 2665SOL     OW19630   2.197   2.640  13.897 -0.1841  0.8213  0.1195
 2665SOL    HW119631   2.142   2.578  13.848  2.7789 -0.6103 -1.4047
 2665SOL    HW219632   2.215   2.587  13.975  1.4176  1.9508  0.4983
 2666SOL     OW19633   0.098   1.805   2.042  0.6230 -0.2801  0.0769
 2666SOL    HW119634   0.145   1.723   2.026  2.1151  0.1194  2.4391
 2666SOL    HW219635   0.039   1.798   1.967 -0.3280  0.9859  0.6965
 2667SOL     OW19636   3.542   0.229   8.695  0.0480  0.2751  0.3607
 2667SOL    HW119637   3.545   0.212   8.790  0.8436  2.1402  0.6692
 2667SOL    HW219638   3.627   0.272   8.682  0.3402 -0.0926  1.0537
 2668SOL     OW19639   0.500   4.314   2.776 -0.3176 -0.8136  0.5943
 2668SOL    HW119640   0.590   4.345   2.787 -1.5288  2.5663  1.0566
 2668SOL    HW219641   0.514   4.220   2.768 -0.2856 -0.8189  0.7092
 2669SOL     OW19642   0.687   0.111   5.061  0.4357 -0.6446  0.6930
 2669SOL    HW119643   0.742   0.138   4.988  0.4455  0.9560  1.3005
 2669SOL    HW219644   0.644   0.196   5.065 -0.6789 -1.3506  3.8304
 2670SOL     OW19645   3.731   1.821   9.140 -0.6907  0.2093 -0.0114
 2670SOL    HW119646   3.708   1.884   9.072 -0.9596  0.3846  0.2387
 2670SOL    HW219647   3.823   1.808   9.117 -0.2091 -0.8346  2.5529
 2671SOL     OW19648   3.770   4.529  16.932 -0.1565 -0.2034 -0.2594
 2671SOL    HW119649   3.689   4.570  16.901  0.3582  0.5031 -0.6525
 2671SOL    HW219650   3.763   4.533  17.028  0.0471 -1.9015 -0.1900
 2672SOL     OW19651   1.155   2.978   3.052 -0.1090  0.2651  0.0663
 2672SOL    HW119652   1.091   2.945   2.988  0.5410  0.1153 -0.5056
 2672SOL    HW219653   1.239   2.943   3.024  0.3734 -0.1252  2.0183
 2673SOL     OW19654   4.698   4.289   5.140 -0.1590 -0.0589  0.5206
 2673SOL    HW119655   4.612   4.328   5.157 -1.5265 -3.3460  1.1895
 2673SOL    HW219656   4.691   4.208   5.190 -1.5567 -0.7162 -0.7346
 2674SOL     OW19657   1.468   0.658   6.210 -0.3837 -0.0388  0.2414
 2674SOL    HW119658   1.531   0.604   6.162 -1.5479  0.5529 -1.9666
 2674SOL    HW219659   1.496   0.633   6.298  0.2286 -0.8803 -0.1860
 2675SOL     OW19660   0.040   4.461   9.018  0.3527 -0.4304 -0.5969
 2675SOL    HW119661   0.075   4.511   8.944  0.5541  0.7559  0.2831
 2675SOL    HW219662   0.117   4.434   9.068  0.3438  0.5097 -0.0592
 2676SOL     OW19663   2.496   1.860   4.322 -0.0196  0.1627 -0.2358
 2676SOL    HW119664   2.474   1.952   4.337 -1.9602 -0.5320  1.2131
 2676SOL    HW219665   2.410   1.824   4.301 -0.8515  1.3614  1.1782
 2677SOL     OW19666   3.013   2.435   9.697 -0.3807 -0.1461 -0.4260
 2677SOL    HW119667   2.977   2.510   9.648  0.3796 -1.0673 -2.4118
 2677SOL    HW219668   2.934   2.402   9.740  0.9224 -0.1494  1.9375
 2678SOL     OW19669   0.721   1.453   5.685 -0.1056  0.2723  0.0945
 2678SOL    HW119670   0.700   1.392   5.615  2.3974  1.2514 -1.5173
 2678SOL    HW219671   0.696   1.539   5.650 -2.3110 -0.0328  0.9146
 2679SOL     OW19672   0.261   2.789  16.200 -0.5167  0.1047 -0.1861
 2679SOL    HW119673   0.216   2.793  16.284  2.2649 -0.2569  1.3079
 2679SOL    HW219674   0.219   2.716  16.152 -0.8093  0.0171  0.2063
 2680SOL     OW19675   1.468   4.432   4.376  0.5212  0.5955  0.1145
 2680SOL    HW119676   1.398   4.479   4.330 -0.2106  1.4215  2.0517
 2680SOL    HW219677   1.438   4.420   4.466 -1.2168  2.8036 -0.1568
 2681SOL     OW19678   2.650   4.489   9.394 -0.3599 -0.0139  0.0592
 2681SOL    HW119679   2.610   4.495   9.481  1.3411  2.2858  0.6688
 2681SOL    HW219680   2.584   4.525   9.333 -0.3929  0.3077  0.2840
 2682SOL     OW19681   1.378   0.312   9.663 -0.2269  0.5452 -0.3583
 2682SOL    HW119682   1.343   0.246   9.723  2.3583 -1.5559 -1.1709
 2682SOL    HW219683   1.456   0.344   9.708  0.3585  1.8641 -2.2981
 2683SOL     OW19684   3.635   4.331   2.022 -0.7499 -0.0037 -0.2660
 2683SOL    HW119685   3.589   4.337   2.106 -1.6525 -1.3160 -0.6558
 2683SOL    HW219686   3.628   4.421   1.989 -0.5620  0.4482  0.9044
 2684SOL     OW19687   2.344   4.265  10.741  0.4986  0.6509  0.3994
 2684SOL    HW119688   2.300   4.339  10.700  0.3742  1.1578  1.4337
 2684SOL    HW219689   2.313   4.190  10.691  0.4810  1.8741 -1.4083
 2685SOL     OW19690   0.020   3.910   2.556 -0.0815 -0.7301  0.0954
 2685SOL    HW119691   4.708   3.978   2.512 -3.8099 -2.3065  1.9037
 2685SOL    HW219692   4.683   3.851   2.563  0.5731 -1.3965  1.4833
 2686SOL     OW19693   3.426   3.349   5.728  0.0678 -1.0145 -0.2281
 2686SOL    HW119694   3.358   3.362   5.663  1.1457  2.1514 -0.7504
 2686SOL    HW219695   3.500   3.316   5.677  0.1783  1.4806 -1.6971
 2687SOL     OW19696   2.763   0.601  10.679  0.2617  0.5011  0.4048
 2687SOL    HW119697   2.766   0.616  10.584 -0.5497 -0.7713  0.1719
 2687SOL    HW219698   2.673   0.622  10.704  0.1392  1.0047 -0.4856
 2688SOL     OW19699   2.162   1.040  13.476  0.6016  0.3751 -0.5635
 2688SOL    HW119700   2.156   1.071  13.566 -3.5365  0.5963 -0.9360
 2688SOL    HW219701   2.255   1.029  13.456  0.6377  0.5925 -0.5178
 2689SOL     OW19702   3.618   1.819  10.855  0.3214  0.0353  0.0148
 2689SOL    HW119703   3.522   1.821  10.857  0.2545  0.2768 -2.5927
 2689SOL    HW219704   3.631   1.783  10.943  2.2781 -0.8435 -0.6367
 2690SOL     OW19705   2.111   4.408  15.464 -0.2047 -0.0338 -0.3409
 2690SOL    HW119706   2.195   4.454  15.461  0.5691 -1.4171  0.3443
 2690SOL    HW219707   2.082   4.400  15.556  1.1582 -1.8948 -0.0853
 2691SOL     OW19708   0.385   2.312   0.812  0.6687  0.7247 -0.2677
 2691SOL    HW119709   0.386   2.245   0.743 -1.2953  2.5239 -2.0816
 2691SOL    HW219710   0.471   2.354   0.809  1.6446 -1.2802 -0.3456
 2692SOL     OW19711   4.198   0.957   8.905  0.4102  0.4055 -0.3324
 2692SOL    HW119712   4.267   1.024   8.907  1.4025 -0.6478  0.9399
 2692SOL    HW219713   4.214   0.936   8.813 -1.7077  0.0134 -0.5993
 2693SOL     OW19714   0.237   1.676   3.277  0.0309  0.2143  0.0578
 2693SOL    HW119715   0.261   1.617   3.348  0.9782 -0.9403 -1.2092
 2693SOL    HW219716   0.143   1.657   3.270  0.2666 -0.2904 -1.7739
 2694SOL     OW19717   1.365   4.420  17.288  0.1987  0.4918 -0.0891
 2694SOL    HW119718   1.274   4.405  17.313 -0.4654  0.1206 -2.7831
 2694SOL    HW219719   1.364   4.504  17.242  2.1718 -0.6031 -2.1280
 2695SOL     OW19720   0.194   4.029   3.180 -0.4530  0.4077  0.2121
 2695SOL    HW119721   0.104   4.048   3.204 -0.3238 -0.5704  1.4602
 2695SOL    HW219722   0.238   4.049   3.263 -1.1759  1.1733  0.4117
 2696SOL     OW19723   2.229   4.173  17.065 -0.2819  0.6425 -0.3560
 2696SOL    HW119724   2.139   4.146  17.047  0.1820 -0.7067 -0.6185
 2696SOL    HW219725   2.224   4.260  17.025  1.2399  0.2071 -1.4788
 2697SOL     OW19726   3.331   0.527   8.326  0.0035 -0.1397  0.3120
 2697SOL    HW119727   3.404   0.577   8.363 -1.3237  1.7931  0.2834
 2697SOL    HW219728   3.257   0.587   8.326  0.2924  0.2302  1.2635
 2698SOL     OW19729   1.919   0.445   8.558 -0.2572 -0.6991  0.3271
 2698SOL    HW119730   1.989   0.500   8.523 -2.5836  2.6378  0.8651
 2698SOL    HW219731   1.941   0.445   8.652 -0.0208 -0.0949  0.2710
 2699SOL     OW19732   3.714   2.315   2.942  0.2702  0.1598  0.6795
 2699SOL    HW119733   3.665   2.233   2.956  1.0111 -0.4244 -0.1805
 2699SOL    HW219734   3.787   2.309   3.003  0.0688  0.7324  0.9705
 2700SOL     OW19735   0.911   4.065   5.431 -0.8738  0.7504  0.4222
 2700SOL    HW119736   0.894   3.981   5.390 -0.8067  1.1166 -0.3622
 2700SOL    HW219737   1.006   4.074   5.424 -0.6764 -1.3398  0.5906
 2701SOL     OW19738   2.719   1.189   8.810 -0.2151 -0.9146  0.3595
 2701SOL    HW119739   2.680   1.142   8.884  0.4622 -1.0175  0.6543
 2701SOL    HW219740   2.767   1.258   8.857  0.4290  0.9731 -3.0773
 2702SOL     OW19741   4.039   0.532   7.275 -0.7945 -0.4515  0.0042
 2702SOL    HW119742   4.070   0.611   7.231 -0.2585 -0.3531  0.5543
 2702SOL    HW219743   4.109   0.471   7.250  0.9351  1.8708 -0.7689
 2703SOL     OW19744   3.236   0.374   6.507 -0.4679  0.8683  0.4161
 2703SOL    HW119745   3.162   0.326   6.471  0.1754 -0.7690  1.2442
 2703SOL    HW219746   3.212   0.390   6.598 -0.3729  0.9951  0.4190
 2704SOL     OW19747   1.450   3.279   5.128  0.3569  0.8065  0.0451
 2704SOL    HW119748   1.455   3.189   5.160  1.2073  1.0344  0.5464
 2704SOL    HW219749   1.359   3.280   5.097  0.7248 -2.1026 -1.1463
 2705SOL     OW19750   0.125   3.222  11.108  0.7063 -0.1287  0.1150
 2705SOL    HW119751   0.203   3.226  11.053  0.9387 -1.3549  0.3739
 2705SOL    HW219752   0.145   3.163  11.180  3.6703  1.0953  0.2724
 2706SOL     OW19753   1.448   0.602   5.491 -0.1542 -0.2139  0.2702
 2706SOL    HW119754   1.414   0.604   5.580  0.7139 -1.9339  0.6469
 2706SOL    HW219755   1.501   0.522   5.493 -0.8689 -0.6878  0.0084
 2707SOL     OW19756   3.208   1.327  12.750  0.4052  0.0104  0.2440
 2707SOL    HW119757   3.233   1.235  12.740 -0.3443 -0.0868 -0.7107
 2707SOL    HW219758   3.195   1.322  12.845  1.4424  0.0678  0.3950
 2708SOL     OW19759   2.661   1.754   7.391  0.2111  0.4198 -0.2809
 2708SOL    HW119760   2.565   1.749   7.398  0.2646  0.5117  0.5654
 2708SOL    HW219761   2.682   1.708   7.473 -0.4717  1.7181  0.6215
 2709SOL     OW19762   1.878   2.057  14.469  0.5606 -0.4866 -0.1576
 2709SOL    HW119763   1.871   2.105  14.551 -1.0317  0.6613 -0.9623
 2709SOL    HW219764   1.864   1.966  14.494 -0.7131 -1.0051 -2.6997
 2710SOL     OW19765   0.240   4.701   7.009 -0.6684  0.0395  0.2886
 2710SOL    HW119766   0.248   4.627   7.069 -2.8982 -0.3334  0.1221
 2710SOL    HW219767   0.222   4.654   6.927  1.3193 -0.4280  0.1037
 2711SOL     OW19768   0.267   3.840   2.980 -0.0011 -0.1922  0.7033
 2711SOL    HW119769   0.362   3.841   2.968 -0.0161  0.8813  0.6636
 2711SOL    HW219770   0.274   3.914   3.040  0.5713  0.3342 -0.0292
 2712SOL     OW19771   4.024   3.181   7.072  0.1453 -0.0032 -0.4245
 2712SOL    HW119772   4.009   3.089   7.050  1.4478 -0.0226 -1.2172
 2712SOL    HW219773   4.067   3.183   7.157  2.4083 -2.4273 -1.4953
 2713SOL     OW19774   3.050   4.419  17.624 -0.2801 -0.4431 -0.4416
 2713SOL    HW119775   3.067   4.478  17.551 -0.6598 -3.6671 -3.1365
 2713SOL    HW219776   2.955   4.416  17.638 -0.3709 -2.7459 -1.7128
 2714SOL     OW19777   1.324   2.766   5.701 -0.0310 -0.1287  0.4967
 2714SOL    HW119778   1.312   2.676   5.732  1.2272 -0.2684  0.6016
 2714SOL    HW219779   1.242   2.779   5.655  1.9573  2.9592 -2.1544
 2715SOL     OW19780   1.761   2.578   3.188 -0.2615  0.1727 -0.1127
 2715SOL    HW119781   1.684   2.522   3.191  0.8394 -1.2278  1.6988
 2715SOL    HW219782   1.827   2.517   3.157 -2.9293 -2.8247  0.0927
 2716SOL     OW19783   0.293   0.672  12.751  0.3397 -0.3564 -0.4758
 2716SOL    HW119784   0.371   0.698  12.800  0.1033  1.4473 -1.0558
 2716SOL    HW219785   0.226   0.681  12.819 -0.6477  1.3257 -1.6844
 2717SOL     OW19786   3.733   2.056  10.480 -0.0803 -0.0444  0.0413
 2717SOL    HW119787   3.662   2.004  10.442 -0.2009 -0.4518  0.8278
 2717SOL    HW219788   3.762   2.000  10.552  0.1747 -1.2620 -0.9917
 2718SOL     OW19789   1.136   3.563   7.290  0.2533  0.4704 -0.4874
 2718SOL    HW119790   1.218   3.527   7.323 -1.8754 -4.0798 -0.1254
 2718SOL    HW219791   1.090   3.479   7.286  0.5602  0.0854  3.6364
 2719SOL     OW19792   4.342   4.041   6.606 -0.0348  0.8031  0.4825
 2719SOL    HW119793   4.257   4.081   6.589 -1.0517 -2.9188 -3.0643
 2719SOL    HW219794   4.317   3.949   6.602  2.5234  0.0174  2.5627
 2720SOL     OW19795   3.182   2.731   4.380  0.2060 -0.1430  0.1634
 2720SOL    HW119796   3.123   2.736   4.455  2.2008 -0.5752  1.7546
 2720SOL    HW219797   3.116   2.743   4.312  2.3862 -1.6581 -2.2098
 2721SOL     OW19798   0.015   4.517   7.914  0.5282  0.4092 -0.1364
 2721SOL    HW119799   0.083   4.567   7.869 -0.6099  0.4480 -1.7882
 2721SOL    HW219800   0.054   4.429   7.907  0.1099  0.0861  1.5531
 2722SOL     OW19801   2.928   1.274  13.323  0.1910  0.0214  0.5660
 2722SOL    HW119802   2.955   1.245  13.235  0.3785 -1.2564  1.0502
 2722SOL    HW219803   2.965   1.206  13.379 -0.9088 -0.6303  0.4859
 2723SOL     OW19804   4.411   1.357  17.705 -0.0553 -0.1679 -0.3183
 2723SOL    HW119805   4.483   1.397  17.656  0.2413 -0.1011  0.1756
 2723SOL    HW219806   4.343   1.411  17.666  0.1996  0.4236  0.0653
 2724SOL     OW19807   1.134   4.541  14.378 -0.2166  0.2993  0.2804
 2724SOL    HW119808   1.162   4.632  14.365  0.3958  0.0369 -0.2393
 2724SOL    HW219809   1.053   4.569  14.422  0.0161  0.8056  0.3976
 2725SOL     OW19810   1.251   3.624   4.540  0.1466 -0.5942 -0.1883
 2725SOL    HW119811   1.263   3.611   4.634  0.6266 -1.5748 -0.3822
 2725SOL    HW219812   1.260   3.719   4.543 -3.1535 -0.3079  1.7627
 2726SOL     OW19813   1.460   3.542   9.362 -0.5043 -0.3898  0.5694
 2726SOL    HW119814   1.543   3.588   9.373  0.6498 -2.0146 -1.2987
 2726SOL    HW219815   1.405   3.583   9.429  1.7208  0.8373  1.6297
 2727SOL     OW19816   3.842   0.596  15.542  0.2303 -0.3116 -0.2068
 2727SOL    HW119817   3.789   0.523  15.509  1.5179 -0.1039 -2.6823
 2727SOL    HW219818   3.928   0.572  15.509 -0.4879 -1.1751 -1.4710
 2728SOL     OW19819   2.196   3.634   1.393  0.1949  0.1999 -0.4182
 2728SOL    HW119820   2.150   3.698   1.447 -2.1470 -0.5797 -1.4773
 2728SOL    HW219821   2.241   3.568   1.446 -1.2615 -1.1039 -0.7878
 2729SOL     OW19822   0.318   1.202   6.326 -0.8398  0.1453 -0.1506
 2729SOL    HW119823   0.313   1.286   6.281 -0.7738 -1.0511 -2.3834
 2729SOL    HW219824   0.226   1.181   6.317 -0.9360 -0.1615  1.5285
 2730SOL     OW19825   3.908   3.477   2.340  0.1899 -1.0550  0.0561
 2730SOL    HW119826   3.986   3.439   2.300  0.8088  0.1211  0.1354
 2730SOL    HW219827   3.918   3.444   2.429  0.9026  1.6956  1.0091
 2731SOL     OW19828   2.740   4.664   5.535  0.2616 -0.0790  0.1155
 2731SOL    HW119829   2.797   4.662   5.612  0.0263  0.1674  0.2941
 2731SOL    HW219830   2.665   4.612   5.561  0.4220 -0.1554  0.4294
 2732SOL     OW19831   2.723   4.547   5.037 -0.7142  0.4043  0.5035
 2732SOL    HW119832   2.776   4.585   5.107 -0.2330  0.5178  0.0837
 2732SOL    HW219833   2.680   4.476   5.085 -1.5691  0.3761 -0.2982
 2733SOL     OW19834   3.654   0.258  14.052  0.2474 -0.3612  0.0522
 2733SOL    HW119835   3.748   0.249  14.036 -0.0106 -0.4693 -1.4102
 2733SOL    HW219836   3.648   0.287  14.143  1.1540  2.4816 -0.7844
 2734SOL     OW19837   3.021   4.108   0.087  0.0641  0.3069  0.5150
 2734SOL    HW119838   3.007   4.027   0.137 -2.7451 -0.3930 -1.3825
 2734SOL    HW219839   3.102   4.142   0.123 -0.0151  1.7489 -0.7013
 2735SOL     OW19840   2.786   2.527   6.001 -0.2721 -0.0612 -0.3199
 2735SOL    HW119841   2.784   2.567   6.088 -3.2559  0.0368 -0.4362
 2735SOL    HW219842   2.743   2.598   5.955 -0.1845 -1.5076 -2.6341
 2736SOL     OW19843   1.895   1.157   3.537 -0.2698 -0.2510 -0.4637
 2736SOL    HW119844   1.982   1.191   3.557 -0.0308  0.1929 -2.2706
 2736SOL    HW219845   1.878   1.194   3.451  0.8993  1.0645 -0.1175
 2737SOL     OW19846   0.953   4.405   9.609 -0.3714 -0.3487 -0.1740
 2737SOL    HW119847   0.990   4.407   9.521 -2.2141 -1.6030 -0.9841
 2737SOL    HW219848   0.923   4.314   9.613 -1.6581 -0.0359 -2.5566
 2738SOL     OW19849   1.316   4.061   3.205 -0.4089 -0.3102 -0.1070
 2738SOL    HW119850   1.240   4.015   3.169 -0.3401 -1.4364  1.1689
 2738SOL    HW219851   1.392   4.039   3.151 -3.0062  0.3293 -3.9922
 2739SOL     OW19852   4.155   0.979   6.938  0.0637 -0.2902 -0.7777
 2739SOL    HW119853   4.218   0.909   6.923 -1.9714 -1.8956 -1.8282
 2739SOL    HW219854   4.086   0.965   6.873 -1.1677 -1.1057  0.6896
 2740SOL     OW19855   2.975   2.466  14.769 -0.6474 -0.1932  0.1454
 2740SOL    HW119856   2.908   2.397  14.766  3.2266 -3.9413 -0.8325
 2740SOL    HW219857   3.033   2.459  14.692  1.0895  2.3712  1.2415
 2741SOL     OW19858   3.707   2.225   4.729  0.2875 -0.0850 -0.1726
 2741SOL    HW119859   3.780   2.271   4.688 -0.9647  1.4788 -0.6722
 2741SOL    HW219860   3.746   2.193   4.811 -0.1289  1.4211  0.6174
 2742SOL     OW19861   0.156   1.794   2.636  0.0794  0.0199 -0.0084
 2742SOL    HW119862   0.145   1.861   2.569 -2.2204  0.3278  0.6697
 2742SOL    HW219863   0.110   1.725   2.587  1.0144 -2.6749  2.8810
 2743SOL     OW19864   0.607   1.238  12.044  0.3586 -0.5399  0.1588
 2743SOL    HW119865   0.645   1.306  12.100 -1.4883 -0.6151  1.4764
 2743SOL    HW219866   0.680   1.176  12.046  0.8096 -0.0177 -0.0952
 2744SOL     OW19867   0.994   3.860   5.773 -0.5669 -0.2534  0.2648
 2744SOL    HW119868   0.986   3.955   5.782  0.2156 -0.2462  0.8386
 2744SOL    HW219869   1.016   3.837   5.863  0.6814  0.4642  0.1476
 2745SOL     OW19870   4.048   4.640  10.942  0.3814  0.1340  0.0666
 2745SOL    HW119871   4.047   4.636  10.846  2.7997  0.9788  0.0314
 2745SOL    HW219872   3.974   4.584  10.965 -0.8352  0.8367 -2.0706
 2746SOL     OW19873   3.301   3.952   3.713  0.3857 -0.3772 -0.1951
 2746SOL    HW119874   3.311   3.883   3.647 -0.7306 -0.2039 -0.5318
 2746SOL    HW219875   3.209   3.943   3.738  0.1561  1.2266 -0.4900
 2747SOL     OW19876   2.893   3.771  11.525 -0.3529 -0.4093  0.0528
 2747SOL    HW119877   2.958   3.779  11.456 -1.6163 -1.1145 -1.2181
 2747SOL    HW219878   2.844   3.696  11.491  0.6293 -1.2587  0.5025
 2748SOL     OW19879   2.375   2.267   8.041 -0.1842 -0.1347  0.1755
 2748SOL    HW119880   2.431   2.342   8.022  1.5042 -2.0552 -2.4947
 2748SOL    HW219881   2.311   2.305   8.102  1.1103  1.0349  0.8065
 2749SOL     OW19882   2.857   0.253   8.770  0.0384  0.1990 -0.1435
 2749SOL    HW119883   2.837   0.279   8.681  0.5068 -0.5097 -0.4548
 2749SOL    HW219884   2.941   0.209   8.757 -0.4674 -0.7139 -0.3404
 2750SOL     OW19885   2.747   2.429   2.996 -0.0458 -0.0573 -0.3843
 2750SOL    HW119886   2.838   2.404   2.976  0.6218  1.5899  0.6406
 2750SOL    HW219887   2.746   2.389   3.082  0.9770  1.6143  0.3938
 2751SOL     OW19888   3.162   0.100   6.859  0.1356  0.1376  0.6589
 2751SOL    HW119889   3.086   0.042   6.850 -1.0301  1.6178  1.0330
 2751SOL    HW219890   3.233   0.044   6.890 -0.0845 -0.6536 -0.2431
 2752SOL     OW19891   2.089   4.035   8.029 -0.1796  0.1483 -0.3567
 2752SOL    HW119892   2.109   4.118   7.986  0.7287 -0.5687 -1.3098
 2752SOL    HW219893   2.096   3.971   7.958  1.2940 -1.5154  1.2900
 2753SOL     OW19894   3.804   0.605   3.973  0.0217  0.3934  0.6369
 2753SOL    HW119895   3.841   0.691   3.993 -0.3764  1.2512 -2.3411
 2753SOL    HW219896   3.796   0.573   4.063  2.6752 -0.8512  0.4255
 2754SOL     OW19897   4.264   2.160   5.001 -0.2723  0.6623 -0.3492
 2754SOL    HW119898   4.272   2.077   4.953  1.4945  1.4934 -1.5160
 2754SOL    HW219899   4.229   2.134   5.086 -0.8897 -1.3121 -1.1932
 2755SOL     OW19900   0.787   0.174   1.365 -0.6077 -0.1202 -0.5850
 2755SOL    HW119901   0.790   0.218   1.280  0.6925  0.8162 -0.0561
 2755SOL    HW219902   0.781   0.085   1.331 -2.3274 -0.3862  0.4673
 2756SOL     OW19903   3.523   1.622   2.569  0.1923  0.0096  0.6301
 2756SOL    HW119904   3.617   1.608   2.573 -0.0720 -2.3233 -1.5340
 2756SOL    HW219905   3.495   1.555   2.631 -2.1762  0.6655  0.2858
 2757SOL     OW19906   0.057   3.504  10.399 -0.3794  0.2311  0.5633
 2757SOL    HW119907   0.126   3.568  10.380 -0.8742  1.1082  1.7216
 2757SOL    HW219908   0.025   3.544  10.480 -1.3532 -0.7851  0.6806
 2758SOL     OW19909   4.095   2.822  14.911  0.4577 -0.2552 -0.1222
 2758SOL    HW119910   4.023   2.864  14.958  0.3328  0.2152 -0.7353
 2758SOL    HW219911   4.155   2.814  14.985  0.5237  1.2024 -0.0172
 2759SOL     OW19912   1.052   4.326   6.604 -0.7148  0.1495  0.2312
 2759SOL    HW119913   1.069   4.235   6.630  2.0319  1.1153  1.7611
 2759SOL    HW219914   1.057   4.314   6.509 -4.4583 -2.4798  0.3725
 2760SOL     OW19915   2.015   1.904   1.360  0.0453  0.1688  0.0363
 2760SOL    HW119916   2.069   1.983   1.365 -0.7535  0.5747  2.2843
 2760SOL    HW219917   2.048   1.869   1.278 -1.5483  1.7540 -1.2924
 2761SOL     OW19918   0.508   2.703   6.007  0.1192  0.4057  0.6201
 2761SOL    HW119919   0.557   2.635   6.055 -0.8708 -1.5592 -1.1798
 2761SOL    HW219920   0.532   2.684   5.917 -1.7746 -0.0345  0.2152
 2762SOL     OW19921   3.096   2.481   4.638 -0.0932  0.1289 -0.2487
 2762SOL    HW119922   3.026   2.457   4.699  0.9509  0.0279  0.9111
 2762SOL    HW219923   3.166   2.495   4.702  0.1697  0.4849 -0.6095
 2763SOL     OW19924   3.018   0.499   9.053  0.4892  0.1328 -0.1035
 2763SOL    HW119925   2.990   0.496   9.145  0.5281 -0.9336 -0.1342
 2763SOL    HW219926   3.024   0.405   9.036  2.3414  0.0702  0.9301
 2764SOL     OW19927   2.022   3.513   7.709  0.0830  0.1041  0.3978
 2764SOL    HW119928   2.114   3.531   7.692 -0.2556  0.6062 -0.9039
 2764SOL    HW219929   2.018   3.553   7.796 -3.4934  2.2132 -0.7343
 2765SOL     OW19930   2.117   2.641   1.879  0.1841 -0.0918 -0.4815
 2765SOL    HW119931   2.076   2.721   1.846  1.0178 -0.1534 -1.6755
 2765SOL    HW219932   2.039   2.585   1.878 -0.3436  0.6359 -0.1667
 2766SOL     OW19933   1.434   2.540   6.696  0.4424 -0.2083  0.1934
 2766SOL    HW119934   1.490   2.469   6.729  1.3799 -0.3062 -1.6219
 2766SOL    HW219935   1.351   2.518   6.737  0.1697 -0.1433 -0.3265
 2767SOL     OW19936   4.642   3.855  16.019  0.2671 -0.3615 -0.6095
 2767SOL    HW119937   4.711   3.816  16.073  0.2360  0.9082  0.3452
 2767SOL    HW219938   4.589   3.879  16.095  0.6162  2.3821 -1.2390
 2768SOL     OW19939   1.315   0.509   7.762  1.0111 -0.4775  0.3997
 2768SOL    HW119940   1.390   0.496   7.703 -0.3376 -0.0918 -1.3818
 2768SOL    HW219941   1.245   0.464   7.715  0.8269 -1.0316  1.2043
 2769SOL     OW19942   0.469   3.317  17.541 -0.5938  0.8318 -0.5027
 2769SOL    HW119943   0.519   3.357  17.469  0.6795  0.4235  0.1718
 2769SOL    HW219944   0.491   3.386  17.603 -1.2182  1.0853 -0.5633
 2770SOL     OW19945   3.604   3.459  16.281 -0.4305 -0.5698  0.8381
 2770SOL    HW119946   3.623   3.516  16.207  1.8551 -1.9539  0.3627
 2770SOL    HW219947   3.606   3.523  16.353 -1.5136  2.0540 -1.4781
 2771SOL     OW19948   1.416   1.348   4.289  0.7472  0.5441 -0.3504
 2771SOL    HW119949   1.376   1.272   4.247  1.9755 -1.4259  2.0169
 2771SOL    HW219950   1.507   1.317   4.289  0.7699  0.6104 -0.3732
 2772SOL     OW19951   0.716   3.663   4.059 -0.0064  0.7972 -0.1721
 2772SOL    HW119952   0.768   3.618   4.125  0.1478  0.9840 -0.1678
 2772SOL    HW219953   0.669   3.597   4.008 -0.4014  1.2283 -0.3658
 2773SOL     OW19954   2.203   4.243   7.882  0.2492 -0.0813  0.8327
 2773SOL    HW119955   2.291   4.236   7.846 -0.0557  1.3820 -0.1887
 2773SOL    HW219956   2.219   4.275   7.971  2.7489  1.1377 -0.0559
 2774SOL     OW19957   4.616   0.308  13.892 -0.3685  0.3370 -0.0123
 2774SOL    HW119958   4.612   0.379  13.956 -0.6021  0.6199 -0.3478
 2774SOL    HW219959   4.611   0.231  13.949  0.7259  1.3624  1.4820
 2775SOL     OW19960   2.843   0.914   3.358  0.2669  0.2077 -0.4242
 2775SOL    HW119961   2.872   0.944   3.444  0.1524  1.2192 -0.7401
 2775SOL    HW219962   2.773   0.852   3.376  1.7857 -1.6815 -1.0657
 2776SOL     OW19963   4.476   4.171  12.723 -0.0337 -0.6011  0.5121
 2776SOL    HW119964   4.493   4.118  12.801  1.6573  1.2023  1.3706
 2776SOL    HW219965   4.526   4.251  12.740 -1.0791  0.0186  0.6769
 2777SOL     OW19966   0.700   1.600  12.873 -0.1259 -0.4604 -0.6478
 2777SOL    HW119967   0.692   1.665  12.803  1.1462  1.0682  0.6330
 2777SOL    HW219968   0.726   1.519  12.829  1.7865 -0.7742  1.1096
 2778SOL     OW19969   0.812   2.068  15.998 -0.2599 -0.1183  0.4214
 2778SOL    HW119970   0.814   2.044  15.905 -1.2921 -2.6123  1.0339
 2778SOL    HW219971   0.871   2.143  16.005 -1.5705  0.7670  2.0602
 2779SOL     OW19972   2.242   0.169  16.868  0.6991  0.8035  0.4908
 2779SOL    HW119973   2.289   0.235  16.817  0.8501  0.3576  0.0586
 2779SOL    HW219974   2.200   0.120  16.798  1.9735  2.1956 -1.2441
 2780SOL     OW19975   2.481   4.526  11.837 -0.2807 -0.0523 -0.1924
 2780SOL    HW119976   2.533   4.527  11.757 -1.0653 -2.2662 -0.7341
 2780SOL    HW219977   2.404   4.474  11.814  1.0806 -2.0342 -0.2086
 2781SOL     OW19978   1.427   1.870   7.344  0.1802 -0.1852  0.0850
 2781SOL    HW119979   1.414   1.782   7.310  1.0130 -0.1202 -0.4092
 2781SOL    HW219980   1.468   1.920   7.272 -2.2240  1.8927  0.1582
 2782SOL     OW19981   4.329   0.396  11.834  0.5968 -0.1305 -0.1105
 2782SOL    HW119982   4.297   0.481  11.864 -2.7276 -1.6692  0.5960
 2782SOL    HW219983   4.334   0.353  11.919 -3.6945  0.0741  0.2253
 2783SOL     OW19984   3.672   0.482   4.197  0.2320 -0.3756 -0.4920
 2783SOL    HW119985   3.630   0.567   4.184  0.1092 -0.3021  0.3632
 2783SOL    HW219986   3.665   0.481   4.292 -0.9101  3.7391 -0.5402
 2784SOL     OW19987   4.060   3.077   5.067 -0.1266 -0.0437  0.0974
 2784SOL    HW119988   4.030   3.007   5.125  0.5259  0.9086  1.5880
 2784SOL    HW219989   3.991   3.072   5.001 -1.5006  0.6004  1.4762
 2785SOL     OW19990   0.977   0.241   6.376  0.1127 -0.9779  0.5229
 2785SOL    HW119991   1.067   0.271   6.363  0.1113 -0.6645  1.2265
 2785SOL    HW219992   0.962   0.251   6.470  0.1365  1.9677  0.2311
 2786SOL     OW19993   4.471   1.287   6.321 -0.3871 -0.0081 -0.2918
 2786SOL    HW119994   4.524   1.364   6.337  0.4831 -0.5661 -0.4747
 2786SOL    HW219995   4.383   1.317   6.344 -0.5495  0.2004 -1.1859
 2787SOL     OW19996   0.796   0.963  16.904 -0.4294 -0.5316  0.0111
 2787SOL    HW119997   0.713   0.992  16.866  0.1457  0.7578 -0.2510
 2787SOL    HW219998   0.805   1.045  16.952  0.4546 -0.6125 -0.0146
 2788SOL     OW19999   2.870   4.584   9.539 -0.6094  0.3383 -0.1251
 2788SOL    HW120000   2.923   4.505   9.552 -1.4921  0.0694  1.7324
 2788SOL    HW220001   2.811   4.560   9.467 -1.3439  4.6096 -0.9616
 2789SOL     OW20002   2.252   4.354  15.750  0.4606  0.1647 -0.0655
 2789SOL    HW120003   2.215   4.435  15.785 -2.3624 -1.3066  0.3592
 2789SOL    HW220004   2.346   4.372  15.752  0.2859  1.3351 -3.0621
 2790SOL     OW20005   3.920   1.287  10.993  0.3171 -0.3254 -0.0241
 2790SOL    HW120006   3.986   1.319  11.054 -0.2003  1.0081 -0.1489
 2790SOL    HW220007   3.931   1.344  10.916  1.5431 -1.1293 -0.4393
 2791SOL     OW20008   0.870   1.715  15.720 -0.0615 -0.0148 -0.5710
 2791SOL    HW120009   0.836   1.657  15.652 -0.2999  1.5799 -1.8200
 2791SOL    HW220010   0.942   1.659  15.748  0.4709  0.2176 -1.4559
 2792SOL     OW20011   3.572   1.537   8.062  0.3687  0.0599 -0.5133
 2792SOL    HW120012   3.568   1.563   7.970  0.2317  0.3052 -0.4380
 2792SOL    HW220013   3.499   1.590   8.092  0.4900  0.7259 -1.4012
 2793SOL     OW20014   2.852   4.150   7.817 -0.2302  0.2456 -0.1032
 2793SOL    HW120015   2.901   4.193   7.748 -0.4216 -0.6847 -0.8158
 2793SOL    HW220016   2.773   4.126   7.768 -0.3470 -1.3297  0.8372
 2794SOL     OW20017   2.323   0.150   6.960  0.5585  0.2040 -0.1913
 2794SOL    HW120018   2.238   0.193   6.969  0.2263 -0.3692 -0.5581
 2794SOL    HW220019   2.339   0.145   6.866  1.2282 -1.1312 -0.0003
 2795SOL     OW20020   2.835   4.587   6.244 -0.0805 -0.0383  0.3551
 2795SOL    HW120021   2.800   4.601   6.333  1.3568  0.3915  0.8538
 2795SOL    HW220022   2.876   4.672   6.228  1.4815 -1.0227 -0.7627
 2796SOL     OW20023   3.448   3.371  15.698 -0.1334 -1.2314 -0.3846
 2796SOL    HW120024   3.523   3.362  15.639 -0.3606  1.0803 -1.0186
 2796SOL    HW220025   3.409   3.457  15.686 -0.2265 -1.2773 -0.4088
 2797SOL     OW20026   3.444   0.116  17.355 -0.2617 -0.0303  0.1092
 2797SOL    HW120027   3.350   0.134  17.351 -0.5718 -1.3366  1.2293
 2797SOL    HW220028   3.447   0.061  17.276  2.3121  1.3967 -0.7844
 2798SOL     OW20029   4.533   4.131  12.465  0.0268 -0.2527 -0.8479
 2798SOL    HW120030   4.559   4.041  12.484  0.1024  0.0637  0.5329
 2798SOL    HW220031   4.508   4.161  12.552 -2.6196 -1.8080 -1.0620
 2799SOL     OW20032   2.427   3.944   7.428  0.3692 -0.5270  1.0356
 2799SOL    HW120033   2.514   3.908   7.412 -0.1327 -2.0749  1.8061
 2799SOL    HW220034   2.419   3.999   7.350 -0.6218 -2.3941 -0.1682
 2800SOL     OW20035   3.060   0.642  13.436  0.3023  0.0777 -0.2483
 2800SOL    HW120036   3.007   0.715  13.469 -1.9136 -0.8101 -1.8042
 2800SOL    HW220037   3.110   0.686  13.367 -0.2230 -1.2969 -1.5308
 2801SOL     OW20038   1.469   0.186  12.192  0.0537  0.2495 -0.2478
 2801SOL    HW120039   1.521   0.128  12.248  1.2899  0.0428 -1.6073
 2801SOL    HW220040   1.454   0.263  12.247 -0.4387  0.2389 -0.3720
 2802SOL     OW20041   2.925   0.325  11.833  0.2229 -0.2467 -0.0753
 2802SOL    HW120042   2.895   0.318  11.743  2.8896 -1.5838 -0.8472
 2802SOL    HW220043   2.900   0.241  11.872  0.0466 -0.0377  0.2610
 2803SOL     OW20044   3.852   4.645  16.505  1.0262  0.2360  0.1198
 2803SOL    HW120045   3.868   4.717  16.566  0.9480  2.6791 -2.7450
 2803SOL    HW220046   3.911   4.675  16.435  0.1937 -1.4903 -1.3062
 2804SOL     OW20047   3.349   0.475   5.386 -0.7605  0.3264 -0.0873
 2804SOL    HW120048   3.349   0.384   5.415  1.9139 -0.2963 -1.9435
 2804SOL    HW220049   3.440   0.504   5.395 -0.2772 -0.8103 -1.1929
 2805SOL     OW20050   3.362   1.998  11.664  0.2383  0.0878 -0.4173
 2805SOL    HW120051   3.445   1.964  11.697 -0.1370 -0.5891 -0.1694
 2805SOL    HW220052   3.294   1.963  11.722 -1.3625  2.0142 -1.1354
 2806SOL     OW20053   2.000   1.760  14.532  0.0021 -0.0648 -0.4972
 2806SOL    HW120054   2.076   1.713  14.565  0.2407 -0.1061 -1.0977
 2806SOL    HW220055   1.964   1.800  14.611 -0.8830 -1.5660 -0.1266
 2807SOL     OW20056   2.496   3.867  12.140 -0.3278 -0.1959  0.0323
 2807SOL    HW120057   2.457   3.859  12.227  0.1944 -1.5399  0.1455
 2807SOL    HW220058   2.488   3.775  12.114 -1.1622 -1.0097  3.2350
 2808SOL     OW20059   1.352   3.996   5.841  0.1086 -0.2468  0.2992
 2808SOL    HW120060   1.268   4.041   5.831 -0.6147 -1.5286  0.6467
 2808SOL    HW220061   1.405   4.039   5.774  1.3659 -1.2284  0.6796
 2809SOL     OW20062   0.387   1.674   6.001  0.2268 -0.1365  0.2832
 2809SOL    HW120063   0.313   1.692   5.944 -0.1239 -1.1983  0.3900
 2809SOL    HW220064   0.407   1.755   6.048 -0.2955 -0.8512  1.7660
 2810SOL     OW20065   2.161   0.780   6.223  0.1574  0.3173  0.4167
 2810SOL    HW120066   2.108   0.842   6.173  0.5717  0.7226  0.4791
 2810SOL    HW220067   2.182   0.824   6.306 -1.8156 -0.0292  1.1110
 2811SOL     OW20068   3.588   4.675   7.856  0.4582  0.2474  0.1981
 2811SOL    HW120069   3.551   4.597   7.896  1.1785  1.3735  3.0393
 2811SOL    HW220070   3.656   4.634   7.802  0.3802 -0.7711  0.8926
 2812SOL     OW20071   2.430   4.253   3.207  0.0727  1.3144 -0.3173
 2812SOL    HW120072   2.516   4.213   3.218 -0.0487  0.6128 -1.9327
 2812SOL    HW220073   2.401   4.218   3.122 -0.4798  1.4711 -0.1972
 2813SOL     OW20074   0.085   2.046   7.411  0.1767  0.7632 -0.1660
 2813SOL    HW120075   0.125   2.128   7.441  0.0417  0.6742  0.2573
 2813SOL    HW220076   0.083   2.002   7.496 -1.2163  1.0838 -0.0318
 2814SOL     OW20077   1.136   1.828   7.431 -0.4556 -0.0883 -0.0657
 2814SOL    HW120078   1.210   1.841   7.373 -1.3636 -0.4477 -1.3085
 2814SOL    HW220079   1.176   1.858   7.512 -0.4389  1.8617 -0.7932
 2815SOL     OW20080   2.157   3.757  13.760 -0.5843 -0.0457  0.0127
 2815SOL    HW120081   2.075   3.782  13.716 -0.8351  0.1089  0.5658
 2815SOL    HW220082   2.118   3.759  13.847 -2.4465 -1.1307 -0.7885
 2816SOL     OW20083   0.588   1.292   6.162 -0.1938 -0.3353  0.6578
 2816SOL    HW120084   0.518   1.308   6.100 -0.1944  0.0653  0.7652
 2816SOL    HW220085   0.655   1.350   6.126 -0.1259 -0.7125  0.1707
 2817SOL     OW20086   1.467   3.064  11.315 -0.0874  0.2422  0.1742
 2817SOL    HW120087   1.530   2.993  11.328 -1.0180  0.0582  3.6905
 2817SOL    HW220088   1.402   3.040  11.382 -0.0703  1.4488  0.6125
 2818SOL     OW20089   4.678   2.229   0.932 -0.4363  0.2009  0.4035
 2818SOL    HW120090   0.029   2.220   0.965 -1.0843 -4.1020  0.8951
 2818SOL    HW220091   4.673   2.324   0.941  0.6036  0.2191  0.8164
 2819SOL     OW20092   1.072   4.093  13.461  0.3298  0.0205  0.8454
 2819SOL    HW120093   1.121   4.174  13.449  0.6641 -0.0833  1.5439
 2819SOL    HW220094   1.114   4.040  13.528 -0.5097  0.0008  1.3430
 2820SOL     OW20095   4.322   2.603   9.200  0.2028  0.0027  0.0434
 2820SOL    HW120096   4.285   2.518   9.224  0.8282 -0.2501  0.0957
 2820SOL    HW220097   4.243   2.656   9.190  1.1854  1.7139  1.4447
 2821SOL     OW20098   4.334   4.119   5.423 -0.1896 -0.3046 -0.5254
 2821SOL    HW120099   4.386   4.039   5.429 -1.0126 -0.7839  0.2837
 2821SOL    HW220100   4.383   4.170   5.358  1.9503 -0.0730  1.2784
 2822SOL     OW20101   3.575   2.339  16.640  0.1722 -0.1876 -0.0065
 2822SOL    HW120102   3.654   2.392  16.627 -0.4414  1.5073  3.2895
 2822SOL    HW220103   3.508   2.406  16.624  0.5413 -0.4215 -2.5445
 2823SOL     OW20104   3.995   0.933   6.724 -0.3798  0.1453 -0.1882
 2823SOL    HW120105   4.050   0.965   6.652 -1.4170  0.3819 -0.8687
 2823SOL    HW220106   3.939   0.870   6.679  0.9335 -0.5291 -0.8925
 2824SOL     OW20107   1.048   4.251   4.123  0.0498 -0.1910  0.4267
 2824SOL    HW120108   1.131   4.215   4.091 -0.2082 -0.8066  0.4570
 2824SOL    HW220109   1.009   4.295   4.047 -1.0309 -1.0304  0.5024
 2825SOL     OW20110   3.579   4.298   3.434  0.1100  0.2816 -0.4018
 2825SOL    HW120111   3.597   4.215   3.391 -1.4597  0.4339 -1.3590
 2825SOL    HW220112   3.528   4.269   3.509 -1.4976  2.2707 -0.7336
 2826SOL     OW20113   0.713   2.858  17.662 -0.3259  0.3400  0.3005
 2826SOL    HW120114   0.808   2.845  17.674  0.0777  1.1914 -1.9611
 2826SOL    HW220115   0.683   2.838  17.750 -2.7162  1.3836 -0.3003
 2827SOL     OW20116   2.913   1.656   8.222 -0.7492  0.2694 -0.0222
 2827SOL    HW120117   2.978   1.642   8.291 -1.6794 -1.0293  0.5998
 2827SOL    HW220118   2.851   1.586   8.243  1.2702 -0.8714  2.1343
 2828SOL     OW20119   1.308   3.336   2.237  0.5229 -0.1369 -0.7418
 2828SOL    HW120120   1.348   3.417   2.270 -0.0991 -0.0564 -0.1820
 2828SOL    HW220121   1.238   3.337   2.302 -1.0664 -1.0661 -2.4306
 2829SOL     OW20122   3.528   1.939   8.023  0.4765  0.0571  0.2574
 2829SOL    HW120123   3.621   1.951   8.005  1.0393 -1.0370  2.4914
 2829SOL    HW220124   3.526   1.978   8.110 -2.8476  0.4023  0.0233
 2830SOL     OW20125   3.069   2.191  13.649 -0.2879  0.1293 -0.2227
 2830SOL    HW120126   3.094   2.203  13.558  0.9771  3.5845  0.5651
 2830SOL    HW220127   2.987   2.238  13.662  0.7548  1.4070  1.8849
 2831SOL     OW20128   4.118   1.237   3.390  0.1485  0.1023  0.3505
 2831SOL    HW120129   4.157   1.151   3.368  0.1920 -0.3418  2.2151
 2831SOL    HW220130   4.045   1.200   3.440 -1.1883 -0.9329 -2.3375
 2832SOL     OW20131   3.376   2.522   8.334 -0.5054 -0.4487 -0.6895
 2832SOL    HW120132   3.451   2.463   8.335 -1.0776 -1.1792 -2.1094
 2832SOL    HW220133   3.306   2.462   8.309  0.1111 -1.3064 -0.3565
 2833SOL     OW20134   0.006   3.529   2.535 -1.1575 -0.6455  0.2618
 2833SOL    HW120135   0.021   3.507   2.627  0.9166 -1.2701 -0.2238
 2833SOL    HW220136   4.700   3.614   2.540 -1.8553 -1.0071  0.2610
 2834SOL     OW20137   3.027   1.500   8.010  0.1280  0.0989  0.1933
 2834SOL    HW120138   2.984   1.572   8.056  0.3897 -0.6493  1.6121
 2834SOL    HW220139   3.061   1.446   8.081 -1.3961 -1.0682  0.0320
 2835SOL     OW20140   4.418   2.811  12.639 -0.5623  0.0459  0.3837
 2835SOL    HW120141   4.490   2.751  12.618  1.3861  2.7544 -0.6030
 2835SOL    HW220142   4.446   2.846  12.724 -1.3510 -1.2837  1.1920
 2836SOL     OW20143   0.826   3.679   9.479  0.0587 -0.2365  0.4406
 2836SOL    HW120144   0.898   3.660   9.420 -0.8077  0.2870 -0.7865
 2836SOL    HW220145   0.844   3.624   9.556  2.1430 -0.0935  0.0333
 2837SOL     OW20146   4.531   3.209   5.605 -0.2614 -0.1575 -0.4887
 2837SOL    HW120147   4.470   3.192   5.534  1.5072 -1.1722 -1.7942
 2837SOL    HW220148   4.613   3.196   5.556 -0.1738  3.1469 -1.1867
 2838SOL     OW20149   3.639   0.763   1.201 -0.4907  0.4281  0.1609
 2838SOL    HW120150   3.617   0.723   1.118  0.6571  0.7078 -0.2811
 2838SOL    HW220151   3.558   0.780   1.248 -0.5748 -0.9075  0.5063
 2839SOL     OW20152   3.027   0.888   6.988 -0.1831 -0.2023  0.0088
 2839SOL    HW120153   3.082   0.887   6.910 -2.2276 -0.8311 -1.4219
 2839SOL    HW220154   3.088   0.875   7.061 -1.4488 -2.2502  0.6846
 2840SOL     OW20155   3.016   2.065   2.032 -0.7182  0.1246 -0.4994
 2840SOL    HW120156   2.970   1.983   2.051 -0.0665 -0.3130 -0.8215
 2840SOL    HW220157   3.089   2.053   2.093 -0.6806  2.6323 -0.0425
 2841SOL     OW20158   4.634   0.410   4.179 -0.1830 -0.6276 -0.3878
 2841SOL    HW120159   4.597   0.485   4.133 -0.2957  0.2298  1.1315
 2841SOL    HW220160   4.644   0.456   4.262 -2.0967 -1.0795  0.0905
 2842SOL     OW20161   1.255   3.646   9.552 -0.1923  0.2084 -0.8094
 2842SOL    HW120162   1.272   3.616   9.641 -1.3843  0.6566 -0.4335
 2842SOL    HW220163   1.230   3.737   9.567 -1.0425 -0.2634  0.6104
 2843SOL     OW20164   3.728   4.108   9.162  0.3116 -0.3297  0.4115
 2843SOL    HW120165   3.672   4.103   9.239 -0.5630  2.8374 -0.0209
 2843SOL    HW220166   3.671   4.171   9.120  0.5058 -0.9601 -0.7879
 2844SOL     OW20167   3.724   2.227   1.169  0.1820  0.0265  0.1441
 2844SOL    HW120168   3.763   2.140   1.164  0.0838  0.0587 -1.0085
 2844SOL    HW220169   3.781   2.265   1.236  1.3574 -0.7271 -0.4205
 2845SOL     OW20170   0.357   2.676   5.379  0.1496  0.1503  0.3139
 2845SOL    HW120171   0.299   2.623   5.435  1.9906 -0.8261  1.3006
 2845SOL    HW220172   0.367   2.634   5.294 -0.1878  0.5339  0.0866
 2846SOL     OW20173   1.021   3.141   2.274 -0.2605  0.3125  0.3859
 2846SOL    HW120174   0.930   3.153   2.301  0.4173  1.2641  2.2811
 2846SOL    HW220175   1.011   3.110   2.185 -2.9149 -1.5203  1.3587
 2847SOL     OW20176   2.890   2.823  15.504 -0.0423  0.0937 -0.2418
 2847SOL    HW120177   2.967   2.868  15.539 -0.1638 -0.9614  1.3532
 2847SOL    HW220178   2.830   2.897  15.509 -0.6961 -0.5324  1.0922
 2848SOL     OW20179   3.769   2.963  12.550 -0.2611  0.4628  0.0627
 2848SOL    HW120180   3.737   2.902  12.616  1.0043  1.0996  1.2877
 2848SOL    HW220181   3.705   3.034  12.557 -0.9878 -0.2549  0.6571
 2849SOL     OW20182   0.644   2.397  11.159  0.1800 -0.0092  0.0497
 2849SOL    HW120183   0.561   2.375  11.202  0.0335  0.6509  0.0976
 2849SOL    HW220184   0.620   2.480  11.119  2.1380  1.2070  1.4158
 2850SOL     OW20185   4.356   2.745   1.865 -0.2268  0.3648  0.3685
 2850SOL    HW120186   4.346   2.662   1.819 -2.4426  1.8561 -1.8036
 2850SOL    HW220187   4.447   2.753   1.896  0.4622  1.9859 -2.1026
 2851SOL     OW20188   4.617   3.231   8.206 -0.1220  0.4226  0.0125
 2851SOL    HW120189   4.639   3.148   8.165 -0.5030 -0.5678  1.8016
 2851SOL    HW220190   4.698   3.259   8.249 -0.3491  2.0720 -0.6271
 2852SOL     OW20191   2.191   3.090   6.621  0.1427  0.7973 -0.0473
 2852SOL    HW120192   2.169   3.175   6.584 -1.4393  0.7965  0.9063
 2852SOL    HW220193   2.250   3.119   6.691  0.4866  1.5193 -0.6503
 2853SOL     OW20194   1.984   3.146   3.682  0.0966  0.2398  0.5735
 2853SOL    HW120195   1.893   3.124   3.702 -0.1291  1.0129  0.3899
 2853SOL    HW220196   1.988   3.148   3.587 -1.5195  1.1682  0.5314
 2854SOL     OW20197   1.640   0.492  13.976  0.0146  0.0089  0.1010
 2854SOL    HW120198   1.625   0.471  13.884 -0.3591  0.1989  0.1166
 2854SOL    HW220199   1.605   0.579  13.993  2.1690  1.0257 -0.7311
 2855SOL     OW20200   0.921   4.632  14.519  0.4865 -0.3332 -0.0919
 2855SOL    HW120201   0.858   4.595  14.457 -0.6435 -0.4683  1.1374
 2855SOL    HW220202   0.871   4.618  14.599  2.4462 -2.2420  0.7733
 2856SOL     OW20203   1.297   0.418   4.753 -0.0131  0.0362 -0.6299
 2856SOL    HW120204   1.299   0.424   4.849  0.1174  2.9373 -0.8113
 2856SOL    HW220205   1.239   0.492   4.732  0.1421  0.4269  0.3253
 2857SOL     OW20206   0.223   2.097   3.506 -0.3066  0.8059 -0.1538
 2857SOL    HW120207   0.207   2.025   3.446  1.7056 -1.8299  2.4854
 2857SOL    HW220208   0.266   2.158   3.447 -1.7867 -0.0945 -2.1776
 2858SOL     OW20209   2.458   3.089  17.461  0.4996 -0.3200  0.0363
 2858SOL    HW120210   2.454   3.153  17.391 -1.4443 -1.7914 -1.1862
 2858SOL    HW220211   2.545   3.055  17.438  1.2141  0.6154  1.3032
 2859SOL     OW20212   2.938   0.096   1.878 -0.0724 -0.1129 -0.0222
 2859SOL    HW120213   2.960   0.187   1.858 -1.4701 -0.0862 -1.3852
 2859SOL    HW220214   2.854   0.089   1.833  1.4252  0.3061 -2.9243
 2860SOL     OW20215   0.351   2.718  11.414  0.8952  0.2610 -0.3299
 2860SOL    HW120216   0.395   2.756  11.338 -0.5459  1.7530 -0.4270
 2860SOL    HW220217   0.264   2.707  11.375  0.0209  1.6672  1.1771
 2861SOL     OW20218   0.425   1.982   3.744  0.1722 -0.0424  0.0964
 2861SOL    HW120219   0.459   2.050   3.802 -2.3070  0.5985  0.7809
 2861SOL    HW220220   0.363   2.027   3.687  1.1831  0.0918 -0.9081
 2862SOL     OW20221   2.802   3.565   7.474 -0.1182 -0.2444  0.5507
 2862SOL    HW120222   2.776   3.649   7.513 -1.0945 -0.4069  0.2530
 2862SOL    HW220223   2.796   3.597   7.384  4.1315  0.4157  0.5191
 2863SOL     OW20224   4.314   3.625  15.259  0.0204 -0.6361 -0.5889
 2863SOL    HW120225   4.223   3.653  15.255 -0.1197 -0.7164  2.1334
 2863SOL    HW220226   4.351   3.687  15.321 -1.5151  0.7595 -1.0930
 2864SOL     OW20227   1.757   0.591   5.783 -0.7416 -0.4881  0.3320
 2864SOL    HW120228   1.843   0.554   5.766 -0.6106 -1.0365  2.1509
 2864SOL    HW220229   1.728   0.632   5.702  1.0055  2.3732  1.1680
 2865SOL     OW20230   0.671   4.161  17.011  0.0191  0.4080  0.1683
 2865SOL    HW120231   0.624   4.208  16.943  0.2885  1.2371  0.5469
 2865SOL    HW220232   0.761   4.160  16.978 -0.0397 -1.9951  0.0932
 2866SOL     OW20233   0.715   1.771   6.626  0.3235 -0.0787  0.2127
 2866SOL    HW120234   0.651   1.839   6.648  0.2562  0.1991 -0.8379
 2866SOL    HW220235   0.779   1.831   6.587 -1.9410  1.4032 -1.2846
 2867SOL     OW20236   1.101   3.113  11.062  0.0069 -0.3961  0.3927
 2867SOL    HW120237   1.143   3.097  11.146 -1.3696  3.8004  1.8614
 2867SOL    HW220238   1.162   3.065  11.006 -1.6547 -2.8049  0.6380
 2868SOL     OW20239   1.717   3.467   1.618 -0.9806 -0.8045 -0.5011
 2868SOL    HW120240   1.771   3.528   1.567 -0.4095 -1.5702 -0.8083
 2868SOL    HW220241   1.683   3.412   1.547  1.1054 -1.8277 -0.7018
 2869SOL     OW20242   1.533   3.699   4.273 -0.3448  0.2815 -0.7374
 2869SOL    HW120243   1.616   3.660   4.246 -1.6997 -1.4596 -2.4206
 2869SOL    HW220244   1.467   3.651   4.223  0.1497 -2.7050  1.5275
 2870SOL     OW20245   0.417   2.758   9.955  0.1616  0.7450 -0.5511
 2870SOL    HW120246   0.509   2.739   9.975 -0.0797  1.4251  1.2900
 2870SOL    HW220247   0.402   2.699   9.882 -1.0112 -0.3414  0.5559
 2871SOL     OW20248   2.336   3.564  14.623  0.1385 -0.4592  0.4497
 2871SOL    HW120249   2.329   3.585  14.529 -0.1157 -2.2304  0.0845
 2871SOL    HW220250   2.251   3.524  14.639 -1.1858  2.3669  0.6379
 2872SOL     OW20251   0.424   0.288   3.659  0.4430  0.3303 -0.0212
 2872SOL    HW120252   0.473   0.233   3.720  0.9797 -0.3904 -1.0973
 2872SOL    HW220253   0.425   0.368   3.711  2.9109 -0.1002  0.6030
 2873SOL     OW20254   2.491   2.005   8.492 -0.1586 -0.4197  0.1261
 2873SOL    HW120255   2.468   2.021   8.584 -2.5076 -1.8037 -0.1934
 2873SOL    HW220256   2.577   2.043   8.506 -0.8178  1.1430 -0.1378
 2874SOL     OW20257   1.929   4.299   1.662  0.8326  0.6064  0.0181
 2874SOL    HW120258   2.017   4.296   1.700  0.1353 -1.1568  1.4980
 2874SOL    HW220259   1.936   4.319   1.568 -1.2801  0.5116 -0.1596
 2875SOL     OW20260   4.153   1.522   6.078 -0.0090  0.2111  0.1857
 2875SOL    HW120261   4.192   1.598   6.121 -0.4599  0.2433  0.5407
 2875SOL    HW220262   4.088   1.496   6.143 -0.8495 -0.9545 -1.1243
 2876SOL     OW20263   4.388   0.421   3.536 -0.5196 -0.3355  0.1562
 2876SOL    HW120264   4.476   0.442   3.566  0.1915 -1.4867 -1.1777
 2876SOL    HW220265   4.409   0.370   3.458  1.9167  1.1165 -0.1395
 2877SOL     OW20266   2.878   1.972   2.816  0.7510  0.5912  0.0777
 2877SOL    HW120267   2.787   1.947   2.803  0.8376 -0.8998  2.3083
 2877SOL    HW220268   2.913   1.888   2.844 -0.1134 -0.3321 -1.6881
 2878SOL     OW20269   2.667   1.576   6.517 -0.3408  0.5154  0.4031
 2878SOL    HW120270   2.683   1.483   6.501 -1.3712  0.2067  1.1797
 2878SOL    HW220271   2.585   1.584   6.470 -0.8208 -0.5564  1.0574
 2879SOL     OW20272   1.247   4.317  16.976 -0.3278  0.4442 -0.3671
 2879SOL    HW120273   1.242   4.399  17.025  1.3191  0.0268  0.5143
 2879SOL    HW220274   1.325   4.279  17.016 -0.4399 -0.0718 -0.6460
 2880SOL     OW20275   0.516   2.913   3.794 -0.1835 -0.8944 -0.2091
 2880SOL    HW120276   0.507   2.979   3.863  1.9769  1.5035 -2.2393
 2880SOL    HW220277   0.502   2.964   3.714 -0.2736 -2.4714 -1.1956
 2881SOL     OW20278   1.626   4.612  11.483 -0.5425 -0.5451 -0.1513
 2881SOL    HW120279   1.662   4.695  11.512  1.7132 -1.1091 -1.3766
 2881SOL    HW220280   1.647   4.561  11.561 -0.3111 -0.9055 -0.4478
 2882SOL     OW20281   3.572   0.905   9.370  1.2482 -0.9231 -0.3584
 2882SOL    HW120282   3.646   0.849   9.346  2.6608  0.3772  0.9748
 2882SOL    HW220283   3.578   0.915   9.465 -1.2481  0.4603 -0.3601
 2883SOL     OW20284   1.553   2.778  11.256  0.7401  0.6236  0.1179
 2883SOL    HW120285   1.500   2.702  11.279 -0.6338  2.0507  1.7115
 2883SOL    HW220286   1.601   2.742  11.181  0.6557 -0.3005  0.5060
 2884SOL     OW20287   0.168   1.546   1.964  0.1948  0.3292 -0.3785
 2884SOL    HW120288   0.200   1.481   1.902  1.8699 -0.3518  1.1959
 2884SOL    HW220289   0.078   1.518   1.978  0.1293  1.1296  0.7840
 2885SOL     OW20290   2.659   2.744   7.788  0.4377 -0.5879 -0.0654
 2885SOL    HW120291   2.708   2.824   7.769 -0.3710 -0.2196 -0.6010
 2885SOL    HW220292   2.600   2.775   7.857 -0.9965  2.1037 -2.5350
 2886SOL     OW20293   0.614   3.816   3.226 -0.2187 -0.2298 -0.2079
 2886SOL    HW120294   0.687   3.756   3.214  0.2774  1.2052 -4.3216
 2886SOL    HW220295   0.655   3.903   3.229 -1.6659  0.5062 -1.6668
 2887SOL     OW20296   0.760   1.785   5.759 -0.1868  0.1327  0.2282
 2887SOL    HW120297   0.691   1.786   5.694  0.3989 -0.7896 -0.4076
 2887SOL    HW220298   0.706   1.809   5.835  1.3097 -0.9249  1.6383
 2888SOL     OW20299   3.348   0.412  15.042  0.2980 -0.6163  0.4278
 2888SOL    HW120300   3.414   0.472  15.007 -2.0548  1.8521  0.1340
 2888SOL    HW220301   3.354   0.338  14.982  0.6543 -1.8241  1.9716
 2889SOL     OW20302   4.586   3.126   6.712 -0.1006  0.2639  0.2732
 2889SOL    HW120303   4.578   3.041   6.756  0.6356 -0.3171 -0.7093
 2889SOL    HW220304   4.679   3.148   6.710  0.1494 -0.7608  0.2937
 2890SOL     OW20305   2.783   2.650   0.352  0.7509  0.1900  0.3506
 2890SOL    HW120306   2.866   2.602   0.358  0.3573 -0.6102 -0.6187
 2890SOL    HW220307   2.797   2.708   0.278 -0.7532 -1.9021 -1.5569
 2891SOL     OW20308   2.019   1.540  15.852 -0.2059 -0.1931  0.4268
 2891SOL    HW120309   1.993   1.479  15.783  2.2405 -3.2444  2.1871
 2891SOL    HW220310   2.067   1.606  15.803 -1.6577  0.7502  0.2769
 2892SOL     OW20311   4.675   2.159   5.128 -0.1465  0.1624 -0.3182
 2892SOL    HW120312   0.017   2.117   5.098 -1.1222 -1.4423 -0.6947
 2892SOL    HW220313   4.657   2.106   5.206  0.8737  0.6868  0.2808
 2893SOL     OW20314   2.007   1.493   6.530  0.1604 -0.2963  0.6895
 2893SOL    HW120315   2.025   1.403   6.557  0.7486 -0.7763 -1.2380
 2893SOL    HW220316   2.094   1.532   6.525  0.0902 -0.2136  0.0937
 2894SOL     OW20317   3.113   4.323   3.688  0.1556  0.1165  0.8205
 2894SOL    HW120318   3.185   4.351   3.744  0.4769 -1.1699  1.0482
 2894SOL    HW220319   3.132   4.230   3.678  0.3005  0.3024 -0.5376
 2895SOL     OW20320   2.929   2.804   3.934 -0.8095  0.3168  0.1376
 2895SOL    HW120321   2.963   2.887   3.902 -1.2947  1.2154  2.0032
 2895SOL    HW220322   2.847   2.802   3.883 -0.6717 -1.4292 -0.0353
 2896SOL     OW20323   4.146   1.142  13.499 -0.1842  0.3896  0.1837
 2896SOL    HW120324   4.081   1.085  13.539 -0.9673  0.4390 -0.9954
 2896SOL    HW220325   4.173   1.196  13.573  0.5257  0.8543 -0.4029
 2897SOL     OW20326   4.290   3.060   6.045  0.0335  0.6307  0.2437
 2897SOL    HW120327   4.369   3.084   5.997 -0.9730  1.5096 -0.9668
 2897SOL    HW220328   4.264   2.978   6.002  0.5375  0.3547  0.4708
 2898SOL     OW20329   4.205   3.556   6.385 -0.1377  0.2582 -0.3944
 2898SOL    HW120330   4.255   3.495   6.331 -4.4267 -2.3720 -1.4522
 2898SOL    HW220331   4.122   3.508   6.389  0.1498 -0.2135  0.0300
 2899SOL     OW20332   2.838   1.476   9.521  0.0337  0.4696  0.0368
 2899SOL    HW120333   2.893   1.554   9.525  0.2498  0.2529  1.4255
 2899SOL    HW220334   2.900   1.404   9.513  0.6157  0.9613  0.1327
 2900SOL     OW20335   0.642   3.419   6.390  0.1607  0.2966 -0.2736
 2900SOL    HW120336   0.557   3.421   6.434  0.6287  0.4283  0.6180
 2900SOL    HW220337   0.708   3.441   6.455 -0.1956 -0.1563  0.2380
 2901SOL     OW20338   3.461   0.021   2.117  0.2630 -0.2526  0.1409
 2901SOL    HW120339   3.514   0.058   2.047  0.9368  0.0798  0.8321
 2901SOL    HW220340   3.432   4.674   2.085 -1.6550  1.3966 -2.5965
 2902SOL     OW20341   0.242   1.387   1.701 -0.3682 -0.1016  0.2033
 2902SOL    HW120342   0.316   1.444   1.680 -0.7550  0.1170 -0.6105
 2902SOL    HW220343   0.249   1.331   1.623  4.7251 -1.2508  1.5092
 2903SOL     OW20344   2.928   3.082   5.627  0.2485  0.3818 -0.7888
 2903SOL    HW120345   2.941   2.998   5.582  1.7381 -0.4107  1.0797
 2903SOL    HW220346   3.017   3.109   5.651  0.1571 -0.4193  0.4857
 2904SOL     OW20347   2.561   1.937   1.844  0.0409 -0.2798 -0.2665
 2904SOL    HW120348   2.581   1.890   1.925 -0.5738 -0.1093 -0.0155
 2904SOL    HW220349   2.469   1.909   1.836 -0.3803  0.8353  0.6350
 2905SOL     OW20350   3.741   2.816  17.733  0.5204  0.1129  0.5016
 2905SOL    HW120351   3.698   2.803  17.649 -1.3818 -2.3306  1.8432
 2905SOL    HW220352   3.786   2.897  17.711  1.7004 -0.5086  0.6016
 2906SOL     OW20353   4.555   4.070   0.822 -0.1897 -0.0604  0.3834
 2906SOL    HW120354   4.604   4.148   0.797 -3.4903  1.5347 -1.0471
 2906SOL    HW220355   4.600   3.999   0.775 -1.7879 -1.3345  0.7610
 2907SOL     OW20356   1.982   0.890   2.115  0.1966  0.1849 -0.0014
 2907SOL    HW120357   2.012   0.974   2.080 -1.1400  0.8129  0.3658
 2907SOL    HW220358   1.983   0.826   2.044 -1.0586 -0.7385  0.8275
 2908SOL     OW20359   3.913   0.170   5.905  0.1409  1.0158  0.3913
 2908SOL    HW120360   3.970   0.234   5.864 -0.8317  0.0892 -2.3578
 2908SOL    HW220361   3.927   0.102   5.839  2.3188  0.1383  1.7427
 2909SOL     OW20362   4.489   1.402  14.309 -0.2214 -0.4201  0.0540
 2909SOL    HW120363   4.490   1.496  14.328 -0.2448 -0.1050 -1.5240
 2909SOL    HW220364   4.397   1.386  14.330 -0.9148  0.8595 -1.9743
 2910SOL     OW20365   0.475   4.649   7.332  0.2688  0.6034  0.6442
 2910SOL    HW120366   0.450   4.651   7.424  1.8624  0.3204  1.0749
 2910SOL    HW220367   0.535   4.724   7.333  1.8518 -0.6806  1.3291
 2911SOL     OW20368   4.012   4.220   8.864  0.4748  0.4450 -0.1159
 2911SOL    HW120369   3.933   4.197   8.816 -0.5429  0.0667  1.7297
 2911SOL    HW220370   4.022   4.308   8.827  1.5221  0.3046 -0.1611
 2912SOL     OW20371   2.579   0.318   8.583 -0.1537 -0.0219 -0.1193
 2912SOL    HW120372   2.668   0.317   8.549  0.2359 -0.3255  0.9109
 2912SOL    HW220373   2.525   0.337   8.506  1.5512  0.3011 -1.2397
 2913SOL     OW20374   1.346   0.412   5.032  0.5891 -0.5328 -0.5032
 2913SOL    HW120375   1.321   0.396   5.123 -1.4590 -1.9535 -1.3159
 2913SOL    HW220376   1.426   0.462   5.046  1.2749 -1.5952 -0.6697
 2914SOL     OW20377   2.905   0.255   2.685  0.0714  0.7947 -0.2844
 2914SOL    HW120378   2.838   0.264   2.617  0.0137 -1.1722 -0.4800
 2914SOL    HW220379   2.869   0.311   2.753  0.1870  1.2890 -0.6299
 2915SOL     OW20380   2.301   3.881  11.932 -0.6074  0.4021  0.5177
 2915SOL    HW120381   2.313   3.834  12.015 -0.6366 -0.8431 -0.1887
 2915SOL    HW220382   2.269   3.970  11.940  0.8881  0.9031  0.9992
 2916SOL     OW20383   0.768   2.644   4.819  0.1737  0.3575  0.2532
 2916SOL    HW120384   0.798   2.641   4.728 -3.3276  0.3861 -0.8923
 2916SOL    HW220385   0.839   2.614   4.875 -0.9230 -0.8091  1.0276
 2917SOL     OW20386   2.819   0.282   1.185 -0.0030  0.7839  0.0964
 2917SOL    HW120387   2.798   0.313   1.097 -1.9645  1.4390  0.8060
 2917SOL    HW220388   2.912   0.276   1.164 -0.2942 -0.1807 -0.9341
 2918SOL     OW20389   1.669   0.846   7.240  0.2005 -0.2237 -0.1485
 2918SOL    HW120390   1.682   0.865   7.333 -0.3413  0.7499 -0.2640
 2918SOL    HW220391   1.728   0.915   7.210  2.4636 -0.9152  2.7077
 2919SOL     OW20392   0.367   0.576  12.481 -0.1573 -0.1179 -0.3272
 2919SOL    HW120393   0.285   0.555  12.437  0.1219 -2.4824  0.2511
 2919SOL    HW220394   0.333   0.587  12.570  0.8053 -3.2118  0.4473
 2920SOL     OW20395   0.879   1.874   2.638  0.3046  0.0286 -0.5372
 2920SOL    HW120396   0.838   1.959   2.629 -1.5782 -0.7044  1.3079
 2920SOL    HW220397   0.833   1.850   2.719 -1.2214  0.4510 -1.2902
 2921SOL     OW20398   3.247   2.337   4.829  0.1296  0.1994  0.5041
 2921SOL    HW120399   3.216   2.305   4.913  1.8652  0.0891  1.1086
 2921SOL    HW220400   3.263   2.430   4.846 -0.1406  0.3609 -0.1011
 2922SOL     OW20401   2.387   2.168   2.782 -0.2380 -0.3663 -0.0037
 2922SOL    HW120402   2.438   2.238   2.742 -1.6881  0.5848 -0.1942
 2922SOL    HW220403   2.358   2.214   2.860  0.2375  0.3390 -0.2399
 2923SOL     OW20404   2.472   4.280   2.444 -0.0592  0.3843 -0.1457
 2923SOL    HW120405   2.527   4.300   2.520 -1.3350  2.3274  0.2617
 2923SOL    HW220406   2.417   4.206   2.471 -0.8987  1.4609  1.1445
 2924SOL     OW20407   3.991   0.932  13.990  0.8069 -0.0262  0.4434
 2924SOL    HW120408   3.994   1.014  13.941 -0.7816 -1.4879 -2.0954
 2924SOL    HW220409   4.076   0.900  13.961 -0.2916 -2.0101 -0.5898
 2925SOL     OW20410   4.286   3.404   4.118  0.6707  0.1019  0.5145
 2925SOL    HW120411   4.230   3.329   4.140  0.5102 -0.0276 -0.3519
 2925SOL    HW220412   4.285   3.455   4.199 -1.7578 -1.3681  1.4392
 2926SOL     OW20413   0.784   1.080   3.194  0.3128  0.2597 -0.3607
 2926SOL    HW120414   0.815   1.149   3.253  0.2925  0.2501 -0.3387
 2926SOL    HW220415   0.853   1.014   3.185 -1.5929 -1.8220  0.3332
 2927SOL     OW20416   4.492   2.224   7.541  0.1164  0.0910 -0.6410
 2927SOL    HW120417   4.533   2.275   7.611 -1.6527 -1.0619  1.2527
 2927SOL    HW220418   4.398   2.234   7.558  0.8300  2.7188  1.8828
 2928SOL     OW20419   3.962   4.219  13.989  0.4648  0.3561 -0.2663
 2928SOL    HW120420   3.979   4.304  14.028 -1.1385 -0.6216  2.5739
 2928SOL    HW220421   3.867   4.221  13.973  0.5265 -0.0610 -0.6752
 2929SOL     OW20422   4.700   1.819   6.985  0.5122  0.1084 -0.0331
 2929SOL    HW120423   0.001   1.829   7.072 -0.8685 -1.8838  0.8400
 2929SOL    HW220424   4.702   1.723   6.975 -2.6056 -0.1705  2.0375
 2930SOL     OW20425   3.972   1.964   1.856 -0.6154  0.1113  0.3073
 2930SOL    HW120426   3.971   1.921   1.771  1.8515 -1.8607  1.2785
 2930SOL    HW220427   3.880   1.960   1.883 -0.3231 -0.2816  1.2269
 2931SOL     OW20428   1.118   1.585   3.758  0.1496  0.1008  0.0426
 2931SOL    HW120429   1.111   1.679   3.739  0.2976  0.0401 -0.3216
 2931SOL    HW220430   1.208   1.568   3.731  0.5726  1.8620  0.3234
 2932SOL     OW20431   1.939   2.230   9.186 -0.1799 -0.2502 -0.0681
 2932SOL    HW120432   1.932   2.180   9.104  1.5565 -1.4159  0.4863
 2932SOL    HW220433   1.993   2.172   9.240  0.4765  0.0792 -0.3756
 2933SOL     OW20434   3.364   0.186   5.789 -0.3228 -0.2037 -0.2223
 2933SOL    HW120435   3.455   0.170   5.812 -0.6675  2.0445  2.6496
 2933SOL    HW220436   3.320   0.113   5.832 -0.5942 -0.1820 -0.4581
 2934SOL     OW20437   0.992   0.719   8.550 -0.3710 -0.3525 -0.4983
 2934SOL    HW120438   1.004   0.691   8.641  1.7552 -0.8790 -0.9352
 2934SOL    HW220439   0.901   0.698   8.529 -1.1290  2.7094 -0.3153
 2935SOL     OW20440   3.349   3.021   3.593  0.0478 -0.3999 -0.1822
 2935SOL    HW120441   3.437   2.983   3.601 -0.4315 -1.8942 -1.9621
 2935SOL    HW220442   3.295   2.944   3.610 -0.7828  0.0390 -0.8392
 2936SOL     OW20443   1.908   1.242   3.285 -0.0716 -0.7271  0.3429
 2936SOL    HW120444   1.893   1.163   3.233 -1.8007 -0.4062  0.3431
 2936SOL    HW220445   1.837   1.290   3.242  1.6098  0.9604 -0.5394
 2937SOL     OW20446   1.230   1.354   1.161 -0.5620 -0.0785 -0.1452
 2937SOL    HW120447   1.314   1.394   1.136  0.0277 -1.3449 -0.2072
 2937SOL    HW220448   1.193   1.431   1.204  1.2004  0.8967 -0.3892
 2938SOL     OW20449   2.745   0.121   9.252 -0.2653  0.2431 -0.5002
 2938SOL    HW120450   2.684   0.165   9.192 -1.4523 -0.0005  0.5166
 2938SOL    HW220451   2.724   0.032   9.223 -1.7342  0.5644 -0.4488
 2939SOL     OW20452   3.982   0.702   5.864  0.1779  0.4842  0.3279
 2939SOL    HW120453   3.977   0.679   5.957  1.7875 -0.0044  0.2989
 2939SOL    HW220454   3.920   0.773   5.847 -0.2631 -0.3575 -1.6991
 2940SOL     OW20455   0.005   0.607   1.502  0.2901 -0.0620 -0.1878
 2940SOL    HW120456   4.672   0.645   1.450 -0.5196 -2.5683 -0.8778
 2940SOL    HW220457   0.039   0.542   1.441 -1.5607 -0.9983 -0.2502
 2941SOL     OW20458   1.388   1.822   7.794 -0.0746 -0.3956 -0.0654
 2941SOL    HW120459   1.427   1.862   7.872  1.0149  0.3732 -1.0031
 2941SOL    HW220460   1.331   1.760   7.840 -3.0493  1.4964 -1.1893
 2942SOL     OW20461   4.714   4.262   1.974 -0.4454 -0.1486 -0.3753
 2942SOL    HW120462   4.711   4.177   1.931 -2.1925 -0.9182  1.2332
 2942SOL    HW220463   0.014   4.319   1.908  3.2270 -0.7623  1.2560
 2943SOL     OW20464   1.589   2.385   7.045  0.0604  0.3192  0.1997
 2943SOL    HW120465   1.588   2.370   6.950  0.2133  0.6914  0.1389
 2943SOL    HW220466   1.597   2.296   7.078  2.2587  1.0483  1.6377
 2944SOL     OW20467   3.826   3.722   1.556 -0.2067  0.5460 -0.1606
 2944SOL    HW120468   3.751   3.680   1.599 -0.0833 -0.6641 -1.1424
 2944SOL    HW220469   3.848   3.649   1.499 -0.1018 -1.5720  2.6057
 2945SOL     OW20470   2.055   4.356   2.500 -0.3447  0.2410  0.6665
 2945SOL    HW120471   2.143   4.383   2.529 -0.9163  1.9258  0.8609
 2945SOL    HW220472   2.002   4.431   2.529 -1.8972 -0.5985 -0.0451
 2946SOL     OW20473   2.571   4.688   4.791  0.0799  0.2418 -0.0725
 2946SOL    HW120474   2.488   4.644   4.773 -0.7128  1.0007  1.7217
 2946SOL    HW220475   2.608   4.636   4.862 -2.0590 -0.7771  0.3020
 2947SOL     OW20476   3.487   0.304  15.627 -0.1089  0.0761 -0.2930
 2947SOL    HW120477   3.562   0.331  15.574 -1.7079  1.2461 -1.9795
 2947SOL    HW220478   3.516   0.334  15.713 -1.1319  2.8752 -0.9246
 2948SOL     OW20479   2.983   4.342   9.612  0.0674  0.2243 -0.2016
 2948SOL    HW120480   2.919   4.327   9.682  0.1505 -2.1322 -0.6522
 2948SOL    HW220481   3.064   4.326   9.660 -1.1177 -1.6030  1.1957
 2949SOL     OW20482   4.236   0.097   3.118 -0.4560  0.6328  0.2063
 2949SOL    HW120483   4.146   0.126   3.103 -1.0634 -0.9468  0.7137
 2949SOL    HW220484   4.210   0.011   3.150 -0.4872 -0.0240 -1.5429
 2950SOL     OW20485   0.616   3.436   3.907  0.2349 -0.4251 -0.4394
 2950SOL    HW120486   0.546   3.381   3.941  0.3686 -0.4963 -0.2795
 2950SOL    HW220487   0.698   3.391   3.927  1.6425  1.5948 -1.6937
 2951SOL     OW20488   2.263   3.792   7.578  0.5365  0.0353  0.4678
 2951SOL    HW120489   2.210   3.841   7.641 -0.3526 -2.0361  1.3125
 2951SOL    HW220490   2.317   3.858   7.533 -0.4881 -0.3539 -1.3084
 2952SOL     OW20491   4.338   1.652   5.335  0.0385  0.2670  0.0713
 2952SOL    HW120492   4.379   1.578   5.381 -1.1262 -0.1273  0.4820
 2952SOL    HW220493   4.395   1.673   5.261  2.4891  1.4401  2.2816
 2953SOL     OW20494   3.024   3.921  16.216  0.2837  0.0769  0.7541
 2953SOL    HW120495   2.980   4.002  16.189  0.7399 -0.3206 -1.1761
 2953SOL    HW220496   3.026   3.926  16.312  0.6711  1.5258  0.6703
 2954SOL     OW20497   3.747   0.785   4.337 -0.2738 -0.4195 -0.4143
 2954SOL    HW120498   3.809   0.857   4.341  4.7847 -4.8174  0.2768
 2954SOL    HW220499   3.678   0.837   4.297 -0.1551  0.4020  0.4415
 2955SOL     OW20500   3.911   2.078   3.281 -0.1846  0.1287 -0.2401
 2955SOL    HW120501   3.819   2.067   3.306 -1.0882  1.9426 -2.7657
 2955SOL    HW220502   3.945   2.087   3.370  0.1416 -0.3657 -0.3126
 2956SOL     OW20503   0.296   0.660   7.372  0.1049 -0.2916 -0.1073
 2956SOL    HW120504   0.381   0.678   7.333 -0.2939  1.9436  0.0946
 2956SOL    HW220505   0.260   0.623   7.291 -0.0039 -0.7881  0.1680
 2957SOL     OW20506   0.937   3.953   6.495  0.2012 -0.0196 -0.3002
 2957SOL    HW120507   0.995   3.883   6.464  0.2986  0.2709 -0.7853
 2957SOL    HW220508   0.866   3.902   6.533 -0.5269  0.7553 -0.6318
 2958SOL     OW20509   0.012   2.878   6.598 -0.3506  0.1184  0.6499
 2958SOL    HW120510   4.689   2.919   6.660  0.6680  3.6472 -0.6707
 2958SOL    HW220511   4.719   2.789   6.611 -0.1069  0.0926  1.0868
 2959SOL     OW20512   2.259   4.688   8.400  0.0900  0.1133 -0.1959
 2959SOL    HW120513   2.182   4.734   8.434 -0.4974  0.3914 -1.9043
 2959SOL    HW220514   2.328   4.699   8.466 -0.4826 -0.9450  0.5933
 2960SOL     OW20515   2.073   1.991   6.054 -0.0516  0.0713 -0.1702
 2960SOL    HW120516   2.003   2.042   6.095 -0.7669 -0.4570 -0.7148
 2960SOL    HW220517   2.061   2.028   5.966 -1.0962  1.4599  0.5666
 2961SOL     OW20518   1.479   1.255   7.179  0.2006 -0.2804  0.0509
 2961SOL    HW120519   1.425   1.288   7.107 -1.5908 -0.7093  1.2061
 2961SOL    HW220520   1.567   1.276   7.145 -0.6064  0.2165 -1.7194
 2962SOL     OW20521   1.918   2.310   7.420 -0.4230 -0.1054  0.1729
 2962SOL    HW120522   1.832   2.334   7.454  0.3937 -0.0026  2.1291
 2962SOL    HW220523   1.973   2.297   7.497 -1.1490  0.0810  0.7189
 2963SOL     OW20524   0.384   2.887   4.954 -0.0648 -0.5951 -0.6595
 2963SOL    HW120525   0.436   2.966   4.939 -1.0698  0.0304 -0.8767
 2963SOL    HW220526   0.303   2.921   4.993  1.8321  1.2126  1.7249
 2964SOL     OW20527   0.471   1.225   8.105  0.1031 -0.3829 -0.0607
 2964SOL    HW120528   0.435   1.252   8.021 -0.1672 -2.7437 -0.6927
 2964SOL    HW220529   0.472   1.308   8.153 -0.5702 -0.7359  0.5586
 2965SOL     OW20530   0.353   4.572   6.195  0.6016  0.1129 -0.7430
 2965SOL    HW120531   0.306   4.649   6.227 -0.8232  0.0038 -2.5696
 2965SOL    HW220532   0.435   4.613   6.169  0.8638 -1.7541 -2.8519
 2966SOL     OW20533   3.064   4.336   4.278  0.0789 -0.3980 -0.0738
 2966SOL    HW120534   3.036   4.284   4.353  0.6142 -2.8633 -1.5907
 2966SOL    HW220535   3.151   4.304   4.253  0.4804  0.2126  0.5360
 2967SOL     OW20536   4.224   2.234   6.832 -0.0262 -0.5310 -0.1328
 2967SOL    HW120537   4.216   2.206   6.923  1.6440  0.1972  0.2317
 2967SOL    HW220538   4.319   2.226   6.822  0.0390  0.3537 -0.1689
 2968SOL     OW20539   1.275   1.934   4.045 -0.4762 -0.3598  0.5816
 2968SOL    HW120540   1.203   1.876   4.070  0.7430 -1.2488  1.9716
 2968SOL    HW220541   1.271   1.924   3.950  1.1226 -0.3007  0.5101
 2969SOL     OW20542   3.822   2.413   6.824 -0.8881 -0.0138 -0.5809
 2969SOL    HW120543   3.786   2.327   6.843  1.5315 -1.6384 -3.4237
 2969SOL    HW220544   3.758   2.458   6.879 -1.0525 -0.9983  0.0202
 2970SOL     OW20545   2.702   2.962   1.775  0.3099 -0.2313  0.2585
 2970SOL    HW120546   2.760   2.898   1.816  1.6806  1.0075  0.2762
 2970SOL    HW220547   2.641   2.992   1.842 -1.5916 -1.9325 -0.7141
 2971SOL     OW20548   2.383   0.808   2.306 -0.2532 -0.4038 -0.2652
 2971SOL    HW120549   2.437   0.799   2.385  0.5038  0.0189 -0.7284
 2971SOL    HW220550   2.294   0.815   2.340 -0.4053 -1.4388 -0.4546
 2972SOL     OW20551   1.036   2.075   2.056 -0.1563 -0.6755  0.1982
 2972SOL    HW120552   1.046   2.170   2.062  1.5975 -0.9582  1.8848
 2972SOL    HW220553   1.110   2.047   2.111  0.2676 -1.1489 -0.6114
 2973SOL     OW20554   0.528   3.035   3.554  0.0003 -0.8034  0.0818
 2973SOL    HW120555   0.539   3.112   3.497  3.2118  0.3545  2.2341
 2973SOL    HW220556   0.579   2.966   3.512  0.0476 -0.6165 -0.1767
 2974SOL     OW20557   3.582   4.210   6.377 -0.0152 -0.1293 -0.3769
 2974SOL    HW120558   3.615   4.229   6.289  1.6429  0.3676  0.3430
 2974SOL    HW220559   3.510   4.273   6.381  0.0651 -0.0383 -0.3618
 2975SOL     OW20560   0.523   0.740   7.286 -0.0976  0.2145 -0.2395
 2975SOL    HW120561   0.580   0.695   7.348 -1.7538 -1.9063 -0.2464
 2975SOL    HW220562   0.573   0.732   7.205  0.8632  1.0863  0.2739
 2976SOL     OW20563   0.273   0.795   9.965  0.3373  0.2948  0.1707
 2976SOL    HW120564   0.355   0.769  10.007  0.4435  0.2566 -0.0592
 2976SOL    HW220565   0.227   0.713   9.949  1.3438 -0.4080  0.8432
 2977SOL     OW20566   4.171   3.247   7.652  0.2860 -0.1130  0.2009
 2977SOL    HW120567   4.235   3.246   7.724  1.5661  1.3358 -0.9139
 2977SOL    HW220568   4.123   3.166   7.664  0.5087 -0.5568 -1.9047
 2978SOL     OW20569   2.933   0.745   2.716 -0.0325 -1.0331 -0.7699
 2978SOL    HW120570   3.022   0.710   2.713 -0.2954 -1.7629 -0.1697
 2978SOL    HW220571   2.905   0.715   2.802  2.9060  0.2081  0.6149
 2979SOL     OW20572   1.465   3.443   7.613 -0.3381 -0.1826 -0.3542
 2979SOL    HW120573   1.505   3.493   7.684 -0.0388 -0.0925 -0.5879
 2979SOL    HW220574   1.541   3.406   7.568  1.1317  1.8892  0.4202
 2980SOL     OW20575   3.045   2.901   0.353 -0.5719 -0.0183  0.0621
 2980SOL    HW120576   3.015   2.812   0.374  2.9608 -1.5182 -1.2861
 2980SOL    HW220577   2.997   2.946   0.422 -1.4479 -1.0887  0.1672
 2981SOL     OW20578   3.029   1.498   8.595  0.6411 -0.8595  0.5310
 2981SOL    HW120579   2.935   1.488   8.579  0.2698  2.3160  0.8586
 2981SOL    HW220580   3.071   1.505   8.510  0.7314 -0.3137  0.6255
 2982SOL     OW20581   0.366   4.384   9.820 -0.1971  0.4143  0.2646
 2982SOL    HW120582   0.353   4.409   9.729  0.3939  1.0859  0.3625
 2982SOL    HW220583   0.353   4.290   9.824 -1.5284  0.6404  1.1224
 2983SOL     OW20584   3.862   2.899   9.073 -0.3252  0.1108  0.1750
 2983SOL    HW120585   3.905   2.966   9.021  1.5771 -0.7139  0.6937
 2983SOL    HW220586   3.821   2.952   9.141 -0.0015 -0.5446  0.8739
 2984SOL     OW20587   3.124   0.257  15.334  0.3993 -0.3230  0.5244
 2984SOL    HW120588   3.109   0.343  15.295  0.0497 -0.1020  1.1498
 2984SOL    HW220589   3.086   0.199  15.268 -1.2245 -1.7054  2.6701
 2985SOL     OW20590   1.824   1.399  15.282  0.0297  0.9177  0.4145
 2985SOL    HW120591   1.810   1.365  15.194  0.0150 -0.5388  0.9854
 2985SOL    HW220592   1.909   1.362  15.307  0.3204  0.5876 -1.0681
 2986SOL     OW20593   0.943   1.220  14.743  0.6330 -0.0697  0.1071
 2986SOL    HW120594   0.886   1.287  14.781 -0.4525 -0.9124 -0.0373
 2986SOL    HW220595   1.008   1.197  14.810 -1.4367 -0.3581  2.0122
 2987SOL     OW20596   0.102   4.467   5.421 -0.5750 -0.4754  0.2853
 2987SOL    HW120597   0.019   4.512   5.433  0.2157  1.2225 -0.6314
 2987SOL    HW220598   0.073   4.377   5.440 -0.6343 -0.7901 -1.2799
 2988SOL     OW20599   2.248   1.040   5.527 -0.3345 -0.0262 -0.2498
 2988SOL    HW120600   2.213   1.126   5.503 -2.9551 -0.8216  0.8236
 2988SOL    HW220601   2.194   1.017   5.602 -0.2443 -3.2959 -1.2230
 2989SOL     OW20602   2.941   1.022   2.753  0.5635  0.2700 -0.4612
 2989SOL    HW120603   2.993   1.008   2.832 -1.2119 -1.2669  0.4416
 2989SOL    HW220604   2.954   0.933   2.719 -0.3144  0.0276 -0.1850
 2990SOL     OW20605   1.829   0.333   1.981 -0.0961 -0.0891 -0.2042
 2990SOL    HW120606   1.800   0.273   2.049  0.2947  0.6877  0.6366
 2990SOL    HW220607   1.920   0.338   2.009 -0.7869  4.1417  1.2827
 2991SOL     OW20608   3.586   0.360   3.455  0.4626  0.0695 -0.1652
 2991SOL    HW120609   3.574   0.280   3.506 -2.4604 -1.0050 -2.5344
 2991SOL    HW220610   3.568   0.312   3.374 -1.5706  1.1085 -0.3492
 2992SOL     OW20611   1.870   3.995  15.303  0.2033  0.0398 -0.9507
 2992SOL    HW120612   1.842   4.015  15.214  2.5384  0.6874 -1.5557
 2992SOL    HW220613   1.961   4.024  15.290  1.8253 -4.1146  1.3032
 2993SOL     OW20614   1.681   3.383   7.454 -0.6137 -0.1654  0.0157
 2993SOL    HW120615   1.750   3.420   7.509 -0.2705  0.7815 -1.0647
 2993SOL    HW220616   1.726   3.362   7.373 -0.1855 -1.5355  0.6033
 2994SOL     OW20617   1.716   1.256  15.913  0.0760  0.6831 -0.0426
 2994SOL    HW120618   1.743   1.335  15.962  0.2452  0.2962  0.4942
 2994SOL    HW220619   1.800   1.209  15.917 -0.2700 -0.0299 -1.2186
 2995SOL     OW20620   3.837   4.384   2.925 -0.0739  0.9510  0.1562
 2995SOL    HW120621   3.824   4.323   2.852  1.6977 -0.7187  1.2101
 2995SOL    HW220622   3.749   4.393   2.961 -0.6420  0.3855 -1.0905
 2996SOL     OW20623   0.937   2.795   9.198  0.2944 -0.4094 -0.0578
 2996SOL    HW120624   0.912   2.876   9.241  2.0894  0.0024  0.2276
 2996SOL    HW220625   0.925   2.818   9.106 -0.0208 -0.1084  0.0582
 2997SOL     OW20626   2.919   1.620   4.219  0.4533  0.1827 -0.4154
 2997SOL    HW120627   2.904   1.663   4.135 -2.7799 -1.1325 -0.5300
 2997SOL    HW220628   2.880   1.536   4.193  0.1177  0.3830 -0.5527
 2998SOL     OW20629   1.752   2.691   8.299  0.2299 -0.0611  0.0389
 2998SOL    HW120630   1.686   2.630   8.329  1.2425 -0.0186  2.3638
 2998SOL    HW220631   1.707   2.714   8.218  1.0119  1.2168 -0.0445
 2999SOL     OW20632   1.056   0.934   3.066 -0.3772 -0.9493  0.2720
 2999SOL    HW120633   1.052   1.026   3.037 -0.2002 -1.2949 -0.8523
 2999SOL    HW220634   1.010   0.904   2.988  1.5078 -1.1602 -0.7573
 3000SOL     OW20635   2.561   1.948   2.700 -0.3020 -0.5620  0.2843
 3000SOL    HW120636   2.576   1.953   2.605 -3.0185 -0.3026 -0.1239
 3000SOL    HW220637   2.491   2.014   2.700  1.6215  1.4772 -0.1142
 3001SOL     OW20638   1.899   4.559   3.543  0.8988 -0.2539 -0.0961
 3001SOL    HW120639   1.926   4.504   3.469 -0.3887  0.9804 -1.4968
 3001SOL    HW220640   1.964   4.535   3.609  1.1278  0.6534  0.0059
 3002SOL     OW20641   2.021   3.928   7.281  0.2048  0.0172  0.2386
 3002SOL    HW120642   1.978   3.972   7.208 -2.3575 -0.1375  1.6697
 3002SOL    HW220643   2.107   3.914   7.241 -0.2179  2.6455 -1.5850
 3003SOL     OW20644   2.985   3.829   6.627 -0.0179  0.1202 -0.2219
 3003SOL    HW120645   2.914   3.860   6.684  0.2375 -0.1475  0.2338
 3003SOL    HW220646   3.007   3.748   6.673 -0.6111 -1.1765 -2.1973
 3004SOL     OW20647   4.144   2.735  12.673 -0.5927  0.2839 -0.4488
 3004SOL    HW120648   4.122   2.698  12.587  0.3135 -2.4712  0.5106
 3004SOL    HW220649   4.236   2.750  12.653 -0.7643  0.5998 -1.0176
 3005SOL     OW20650   1.156   0.856   1.198  0.1283 -0.4564 -0.2137
 3005SOL    HW120651   1.146   0.822   1.109 -1.4067  0.0879 -0.2529
 3005SOL    HW220652   1.211   0.787   1.237  1.7739  0.0976 -1.5754
 3006SOL     OW20653   3.473   4.600   3.013 -0.0587  0.2336  0.6523
 3006SOL    HW120654   3.420   4.562   3.083  1.8669 -0.6783  1.6259
 3006SOL    HW220655   3.449   4.560   2.929 -1.4738  0.5540  0.9035
 3007SOL     OW20656   1.312   3.826   8.237 -0.3417 -0.2403 -0.3594
 3007SOL    HW120657   1.405   3.849   8.227 -0.3789  0.1757  0.2175
 3007SOL    HW220658   1.297   3.732   8.235  1.4066 -0.5471  0.2032
 3008SOL     OW20659   1.388   3.029   1.415 -0.2278 -0.6474 -0.5122
 3008SOL    HW120660   1.378   3.053   1.507  0.6614  1.3001 -0.9143
 3008SOL    HW220661   1.449   3.095   1.382 -1.1493  0.8856  0.8592
 3009SOL     OW20662   0.164   3.462   2.853  0.3897  0.4842 -0.1403
 3009SOL    HW120663   0.081   3.504   2.875  0.2515  0.6042 -0.8803
 3009SOL    HW220664   0.220   3.499   2.921  0.8995  0.4877 -0.5645
 3010SOL     OW20665   4.240   2.977   2.531 -0.3407 -0.2150  0.2991
 3010SOL    HW120666   4.178   2.917   2.572 -0.9795 -0.6582 -1.3250
 3010SOL    HW220667   4.186   3.011   2.460  0.4446 -0.2658 -0.3253
 3011SOL     OW20668   0.823   0.415   9.792 -0.2848  0.4619 -0.0459
 3011SOL    HW120669   0.889   0.347   9.786 -1.1468 -0.3991  0.3034
 3011SOL    HW220670   0.868   0.499   9.808 -2.6932  1.4599  1.4388
 3012SOL     OW20671   4.097   0.794   8.464 -0.0649  0.1391 -0.2324
 3012SOL    HW120672   4.078   0.706   8.497  1.3648  0.2748  0.9179
 3012SOL    HW220673   4.143   0.777   8.382  1.5995  1.6814  0.4046
 3013SOL     OW20674   2.634   0.482  16.368 -0.4663 -0.3629 -0.2524
 3013SOL    HW120675   2.723   0.479  16.402 -0.4507  1.3473 -0.0979
 3013SOL    HW220676   2.643   0.409  16.307  3.9682 -0.5979  0.6848
 3014SOL     OW20677   1.067   4.719  10.454  0.3488 -0.0004  0.2470
 3014SOL    HW120678   1.137   4.678  10.504  0.7124  2.8794  2.0677
 3014SOL    HW220679   1.057   0.065  10.497  0.4540 -0.5292  1.2947
 3015SOL     OW20680   3.543   0.973   8.109 -0.0973 -0.1649  0.0693
 3015SOL    HW120681   3.612   0.955   8.046  1.0052  1.2367  0.8800
 3015SOL    HW220682   3.549   1.068   8.119  1.1548 -0.2008 -0.3037
 3016SOL     OW20683   3.933   1.258   8.442 -0.6682  0.7189 -0.3427
 3016SOL    HW120684   4.006   1.259   8.503 -0.8511  0.3790 -0.1180
 3016SOL    HW220685   3.898   1.169   8.452  0.1196  0.4535 -0.0056
 3017SOL     OW20686   0.087   0.193   9.908 -0.5653  0.1438 -0.2144
 3017SOL    HW120687   0.060   0.215   9.819 -3.4378  2.0920  1.1529
 3017SOL    HW220688   0.183   0.184   9.906 -0.5495  0.3083 -0.2482
 3018SOL     OW20689   1.307   3.290   2.606  0.1456  0.0668 -0.2879
 3018SOL    HW120690   1.399   3.267   2.596  0.1793 -0.0542  0.3102
 3018SOL    HW220691   1.260   3.206   2.610  0.8100 -0.2778  0.2235
 3019SOL     OW20692   4.436   4.285   8.721  1.2415  0.1417 -0.4340
 3019SOL    HW120693   4.435   4.378   8.744 -0.8183  0.1982 -0.7322
 3019SOL    HW220694   4.424   4.262   8.812 -0.0406  1.5658 -0.2404
 3020SOL     OW20695   2.983   1.459  14.317 -0.2029  0.2719 -0.3368
 3020SOL    HW120696   2.992   1.547  14.279 -1.4154  0.7948  0.6166
 3020SOL    HW220697   2.896   1.445  14.281 -0.2191 -1.6004  0.4720
 3021SOL     OW20698   1.528   4.194   8.364 -0.1398 -0.3495  0.3409
 3021SOL    HW120699   1.441   4.217   8.333  1.5747  3.5151 -1.6299
 3021SOL    HW220700   1.556   4.114   8.319 -0.4083  0.0775 -0.5828
 3022SOL     OW20701   2.091   3.613  15.879  0.1771 -0.0227  0.3011
 3022SOL    HW120702   2.132   3.699  15.890 -0.9226  0.6011 -0.5457
 3022SOL    HW220703   2.158   3.559  15.836  1.7115  1.5013  0.7649
 3023SOL     OW20704   3.002   1.021  14.811 -0.4219 -0.3885 -0.7798
 3023SOL    HW120705   3.026   1.097  14.757  0.0597 -0.1070 -0.1693
 3023SOL    HW220706   3.021   0.947  14.754 -1.3647 -0.1708 -1.3741
 3024SOL     OW20707   3.857   2.023  17.046 -0.9262  0.3232 -0.5988
 3024SOL    HW120708   3.878   2.078  17.122  4.5202 -1.1237 -1.0476
 3024SOL    HW220709   3.792   2.077  17.001  0.4957  1.4084 -1.3591
 3025SOL     OW20710   1.788   3.771   1.241 -0.3569 -0.0787 -0.2570
 3025SOL    HW120711   1.784   3.680   1.211  1.0626 -0.1920 -0.0742
 3025SOL    HW220712   1.854   3.804   1.181 -0.7175 -0.9047 -1.1056
 3026SOL     OW20713   2.342   1.484  17.556 -0.7611  0.4736 -0.3969
 3026SOL    HW120714   2.330   1.472  17.650  1.0383 -2.1100 -0.4971
 3026SOL    HW220715   2.264   1.449  17.511  0.1028 -1.3428 -0.5096
 3027SOL     OW20716   2.009   2.667   2.289 -0.0808  0.0647  0.1763
 3027SOL    HW120717   1.974   2.716   2.215 -1.5537  0.2666  1.0100
 3027SOL    HW220718   2.096   2.662   2.251 -1.5317  0.0410 -3.1886
 3028SOL     OW20719   3.335   0.855  14.130  1.0570  0.1392  1.0148
 3028SOL    HW120720   3.303   0.797  14.199 -1.3078 -3.0268 -2.7389
 3028SOL    HW220721   3.384   0.792  14.077  0.2984 -1.0055  1.6760
 3029SOL     OW20722   2.342   3.128   4.972 -0.0369  0.0255 -0.0174
 3029SOL    HW120723   2.331   3.059   5.037 -0.2680  0.3458  0.2877
 3029SOL    HW220724   2.415   3.172   5.016  0.9640 -0.7697 -0.8780
 3030SOL     OW20725   2.714   4.621   5.894 -0.2371 -0.2814  0.0625
 3030SOL    HW120726   2.631   4.662   5.919 -0.4816 -1.0408  0.5021
 3030SOL    HW220727   2.698   4.531   5.920 -1.0689 -0.4091 -0.8780
 3031SOL     OW20728   1.705   1.719  16.129 -0.0020  0.7688  0.1476
 3031SOL    HW120729   1.707   1.807  16.089 -0.5364  0.1742 -1.1996
 3031SOL    HW220730   1.795   1.689  16.132 -0.0547  0.5832 -0.1106
 3032SOL     OW20731   2.754   2.195   8.208 -0.1796 -0.1917  0.4181
 3032SOL    HW120732   2.710   2.213   8.126  1.1490  0.8995 -0.0580
 3032SOL    HW220733   2.770   2.102   8.191  2.8160  0.8578 -2.4610
 3033SOL     OW20734   1.503   1.414   5.802  0.8620 -0.2251 -0.2496
 3033SOL    HW120735   1.570   1.479   5.782 -0.1315  1.0264  0.5681
 3033SOL    HW220736   1.565   1.341   5.813  1.4674  0.1231 -1.2648
 3034SOL     OW20737   4.013   0.621   3.165  0.1435 -0.6050 -0.3926
 3034SOL    HW120738   4.064   0.575   3.098  1.2278 -0.1527  0.1090
 3034SOL    HW220739   4.013   0.706   3.120  2.8477  0.1568  1.0425
 3035SOL     OW20740   3.340   1.576   6.324 -0.3855  0.2528  0.2682
 3035SOL    HW120741   3.273   1.552   6.388 -0.5025  1.0673  0.4503
 3035SOL    HW220742   3.298   1.660   6.304 -1.8561  0.2976  3.5605
 3036SOL     OW20743   0.334   2.134   8.604 -0.0305 -0.0006 -0.2014
 3036SOL    HW120744   0.419   2.131   8.560  0.4140 -3.3044  0.8522
 3036SOL    HW220745   0.318   2.228   8.594 -2.1584 -0.4198 -0.6824
 3037SOL     OW20746   4.543   3.950   7.164 -0.4054  0.5938  0.4706
 3037SOL    HW120747   4.503   3.959   7.077  0.0544 -1.3174  0.0541
 3037SOL    HW220748   4.511   4.033   7.199  0.7514  2.0294 -1.8777
 3038SOL     OW20749   2.116   0.917  17.004  0.1900  0.1334 -0.3245
 3038SOL    HW120750   2.123   0.928  16.909 -0.9657 -1.0967 -0.5705
 3038SOL    HW220751   2.020   0.924  17.010  0.1753 -0.2184 -0.1324
 3039SOL     OW20752   1.345   1.957   1.292 -0.6207  0.1793  0.2809
 3039SOL    HW120753   1.254   1.930   1.282 -0.3560 -0.7429  0.2962
 3039SOL    HW220754   1.346   1.958   1.388  3.4307 -1.2226  0.2666
 3040SOL     OW20755   4.098   4.044   7.156 -0.0024 -0.4301  0.3091
 3040SOL    HW120756   4.118   3.957   7.190  0.8253  0.7290  2.8096
 3040SOL    HW220757   4.188   4.076   7.158 -0.0881 -0.1994  0.4561
 3041SOL     OW20758   1.288   2.175  16.405  0.1727 -0.3990  0.5576
 3041SOL    HW120759   1.317   2.223  16.328 -0.4873 -0.6074  0.1791
 3041SOL    HW220760   1.304   2.090  16.364 -0.4120  1.6333 -3.8116
 3042SOL     OW20761   2.809   2.977   4.195 -0.0686 -0.4618  0.2203
 3042SOL    HW120762   2.902   2.995   4.183  0.0321  0.2612  2.0292
 3042SOL    HW220763   2.785   3.068   4.212  1.7531  0.0651 -0.0462
 3043SOL     OW20764   3.591   4.642   6.721  0.4904 -0.4474  0.0362
 3043SOL    HW120765   3.640   4.574   6.676  0.1780  0.4489 -1.6486
 3043SOL    HW220766   3.634   4.641   6.807  0.3825 -0.7730  0.0849
 3044SOL     OW20767   1.144   1.643  15.248  0.4685  0.9109  0.1305
 3044SOL    HW120768   1.121   1.592  15.326  1.3999  2.9491  1.7399
 3044SOL    HW220769   1.229   1.683  15.270  2.1006 -2.3750 -0.2269
 3045SOL     OW20770   0.326   2.691  12.171  0.0368  0.1599 -0.0076
 3045SOL    HW120771   0.312   2.670  12.078  0.6388 -0.4108  0.0322
 3045SOL    HW220772   0.418   2.712  12.183 -0.1365 -0.0667  1.6985
 3046SOL     OW20773   0.144   1.272   8.673  0.6300  0.4398  0.2970
 3046SOL    HW120774   0.224   1.234   8.708 -1.0537 -3.8442 -0.5370
 3046SOL    HW220775   0.114   1.351   8.719 -1.2972  0.7251 -1.4238
 3047SOL     OW20776   2.938   3.538  14.974 -0.1901  0.0515  0.0787
 3047SOL    HW120777   2.949   3.556  14.880 -1.4562 -3.4832 -0.7546
 3047SOL    HW220778   2.918   3.445  14.965 -1.1640  0.3198 -0.5692
 3048SOL     OW20779   1.510   0.055   8.290  0.0133  0.1154 -0.0300
 3048SOL    HW120780   1.491   0.051   8.196 -1.9737  0.0306  0.3831
 3048SOL    HW220781   1.503   0.151   8.297 -0.7701  0.2686 -2.7204
 3049SOL     OW20782   4.196   1.633  12.866 -0.2954 -0.2029  0.4863
 3049SOL    HW120783   4.247   1.665  12.792 -0.8467  1.5695  0.8761
 3049SOL    HW220784   4.107   1.667  12.855 -0.3499 -0.4184  0.2528
 3050SOL     OW20785   2.643   1.641   4.332  0.1863 -0.2481 -0.2689
 3050SOL    HW120786   2.582   1.713   4.323  1.3296  0.9649  1.7777
 3050SOL    HW220787   2.722   1.689   4.308  0.1954 -0.3678 -0.4765
 3051SOL     OW20788   0.029   1.728   3.892  0.1505  0.6243  0.0624
 3051SOL    HW120789   4.674   1.745   3.878  0.4905  1.2174 -1.4443
 3051SOL    HW220790   0.049   1.686   3.809  0.8174 -0.4070  0.7346
 3052SOL     OW20791   3.029   2.182   7.997 -0.7048  0.4010  0.3209
 3052SOL    HW120792   2.970   2.257   7.995  0.6063  1.4061  0.0124
 3052SOL    HW220793   2.997   2.152   7.912 -0.6489 -0.3466  0.5634
 3053SOL     OW20794   2.360   3.722   3.603  0.0605 -0.4754  0.6010
 3053SOL    HW120795   2.400   3.710   3.517 -1.2921  1.8998 -0.3529
 3053SOL    HW220796   2.342   3.631   3.628  2.3401 -0.8123  1.0841
 3054SOL     OW20797   1.483   2.411   7.917  0.2098  0.2719 -0.2566
 3054SOL    HW120798   1.458   2.472   7.987 -0.1289  0.5019 -0.5803
 3054SOL    HW220799   1.423   2.446   7.852  1.6381  1.3836 -0.9647
 3055SOL     OW20800   4.258   0.863   2.076  0.2299  0.6409 -0.2515
 3055SOL    HW120801   4.217   0.779   2.054  0.7694  0.7195 -1.5677
 3055SOL    HW220802   4.283   0.854   2.168 -0.6924  1.8581  0.1048
 3056SOL     OW20803   3.750   2.718   3.482 -0.9809  0.1095 -0.3361
 3056SOL    HW120804   3.739   2.635   3.528  2.6194 -1.6604 -2.6370
 3056SOL    HW220805   3.716   2.692   3.396  0.4372  2.4467 -1.5969
 3057SOL     OW20806   2.461   1.962   8.773  0.8965  0.3811  0.3642
 3057SOL    HW120807   2.539   1.988   8.823  0.0993  1.8846  0.8356
 3057SOL    HW220808   2.400   2.003   8.834  0.9609  0.9900  0.0211
 3058SOL     OW20809   0.670   1.227  15.844  0.2962  0.2085  0.6460
 3058SOL    HW120810   0.731   1.156  15.863 -1.0262 -0.9641  0.5238
 3058SOL    HW220811   0.727   1.300  15.869 -0.0442  1.1061 -1.2528
 3059SOL     OW20812   3.479   4.387   6.996  0.3168 -0.0403  0.4355
 3059SOL    HW120813   3.568   4.424   6.997 -0.1500  1.1375 -1.3715
 3059SOL    HW220814   3.496   4.311   7.051  3.3544 -1.4413 -2.3411
 3060SOL     OW20815   1.285   2.236   6.619  0.0606  0.1745  0.2890
 3060SOL    HW120816   1.242   2.322   6.615 -0.4811 -0.0472  1.3165
 3060SOL    HW220817   1.205   2.183   6.617  0.0457  0.2731 -2.4784
 3061SOL     OW20818   2.109   4.132  17.491 -0.1803 -0.1671 -0.1830
 3061SOL    HW120819   2.038   4.099  17.436 -0.1241  0.5568 -0.6863
 3061SOL    HW220820   2.104   4.225  17.472 -1.7781 -0.2412 -0.1785
 3062SOL     OW20821   2.502   0.163   2.044  0.1937 -0.3304 -0.2536
 3062SOL    HW120822   2.499   0.099   2.115  0.9460 -0.2528 -0.1516
 3062SOL    HW220823   2.564   0.117   1.988  0.0235  1.7666 -2.2084
 3063SOL     OW20824   0.741   1.688   4.171  0.4859  0.2901  0.3818
 3063SOL    HW120825   0.783   1.655   4.250  0.8728  1.2370  0.5671
 3063SOL    HW220826   0.699   1.604   4.153 -1.2076  1.1608  0.2779
 3064SOL     OW20827   0.499   1.605  14.707 -0.1474  0.0470 -0.6626
 3064SOL    HW120828   0.499   1.543  14.634 -2.0768 -0.7960  0.0529
 3064SOL    HW220829   0.443   1.675  14.673 -0.9934 -0.4468 -0.2989
 3065SOL     OW20830   3.406   2.469  14.779 -0.0517  0.0003 -0.3196
 3065SOL    HW120831   3.461   2.522  14.721  0.0533  0.3686  0.1199
 3065SOL    HW220832   3.353   2.425  14.712 -1.4104 -2.3500  2.3186
 3066SOL     OW20833   2.399   2.514   8.476 -0.4743  0.1509 -0.9354
 3066SOL    HW120834   2.312   2.529   8.514  0.2368  2.2879 -0.1194
 3066SOL    HW220835   2.393   2.423   8.450  2.8413 -0.5833  0.8433
 3067SOL     OW20836   1.949   1.494  14.865 -0.2492 -0.0151  0.0466
 3067SOL    HW120837   1.984   1.446  14.790 -0.4293  0.3907 -0.2984
 3067SOL    HW220838   2.011   1.567  14.870  0.8654 -0.7321 -3.1604
 3068SOL     OW20839   3.758   3.927   5.338  0.4539 -0.2116 -0.1652
 3068SOL    HW120840   3.742   3.984   5.414  1.1952 -2.5155  1.7182
 3068SOL    HW220841   3.739   3.993   5.272 -3.7515 -1.1321  0.1227
 3069SOL     OW20842   1.299   1.148   6.632 -0.0666  0.0945 -0.2100
 3069SOL    HW120843   1.238   1.210   6.671  0.1809  0.6721 -0.7289
 3069SOL    HW220844   1.370   1.203   6.597 -0.0007  1.7769  2.6160
 3070SOL     OW20845   3.751   4.595   9.234  0.3615 -0.0640 -0.4876
 3070SOL    HW120846   3.730   4.586   9.327  0.9234  1.2785 -0.2183
 3070SOL    HW220847   3.770   4.689   9.234 -1.3676  0.2904 -2.0723
 3071SOL     OW20848   4.085   2.112   6.613 -0.2923  0.0675 -0.5357
 3071SOL    HW120849   4.132   2.157   6.682 -1.6293 -0.7415  0.9114
 3071SOL    HW220850   4.070   2.029   6.660 -0.2313  0.2275 -0.2365
 3072SOL     OW20851   0.445   2.546   9.763 -0.5413 -0.0708  0.0997
 3072SOL    HW120852   0.356   2.512   9.755  0.4113 -2.4796 -0.4373
 3072SOL    HW220853   0.477   2.485   9.831 -1.8920 -1.0275 -0.1219
 3073SOL     OW20854   2.274   4.108   4.930  0.0263 -0.3697 -0.0826
 3073SOL    HW120855   2.317   4.047   4.870 -0.5694 -2.7963  1.9314
 3073SOL    HW220856   2.348   4.165   4.949  0.7428 -1.4982  0.5466
 3074SOL     OW20857   3.195   2.987   8.334  0.7583  0.2588  0.2508
 3074SOL    HW120858   3.170   3.020   8.420  0.1333  1.3399 -0.3394
 3074SOL    HW220859   3.274   3.037   8.314  0.0552 -0.2968 -3.9189
 3075SOL     OW20860   0.495   1.894   2.983 -0.9662  0.2108 -0.2161
 3075SOL    HW120861   0.447   1.932   2.910  0.3336  1.2529 -0.5294
 3075SOL    HW220862   0.445   1.813   2.991  1.4834 -0.9091  4.0023
 3076SOL     OW20863   0.562   3.325   7.268  0.2032  0.0276 -0.1458
 3076SOL    HW120864   0.622   3.393   7.300  0.1184  0.3141 -0.5984
 3076SOL    HW220865   0.527   3.367   7.189  0.3636 -0.1087 -0.2879
 3077SOL     OW20866   4.396   2.706  17.287  0.2776 -0.5600 -0.0395
 3077SOL    HW120867   4.376   2.793  17.254  2.3354 -0.2948 -0.5502
 3077SOL    HW220868   4.407   2.714  17.382  2.2262 -0.4907 -0.2726
 3078SOL     OW20869   1.510   3.660   1.181 -0.2607 -0.1776 -0.3246
 3078SOL    HW120870   1.598   3.699   1.183 -1.3030  2.2234 -2.4454
 3078SOL    HW220871   1.463   3.733   1.221 -2.5105 -2.7084  1.6325
 3079SOL     OW20872   2.766   3.843   8.085  0.0538  0.4156  0.3033
 3079SOL    HW120873   2.695   3.817   8.026 -1.3735 -0.7559  2.5259
 3079SOL    HW220874   2.780   3.935   8.061 -0.1811  0.2791 -0.3765
 3080SOL     OW20875   4.494   0.556   2.190 -0.2496  0.1839 -0.4353
 3080SOL    HW120876   4.431   0.490   2.162 -1.0013 -0.0296  1.7813
 3080SOL    HW220877   4.574   0.505   2.201 -0.6595 -0.5770 -0.9478
 3081SOL     OW20878   3.532   0.855   6.084 -0.7101  0.0666 -0.1188
 3081SOL    HW120879   3.501   0.946   6.085  2.3792  1.1135 -0.1124
 3081SOL    HW220880   3.464   0.809   6.035 -1.0014 -0.1138  0.4526
 3082SOL     OW20881   3.870   1.043   2.600  0.1006  0.3471 -0.4039
 3082SOL    HW120882   3.833   1.090   2.675 -1.4838 -0.7649 -0.4870
 3082SOL    HW220883   3.907   0.963   2.637 -1.8510 -0.9360 -1.1934
 3083SOL     OW20884   4.589   3.466   5.678  0.4406  0.5615  0.2566
 3083SOL    HW120885   4.655   3.491   5.614  1.6989  0.4637  1.5012
 3083SOL    HW220886   4.573   3.375   5.655  0.2498  0.5607  0.3883
 3084SOL     OW20887   4.608   3.165   5.097 -0.0188 -0.6205  0.0851
 3084SOL    HW120888   4.539   3.216   5.054  1.2452  0.9599 -0.0783
 3084SOL    HW220889   4.628   3.111   5.021  0.3763 -0.2338 -0.0888
 3085SOL     OW20890   2.881   3.395   6.356 -0.5001 -0.6217  0.0566
 3085SOL    HW120891   2.831   3.314   6.359 -1.4717 -0.0739 -1.1698
 3085SOL    HW220892   2.817   3.463   6.380 -2.0279 -2.1192  0.2659
 3086SOL     OW20893   4.284   2.741   6.664  0.5431 -0.3298  0.0741
 3086SOL    HW120894   4.206   2.723   6.718  0.3183 -0.4793 -0.3014
 3086SOL    HW220895   4.236   2.742   6.581 -1.1111 -0.2970  1.0240
 3087SOL     OW20896   0.900   0.550   1.037 -0.3946  0.0173 -0.1827
 3087SOL    HW120897   0.840   0.607   0.988 -1.6760 -1.2127 -0.0498
 3087SOL    HW220898   0.977   0.607   1.042 -0.0620 -0.5100  0.7057
 3088SOL     OW20899   3.318   2.063   7.857  0.2771  0.5946 -0.3771
 3088SOL    HW120900   3.391   2.043   7.916 -0.2304 -3.1493 -1.0446
 3088SOL    HW220901   3.276   2.123   7.918  1.4879 -0.5030  1.5481
 3089SOL     OW20902   3.604   4.305   9.639  0.2196  0.4450 -0.1083
 3089SOL    HW120903   3.585   4.240   9.706  0.3009  1.7290  1.1599
 3089SOL    HW220904   3.518   4.330   9.603  1.2013  3.6185 -0.2713
 3090SOL     OW20905   2.934   0.248   2.281 -0.0725 -0.5447  0.3472
 3090SOL    HW120906   3.015   0.247   2.333  0.2399 -0.9513 -0.1464
 3090SOL    HW220907   2.940   0.167   2.230  1.4048  0.3131 -0.8673
 3091SOL     OW20908   3.973   0.906  11.551 -0.5892 -0.5022 -0.0624
 3091SOL    HW120909   3.982   0.817  11.585  0.7261 -0.8785 -1.3970
 3091SOL    HW220910   3.895   0.934  11.599 -1.0730  1.3890 -1.9291
 3092SOL     OW20911   2.510   2.507   8.014  0.1418 -0.3987  0.3012
 3092SOL    HW120912   2.455   2.584   8.008  1.0463  0.3529  1.6621
 3092SOL    HW220913   2.545   2.517   8.102 -1.9872 -0.8747  1.1880
 3093SOL     OW20914   3.968   3.785   0.340 -0.2882  0.5210 -0.3969
 3093SOL    HW120915   3.999   3.865   0.298  3.8620 -0.7513  0.2268
 3093SOL    HW220916   4.002   3.798   0.428 -1.2596 -2.2526  0.3894
 3094SOL     OW20917   0.828   0.138   8.010  0.8900 -0.0289 -0.1056
 3094SOL    HW120918   0.921   0.160   8.002  0.9111  0.1634  0.6248
 3094SOL    HW220919   0.807   0.146   8.103  0.9472  1.2982 -0.2103
 3095SOL     OW20920   4.736   3.219   2.933  0.4163 -0.9565 -0.3030
 3095SOL    HW120921   4.706   3.192   2.846 -1.1903 -2.6626  0.7634
 3095SOL    HW220922   0.081   3.260   2.911 -0.4620  0.9752 -0.0497
 3096SOL     OW20923   3.571   3.928   2.443 -0.6301  0.2370  1.2458
 3096SOL    HW120924   3.567   3.895   2.533  1.6298 -1.0973  0.8604
 3096SOL    HW220925   3.594   3.849   2.394 -1.5534  1.3122 -0.9166
 3097SOL     OW20926   4.580   2.404  12.287 -0.1521 -0.0791  0.1507
 3097SOL    HW120927   4.503   2.366  12.330  1.4561 -2.4960  0.9001
 3097SOL    HW220928   4.611   2.321  12.252  2.5812 -0.0582  2.5658
 3098SOL     OW20929   1.208   0.743   9.369 -0.1041  0.3684 -0.0313
 3098SOL    HW120930   1.124   0.721   9.408  1.1408 -2.8120  0.8377
 3098SOL    HW220931   1.259   0.665   9.391 -1.4705 -1.0097 -1.7324
 3099SOL     OW20932   0.336   2.286   3.369 -0.0356 -0.2558  0.2221
 3099SOL    HW120933   0.431   2.293   3.358 -0.0151  1.3823  1.3812
 3099SOL    HW220934   0.304   2.354   3.309 -2.9830 -1.1164  0.8312
 3100SOL     OW20935   0.782   3.708   4.917  0.2383  0.2774 -0.2852
 3100SOL    HW120936   0.736   3.675   4.995  0.4113 -0.8909 -0.6810
 3100SOL    HW220937   0.792   3.800   4.940  3.4474 -0.4228  0.9945
 3101SOL     OW20938   2.458   2.335   4.042 -0.0324 -0.3731  0.0309
 3101SOL    HW120939   2.406   2.316   3.964  0.3392  1.4300 -0.6465
 3101SOL    HW220940   2.387   2.338   4.106 -0.1120  1.3258 -0.1337
 3102SOL     OW20941   2.386   0.942  11.033 -0.1466  0.1621  0.2380
 3102SOL    HW120942   2.350   1.010  11.091 -0.6762 -0.1309  0.2475
 3102SOL    HW220943   2.330   0.941  10.956  1.2632 -2.7386 -0.7455
 3103SOL     OW20944   1.947   2.469   4.232  0.0807  0.3649 -0.1465
 3103SOL    HW120945   2.009   2.542   4.224  0.5056  0.3516  2.8358
 3103SOL    HW220946   1.988   2.405   4.291 -2.9528 -0.0376  1.4865
 3104SOL     OW20947   0.420   1.619   3.044 -0.2919  0.3025  0.1734
 3104SOL    HW120948   0.349   1.584   2.989  1.5644  0.1282 -2.1088
 3104SOL    HW220949   0.370   1.648   3.120 -1.0678  0.9161 -0.5520
 3105SOL     OW20950   3.987   1.481   4.035 -0.1970 -0.1011  0.1742
 3105SOL    HW120951   4.026   1.418   3.974  0.2832 -2.3307  2.8181
 3105SOL    HW220952   3.903   1.510   3.998  0.2586 -1.0357 -1.6092
 3106SOL     OW20953   1.703   4.098   1.337 -0.0638 -0.0657 -0.5748
 3106SOL    HW120954   1.670   4.009   1.342 -1.3788  0.6216  3.0263
 3106SOL    HW220955   1.790   4.073   1.307 -0.6170 -0.5434 -1.8002
 3107SOL     OW20956   3.938   2.238   6.419  0.2199  0.7252 -0.7309
 3107SOL    HW120957   4.000   2.209   6.486 -2.3621 -1.8008  0.5902
 3107SOL    HW220958   3.877   2.286   6.474  0.9302 -1.8017  2.2523
 3108SOL     OW20959   3.405   0.085   8.033  0.1826  0.0296 -0.6391
 3108SOL    HW120960   3.428   0.178   8.038 -2.2441  0.5509  0.3981
 3108SOL    HW220961   3.469   0.049   7.971  1.1953 -0.9448  0.9643
 3109SOL     OW20962   2.072   4.711   7.673  0.2951  0.2638 -0.5851
 3109SOL    HW120963   2.148   4.715   7.730  0.1957 -0.5320 -0.3943
 3109SOL    HW220964   2.039   4.624   7.696  0.5358  0.8311  1.8450
 3110SOL     OW20965   3.307   0.661  12.096  0.3897 -0.2761  0.4547
 3110SOL    HW120966   3.215   0.636  12.097  0.8258 -1.9290 -1.2661
 3110SOL    HW220967   3.342   0.648  12.184 -0.8024  0.9772  1.1063
 3111SOL     OW20968   2.760   0.304   2.479 -0.0570 -0.7302  0.0367
 3111SOL    HW120969   2.819   0.312   2.404 -0.1582 -1.7994 -0.1616
 3111SOL    HW220970   2.692   0.365   2.451  1.8646  1.4498  0.1787
 3112SOL     OW20971   3.311   0.783  11.806 -0.1376 -0.1163 -0.1305
 3112SOL    HW120972   3.279   0.769  11.895  1.9254  1.3306  0.8294
 3112SOL    HW220973   3.318   0.694  11.770 -1.2302 -0.3416  0.2084
 3113SOL     OW20974   1.132   0.878   2.589 -0.2240 -0.0961  0.2564
 3113SOL    HW120975   1.088   0.862   2.505 -0.7327 -1.3303  0.7455
 3113SOL    HW220976   1.150   0.971   2.583  1.1964 -0.4037 -0.1337
 3114SOL     OW20977   3.993   1.073   7.194  0.0487 -0.2338  0.0837
 3114SOL    HW120978   4.001   1.138   7.125 -0.1300  0.1262  0.3983
 3114SOL    HW220979   4.026   1.122   7.270  0.6577 -0.7400  0.1471
 3115SOL     OW20980   2.849   3.579   8.080 -0.5071  1.1656  0.0288
 3115SOL    HW120981   2.776   3.542   8.129 -0.6606  1.5552  0.0910
 3115SOL    HW220982   2.829   3.673   8.079 -2.2509  0.7747 -0.3775
 3116SOL     OW20983   2.987   3.562  14.720  0.1573 -0.0191  0.3316
 3116SOL    HW120984   2.959   3.511  14.645 -1.9694  0.5339  0.7403
 3116SOL    HW220985   3.080   3.576  14.705 -0.3072  1.2094 -1.3731
 3117SOL     OW20986   3.299   0.199   5.517  0.5528 -0.1163  0.0015
 3117SOL    HW120987   3.323   0.199   5.609  0.5373  1.5795  0.0123
 3117SOL    HW220988   3.214   0.155   5.517  1.8040 -2.5469 -0.6472
 3118SOL     OW20989   4.001   4.123   4.862 -0.5297 -0.3846 -0.0901
 3118SOL    HW120990   4.008   4.188   4.932 -2.7483 -1.3591  1.0123
 3118SOL    HW220991   4.002   4.043   4.914 -1.3250 -0.9035 -0.8737
 3119SOL     OW20992   0.159   1.658   3.615 -0.4918 -0.2365  0.7540
 3119SOL    HW120993   0.143   1.593   3.546  1.5760  0.7497 -0.6311
 3119SOL    HW220994   0.082   1.715   3.611  0.1785  0.4921 -1.8984
 3120SOL     OW20995   1.296   3.586  12.270 -0.2967 -0.1422 -0.4453
 3120SOL    HW120996   1.243   3.507  12.258  0.8679 -0.6373 -2.4462
 3120SOL    HW220997   1.230   3.631  12.322 -0.6553 -1.0372 -0.1308
 3121SOL     OW20998   2.638   3.061   0.846 -0.5318 -0.0063  0.2394
 3121SOL    HW120999   2.581   2.984   0.848  0.4561 -0.6684  3.0920
 3121SOL    HW221000   2.618   3.105   0.763 -1.3824  0.4034  0.6649
 3122SOL     OW21001   3.873   0.997   0.986 -0.1033 -0.5256 -0.3269
 3122SOL    HW121002   3.965   0.970   0.988  0.0706  0.0954 -0.1614
 3122SOL    HW221003   3.842   0.958   0.904 -0.9722  2.2979 -1.3293
 3123SOL     OW21004   1.458   1.736   1.181 -0.1598  0.3626 -0.1509
 3123SOL    HW121005   1.528   1.790   1.145 -0.6810  1.6344  0.7466
 3123SOL    HW221006   1.406   1.805   1.223  0.4319  1.3105 -0.9857
 3124SOL     OW21007   3.391   3.646   5.239  0.3067 -0.1253  0.5009
 3124SOL    HW121008   3.469   3.672   5.288  0.5718  0.9404 -0.4871
 3124SOL    HW221009   3.384   3.724   5.184 -2.3985 -1.3526 -0.8999
 3125SOL     OW21010   2.924   1.093  12.925  0.1362  0.2881  0.4831
 3125SOL    HW121011   2.919   1.187  12.940  1.2264  0.3293  0.5907
 3125SOL    HW221012   2.933   1.069  13.018 -2.1797 -0.3035  0.5524
 3126SOL     OW21013   2.869   3.653   5.813 -0.1530  0.3823  0.5226
 3126SOL    HW121014   2.925   3.579   5.787 -0.2776 -0.9556  4.0713
 3126SOL    HW221015   2.899   3.719   5.751  0.4130 -0.8521 -0.5234
 3127SOL     OW21016   3.369   4.373  13.145  0.2758 -0.2971 -0.1999
 3127SOL    HW121017   3.360   4.278  13.142  2.3307 -0.5503  1.2119
 3127SOL    HW221018   3.278   4.399  13.157 -0.7115 -3.4033 -0.8934
 3128SOL     OW21019   0.691   1.478   3.313 -0.7209 -0.3438 -0.2944
 3128SOL    HW121020   0.672   1.464   3.406  2.0572 -4.2967 -0.3590
 3128SOL    HW221021   0.629   1.424   3.263 -0.5772 -0.1420 -0.6907
 3129SOL     OW21022   4.223   2.188  16.572 -0.0717 -0.0737 -0.4461
 3129SOL    HW121023   4.243   2.099  16.544 -1.4218 -0.7494  0.7146
 3129SOL    HW221024   4.127   2.185  16.568 -0.1724  1.6058  1.0234
 3130SOL     OW21025   3.904   3.862   5.972  0.5976 -0.4327  0.3965
 3130SOL    HW121026   3.986   3.821   5.998 -0.0603 -1.5368  0.7045
 3130SOL    HW221027   3.873   3.807   5.900 -1.1077  0.9773  0.0370
 3131SOL     OW21028   4.155   4.032   8.504  0.1109  0.3181 -0.1714
 3131SOL    HW121029   4.201   3.952   8.477 -1.1796 -0.8630  1.0989
 3131SOL    HW221030   4.114   3.995   8.582  0.1269  1.9508  0.6011
 3132SOL     OW21031   1.147   4.680   7.643 -0.4566  0.1187 -0.9448
 3132SOL    HW121032   1.161   4.608   7.582 -0.4264 -0.9677  0.3246
 3132SOL    HW221033   1.075   4.734   7.613  0.4310  1.7844 -0.1154
 3133SOL     OW21034   2.124   2.824   5.081  0.2690 -0.7331  0.0079
 3133SOL    HW121035   2.046   2.807   5.133 -0.5249 -0.2463 -1.0219
 3133SOL    HW221036   2.158   2.905   5.118  0.4356 -0.2595 -1.1634
 3134SOL     OW21037   0.255   2.892   3.940  1.0429 -0.2121 -0.1412
 3134SOL    HW121038   0.303   2.939   3.871  2.5613 -1.0503  0.3537
 3134SOL    HW221039   0.260   2.959   4.008 -0.5125  0.1467 -0.3811
 3135SOL     OW21040   2.322   1.561   9.374  0.2609  0.4786 -0.4492
 3135SOL    HW121041   2.409   1.528   9.353 -0.2312 -1.9141  1.3579
 3135SOL    HW221042   2.261   1.492   9.350  1.5703 -0.9719  0.3570
 3136SOL     OW21043   2.319   3.391  17.453 -0.4802 -0.0656 -0.5686
 3136SOL    HW121044   2.360   3.461  17.403 -0.7672  1.1166  0.8165
 3136SOL    HW221045   2.327   3.321  17.390  1.8707  0.5863 -0.9791
 3137SOL     OW21046   4.381   1.257   2.265 -0.1504  0.1005  0.1883
 3137SOL    HW121047   4.338   1.268   2.181  2.1574  0.4904 -0.9523
 3137SOL    HW221048   4.359   1.170   2.297 -1.7229 -0.5606 -2.6921
 3138SOL     OW21049   0.577   0.628   5.736  0.5043 -0.0846 -0.4342
 3138SOL    HW121050   0.500   0.622   5.679  0.3495  1.0077 -0.3497
 3138SOL    HW221051   0.644   0.648   5.671  1.1427 -1.5175 -0.2171
 3139SOL     OW21052   3.510   3.687   1.445  0.0929 -0.8199  0.0172
 3139SOL    HW121053   3.451   3.760   1.464  2.3916  0.3746  2.6350
 3139SOL    HW221054   3.460   3.617   1.404 -2.0930  1.9477 -2.0127
 3140SOL     OW21055   3.759   2.580   4.067 -0.3463  0.4937 -0.1900
 3140SOL    HW121056   3.714   2.499   4.092  1.4323  0.6091  3.3130
 3140SOL    HW221057   3.698   2.650   4.088 -0.4239  0.9572 -1.9729
 3141SOL     OW21058   1.810   3.668   0.092  0.1049 -0.0352  0.5903
 3141SOL    HW121059   1.883   3.606   0.086  0.0645  0.0225 -0.5849
 3141SOL    HW221060   1.813   3.699   0.182 -0.5916 -1.3035  1.0355
 3142SOL     OW21061   2.926   3.182  16.309  0.0135  0.4060  0.0764
 3142SOL    HW121062   2.874   3.166  16.230  0.8560  0.8466 -0.5700
 3142SOL    HW221063   2.928   3.278  16.310 -1.1947  0.4199  1.0791
 3143SOL     OW21064   1.447   1.352  16.282 -0.3246  0.4273  0.0867
 3143SOL    HW121065   1.433   1.407  16.359 -0.0186  1.7511 -0.7959
 3143SOL    HW221066   1.359   1.334  16.251 -0.7516  2.5778  0.0466
 3144SOL     OW21067   3.621   1.791   4.439  0.2643  0.0452  0.3321
 3144SOL    HW121068   3.633   1.886   4.438  0.4913  0.0117 -1.7077
 3144SOL    HW221069   3.561   1.782   4.365 -0.5971  1.2346  0.8905
 3145SOL     OW21070   2.036   3.370   1.080 -0.0233  0.2802  0.1376
 3145SOL    HW121071   2.122   3.339   1.109 -0.3285 -0.5554  0.1432
 3145SOL    HW221072   2.025   3.326   0.996 -0.2847 -2.8175  1.7993
 3146SOL     OW21073   4.497   2.785   8.675  0.8849 -0.1774  0.0225
 3146SOL    HW121074   4.427   2.767   8.738 -0.0076 -1.6148 -1.3899
 3146SOL    HW221075   4.567   2.723   8.697  0.3994 -0.2966  1.2315
 3147SOL     OW21076   0.157   4.414   7.327  0.0866  0.4582 -0.4084
 3147SOL    HW121077   0.231   4.425   7.267 -0.5150 -2.1368 -1.6432
 3147SOL    HW221078   0.189   4.330   7.361 -0.2120  0.4285 -0.2043
 3148SOL     OW21079   3.496   2.978  12.284 -0.2393 -0.0952 -0.1635
 3148SOL    HW121080   3.431   2.968  12.214  0.6795  0.7981 -1.1419
 3148SOL    HW221081   3.457   3.042  12.344 -1.9210 -0.5377 -0.7836
 3149SOL     OW21082   0.197   0.821  15.036  0.0704 -0.6278 -0.5325
 3149SOL    HW121083   0.285   0.854  15.019  0.0236  0.7577  1.9890
 3149SOL    HW221084   0.212   0.745  15.092 -2.2915  1.0425  2.3547
 3150SOL     OW21085   0.316   0.278   2.310 -0.5317 -0.3471  0.0441
 3150SOL    HW121086   0.397   0.228   2.321  0.3111  1.0272  0.0727
 3150SOL    HW221087   0.280   0.272   2.399  0.3765 -0.2726  0.4122
 3151SOL     OW21088   2.484   1.707  13.604  0.1150 -0.8909  0.1652
 3151SOL    HW121089   2.391   1.717  13.623  0.4206 -0.2447  1.3541
 3151SOL    HW221090   2.518   1.737  13.689  2.6610  1.1982 -1.5771
 3152SOL     OW21091   3.206   2.681   8.146 -0.1596 -0.5690 -0.4226
 3152SOL    HW121092   3.273   2.649   8.206 -1.0487 -2.3464 -0.3680
 3152SOL    HW221093   3.255   2.722   8.075  0.1561 -2.5303 -1.3278
 3153SOL     OW21094   4.150   4.361  14.220  0.7245 -0.6090 -0.1454
 3153SOL    HW121095   4.223   4.413  14.187  0.4779 -1.3824 -1.8826
 3153SOL    HW221096   4.080   4.412  14.179  1.9833  2.2217  1.2337
 3154SOL     OW21097   1.049   3.686   2.916 -0.3992 -0.1612 -0.1620
 3154SOL    HW121098   1.097   3.627   2.858 -1.1245 -1.1459  0.2390
 3154SOL    HW221099   0.963   3.668   2.878 -1.2251  2.4225  0.4513
 3155SOL     OW21100   2.966   4.217  16.863  0.0939 -0.5805  0.8538
 3155SOL    HW121101   2.908   4.228  16.939  0.1970  3.5549  0.3376
 3155SOL    HW221102   2.916   4.272  16.802  0.1041 -0.1119  1.2627
 3156SOL     OW21103   3.440   1.954   4.232  0.0118 -0.8960 -0.0277
 3156SOL    HW121104   3.438   2.029   4.291 -1.2192  1.9498 -3.6598
 3156SOL    HW221105   3.382   1.894   4.279  1.4973 -1.7387  0.7034
 3157SOL     OW21106   1.908   2.489   0.444  0.4716 -0.2335  0.4353
 3157SOL    HW121107   1.964   2.566   0.439  1.0036 -0.6196  0.4558
 3157SOL    HW221108   1.976   2.422   0.443  1.8307  1.1692 -1.0945
 3158SOL     OW21109   2.743   3.263   2.263 -0.4764 -0.2300 -0.2435
 3158SOL    HW121110   2.733   3.312   2.182  0.1332 -0.8183 -0.6639
 3158SOL    HW221111   2.760   3.337   2.323 -0.3730 -0.1306 -0.3974
 3159SOL     OW21112   0.186   1.997  15.753 -0.2602  0.2250 -0.3601
 3159SOL    HW121113   0.104   1.995  15.802  0.7346 -0.3519  1.2994
 3159SOL    HW221114   0.225   2.079  15.782 -0.8499  0.1509  0.6100
 3160SOL     OW21115   1.007   1.867  15.175  0.2264  0.1667  0.0728
 3160SOL    HW121116   1.035   1.880  15.085  1.2802  2.7743  0.7908
 3160SOL    HW221117   1.063   1.791  15.195  0.5396  0.5193  0.5587
 3161SOL     OW21118   3.110   0.001  14.295 -0.0155 -0.1129 -0.3906
 3161SOL    HW121119   3.170   4.697  14.233 -0.2190 -0.7956 -0.1272
 3161SOL    HW221120   3.142   4.701  14.377 -0.1147 -0.5773 -0.5668
 3162SOL     OW21121   3.394   4.208   1.923  0.1187  0.4391  0.2302
 3162SOL    HW121122   3.322   4.268   1.907  1.2955  1.6866 -0.3908
 3162SOL    HW221123   3.471   4.265   1.933  1.3615 -1.3509  0.8851
 3163SOL     OW21124   4.123   2.111   3.525  0.6099 -0.4320 -0.2811
 3163SOL    HW121125   4.154   2.198   3.501 -0.4617 -0.3261 -1.2609
 3163SOL    HW221126   4.083   2.128   3.610  0.3797 -1.7174 -0.1349
 3164SOL     OW21127   4.227   0.452   2.609 -0.2184  0.2434  0.3697
 3164SOL    HW121128   4.242   0.466   2.702 -1.8345 -0.7105  0.7892
 3164SOL    HW221129   4.204   0.360   2.599 -2.7045  0.7944  0.9426
 3165SOL     OW21130   1.287   1.029  12.296 -0.1549 -0.3316  0.1125
 3165SOL    HW121131   1.362   1.051  12.242  0.8062 -0.0566  1.5402
 3165SOL    HW221132   1.259   1.113  12.333 -0.6224 -0.2925 -0.3441
 3166SOL     OW21133   3.820   3.488   5.154  0.0091 -0.0063  0.5052
 3166SOL    HW121134   3.765   3.553   5.198  0.3371  0.3630  0.3753
 3166SOL    HW221135   3.878   3.547   5.106 -1.7174  1.9970  0.8979
 3167SOL     OW21136   1.582   0.782   2.171  0.2482  0.2729 -0.5163
 3167SOL    HW121137   1.587   0.775   2.266 -0.0474 -3.8437 -0.7621
 3167SOL    HW221138   1.486   0.776   2.167  0.1701  0.2577  1.4915
 3168SOL     OW21139   1.024   3.354   1.032 -0.2557  0.3959 -0.5753
 3168SOL    HW121140   0.963   3.355   0.958 -0.1620  0.8901 -0.6462
 3168SOL    HW221141   1.026   3.447   1.055  0.9184  0.0852  0.5590
 3169SOL     OW21142   4.213   1.680   8.478  0.0265 -0.1665  0.3381
 3169SOL    HW121143   4.300   1.655   8.509 -0.6894 -0.6252  1.9893
 3169SOL    HW221144   4.197   1.600   8.429 -0.9817 -0.4352  1.1054
 3170SOL     OW21145   4.272   0.152   0.644 -0.0133 -0.2778 -0.0689
 3170SOL    HW121146   4.266   0.180   0.736 -3.1077  1.1100 -0.6944
 3170SOL    HW221147   4.257   0.233   0.596 -0.7365 -0.6494 -0.4694
 3171SOL     OW21148   1.335   0.165   1.897  0.1575  0.2406 -0.3189
 3171SOL    HW121149   1.387   0.147   1.818  0.7524 -0.4358  0.2262
 3171SOL    HW221150   1.321   0.081   1.939 -0.5685  0.2687 -0.5139
 3172SOL     OW21151   2.628   0.989   1.014 -0.2479 -0.4222  0.2329
 3172SOL    HW121152   2.572   0.978   1.091 -0.0063  2.3861  0.7955
 3172SOL    HW221153   2.688   0.915   1.010 -0.4523 -0.5138 -1.5466
 3173SOL     OW21154   3.200   1.125   2.467 -0.1972  0.0212  0.4950
 3173SOL    HW121155   3.205   1.106   2.560 -1.6054 -1.7836  0.2075
 3173SOL    HW221156   3.180   1.040   2.428 -0.0367  0.5467 -0.7500
 3174SOL     OW21157   0.904   4.601   0.112 -0.0279 -0.3605  0.5563
 3174SOL    HW121158   0.830   4.630   0.165 -2.0526 -1.7589 -1.4743
 3174SOL    HW221159   0.950   4.540   0.169  1.6931  1.1203  0.7354
 3175SOL     OW21160   4.216   3.510   1.481  0.6018 -0.3241  0.1222
 3175SOL    HW121161   4.134   3.542   1.443  0.9292  0.2922 -0.0627
 3175SOL    HW221162   4.243   3.593   1.520 -1.0548 -0.3493  1.3119
 3176SOL     OW21163   3.632   3.859   3.641 -0.1509 -0.4806 -0.8242
 3176SOL    HW121164   3.565   3.817   3.694  0.3066 -0.4125 -0.1949
 3176SOL    HW221165   3.713   3.814   3.665 -1.0899 -1.4726  0.4540
 3177SOL     OW21166   3.638   1.317   3.618  0.2049  0.3049  0.0056
 3177SOL    HW121167   3.611   1.239   3.666 -1.0495  0.8951  0.2380
 3177SOL    HW221168   3.652   1.297   3.526  1.5685  1.1440  0.0273
 3178SOL     OW21169   0.737   0.102   6.363  0.0209  0.0505 -0.0716
 3178SOL    HW121170   0.812   0.157   6.342  0.2370 -1.5611 -3.4018
 3178SOL    HW221171   0.786   0.039   6.416  0.2149  2.1885  2.3432
 3179SOL     OW21172   2.238   0.514   7.269  0.3081  0.3394  0.4443
 3179SOL    HW121173   2.268   0.600   7.299 -0.9219  0.6297  0.8587
 3179SOL    HW221174   2.174   0.535   7.200  0.6232 -0.6446 -0.1385
 3180SOL     OW21175   2.815   2.574   0.028  0.2137  0.1675 -0.9116
 3180SOL    HW121176   2.773   2.588  17.693 -0.1769 -0.3907 -0.8135
 3180SOL    HW221177   2.795   2.484   0.056  0.7228  0.7170  1.2262
 3181SOL     OW21178   4.085   2.506   6.779  0.2310 -0.6095  0.0015
 3181SOL    HW121179   4.144   2.438   6.812  0.4991  0.0121  0.8074
 3181SOL    HW221180   4.002   2.460   6.794 -0.0962 -0.3618 -1.0725
 3182SOL     OW21181   0.137   0.044  16.074  0.4174 -0.0702 -0.2667
 3182SOL    HW121182   0.150   0.138  16.065 -1.7887  0.1110 -1.6849
 3182SOL    HW221183   0.187   0.018  16.151  0.8058  0.4868 -0.3373
 3183SOL     OW21184   1.610   2.359   0.776  0.4502  0.6177 -0.7320
 3183SOL    HW121185   1.615   2.409   0.694  0.2322  1.6191 -0.1315
 3183SOL    HW221186   1.690   2.308   0.761  0.7020  1.2974 -1.7457
 3184SOL     OW21187   3.893   2.920   0.789  0.2643 -1.2063  0.2379
 3184SOL    HW121188   3.899   2.858   0.716 -1.2858 -0.2560 -0.7125
 3184SOL    HW221189   3.976   2.967   0.781  0.4440 -1.3519  1.2385
 3185SOL     OW21190   0.505   3.422  10.754 -0.2003  0.2829 -0.3999
 3185SOL    HW121191   0.567   3.419  10.826 -0.3749  1.5217 -0.1951
 3185SOL    HW221192   0.554   3.365  10.694 -0.5211 -0.8664  0.4245
 3186SOL     OW21193   0.787   1.579  16.748  0.5851  0.7497  1.0964
 3186SOL    HW121194   0.782   1.669  16.779  1.9638  0.8728  0.9347
 3186SOL    HW221195   0.750   1.533  16.824 -2.7814  2.3916  0.4408
 3187SOL     OW21196   4.454   2.320   8.482  0.0069 -0.2726  0.0013
 3187SOL    HW121197   4.547   2.311   8.506  0.3195  0.1317 -1.0758
 3187SOL    HW221198   4.424   2.229   8.483 -0.8663  0.0076 -1.8364
 3188SOL     OW21199   0.138   3.105  16.120 -0.1774  0.1080  0.3409
 3188SOL    HW121200   0.053   3.063  16.103 -0.0948  0.0407  0.0979
 3188SOL    HW221201   0.192   3.081  16.045  0.4077 -0.1100  0.8301
 3189SOL     OW21202   4.176   1.689   0.280  0.0138 -0.2573  0.4187
 3189SOL    HW121203   4.264   1.712   0.313 -0.0099 -1.5463  1.3815
 3189SOL    HW221204   4.192   1.607   0.234 -0.2924 -0.4842  0.7173
 3190SOL     OW21205   3.766   4.529   7.714  0.9588  0.5109  0.0665
 3190SOL    HW121206   3.761   4.526   7.618 -2.1100  1.0867  0.1962
 3190SOL    HW221207   3.831   4.460   7.727  0.8831  0.2589 -0.8595
 3191SOL     OW21208   3.931   2.127   9.247 -0.0144 -0.8010  0.1747
 3191SOL    HW121209   3.969   2.173   9.322 -2.9989  1.6779  0.2135
 3191SOL    HW221210   3.984   2.048   9.242  3.7892  1.6968  1.1242
 3192SOL     OW21211   2.663   2.730  13.857  0.0654 -0.3077  0.3568
 3192SOL    HW121212   2.717   2.689  13.788  0.8618  0.0389  0.7729
 3192SOL    HW221213   2.733   2.765  13.912  2.4801  0.7984 -3.3867
 3193SOL     OW21214   0.128   4.196   5.612  0.4638 -0.0362  0.5745
 3193SOL    HW121215   0.124   4.275   5.665 -1.1562  0.6817 -0.6094
 3193SOL    HW221216   0.181   4.141   5.670  0.4443  1.2356  1.7963
 3194SOL     OW21217   3.820   3.079   1.159  0.4760  0.7052  0.3195
 3194SOL    HW121218   3.800   3.014   1.092 -1.5565  1.4910  0.1870
 3194SOL    HW221219   3.760   3.061   1.231  0.4149  3.3444  0.9325
 3195SOL     OW21220   4.322   4.222   7.198 -0.0166 -0.3383  0.1777
 3195SOL    HW121221   4.284   4.308   7.179  2.1505  0.7344  0.7294
 3195SOL    HW221222   4.412   4.239   7.224 -0.1983 -0.3183  0.7791
 3196SOL     OW21223   2.365   0.072  17.392 -0.1602 -0.3322 -0.0553
 3196SOL    HW121224   2.329   0.080  17.304  0.3164 -0.0889 -0.2293
 3196SOL    HW221225   2.458   0.091  17.377 -0.3242 -0.0446 -0.7129
 3197SOL     OW21226   0.266   2.739   3.106  0.1730  0.5782 -0.1936
 3197SOL    HW121227   0.357   2.713   3.093  0.3081  0.1537  1.5869
 3197SOL    HW221228   0.285   2.823   3.149  0.4970  0.2943  0.2115
 3198SOL     OW21229   3.199   1.798   6.968 -0.5784 -0.2230  0.5565
 3198SOL    HW121230   3.197   1.876   7.023 -1.6489 -1.8413  2.8074
 3198SOL    HW221231   3.143   1.830   6.897 -1.1157 -2.0555  0.1557
 3199SOL     OW21232   2.691   2.321   0.034  0.1909 -0.1887  0.0094
 3199SOL    HW121233   2.694   2.261   0.108 -1.9905 -0.6659 -0.2829
 3199SOL    HW221234   2.729   2.268  17.714  2.5812 -1.5575  2.3387
 3200SOL     OW21235   4.489   3.220   3.665  0.1545  0.4304 -0.1824
 3200SOL    HW121236   4.450   3.246   3.749 -1.0859 -0.1793 -0.5862
 3200SOL    HW221237   4.428   3.264   3.606 -0.2390 -2.3161 -1.7843
 3201SOL     OW21238   1.817   4.045   1.790 -0.2690 -0.1110 -0.0918
 3201SOL    HW121239   1.863   4.128   1.782  1.2121 -0.8425  0.6752
 3201SOL    HW221240   1.747   4.061   1.727  1.6084  2.5711 -1.4546
 3202SOL     OW21241   0.572   4.644   7.614  0.4539  0.6978  0.2404
 3202SOL    HW121242   0.663   4.614   7.609  0.0281 -0.5953  0.2015
 3202SOL    HW221243   0.594   4.722   7.666  2.4639  0.9607 -0.9750
 3203SOL     OW21244   3.671   3.246   0.873  0.1280 -0.6518 -0.4058
 3203SOL    HW121245   3.631   3.258   0.960 -1.0261  0.0338 -1.0326
 3203SOL    HW221246   3.761   3.257   0.904  0.8591 -1.7364 -2.1664
 3204SOL     OW21247   2.910   0.737   8.945 -0.2520 -0.0000  0.1954
 3204SOL    HW121248   2.907   0.790   9.025  1.0184 -0.6274  0.6649
 3204SOL    HW221249   2.958   0.664   8.985 -0.5735 -0.5204 -0.3702
 3205SOL     OW21250   2.388   1.649   6.429  0.3507  0.8584  0.5975
 3205SOL    HW121251   2.406   1.633   6.336  1.5872 -0.1908  1.0159
 3205SOL    HW221252   2.333   1.572   6.447  0.2690  0.0095 -3.2130
 3206SOL     OW21253   0.264   4.363   9.120  0.3240  0.0814  0.4790
 3206SOL    HW121254   0.275   4.271   9.143  1.3791  0.7300  2.5435
 3206SOL    HW221255   0.348   4.407   9.132  0.6441 -0.0470 -1.1706
 3207SOL     OW21256   2.078   2.463  16.334 -0.4759  0.2106 -0.1337
 3207SOL    HW121257   2.042   2.438  16.249  2.4335 -2.4717 -0.5499
 3207SOL    HW221258   2.076   2.558  16.321 -0.7505  0.3773  1.0937
 3208SOL     OW21259   4.440   3.066  12.513  0.5315 -0.4560 -0.1517
 3208SOL    HW121260   4.503   2.994  12.518  0.4138 -0.5114  0.5297
 3208SOL    HW221261   4.499   3.141  12.505 -0.6718  0.6202  0.9946
 3209SOL     OW21262   4.068   0.029   3.566  0.2967  0.6443 -0.9453
 3209SOL    HW121263   4.071   0.125   3.567  0.2801  0.6449 -0.9545
 3209SOL    HW221264   4.019   0.011   3.486 -1.3620  0.7186  0.0636
 3210SOL     OW21265   1.716   1.248   4.298  0.2603  0.0422  0.1100
 3210SOL    HW121266   1.723   1.229   4.204  1.6095  0.0375  0.2128
 3210SOL    HW221267   1.803   1.277   4.325  1.0332 -0.5732 -1.6939
 3211SOL     OW21268   3.850   0.737   6.610 -0.0826  0.0729 -0.2284
 3211SOL    HW121269   3.758   0.712   6.618 -0.6351  1.8816 -0.7900
 3211SOL    HW221270   3.883   0.696   6.530  2.6129 -0.7149  1.2851
 3212SOL     OW21271   0.887   4.438   8.406  0.1707  0.0553 -0.0134
 3212SOL    HW121272   0.982   4.450   8.402  0.1209  0.5833  0.3903
 3212SOL    HW221273   0.887   4.342   8.400 -1.3680 -0.0379  1.3968
 3213SOL     OW21274   4.369   4.529  14.176 -0.2480 -0.7250 -0.0132
 3213SOL    HW121275   4.452   4.531  14.129 -0.4171  0.8495 -0.2624
 3213SOL    HW221276   4.361   4.618  14.213  1.9846 -0.2298 -0.7591
 3214SOL     OW21277   1.276   2.195   9.044  0.0794 -0.0550 -0.2550
 3214SOL    HW121278   1.214   2.257   9.082 -0.0922  0.1651 -0.8948
 3214SOL    HW221279   1.272   2.205   8.949 -1.6815 -4.1353 -0.6114
 3215SOL     OW21280   1.273   0.068   8.578 -0.6612  0.4818  0.2830
 3215SOL    HW121281   1.313   0.142   8.623 -0.2330  0.3858  0.0604
 3215SOL    HW221282   1.342   0.004   8.560 -2.2213 -0.7224 -1.4522
 3216SOL     OW21283   3.965   3.401   6.384  0.1693  0.6068  0.2548
 3216SOL    HW121284   3.901   3.349   6.431  0.8971 -2.4296 -2.1436
 3216SOL    HW221285   3.988   3.338   6.316  1.6280  1.5587 -0.1526
 3217SOL     OW21286   3.554   4.306   3.022 -0.8459 -0.6374  0.2780
 3217SOL    HW121287   3.510   4.353   3.094  0.9844 -1.3789  1.8851
 3217SOL    HW221288   3.610   4.247   3.073 -1.3828 -0.4876  1.0506
 3218SOL     OW21289   0.440   2.357   6.441 -0.3040 -0.2868  0.2164
 3218SOL    HW121290   0.461   2.294   6.372 -1.5410  1.6961 -1.9799
 3218SOL    HW221291   0.425   2.437   6.391  0.6536 -0.1116  0.2116
 3219SOL     OW21292   2.717   2.964  17.385 -0.2904  0.2631 -0.3980
 3219SOL    HW121293   2.730   2.870  17.375 -0.3532 -0.1070  3.0110
 3219SOL    HW221294   2.778   3.005  17.323 -0.5070 -0.5762 -1.1583
 3220SOL     OW21295   0.344   4.205  15.665 -0.2552 -0.0929  0.0812
 3220SOL    HW121296   0.274   4.148  15.696 -0.9579  1.5768  1.5578
 3220SOL    HW221297   0.371   4.241  15.749  0.7820 -0.8993  0.0877
 3221SOL     OW21298   1.954   0.809   0.786 -0.3843  0.2182  0.2487
 3221SOL    HW121299   1.953   0.838   0.695 -0.5183  1.5054  0.6555
 3221SOL    HW221300   1.884   0.861   0.826 -0.7594 -0.7702  0.8976
 3222SOL     OW21301   3.709   1.377   6.736 -0.2288  0.5321  0.1728
 3222SOL    HW121302   3.702   1.302   6.796 -1.6218  1.3692  1.0584
 3222SOL    HW221303   3.760   1.328   6.671  0.3557 -0.5299  1.4115
 3223SOL     OW21304   2.349   1.906   8.114 -0.0548 -0.2500  0.4339
 3223SOL    HW121305   2.265   1.859   8.115  0.4365 -1.0970  1.0670
 3223SOL    HW221306   2.337   1.949   8.029  1.8002 -0.0136  0.2998
 3224SOL     OW21307   1.335   1.589   7.199 -0.6321  0.6980 -0.1865
 3224SOL    HW121308   1.352   1.674   7.158 -1.5911  0.6438 -0.7034
 3224SOL    HW221309   1.380   1.525   7.143 -2.7033 -0.2568 -0.7483
 3225SOL     OW21310   4.696   1.279   1.277  0.1051 -0.2389 -0.0194
 3225SOL    HW121311   4.683   1.185   1.263 -2.7492 -0.1584  2.0041
 3225SOL    HW221312   4.676   1.306   1.188  0.3938 -0.4680 -0.1524
 3226SOL     OW21313   0.488   1.046  12.212  0.3153 -0.5403 -0.8492
 3226SOL    HW121314   0.493   1.097  12.131 -0.0277  0.1298 -0.4412
 3226SOL    HW221315   0.411   1.087  12.251  2.1507  3.5794 -1.5886
 3227SOL     OW21316   0.510   2.922  16.249 -0.3494  0.4201 -0.0411
 3227SOL    HW121317   0.546   2.896  16.164  0.2892 -1.0349  0.6788
 3227SOL    HW221318   0.420   2.894  16.238 -0.1738  0.2523 -1.0649
 3228SOL     OW21319   1.073   0.220   1.805 -0.2808 -0.4363  0.1070
 3228SOL    HW121320   1.027   0.152   1.855  0.9402 -1.9805 -0.8832
 3228SOL    HW221321   1.150   0.223   1.862  0.4542 -2.4479 -0.8037
 3229SOL     OW21322   2.534   1.357   5.001  0.0094 -0.7229  0.3171
 3229SOL    HW121323   2.510   1.271   5.035  0.0653 -0.8978 -0.0896
 3229SOL    HW221324   2.627   1.351   5.020  0.1252  0.6384  0.2108
 3230SOL     OW21325   2.910   4.069   1.245  0.0293 -0.0093 -0.8038
 3230SOL    HW121326   2.974   4.137   1.263  0.3080 -1.1427  2.5487
 3230SOL    HW221327   2.941   4.035   1.161 -1.7621 -0.3507 -1.3289
 3231SOL     OW21328   1.982   1.507   7.648 -0.0022 -0.2960  0.1563
 3231SOL    HW121329   2.037   1.470   7.716  0.4738  0.3892  0.1533
 3231SOL    HW221330   1.894   1.500   7.685  0.3338 -0.4788  0.9033
 3232SOL     OW21331   3.911   0.606   4.939  0.1048  0.5961 -0.4991
 3232SOL    HW121332   3.816   0.618   4.942  0.0478 -0.0516  0.1336
 3232SOL    HW221333   3.942   0.684   4.983  1.5535 -0.9807  1.2381
 3233SOL     OW21334   3.744   3.667  13.099  0.2526  0.5680  0.2746
 3233SOL    HW121335   3.663   3.697  13.056  0.5107 -0.7013 -1.0929
 3233SOL    HW221336   3.793   3.641  13.021 -0.2178  0.1463  0.1200
 3234SOL     OW21337   2.140   3.471   1.661  0.3818 -0.2672  0.4322
 3234SOL    HW121338   2.175   3.383   1.642  0.6998 -0.0833  0.1630
 3234SOL    HW221339   2.046   3.457   1.661  0.4837 -1.0180  2.3374
 3235SOL     OW21340   1.804   1.666   7.363 -0.2670  0.2058 -0.1747
 3235SOL    HW121341   1.850   1.604   7.306 -1.8560 -1.1150 -0.0374
 3235SOL    HW221342   1.716   1.628   7.364  0.7821 -2.1779  1.3705
 3236SOL     OW21343   4.073   2.744   2.078  0.0244  0.6027 -0.3924
 3236SOL    HW121344   4.055   2.717   1.988 -0.8178  1.3796 -0.4576
 3236SOL    HW221345   4.134   2.677   2.108  1.4706  0.9483 -2.5337
 3237SOL     OW21346   0.696   0.819  16.615  0.3505 -0.2126 -0.4040
 3237SOL    HW121347   0.605   0.790  16.613 -0.0530  0.8103  3.1488
 3237SOL    HW221348   0.701   0.883  16.686 -0.6907  1.3924 -1.7737
 3238SOL     OW21349   2.893   2.699   2.767 -0.3373  0.1787  0.3976
 3238SOL    HW121350   2.961   2.648   2.725 -1.2120 -0.2917 -0.4658
 3238SOL    HW221351   2.838   2.724   2.692  0.7357  0.9101 -0.1375
 3239SOL     OW21352   1.939   1.449  16.095 -0.1312 -0.3853  0.1329
 3239SOL    HW121353   1.971   1.485  16.012 -2.1125  0.4044 -0.2858
 3239SOL    HW221354   2.016   1.395  16.112  0.1816  0.6058  1.8566
 3240SOL     OW21355   2.139   0.605   9.008  0.0795 -0.2005 -0.3364
 3240SOL    HW121356   2.105   0.663   8.939 -1.0555 -0.8727 -0.3497
 3240SOL    HW221357   2.083   0.624   9.083  2.3619 -0.9400  1.5329
 3241SOL     OW21358   1.560   3.070   0.913 -0.2236 -0.3067  0.3598
 3241SOL    HW121359   1.622   3.005   0.949  0.4092 -0.2174 -0.5693
 3241SOL    HW221360   1.524   3.018   0.841  1.1085 -0.3992 -0.2393
 3242SOL     OW21361   2.839   4.003   7.141  0.2647 -0.2694  0.4388
 3242SOL    HW121362   2.842   4.049   7.057 -2.6718 -1.4811 -0.3247
 3242SOL    HW221363   2.928   4.009   7.177  0.4108 -1.1452  0.2282
 3243SOL     OW21364   3.664   4.309   7.450 -0.1726 -0.2101 -0.8123
 3243SOL    HW121365   3.703   4.394   7.431 -3.5070  2.1492  2.8660
 3243SOL    HW221366   3.729   4.244   7.425 -1.5630 -1.3671 -1.4571
 3244SOL     OW21367   4.332   3.430   8.782  0.3928 -0.1001  0.0313
 3244SOL    HW121368   4.270   3.367   8.819 -1.2290  2.1112  1.0610
 3244SOL    HW221369   4.411   3.406   8.830  0.8465  0.4490 -0.4301
 3245SOL     OW21370   0.304   3.161   7.005 -0.0254  0.1766 -0.0643
 3245SOL    HW121371   0.392   3.163   6.967  0.3975  0.3518  0.9294
 3245SOL    HW221372   0.311   3.172   7.100 -1.1780 -0.7016  0.1263
 3246SOL     OW21373   1.557   4.232   7.746 -0.2202 -0.3727  0.2382
 3246SOL    HW121374   1.519   4.314   7.777  2.2598  1.2720 -1.0839
 3246SOL    HW221375   1.486   4.169   7.762  0.7035 -1.2032  1.1084
 3247SOL     OW21376   4.561   2.857   8.303 -0.2161 -0.1076  0.0599
 3247SOL    HW121377   4.626   2.804   8.348 -1.3126 -1.9176 -0.5260
 3247SOL    HW221378   4.543   2.812   8.221 -0.8371 -0.1222  0.2010
 3248SOL     OW21379   1.070   0.123   5.586 -0.7457 -0.0592  0.6741
 3248SOL    HW121380   1.033   0.211   5.577  2.6590  1.1478 -1.2079
 3248SOL    HW221381   1.030   0.105   5.672 -1.9833  0.9546  0.3146
 3249SOL     OW21382   0.327   0.065   5.037 -0.2475 -0.5943  0.0557
 3249SOL    HW121383   0.245   0.017   5.048 -1.2421  1.2600  0.6839
 3249SOL    HW221384   0.349   0.076   5.129 -0.7288  1.6778 -0.0860
 3250SOL     OW21385   2.271   4.044  10.590 -0.2907  0.2197  0.0424
 3250SOL    HW121386   2.204   4.079  10.530  2.3456  1.1391 -2.3491
 3250SOL    HW221387   2.331   4.008  10.525 -0.8833 -0.1404 -0.3104
 3251SOL     OW21388   3.893   4.276  13.064 -0.1466 -0.1198 -0.9323
 3251SOL    HW121389   3.915   4.360  13.104  2.1077 -0.5224 -1.3574
 3251SOL    HW221390   3.798   4.286  13.073 -0.3157 -0.2314 -2.6096
 3252SOL     OW21391   0.547   3.669   9.402 -0.5758  0.5009  0.0974
 3252SOL    HW121392   0.639   3.664   9.427 -1.1216 -1.3031  1.7381
 3252SOL    HW221393   0.531   3.578   9.429  3.6954 -0.4402 -0.4814
 3253SOL     OW21394   2.188   3.375   6.929 -0.4980 -0.3186  0.3319
 3253SOL    HW121395   2.168   3.432   7.003  0.6054 -0.0121  0.3863
 3253SOL    HW221396   2.101   3.340   6.908 -0.2965 -1.0971  0.7912
 3254SOL     OW21397   1.267   1.020  11.880 -0.1313  0.4098  0.0832
 3254SOL    HW121398   1.236   1.102  11.918 -1.8927 -0.2962  0.1343
 3254SOL    HW221399   1.215   0.953  11.924 -0.7099 -1.5080 -3.5295
 3255SOL     OW21400   3.093   0.205   9.687 -0.6767 -0.2549 -0.0773
 3255SOL    HW121401   3.134   0.125   9.656  2.4973  0.8016  1.3491
 3255SOL    HW221402   3.072   0.182   9.777  0.5887 -0.2967  0.1995
 3256SOL     OW21403   4.285   3.307  12.144  0.2727 -0.1577 -0.0171
 3256SOL    HW121404   4.246   3.393  12.163 -1.4277 -0.8122 -0.4913
 3256SOL    HW221405   4.374   3.332  12.119 -0.0381  0.7408 -0.2460
 3257SOL     OW21406   2.581   1.396   4.195 -0.1015 -0.2909 -0.2365
 3257SOL    HW121407   2.578   1.483   4.236  0.9462 -0.3917  0.0690
 3257SOL    HW221408   2.490   1.374   4.174  0.4067 -0.8299 -1.9061
 3258SOL     OW21409   1.636   4.600  12.245 -0.6345  0.3599  0.9060
 3258SOL    HW121410   1.706   4.619  12.182 -1.6313  1.9311  0.2988
 3258SOL    HW221411   1.653   4.669  12.310  1.9893 -0.6804  1.3450
 3259SOL     OW21412   1.139   4.456   6.024 -0.4566  0.1388 -0.1218
 3259SOL    HW121413   1.133   4.467   5.929  1.1572  1.6266 -0.0534
 3259SOL    HW221414   1.070   4.392   6.039 -0.8123  0.2929 -1.1145
 3260SOL     OW21415   3.983   2.401   5.484 -0.1647  0.9706  0.5270
 3260SOL    HW121416   3.928   2.417   5.560 -0.8753 -0.5474  0.3340
 3260SOL    HW221417   3.924   2.341   5.440 -0.9178  1.0054  1.4856
 3261SOL     OW21418   3.288   3.401   5.500  0.0271  0.1617  0.1304
 3261SOL    HW121419   3.252   3.350   5.427  2.4532 -0.4101 -0.6396
 3261SOL    HW221420   3.328   3.472   5.450 -1.2588  2.1256  1.8986
 3262SOL     OW21421   3.432   0.344   6.089  0.1212 -0.1393  0.1415
 3262SOL    HW121422   3.387   0.266   6.121 -1.1992 -0.0343 -1.4610
 3262SOL    HW221423   3.515   0.308   6.060 -0.6000 -1.9259  0.2947
 3263SOL     OW21424   4.703   0.804   6.506  0.0904  0.3899  0.0353
 3263SOL    HW121425   4.702   0.758   6.590 -1.8370  0.4079  0.0084
 3263SOL    HW221426   4.620   0.772   6.472  0.1855  0.3004 -0.1156
 3264SOL     OW21427   3.462   3.525  12.904  0.1108 -0.6031 -0.0083
 3264SOL    HW121428   3.469   3.606  12.954 -3.1655  1.0795 -2.2685
 3264SOL    HW221429   3.515   3.467  12.959 -2.6481 -2.4518  0.6936
 3265SOL     OW21430   1.721   3.796   8.018  0.5235 -0.2036  0.3284
 3265SOL    HW121431   1.729   3.826   7.928  1.8245 -0.9423  0.1992
 3265SOL    HW221432   1.798   3.834   8.061 -1.2186 -0.9815  4.2253
 3266SOL     OW21433   3.137   1.956  11.847  0.2693  0.3777 -0.9759
 3266SOL    HW121434   3.109   2.048  11.847 -1.1505 -0.0696  2.8286
 3266SOL    HW221435   3.195   1.956  11.923  0.2499 -1.9505 -0.9723
 3267SOL     OW21436   4.043   0.428   1.579  0.2199  0.6662  1.0897
 3267SOL    HW121437   3.977   0.454   1.644 -0.8111 -0.3438  0.4354
 3267SOL    HW221438   4.055   0.339   1.611 -2.4505 -0.3472 -0.6737
 3268SOL     OW21439   0.514   0.482   2.554 -0.3203  0.3742  0.5802
 3268SOL    HW121440   0.460   0.557   2.526 -0.8295  0.4936  1.8485
 3268SOL    HW221441   0.446   0.415   2.557  0.5331 -0.4978  0.1219
 3269SOL     OW21442   2.950   4.730  16.096 -0.3547 -0.1656  0.4021
 3269SOL    HW121443   2.972   4.715  16.003 -2.4210  0.3567 -0.1549
 3269SOL    HW221444   2.945   0.087  16.095 -1.8268 -0.2403  2.0414
 3270SOL     OW21445   1.953   1.325   5.190 -0.7229  0.3899  0.0827
 3270SOL    HW121446   1.961   1.368   5.276 -0.9037  0.1945  0.1984
 3270SOL    HW221447   1.952   1.400   5.130  0.4573 -0.4064 -0.9260
 3271SOL     OW21448   1.724   3.497   8.328  0.7942 -0.3006 -0.2112
 3271SOL    HW121449   1.801   3.462   8.283  0.4377 -0.9995 -0.2794
 3271SOL    HW221450   1.669   3.507   8.251  0.8538 -0.5570 -0.2865
 3272SOL     OW21451   2.024   4.430   3.025 -0.7437  0.4145 -0.1652
 3272SOL    HW121452   2.053   4.361   2.965 -0.7104 -0.6788  1.1230
 3272SOL    HW221453   2.045   4.507   2.971 -0.6494  1.1247  0.8839
 3273SOL     OW21454   1.269   0.466  13.149 -0.1001  0.5805  0.5272
 3273SOL    HW121455   1.354   0.511  13.159  0.4725 -0.3258 -0.2958
 3273SOL    HW221456   1.285   0.395  13.087 -0.4498  1.9178 -1.1161
 3274SOL     OW21457   2.413   3.079   2.866 -0.8552  0.0151  0.2565
 3274SOL    HW121458   2.328   3.074   2.822 -1.3366 -1.1679  1.3002
 3274SOL    HW221459   2.419   2.989   2.897 -1.2313  0.1658  0.7714
 3275SOL     OW21460   1.219   3.869   9.794 -0.4818 -0.1363 -0.0121
 3275SOL    HW121461   1.223   3.775   9.813  1.4624  0.2280  1.4031
 3275SOL    HW221462   1.312   3.891   9.797 -0.4761 -0.3694  1.4580
 3276SOL     OW21463   2.792   2.276   1.437 -0.1561 -0.5812 -0.5158
 3276SOL    HW121464   2.753   2.235   1.360 -1.1461  0.2408 -0.4478
 3276SOL    HW221465   2.738   2.233   1.503 -0.6696  2.0592  0.7595
 3277SOL     OW21466   3.977   0.529  12.900 -0.1573 -0.2981 -0.2979
 3277SOL    HW121467   4.006   0.438  12.890  1.0330  0.0584  0.0241
 3277SOL    HW221468   4.049   0.575  12.858  0.3522 -1.2195 -0.4484
 3278SOL     OW21469   3.415   2.085   2.010  0.1274 -0.4619  0.0508
 3278SOL    HW121470   3.390   2.174   1.987  0.4504 -0.6687 -1.0889
 3278SOL    HW221471   3.501   2.083   2.053  0.2637 -1.3224 -0.2549
 3279SOL     OW21472   0.071   1.561   4.475  0.4050  0.6041 -0.0779
 3279SOL    HW121473   4.731   1.617   4.472 -0.9828 -1.3364 -0.2575
 3279SOL    HW221474   0.138   1.629   4.470 -0.2421  1.3842  1.5544
 3280SOL     OW21475   2.519   0.623   9.070  0.6102 -0.3054  0.0636
 3280SOL    HW121476   2.475   0.548   9.031 -0.8498  1.7088 -2.1648
 3280SOL    HW221477   2.443   0.676   9.093  0.8065 -1.4236  3.3650
 3281SOL     OW21478   2.908   1.257   7.655 -0.0504  0.6359  0.1649
 3281SOL    HW121479   3.001   1.242   7.675 -0.8105 -1.8585  1.7526
 3281SOL    HW221480   2.877   1.312   7.728 -1.0910  0.1841  0.0495
 3282SOL     OW21481   0.619   2.730   4.490 -0.5633 -0.7472 -0.1470
 3282SOL    HW121482   0.709   2.746   4.520 -0.3693 -0.8588 -0.6592
 3282SOL    HW221483   0.598   2.800   4.427 -0.7207 -0.4658  0.2177
 3283SOL     OW21484   0.650   0.315   5.499  0.3759  0.1866  0.4163
 3283SOL    HW121485   0.625   0.238   5.448  1.2563 -0.3622  0.8172
 3283SOL    HW221486   0.630   0.385   5.437  3.3299  1.0868  0.4534
 3284SOL     OW21487   3.011   0.359   0.788 -0.0529  0.0967 -0.2407
 3284SOL    HW121488   2.928   0.312   0.792  0.6676 -0.9285  3.0414
 3284SOL    HW221489   3.070   0.297   0.830 -0.2585 -1.1048 -1.7236
 3285SOL     OW21490   0.085   4.522   6.440  0.0828  0.2222 -0.5202
 3285SOL    HW121491   0.061   4.564   6.357 -1.1072  0.5928  0.0074
 3285SOL    HW221492   0.143   4.450   6.415 -2.0298 -1.6520  0.0242
 3286SOL     OW21493   3.143   3.530   1.519  0.6259  0.2318  0.9178
 3286SOL    HW121494   3.130   3.495   1.607  3.0116 -1.4583  0.5948
 3286SOL    HW221495   3.059   3.507   1.479 -0.7750  2.3235  2.6148
 3287SOL     OW21496   3.110   0.889   4.239 -0.5875  1.1299 -0.1519
 3287SOL    HW121497   3.081   0.801   4.217 -2.4341  2.0418 -1.3170
 3287SOL    HW221498   3.040   0.916   4.299 -1.0627 -0.6885  0.1127
 3288SOL     OW21499   0.760   0.028   9.914  0.3278 -0.5081 -0.3235
 3288SOL    HW121500   0.735   4.706   9.984  1.9561 -0.0725  0.6224
 3288SOL    HW221501   0.855   0.022   9.915  0.3141 -0.6148  0.0811
 3289SOL     OW21502   0.697   3.538   3.407  0.3106 -0.4537 -0.5169
 3289SOL    HW121503   0.677   3.596   3.481  0.8804 -0.7326 -0.1445
 3289SOL    HW221504   0.728   3.457   3.447 -1.2327 -0.9299 -0.2896
 3290SOL     OW21505   2.896   1.709  16.860  0.9208  0.1483 -0.3820
 3290SOL    HW121506   2.977   1.681  16.902  0.6901 -0.7728 -0.5488
 3290SOL    HW221507   2.908   1.803  16.877 -1.2031  0.7774 -2.3197
 3291SOL     OW21508   1.435   1.494   1.020 -0.4873 -0.2345  0.6122
 3291SOL    HW121509   1.428   1.567   1.082 -2.5294 -1.0838  1.3646
 3291SOL    HW221510   1.520   1.457   1.046 -0.8925 -0.2433  1.9029
 3292SOL     OW21511   1.489   0.284   3.142  0.4798 -0.1527  0.7105
 3292SOL    HW121512   1.555   0.286   3.211  1.8808 -2.0652 -0.5532
 3292SOL    HW221513   1.501   0.370   3.101 -0.3836 -1.8697 -3.1532
 3293SOL     OW21514   1.103   0.485  12.771  0.2488 -0.4078 -0.0740
 3293SOL    HW121515   1.179   0.506  12.717  0.5562  2.1287  1.3319
 3293SOL    HW221516   1.125   0.533  12.851  1.2351  1.1465 -1.2837
 3294SOL     OW21517   1.888   3.296   1.724  0.2083  0.1649  0.1432
 3294SOL    HW121518   1.832   3.269   1.797 -0.4665 -3.6348 -1.7831
 3294SOL    HW221519   1.835   3.367   1.689 -0.4066 -1.4884 -2.2624
 3295SOL     OW21520   1.613   0.341   7.810 -0.2620  0.0857 -0.5631
 3295SOL    HW121521   1.702   0.305   7.802  0.3612  2.2549 -3.5143
 3295SOL    HW221522   1.576   0.297   7.734 -0.4034  1.1413 -1.1110
 3296SOL     OW21523   2.013   3.770   9.489  0.3021  0.3958 -0.1617
 3296SOL    HW121524   2.071   3.700   9.520 -0.3273 -0.4784 -0.9944
 3296SOL    HW221525   2.020   3.832   9.562 -1.8566 -1.0074  1.2343
 3297SOL     OW21526   4.166   2.322   1.586  0.1224 -0.4655 -0.5190
 3297SOL    HW121527   4.108   2.350   1.657  0.4464  1.5832 -1.0449
 3297SOL    HW221528   4.223   2.255   1.623  1.5794  2.0510  1.8184
 3298SOL     OW21529   0.545   0.732   3.205 -0.0198  0.0183 -0.2357
 3298SOL    HW121530   0.570   0.710   3.295 -0.1330 -1.1554 -0.4893
 3298SOL    HW221531   0.625   0.720   3.154 -1.6659 -1.0075 -2.6038
 3299SOL     OW21532   2.178   3.869  16.266  0.2538 -0.4552 -0.1242
 3299SOL    HW121533   2.201   3.787  16.224  0.3022  2.1096 -5.0889
 3299SOL    HW221534   2.108   3.838  16.323  0.1093 -0.5725 -0.3660
 3300SOL     OW21535   2.696   0.014   8.791  0.6132  0.2583 -0.3982
 3300SOL    HW121536   2.731   0.102   8.800  1.4119 -0.1802  0.8012
 3300SOL    HW221537   2.614   0.041   8.749  0.7019  1.5675  0.2762
 3301SOL     OW21538   1.331   3.976   9.498 -0.0621 -0.5600 -0.2340
 3301SOL    HW121539   1.361   4.028   9.423 -0.7077 -0.1234 -0.1950
 3301SOL    HW221540   1.238   3.962   9.481  0.1813 -1.0125 -1.1556
 3302SOL     OW21541   0.558   4.704   8.298  0.1922 -0.2932 -0.2972
 3302SOL    HW121542   0.569   4.609   8.301  1.1919 -0.2008 -0.8744
 3302SOL    HW221543   0.617   4.735   8.228 -0.1494  0.5940 -0.1808
 3303SOL     OW21544   1.884   3.805   2.913  0.1826 -0.5003 -0.4985
 3303SOL    HW121545   1.803   3.761   2.939  1.1442 -1.7742  0.3449
 3303SOL    HW221546   1.934   3.768   2.986 -2.5740 -1.1520  1.0593
 3304SOL     OW21547   0.946   1.276  14.485 -0.0620  0.2393 -0.3775
 3304SOL    HW121548   0.982   1.198  14.442  0.6388 -0.4208  1.4354
 3304SOL    HW221549   0.952   1.253  14.577  0.3728  3.4473  0.3979
 3305SOL     OW21550   2.003   3.861   8.430 -0.3900 -0.2360 -0.4198
 3305SOL    HW121551   2.083   3.890   8.475  1.4164 -2.0921 -2.4449
 3305SOL    HW221552   1.933   3.913   8.471 -2.0949 -2.7249 -0.2074
 3306SOL     OW21553   1.250   1.912   8.750  0.1071  0.1963  0.2079
 3306SOL    HW121554   1.289   1.980   8.694 -0.9659 -0.7017 -1.6383
 3306SOL    HW221555   1.157   1.930   8.741 -0.1494 -2.0793 -1.5911
 3307SOL     OW21556   0.773   1.363  14.147  0.0725  0.9906  0.9047
 3307SOL    HW121557   0.761   1.451  14.111  0.9072  1.5711  2.0509
 3307SOL    HW221558   0.682   1.343  14.171  0.7246 -1.5267  1.3275
 3308SOL     OW21559   2.480   2.802   6.072 -0.0730 -0.7619 -0.0001
 3308SOL    HW121560   2.424   2.836   6.002 -0.1479 -2.2248 -0.6547
 3308SOL    HW221561   2.553   2.771   6.018  0.2650 -0.6604  0.3987
 3309SOL     OW21562   2.980   2.070   3.676 -0.2227  0.1605 -0.5706
 3309SOL    HW121563   3.022   2.073   3.590  1.4448  0.8296  0.2732
 3309SOL    HW221564   3.019   1.995   3.721  1.7680  2.0637  0.8560
 3310SOL     OW21565   1.110   4.376  17.330 -0.3132 -0.3296  0.0247
 3310SOL    HW121566   1.144   4.290  17.353  0.1481 -0.8771 -2.6706
 3310SOL    HW221567   1.018   4.355  17.313 -1.0151 -0.4502  3.9646
 3311SOL     OW21568   1.995   2.659   3.290  0.1444  0.4597 -0.4523
 3311SOL    HW121569   1.908   2.646   3.251 -0.9544  1.8679  1.5036
 3311SOL    HW221570   2.042   2.690   3.213 -0.3740  1.3545 -0.4105
 3312SOL     OW21571   3.024   0.093   9.375  0.3522  0.2363 -0.2659
 3312SOL    HW121572   3.029   0.079   9.280  0.1748  2.0366 -0.5391
 3312SOL    HW221573   2.936   0.116   9.404 -0.0564 -0.8238 -0.6703
 3313SOL     OW21574   4.040   4.639   3.059 -0.2883  0.5320 -0.1456
 3313SOL    HW121575   3.957   4.660   3.016  0.1701  1.2260 -0.6852
 3313SOL    HW221576   4.053   4.547   3.040 -0.8911  0.3224  0.4439
 3314SOL     OW21577   0.105   4.182   8.833 -0.5835  0.3618 -0.1147
 3314SOL    HW121578   0.058   4.159   8.913  0.5701 -1.3288  0.0815
 3314SOL    HW221579   0.060   4.123   8.772 -1.6709  0.3558  0.6979
 3315SOL     OW21580   3.440   3.426   4.162 -0.4177 -0.2399 -0.5065
 3315SOL    HW121581   3.496   3.500   4.185 -0.2035 -0.1356 -1.3531
 3315SOL    HW221582   3.469   3.362   4.228 -1.0852 -0.3538 -0.3280
 3316SOL     OW21583   3.530   2.776   2.323 -0.3869  0.0734 -0.2814
 3316SOL    HW121584   3.552   2.702   2.380 -0.3825 -0.3034 -0.7701
 3316SOL    HW221585   3.436   2.765   2.312 -0.1279 -1.5882 -0.7752
 3317SOL     OW21586   3.953   3.385   4.144  0.1986 -0.5082 -0.0272
 3317SOL    HW121587   4.003   3.311   4.178  0.1009 -0.0368  1.1436
 3317SOL    HW221588   3.929   3.431   4.225  1.5924 -0.5199  0.3962
 3318SOL     OW21589   2.801   2.559  17.114 -0.1372  0.5747  0.0290
 3318SOL    HW121590   2.767   2.611  17.042  1.3651  3.4495  1.3847
 3318SOL    HW221591   2.743   2.484  17.105  0.0748  0.6989 -2.3812
 3319SOL     OW21592   3.187   1.523   4.430 -0.1552  0.6375  0.3530
 3319SOL    HW121593   3.139   1.440   4.428 -3.0080  2.2426  1.8973
 3319SOL    HW221594   3.124   1.581   4.473  1.5903  1.4535  1.8430
 3320SOL     OW21595   4.568   1.669  15.929 -0.5492  0.3217  0.1206
 3320SOL    HW121596   4.551   1.585  15.972  2.1318 -0.5227 -0.4251
 3320SOL    HW221597   4.661   1.662  15.908 -0.9791  0.8483 -1.9232
 3321SOL     OW21598   0.006   3.151   3.748 -0.5481  0.2857 -0.3740
 3321SOL    HW121599   4.678   3.162   3.679 -3.0981 -1.5367  1.7888
 3321SOL    HW221600   4.690   3.133   3.825  0.6273  1.2986  0.6906
 3322SOL     OW21601   3.167   4.445   8.542 -0.2866  0.2519 -0.0254
 3322SOL    HW121602   3.200   4.473   8.627  2.3459 -1.0461 -0.6321
 3322SOL    HW221603   3.087   4.497   8.533 -0.6371 -0.6223 -2.0727
 3323SOL     OW21604   1.298   0.255  15.930 -0.0743 -0.0173  0.0839
 3323SOL    HW121605   1.273   0.178  15.981  0.6402  0.8416  1.7347
 3323SOL    HW221606   1.263   0.324  15.986 -0.0433  0.8788 -0.9899
 3324SOL     OW21607   3.830   2.509  15.852 -0.3797  0.1786  0.2694
 3324SOL    HW121608   3.837   2.421  15.817 -0.0061 -0.0376  0.8800
 3324SOL    HW221609   3.776   2.507  15.931 -0.5761 -0.3081  0.1207
 3325SOL     OW21610   0.132   3.933   1.854  0.0084  0.2970 -0.1857
 3325SOL    HW121611   0.096   3.844   1.854 -0.4194  0.4719 -2.2333
 3325SOL    HW221612   0.217   3.920   1.895  0.7698  0.8544 -1.5971
 3326SOL     OW21613   3.838   4.573  13.469  0.4432  0.2440 -0.0022
 3326SOL    HW121614   3.856   4.656  13.424 -0.0664  0.1260 -0.4246
 3326SOL    HW221615   3.924   4.535  13.489 -0.5398 -2.0053 -0.0256
 3327SOL     OW21616   3.233   2.638   9.796 -0.1010  0.5939 -0.0100
 3327SOL    HW121617   3.319   2.596   9.782  0.0023  0.1242  2.0631
 3327SOL    HW221618   3.173   2.568   9.770 -0.2854  0.9259 -0.4645
 3328SOL     OW21619   4.045   4.158   3.744  0.0307  0.0601  0.0282
 3328SOL    HW121620   4.062   4.068   3.770 -1.3370  0.2295  1.5200
 3328SOL    HW221621   4.009   4.203   3.820  0.5818 -1.0358  0.9405
 3329SOL     OW21622   2.250   1.135   4.418  0.0645 -0.3003  0.1385
 3329SOL    HW121623   2.248   1.207   4.480  0.5090 -0.2452  0.0884
 3329SOL    HW221624   2.336   1.097   4.436 -0.7677 -1.5011  1.5476
 3330SOL     OW21625   0.660   4.452  12.950 -0.3108 -0.2500 -0.2798
 3330SOL    HW121626   0.631   4.361  12.962  3.0017 -0.9897  2.1578
 3330SOL    HW221627   0.654   4.465  12.856 -1.8834 -0.3886 -0.1987
 3331SOL     OW21628   1.388   4.435   2.890  0.0282 -0.5554 -0.2984
 3331SOL    HW121629   1.415   4.450   2.981  1.3876 -0.1437 -0.7808
 3331SOL    HW221630   1.400   4.526   2.865 -0.2753 -0.2020  0.8576
 3332SOL     OW21631   1.077   1.468   7.033  0.1390 -0.4856 -0.2508
 3332SOL    HW121632   1.026   1.397   7.071  0.1886  0.5593  1.7259
 3332SOL    HW221633   1.058   1.539   7.094  0.9416 -0.1877 -0.3481
 3333SOL     OW21634   1.892   0.064  16.481  0.2064  0.6132  0.2954
 3333SOL    HW121635   1.798   0.067  16.461  0.3568 -1.5745 -0.7076
 3333SOL    HW221636   1.897   0.151  16.522 -0.8208  0.5965  0.4485
 3334SOL     OW21637   0.128   2.662  11.265  0.8319 -0.2230  0.3801
 3334SOL    HW121638   0.103   2.572  11.244  0.5861 -0.2718  0.8886
 3334SOL    HW221639   0.053   2.681  11.321  1.2211  1.0148  0.4780
 3335SOL     OW21640   3.066   0.651  12.733 -0.0963  0.0313 -0.0816
 3335SOL    HW121641   3.111   0.722  12.778 -1.4685  0.2167  0.9891
 3335SOL    HW221642   3.121   0.659  12.654  2.8922 -0.1968  1.9558
 3336SOL     OW21643   2.356   1.241   7.435 -0.3058  0.4245  0.5908
 3336SOL    HW121644   2.413   1.301   7.388  0.5299 -0.0446  0.9932
 3336SOL    HW221645   2.414   1.174   7.471 -0.7139 -1.8428 -3.0020
 3337SOL     OW21646   1.760   0.603  15.823  0.1467 -0.1313  0.6258
 3337SOL    HW121647   1.728   0.559  15.902 -0.5339 -1.3932 -0.3692
 3337SOL    HW221648   1.687   0.589  15.764  0.2517 -1.1898  0.7546
 3338SOL     OW21649   2.242   2.876   0.530  0.4199 -0.7998  0.1998
 3338SOL    HW121650   2.328   2.906   0.500 -0.5265  2.0479  0.3608
 3338SOL    HW221651   2.201   2.954   0.567 -2.4445 -2.5599  0.7189
 3339SOL     OW21652   4.473   1.370   3.938 -0.3686  0.2954 -0.3105
 3339SOL    HW121653   4.566   1.380   3.915 -0.9674  2.4204 -1.7754
 3339SOL    HW221654   4.475   1.414   4.023  1.2961  1.0701 -0.7568
 3340SOL     OW21655   2.395   2.026   2.106  0.0682 -0.4762 -0.3810
 3340SOL    HW121656   2.350   1.954   2.062  0.0681 -0.4849 -0.3665
 3340SOL    HW221657   2.323   2.074   2.148  3.7035  1.6626  3.3525
 3341SOL     OW21658   1.026   0.713   6.655 -0.3006 -0.2220  0.2244
 3341SOL    HW121659   1.020   0.808   6.654  0.5100 -0.1710 -0.5933
 3341SOL    HW221660   0.978   0.691   6.575 -0.0863 -0.8865  0.2780
 3342SOL     OW21661   3.803   1.824  13.241 -0.0026  0.1646 -0.3667
 3342SOL    HW121662   3.839   1.912  13.247  3.0833 -1.1311  0.0760
 3342SOL    HW221663   3.860   1.799  13.169  1.7183  1.7520  0.4519
 3343SOL     OW21664   3.544   3.738   4.468 -0.3424 -0.4217 -0.4550
 3343SOL    HW121665   3.521   3.800   4.538  2.4740 -1.4395  1.3396
 3343SOL    HW221666   3.528   3.793   4.391  1.1641  0.9709  0.2100
 3344SOL     OW21667   1.838   0.676   9.081  0.0128  0.9280  0.2975
 3344SOL    HW121668   1.900   0.720   9.140 -2.5171  0.9600  2.8986
 3344SOL    HW221669   1.798   0.618   9.145  0.7246  1.9463  1.6699
 3345SOL     OW21670   0.397   0.225   5.691 -0.2805 -0.4144 -0.0804
 3345SOL    HW121671   0.455   0.268   5.628  1.7921 -0.4109  1.8648
 3345SOL    HW221672   0.311   0.254   5.660  0.6839  2.4322 -0.0678
 3346SOL     OW21673   4.427   2.005   4.657 -0.3504 -0.6009 -0.4606
 3346SOL    HW121674   4.360   1.953   4.701  0.7367 -1.3252  0.3533
 3346SOL    HW221675   4.504   1.988   4.711  0.2050  2.2961 -0.3220
 3347SOL     OW21676   2.813   2.710  17.362 -0.8695  0.0548 -0.0589
 3347SOL    HW121677   2.907   2.726  17.362 -0.3975 -2.7804 -2.6788
 3347SOL    HW221678   2.805   2.646  17.291  3.0657 -0.8722  0.3749
 3348SOL     OW21679   0.613   2.070   2.294 -0.5892 -0.1011  0.1575
 3348SOL    HW121680   0.540   2.009   2.294 -0.1669 -0.5925 -1.4578
 3348SOL    HW221681   0.584   2.127   2.223  0.5349  1.6610  1.1130
 3349SOL     OW21682   4.506   0.927   8.431 -0.3446  0.0965 -0.1560
 3349SOL    HW121683   4.551   0.994   8.482  0.2487  0.8167 -1.6480
 3349SOL    HW221684   4.503   0.846   8.482  2.8380  0.8082  1.1510
 3350SOL     OW21685   0.637   3.847  11.496  0.5581  1.0146  0.0412
 3350SOL    HW121686   0.664   3.757  11.477 -0.0315  0.5118  1.6212
 3350SOL    HW221687   0.645   3.898  11.415  1.6750  2.0639  0.8202
 3351SOL     OW21688   1.090   1.529   2.898 -0.9112 -0.1778 -0.2274
 3351SOL    HW121689   1.066   1.567   2.982  0.0558  0.2040 -0.1215
 3351SOL    HW221690   1.139   1.602   2.861  0.6917 -0.2573  1.7359
 3352SOL     OW21691   0.738   1.133   1.183  0.0127  0.1523 -0.0524
 3352SOL    HW121692   0.654   1.128   1.138 -0.6353 -2.7461  1.4899
 3352SOL    HW221693   0.784   1.198   1.129  1.0959 -0.7255 -0.1916
 3353SOL     OW21694   1.976   1.456   5.427  0.5532 -0.2159  0.4739
 3353SOL    HW121695   2.036   1.530   5.435  0.9127 -0.3308 -1.2068
 3353SOL    HW221696   1.889   1.494   5.442  0.8532 -0.4070  2.6794
 3354SOL     OW21697   4.676   4.205   8.076 -0.0440  0.2780  0.0783
 3354SOL    HW121698   4.646   4.280   8.128  0.0472  0.9132 -0.7899
 3354SOL    HW221699   0.034   4.204   8.075 -0.0100  1.1501  1.9092
 3355SOL     OW21700   2.329   3.482   8.136 -0.2142 -0.2282  0.0177
 3355SOL    HW121701   2.272   3.409   8.110  0.2968 -0.8034  0.4954
 3355SOL    HW221702   2.298   3.489   8.226 -1.5132 -0.3926 -0.4175
 3356SOL     OW21703   0.880   0.563   7.994 -0.2171 -0.5895  0.6655
 3356SOL    HW121704   0.897   0.648   7.954  2.1002 -1.7328 -0.7732
 3356SOL    HW221705   0.935   0.565   8.073 -0.0739  2.1532  0.4992
 3357SOL     OW21706   1.257   1.126   3.608  0.6560 -0.0564  0.2654
 3357SOL    HW121707   1.343   1.148   3.572  1.5566 -1.9532  1.2389
 3357SOL    HW221708   1.264   1.037   3.643  0.1487 -0.0203  0.4557
 3358SOL     OW21709   1.756   4.201   2.728 -0.0658 -0.1038  0.0435
 3358SOL    HW121710   1.749   4.296   2.737 -1.6072 -0.2048 -0.0477
 3358SOL    HW221711   1.785   4.174   2.815 -3.7872 -0.4990  1.1643
 3359SOL     OW21712   0.690   0.165  16.808 -0.0095  0.4818  0.3202
 3359SOL    HW121713   0.681   0.081  16.852 -1.6894  0.7828  0.5413
 3359SOL    HW221714   0.766   0.198  16.856 -0.8590  1.0530  1.2960
 3360SOL     OW21715   0.512   0.314  15.339  0.3527  0.2065  0.2718
 3360SOL    HW121716   0.513   0.308  15.243  1.3102  2.5119  0.1518
 3360SOL    HW221717   0.594   0.273  15.367 -0.9939 -1.6294  1.5205
 3361SOL     OW21718   3.002   1.484   3.963  0.7085  0.4007  0.2251
 3361SOL    HW121719   2.936   1.420   3.989  0.3153  0.2673 -1.0897
 3361SOL    HW221720   3.026   1.461   3.873 -3.7776  1.8480 -1.3212
 3362SOL     OW21721   1.064   3.700   5.555  0.5614  0.7103 -0.0082
 3362SOL    HW121722   1.057   3.752   5.635  0.8384 -1.4827  1.4379
 3362SOL    HW221723   1.136   3.739   5.506  0.4772  1.4987  0.4972
 3363SOL     OW21724   4.295   2.372  14.608 -0.1497  0.0134  0.1495
 3363SOL    HW121725   4.299   2.459  14.650  0.5819 -0.3963  0.9258
 3363SOL    HW221726   4.210   2.341  14.638  0.1696  0.0723  1.1198
 3364SOL     OW21727   0.380   0.059   5.311  0.4184 -0.0019  0.1242
 3364SOL    HW121728   0.343   4.735   5.374  0.4760  0.2440  0.3961
 3364SOL    HW221729   0.474   0.063   5.332  0.3534 -1.6783  0.7327
 3365SOL     OW21730   1.494   1.042   4.348  0.1393 -0.0724 -0.6916
 3365SOL    HW121731   1.439   1.031   4.426  0.2653 -0.2737 -0.6325
 3365SOL    HW221732   1.584   1.041   4.380  0.3258  1.2571 -1.1765
 3366SOL     OW21733   1.296   3.453  17.654 -0.1993  0.5888  0.3642
 3366SOL    HW121734   1.336   3.476  17.738 -0.7401 -1.9989  1.3166
 3366SOL    HW221735   1.369   3.461  17.593  1.5170 -1.4677  2.1325
 3367SOL     OW21736   3.347   1.371   4.232 -0.4764 -0.0681  0.0911
 3367SOL    HW121737   3.384   1.389   4.318  1.6096 -1.1597 -0.5891
 3367SOL    HW221738   3.289   1.298   4.253 -0.8150 -0.0725 -0.8315
 3368SOL     OW21739   1.462   3.908   7.472  0.0590  0.0833  0.4099
 3368SOL    HW121740   1.456   3.868   7.559  0.0512  0.0332  0.3866
 3368SOL    HW221741   1.374   3.941   7.456  0.5784  0.1255 -2.2933
 3369SOL     OW21742   4.213   1.870   5.058 -0.0665 -0.3982 -0.3443
 3369SOL    HW121743   4.214   1.899   5.150 -1.2603 -2.0903  0.2057
 3369SOL    HW221744   4.118   1.882   5.057  0.1131  0.7819 -1.7806
 3370SOL     OW21745   2.752   3.919   2.045  0.2332 -0.2369 -0.2665
 3370SOL    HW121746   2.693   3.899   1.972  1.2678  0.5952 -1.3402
 3370SOL    HW221747   2.808   3.841   2.045 -0.0914 -0.4403  3.4744
 3371SOL     OW21748   0.203   1.529   8.046 -0.1212  0.5595  0.6967
 3371SOL    HW121749   0.123   1.532   7.994  0.8662  1.0615 -0.7847
 3371SOL    HW221750   0.181   1.449   8.094 -0.4037  0.4772  0.4295
 3372SOL     OW21751   1.969   4.667   6.368  0.2237 -0.1779 -0.0150
 3372SOL    HW121752   2.020   4.692   6.445 -0.9008 -0.0153  0.6718
 3372SOL    HW221753   1.913   4.592   6.388  0.0753 -0.3377 -1.0640
 3373SOL     OW21754   2.524   2.660  11.794 -0.4704  0.0434  0.0594
 3373SOL    HW121755   2.597   2.684  11.850 -0.6312 -0.3884  0.4535
 3373SOL    HW221756   2.544   2.698  11.708 -1.4861  1.1706  0.3229
 3374SOL     OW21757   2.935   1.658   9.044  0.1615  0.1081  0.4087
 3374SOL    HW121758   2.945   1.741   8.997  1.0015  0.5167  1.3244
 3374SOL    HW221759   2.927   1.683   9.136  1.4225  1.6251  0.1047
 3375SOL     OW21760   0.710   2.043   6.472  0.4572 -0.0401  0.3003
 3375SOL    HW121761   0.738   2.054   6.563 -1.3033 -0.6883  0.9176
 3375SOL    HW221762   0.623   2.004   6.480 -0.7303  2.0009 -2.5449
 3376SOL     OW21763   2.267   0.926  14.689  0.3700 -0.5297  0.2878
 3376SOL    HW121764   2.234   0.838  14.670  1.7679 -1.1305  0.7021
 3376SOL    HW221765   2.192   0.978  14.660  0.9992 -0.0310 -0.4360
 3377SOL     OW21766   1.496   1.444  11.002 -0.0982  0.0307  0.0576
 3377SOL    HW121767   1.482   1.387  11.078 -0.8930  1.0973  0.7093
 3377SOL    HW221768   1.425   1.505  11.020  0.0030  0.1461  0.0636
 3378SOL     OW21769   2.455   0.627  14.479  0.1093 -0.0795  0.3062
 3378SOL    HW121770   2.424   0.536  14.475 -2.0540  0.6975 -0.1532
 3378SOL    HW221771   2.378   0.671  14.514 -1.2080 -1.3502 -1.0053
 3379SOL     OW21772   0.637   3.829   8.459  0.2111  0.2498  0.5142
 3379SOL    HW121773   0.547   3.797   8.465  0.5395 -0.5463  1.1423
 3379SOL    HW221774   0.643   3.896   8.528  1.3255 -0.2696  0.9188
 3380SOL     OW21775   2.975   2.895   7.042 -0.0302  0.1476  0.6037
 3380SOL    HW121776   3.060   2.914   7.082 -0.4921  0.8814  1.2414
 3380SOL    HW221777   2.994   2.818   6.989 -2.3363 -0.2954  0.3868
 3381SOL     OW21778   3.530   4.359   8.409 -0.3644  0.5245 -0.4414
 3381SOL    HW121779   3.616   4.399   8.419 -1.2151  1.8843  1.5873
 3381SOL    HW221780   3.483   4.443   8.401 -3.2030 -1.0572 -0.3327
 3382SOL     OW21781   4.006   1.380   2.517  0.4736  0.4612  0.0675
 3382SOL    HW121782   4.094   1.409   2.490  0.5154  1.2027  1.0041
 3382SOL    HW221783   3.997   1.304   2.459 -0.5448 -0.1842  1.0860
 3383SOL     OW21784   0.087   3.858   0.814 -0.5526  0.9156  0.2823
 3383SOL    HW121785   0.064   3.805   0.891  0.8897  0.6932  0.5619
 3383SOL    HW221786   0.021   3.832   0.749  0.1744  0.2986 -0.2010
 3384SOL     OW21787   1.068   4.108  16.682 -0.3351 -0.0493 -0.2185
 3384SOL    HW121788   1.065   4.024  16.728  0.1669 -0.0852 -0.2500
 3384SOL    HW221789   0.987   4.154  16.706  0.0719  1.0666 -1.0358
 3385SOL     OW21790   2.678   1.592  13.451  0.3634  0.0005 -0.3036
 3385SOL    HW121791   2.614   1.643  13.500  0.8904  1.8792 -1.5635
 3385SOL    HW221792   2.717   1.541  13.522  2.7567 -0.4948 -1.9765
 3386SOL     OW21793   1.976   0.593   1.497  0.1968  0.0391  0.1615
 3386SOL    HW121794   1.957   0.656   1.567 -2.1298 -0.8603  0.3352
 3386SOL    HW221795   2.033   0.526   1.534 -0.8412 -0.1107  1.4679
 3387SOL     OW21796   2.238   2.153   7.052  0.2556 -0.1788 -0.7092
 3387SOL    HW121797   2.150   2.122   7.076  0.4470  0.9728  1.4939
 3387SOL    HW221798   2.282   2.140   7.136  1.0801  2.1672 -0.7833
 3388SOL     OW21799   0.950   3.418   2.137  0.3414 -0.4979  0.4117
 3388SOL    HW121800   0.995   3.371   2.208  0.1685  0.8707  1.4124
 3388SOL    HW221801   0.902   3.481   2.189 -0.6102 -2.3259  1.7481
 3389SOL     OW21802   2.238   2.887   0.871 -0.2728  0.4349 -0.8455
 3389SOL    HW121803   2.213   2.964   0.821 -0.0778  1.7378  1.0603
 3389SOL    HW221804   2.332   2.875   0.858 -0.0245  2.0479 -0.5223
 3390SOL     OW21805   4.161   0.452   3.988  0.6264  0.1770  0.2817
 3390SOL    HW121806   4.228   0.429   3.924 -1.7001  0.1780 -2.1707
 3390SOL    HW221807   4.092   0.496   3.938  0.2924 -0.0531  0.5365
 3391SOL     OW21808   4.584   1.661   5.540 -0.1839  0.0609 -0.8642
 3391SOL    HW121809   4.651   1.674   5.474  0.1411  0.3151 -0.4794
 3391SOL    HW221810   4.531   1.593   5.497  0.0924  1.1515 -2.9562
 3392SOL     OW21811   1.875   2.480  12.351 -0.4860  0.8707  0.1353
 3392SOL    HW121812   1.854   2.573  12.354 -2.0200  0.4497  2.4112
 3392SOL    HW221813   1.914   2.478  12.264 -2.2473 -2.1387 -0.5677
 3393SOL     OW21814   3.104   0.115   8.718  0.0438 -0.2472  0.1896
 3393SOL    HW121815   3.147   0.132   8.802  0.2718 -0.1596  0.0545
 3393SOL    HW221816   3.165   0.158   8.658  0.3081  1.5529  1.7210
 3394SOL     OW21817   3.519   4.533   4.439 -0.2690  0.2415  0.5771
 3394SOL    HW121818   3.496   4.564   4.351 -0.0799  1.0293  0.8039
 3394SOL    HW221819   3.442   4.480   4.460  0.0188 -1.3167 -2.2848
 3395SOL     OW21820   0.749   2.680   7.998  0.9154 -0.0800 -0.4177
 3395SOL    HW121821   0.683   2.749   8.000  0.2727 -0.7290  0.2998
 3395SOL    HW221822   0.784   2.712   8.081 -1.9571  1.4180  0.2131
 3396SOL     OW21823   2.341   1.729   3.179  0.6205  0.0152 -0.0604
 3396SOL    HW121824   2.338   1.634   3.161  1.0791  0.3073 -1.7171
 3396SOL    HW221825   2.373   1.726   3.269 -0.6769 -0.3914  0.3876
 3397SOL     OW21826   1.387   2.556  11.282 -0.2871 -0.4599 -0.2520
 3397SOL    HW121827   1.301   2.580  11.318 -0.8570 -0.4198 -1.6518
 3397SOL    HW221828   1.369   2.537  11.190 -0.9616  0.4195 -0.3009
 3398SOL     OW21829   2.791   2.875   8.048 -0.0059  0.1251  0.0133
 3398SOL    HW121830   2.802   2.781   8.034  1.4819 -0.1574  3.1969
 3398SOL    HW221831   2.845   2.912   7.978  1.8023  2.4400  2.6263
 3399SOL     OW21832   0.541   0.172   9.007  0.4483 -0.0897 -0.0821
 3399SOL    HW121833   0.614   0.215   9.051  0.9783 -3.7632  2.6360
 3399SOL    HW221834   0.581   0.133   8.929 -0.7284 -1.9284  0.2444
 3400SOL     OW21835   4.318   3.318   6.303  0.1770 -0.2073  0.0365
 3400SOL    HW121836   4.341   3.229   6.332 -1.1222 -0.9754 -1.3126
 3400SOL    HW221837   4.234   3.302   6.259  0.8096 -2.2764 -0.4012
 3401SOL     OW21838   4.665   2.321   7.735  0.0823 -0.1784  0.0143
 3401SOL    HW121839   4.663   2.273   7.818 -1.2732  2.3070  1.4078
 3401SOL    HW221840   0.008   2.285   7.696  0.7964  1.4167  0.0309
 3402SOL     OW21841   0.971   3.749  17.516 -0.1677 -0.6514 -0.2116
 3402SOL    HW121842   0.976   3.845  17.510 -0.0010 -0.6550 -0.1260
 3402SOL    HW221843   1.027   3.734  17.592 -0.6571  3.8097  1.0500
 3403SOL     OW21844   2.674   0.027   3.856  0.1967 -0.1068 -0.2955
 3403SOL    HW121845   2.598   4.732   3.904 -0.5005  1.2998 -0.4476
 3403SOL    HW221846   2.653   4.735   3.767 -2.1647  3.9980 -1.0975
 3404SOL     OW21847   2.313   2.682   4.485 -0.3852 -0.2072 -0.5284
 3404SOL    HW121848   2.276   2.595   4.504  0.2479 -0.2507  0.4784
 3404SOL    HW221849   2.230   2.728   4.496  0.0388  0.4845 -0.2379
 3405SOL     OW21850   0.717   2.868   3.457 -0.2752  0.3250 -0.1435
 3405SOL    HW121851   0.725   2.780   3.494 -3.3623  0.3553  0.5877
 3405SOL    HW221852   0.803   2.888   3.420  0.7912  1.9194  3.1992
 3406SOL     OW21853   2.836   4.009   3.858 -0.3301 -0.0073  0.6637
 3406SOL    HW121854   2.921   4.048   3.879  0.5297 -1.0189 -0.9120
 3406SOL    HW221855   2.847   3.984   3.766 -3.4321  0.3376  0.2177
 3407SOL     OW21856   3.463   1.614  15.648  0.2129 -0.2395 -0.6215
 3407SOL    HW121857   3.418   1.698  15.636  0.7987  0.0382 -0.8884
 3407SOL    HW221858   3.409   1.552  15.599  1.3069 -0.9034 -0.9828
 3408SOL     OW21859   4.224   3.750   1.888  0.1087 -0.0605 -0.2570
 3408SOL    HW121860   4.168   3.688   1.934  0.1781  1.0408  1.3376
 3408SOL    HW221861   4.190   3.837   1.910 -1.1303 -0.7249  0.4292
 3409SOL     OW21862   4.540   3.729   2.579 -0.0557  0.5825  0.3787
 3409SOL    HW121863   4.461   3.697   2.622  1.6085 -1.2344  2.1328
 3409SOL    HW221864   4.501   3.756   2.496 -1.2030  1.2049  1.1259
 3410SOL     OW21865   3.257   4.308   8.068 -0.6960 -0.3884  0.1090
 3410SOL    HW121866   3.333   4.339   8.018 -0.5411 -0.1335  0.5081
 3410SOL    HW221867   3.230   4.386   8.115 -1.5368  0.9383 -2.6069
 3411SOL     OW21868   0.018   0.830   8.270  0.2669 -0.3602  0.7248
 3411SOL    HW121869   4.702   0.799   8.197  1.7195 -0.9350 -0.1037
 3411SOL    HW221870   4.719   0.918   8.277 -0.1499 -0.2396 -2.9475
 3412SOL     OW21871   2.170   2.309   6.676 -0.0783 -0.6861 -0.6217
 3412SOL    HW121872   2.150   2.218   6.653  2.6396 -1.4832  0.2634
 3412SOL    HW221873   2.241   2.325   6.614 -0.0249  1.0315 -0.1291
 3413SOL     OW21874   0.277   2.529   7.786 -0.5650  0.4127 -0.1117
 3413SOL    HW121875   0.230   2.514   7.703  0.9397 -1.1824 -0.6657
 3413SOL    HW221876   0.221   2.602   7.813 -2.2960 -0.7249 -0.6241
 3414SOL     OW21877   2.827   0.433   7.187  0.2008 -0.2959  0.4465
 3414SOL    HW121878   2.922   0.419   7.191  0.1218 -0.3580  2.1105
 3414SOL    HW221879   2.791   0.350   7.153  1.4210 -0.0220 -1.5468
 3415SOL     OW21880   0.116   1.936   6.585 -0.0447 -0.4029 -0.5103
 3415SOL    HW121881   0.119   1.983   6.501 -2.8558  0.4242 -0.1646
 3415SOL    HW221882   0.109   2.007   6.649 -0.0069  1.3238 -2.4239
 3416SOL     OW21883   4.011   3.446   7.569 -0.4777 -0.2893  0.2418
 3416SOL    HW121884   3.978   3.429   7.481 -1.6421  1.7680  0.3006
 3416SOL    HW221885   4.035   3.358   7.600  2.6405  1.4538  2.7137
 3417SOL     OW21886   2.940   1.139  12.189 -0.4509  0.0040  0.7655
 3417SOL    HW121887   2.977   1.189  12.115 -0.1297 -0.1841  0.7978
 3417SOL    HW221888   2.905   1.204  12.250 -0.7117  1.3836 -0.8327
 3418SOL     OW21889   2.216   0.036   7.375 -0.5463  0.2264  0.1106
 3418SOL    HW121890   2.215   0.053   7.469  1.4754 -0.8059  0.3287
 3418SOL    HW221891   2.272   4.696   7.368 -0.7221  0.3953 -3.2446
 3419SOL     OW21892   0.206   1.930  10.358 -0.3449 -0.2291  0.8483
 3419SOL    HW121893   0.180   1.838  10.355 -0.1272 -0.2361 -0.8569
 3419SOL    HW221894   0.191   1.955  10.450 -1.5000  1.1703  0.2730
 3420SOL     OW21895   2.424   1.010   1.181  0.3685  0.4306 -0.1192
 3420SOL    HW121896   2.345   1.014   1.127  0.0366  0.1957  0.3508
 3420SOL    HW221897   2.400   0.928   1.224  1.2539 -0.3275 -1.0807
 3421SOL     OW21898   1.997   4.416   3.327 -0.0505 -0.1611  0.1030
 3421SOL    HW121899   1.940   4.359   3.275 -1.7105  0.0616  1.6602
 3421SOL    HW221900   2.084   4.412   3.288  0.3036  0.1432  0.8593
 3422SOL     OW21901   0.949   2.125   3.965  0.5939 -0.1284 -0.6586
 3422SOL    HW121902   0.877   2.172   4.008  1.9985  1.4997 -0.0371
 3422SOL    HW221903   0.909   2.039   3.955  0.0859  0.2821 -2.1936
 3423SOL     OW21904   3.206   3.463   6.033 -0.2535 -0.2126  0.2456
 3423SOL    HW121905   3.262   3.461   6.111  0.2152  0.4021 -0.0787
 3423SOL    HW221906   3.151   3.389   6.059 -1.9545  1.5029  1.5816
 3424SOL     OW21907   1.582   1.261   8.440  0.4729 -0.0887  0.1965
 3424SOL    HW121908   1.523   1.315   8.493 -0.4015 -0.7995 -0.0374
 3424SOL    HW221909   1.588   1.181   8.492 -0.1826  0.3425  0.9364
 3425SOL     OW21910   0.856   4.250  11.596  0.4871  0.2571  0.2954
 3425SOL    HW121911   0.915   4.274  11.667 -0.8768 -1.5090  2.0344
 3425SOL    HW221912   0.875   4.308  11.522 -0.4819  0.2692  0.0556
 3426SOL     OW21913   0.656   3.250  12.218 -0.4729 -0.0327 -0.0304
 3426SOL    HW121914   0.568   3.271  12.187  0.6193  1.2542 -2.3137
 3426SOL    HW221915   0.661   3.160  12.184 -1.2456 -0.3450  0.6790
 3427SOL     OW21916   2.191   0.705  16.069  0.0437  0.0083  0.4193
 3427SOL    HW121917   2.163   0.615  16.048  1.6001 -0.3858  0.0515
 3427SOL    HW221918   2.280   0.687  16.099  0.0258 -0.1709  0.3697
 3428SOL     OW21919   2.646   4.129   8.082 -0.2585 -0.5128  0.1796
 3428SOL    HW121920   2.580   4.161   8.020  0.6437 -0.3910 -0.7197
 3428SOL    HW221921   2.633   4.200   8.145  1.7769  0.3155 -0.3407
 3429SOL     OW21922   1.547   4.318   9.788 -0.0228  0.2049 -0.6966
 3429SOL    HW121923   1.570   4.231   9.821  2.4427  0.8084 -0.7966
 3429SOL    HW221924   1.628   4.368   9.801  0.2270 -0.8292  1.5627
 3430SOL     OW21925   1.934   3.562   6.587  0.1190 -0.2650  0.1547
 3430SOL    HW121926   1.973   3.634   6.636  0.6470  0.4843 -1.3482
 3430SOL    HW221927   1.878   3.617   6.532 -1.4037  1.8277  3.8125
 3431SOL     OW21928   0.696   1.255   5.220 -0.3158  0.3299 -0.3848
 3431SOL    HW121929   0.628   1.202   5.178 -0.4053  0.7337 -0.7486
 3431SOL    HW221930   0.670   1.347   5.230  1.7643  0.8895 -0.1114
 3432SOL     OW21931   0.791   2.922   7.056  0.1690  0.1799 -0.2668
 3432SOL    HW121932   0.811   2.837   7.096  3.2555  0.1211 -1.9178
 3432SOL    HW221933   0.743   2.890   6.980 -0.6734 -2.4323  1.3560
 3433SOL     OW21934   4.030   0.669  13.176 -0.2451 -0.5746  0.1476
 3433SOL    HW121935   3.997   0.758  13.162  1.0952 -0.5668 -2.8380
 3433SOL    HW221936   4.089   0.668  13.101 -0.4800 -2.1738 -0.0014
 3434SOL     OW21937   4.037   1.937   6.037  0.5201 -0.1219 -0.0423
 3434SOL    HW121938   4.115   1.989   6.055 -0.6741  1.0383  1.7236
 3434SOL    HW221939   4.075   1.888   5.963 -2.1139 -1.9143 -0.2161
 3435SOL     OW21940   2.726   3.979  17.624 -0.0499 -0.8551 -0.1468
 3435SOL    HW121941   2.768   4.057  17.661 -3.1213  0.6260  0.2376
 3435SOL    HW221942   2.801   3.937  17.581 -0.8295 -1.6251 -0.7554
 3436SOL     OW21943   3.733   0.882   3.128  0.1520 -0.5256 -0.1388
 3436SOL    HW121944   3.736   0.958   3.070 -0.2396 -1.0322 -0.8269
 3436SOL    HW221945   3.719   0.812   3.065 -0.3102 -0.2225 -0.3752
 3437SOL     OW21946   0.716   0.179   4.196  0.4805 -0.6548 -0.3033
 3437SOL    HW121947   0.808   0.190   4.174  0.2880  3.4845  1.0092
 3437SOL    HW221948   0.723   0.142   4.284 -1.8447  0.0593  0.1998
 3438SOL     OW21949   1.826   2.742   4.648 -0.0791 -0.2000 -0.0118
 3438SOL    HW121950   1.916   2.710   4.638 -0.6531 -2.3518  1.6034
 3438SOL    HW221951   1.788   2.660   4.681  1.2432 -1.4946 -1.7038
 3439SOL     OW21952   2.689   4.297   5.857 -0.0962 -0.5075 -0.3843
 3439SOL    HW121953   2.623   4.228   5.864 -0.5712 -0.0850 -0.6333
 3439SOL    HW221954   2.691   4.331   5.946 -1.1899 -1.2176 -0.0913
 3440SOL     OW21955   2.108   1.313   4.016  0.4979 -0.1159 -0.3104
 3440SOL    HW121956   2.028   1.366   4.021  0.9324  0.3706  1.4278
 3440SOL    HW221957   2.168   1.372   3.969  0.2593  0.5988  0.2814
 3441SOL     OW21958   0.407   1.526   2.461  0.3138  0.9645  0.0153
 3441SOL    HW121959   0.423   1.544   2.553 -0.4351  0.0456  0.3144
 3441SOL    HW221960   0.493   1.557   2.432  1.3303  0.6527  2.6973
 3442SOL     OW21961   4.599   1.735   7.515 -0.1677 -0.5236  0.5298
 3442SOL    HW121962   4.571   1.826   7.505 -0.5862 -0.8346 -1.1155
 3442SOL    HW221963   4.516   1.695   7.541 -0.6505 -0.5131 -1.0150
 3443SOL     OW21964   1.820   1.093  14.442 -0.1505 -0.0505 -0.0679
 3443SOL    HW121965   1.825   1.135  14.528 -0.8376  1.7864 -0.9266
 3443SOL    HW221966   1.819   1.165  14.380  1.7722 -0.1672 -0.2326
 3444SOL     OW21967   2.036   4.692  15.428  0.2070 -0.3109 -0.3251
 3444SOL    HW121968   2.050   4.604  15.463 -1.8569  0.1441  1.6486
 3444SOL    HW221969   2.034   4.681  15.333  2.1733  1.6826 -0.6038
 3445SOL     OW21970   1.948   0.343   9.108  0.6614  0.3207  0.0217
 3445SOL    HW121971   2.007   0.372   9.177  0.2726  0.2147  0.4003
 3445SOL    HW221972   1.882   0.292   9.154 -0.4521  1.2707 -0.5111
 3446SOL     OW21973   3.177   0.733   8.024 -0.4688 -0.1396  1.1677
 3446SOL    HW121974   3.170   0.709   8.117  2.2168  0.1347  1.4466
 3446SOL    HW221975   3.268   0.763   8.019 -1.4402  3.0787  3.0004
 3447SOL     OW21976   1.007   0.179  11.581 -0.3364 -0.2748  0.0386
 3447SOL    HW121977   0.925   0.182  11.531 -1.6761 -1.6295  2.1725
 3447SOL    HW221978   0.975   0.132  11.658 -1.5386 -0.9150 -0.8416
 3448SOL     OW21979   4.508   3.020   1.725 -0.6022 -0.7772 -0.3757
 3448SOL    HW121980   4.552   2.973   1.796 -1.1179  1.0056  1.1250
 3448SOL    HW221981   4.507   2.963   1.649 -1.1267 -1.9896  0.5481
 3449SOL     OW21982   2.986   0.146   4.129  0.0313 -0.0399 -0.3328
 3449SOL    HW121983   2.960   0.054   4.119 -3.6122  0.7638  1.5413
 3449SOL    HW221984   3.069   0.136   4.175 -0.3981 -0.9649  0.2414
 3450SOL     OW21985   4.058   1.880   6.789  0.0267  1.0069 -0.2417
 3450SOL    HW121986   4.092   1.911   6.873  2.7017  1.1181 -1.3393
 3450SOL    HW221987   4.055   1.785   6.800 -0.6953  1.2420  1.5129
 3451SOL     OW21988   0.804   1.608  12.497 -0.0041 -0.2864  0.2089
 3451SOL    HW121989   0.846   1.631  12.580  2.6628 -2.4477 -0.5795
 3451SOL    HW221990   0.732   1.554  12.529  0.7048 -0.4818  1.4850
 3452SOL     OW21991   0.468   3.153   2.593 -0.2188  0.9292 -0.2452
 3452SOL    HW121992   0.386   3.145   2.546 -0.4351 -0.4598  0.3923
 3452SOL    HW221993   0.462   3.244   2.624 -2.3406  0.7145 -0.0240
 3453SOL     OW21994   3.563   1.513   5.817  0.2054 -0.4366  0.2193
 3453SOL    HW121995   3.508   1.520   5.895  1.9430  0.0341  1.3998
 3453SOL    HW221996   3.522   1.579   5.760  1.8479  0.1346 -0.2846
 3454SOL     OW21997   2.109   0.462  14.497  0.3334  0.5066  0.6893
 3454SOL    HW121998   2.023   0.498  14.478  0.5610  0.0487 -1.2250
 3454SOL    HW221999   2.146   0.455  14.409  1.6664 -0.8691  1.3516
 3455SOL     OW22000   1.092   3.954  10.064  0.1881  0.4252 -0.3039
 3455SOL    HW122001   1.158   3.950   9.995 -0.1513  0.2997 -0.6212
 3455SOL    HW222002   1.138   3.906  10.134  0.4847  0.3738 -0.5357
 3456SOL     OW22003   4.464   1.287   8.716  0.0502  0.1506  0.1888
 3456SOL    HW122004   4.485   1.329   8.632  0.2297 -0.3263 -0.0057
 3456SOL    HW222005   4.518   1.208   8.714 -3.0239 -1.8946 -1.6742
 3457SOL     OW22006   2.950   0.740   7.897  0.4893  0.0590  0.4205
 3457SOL    HW122007   2.911   0.823   7.870 -0.4011  0.0417  1.6435
 3457SOL    HW222008   3.028   0.780   7.936 -0.2241  0.9608  0.9110
 3458SOL     OW22009   1.142   3.587   2.304 -0.0546 -0.4493 -0.2179
 3458SOL    HW122010   1.091   3.663   2.331 -0.0440 -0.6905  0.4650
 3458SOL    HW222011   1.231   3.610   2.329  0.1336  0.7552 -1.9368
 3459SOL     OW22012   2.745   1.548   0.219  0.0749  0.0037  0.4753
 3459SOL    HW122013   2.807   1.484   0.252  1.6114  0.6148 -1.1829
 3459SOL    HW222014   2.690   1.568   0.294  1.4948 -0.3225  1.6019
 3460SOL     OW22015   2.694   2.640   3.178 -0.2985  0.0272 -0.4047
 3460SOL    HW122016   2.638   2.575   3.138 -0.2410 -0.4107  0.2197
 3460SOL    HW222017   2.773   2.644   3.124  1.4277 -0.9771  2.0197
 3461SOL     OW22018   4.332   1.330   6.037  0.3035 -0.1121  1.0255
 3461SOL    HW122019   4.256   1.388   6.029  0.8928  0.4554 -0.3244
 3461SOL    HW222020   4.394   1.397   6.065  0.3500  0.3094 -0.1090
 3462SOL     OW22021   3.904   3.759   2.612  0.2690  0.3949 -0.0724
 3462SOL    HW122022   3.821   3.722   2.582 -0.0672  0.4750  0.7658
 3462SOL    HW222023   3.917   3.715   2.696 -0.3895  0.0188 -0.1623
 3463SOL     OW22024   4.525   1.586   6.147 -0.4108  0.3843 -0.2636
 3463SOL    HW122025   4.570   1.649   6.090  2.2174  0.5173  1.9981
 3463SOL    HW222026   4.441   1.630   6.162 -0.0287  0.2573  2.1591
 3464SOL     OW22027   1.407   0.517   1.043  0.0254 -0.3527 -0.0430
 3464SOL    HW122028   1.490   0.477   1.068 -0.3240 -1.9030 -1.3249
 3464SOL    HW222029   1.345   0.447   1.023 -1.7267  0.3263  3.1520
 3465SOL     OW22030   4.612   0.507   4.428  0.1947 -0.4700  0.2292
 3465SOL    HW122031   4.642   0.585   4.474 -1.2656 -0.0733  0.5112
 3465SOL    HW222032   4.524   0.507   4.465  0.6268 -1.5907  1.2394
 3466SOL     OW22033   2.561   0.140   5.088  0.4719 -0.0140 -0.5127
 3466SOL    HW122034   2.627   0.137   5.018 -1.5565  0.9458 -2.4733
 3466SOL    HW222035   2.617   0.136   5.165 -1.0792  3.6387  0.7735
 3467SOL     OW22036   3.631   3.689   2.997 -0.0064 -0.3701  0.7455
 3467SOL    HW122037   3.673   3.652   3.075 -0.8822 -3.2249 -0.1581
 3467SOL    HW222038   3.561   3.628   2.977  0.1925  0.1035 -1.3490
 3468SOL     OW22039   0.978   0.723   9.086  0.2317  0.2236 -0.3551
 3468SOL    HW122040   0.912   0.718   9.155  0.4648  0.0043 -0.1482
 3468SOL    HW222041   0.933   0.675   9.017 -2.2948  1.9231  0.0926
 3469SOL     OW22042   2.161   1.168   3.270 -0.2126 -0.6779 -0.0575
 3469SOL    HW122043   2.068   1.190   3.276  0.1935  0.5276  1.7729
 3469SOL    HW222044   2.183   1.180   3.362  0.4948 -0.1976 -0.2859
 3470SOL     OW22045   0.224   0.623   7.126 -0.0561  0.2954  0.0678
 3470SOL    HW122046   0.287   0.620   7.055  0.0951 -0.0408  0.2142
 3470SOL    HW222047   0.143   0.589   7.088 -0.3274  2.0397 -0.8945
 3471SOL     OW22048   3.585   3.123   8.687 -0.5692  0.6013  0.5615
 3471SOL    HW122049   3.612   3.209   8.656 -1.1847  0.6974  0.3067
 3471SOL    HW222050   3.649   3.073   8.636  1.9885  1.7002  2.7123
 3472SOL     OW22051   1.155   1.957   2.671 -0.1611  0.6617 -0.3933
 3472SOL    HW122052   1.060   1.946   2.667 -0.1760  0.7450 -0.2777
 3472SOL    HW222053   1.182   1.976   2.581  2.1726  1.8037  0.5368
 3473SOL     OW22054   3.403   3.169   8.233 -0.0842 -0.1118 -0.0040
 3473SOL    HW122055   3.475   3.106   8.243 -1.5535 -1.8531 -0.4174
 3473SOL    HW222056   3.424   3.197   8.144 -0.6077  1.6461  0.4241
 3474SOL     OW22057   4.707   4.737   2.027  0.0206  0.1225 -0.6776
 3474SOL    HW122058   0.040   4.695   1.978  1.4007  2.0003 -0.2914
 3474SOL    HW222059   0.027   0.049   2.085 -2.5490  1.3034  0.8514
 3475SOL     OW22060   1.975   3.636   4.352  0.4601  0.2059 -0.7342
 3475SOL    HW122061   1.931   3.652   4.268  0.0317  0.7473 -0.4042
 3475SOL    HW222062   1.907   3.658   4.415  2.0256  2.1460  0.2492
 3476SOL     OW22063   4.607   0.497  10.464 -0.2305 -0.3667  0.4542
 3476SOL    HW122064   4.666   0.442  10.412  1.1606  2.5330 -1.0789
 3476SOL    HW222065   4.521   0.461  10.442  0.1913 -1.3262  0.3834
 3477SOL     OW22066   3.857   0.825   0.038 -0.1867  0.1703 -0.1441
 3477SOL    HW122067   3.809   0.907   0.023  2.3571  1.9959  1.7550
 3477SOL    HW222068   3.794   0.757   0.015  0.4867 -0.5686  0.2197
 3478SOL     OW22069   0.728   0.578  11.889 -0.2757  0.2126  0.6303
 3478SOL    HW122070   0.693   0.649  11.835 -2.8659 -0.2245  1.7739
 3478SOL    HW222071   0.789   0.538  11.827 -1.5603  0.7199 -0.9699
 3479SOL     OW22072   2.367   1.404  16.994 -0.2178 -0.2524 -0.0548
 3479SOL    HW122073   2.280   1.443  16.988 -0.2167  0.0756  1.9710
 3479SOL    HW222074   2.387   1.448  17.077  1.5510  0.4944 -0.8850
 3480SOL     OW22075   1.642   1.869   6.677 -0.0779  0.4591  0.6170
 3480SOL    HW122076   1.675   1.958   6.669  1.1182 -0.2649 -2.7149
 3480SOL    HW222077   1.685   1.824   6.604  1.1366  2.6778 -0.0471
 3481SOL     OW22078   2.238   4.434  11.761  0.2572  0.3893  0.4018
 3481SOL    HW122079   2.167   4.370  11.768 -0.6373  1.5958  2.1063
 3481SOL    HW222080   2.205   4.486  11.688  0.5840 -0.4562 -0.3598
 3482SOL     OW22081   4.612   2.375   7.337  0.0031 -0.1068  0.0810
 3482SOL    HW122082   4.682   2.417   7.387  0.2393 -0.3119 -0.0778
 3482SOL    HW222083   4.581   2.319   7.408 -1.7000 -1.8040 -2.0121
 3483SOL     OW22084   3.306   3.185   6.485 -0.3701 -0.5561 -0.1127
 3483SOL    HW122085   3.278   3.107   6.437 -1.2717  0.6228 -1.5016
 3483SOL    HW222086   3.294   3.155   6.575 -0.0229  2.4276  0.9445
 3484SOL     OW22087   2.408   4.489   6.221  0.6634  0.6538  0.0457
 3484SOL    HW122088   2.403   4.549   6.295  0.3440  0.8737 -0.1566
 3484SOL    HW222089   2.503   4.483   6.211  0.4493  0.6699 -1.9102
 3485SOL     OW22090   3.192   1.688   8.784  0.0698 -0.0049  0.3533
 3485SOL    HW122091   3.185   1.593   8.782  0.4452  0.0258 -2.8359
 3485SOL    HW222092   3.269   1.689   8.841  0.8297 -1.0472 -0.6413
 3486SOL     OW22093   0.805   0.028   9.475 -0.1306  0.2643  0.4039
 3486SOL    HW122094   0.814   0.032   9.380  0.3770 -1.2153  0.3823
 3486SOL    HW222095   0.878   0.087   9.495  0.2933 -0.2409  0.3530
 3487SOL     OW22096   3.644   2.890   5.409  0.1159 -0.2599  0.1671
 3487SOL    HW122097   3.693   2.972   5.410  0.1859 -0.3331  2.1194
 3487SOL    HW222098   3.680   2.847   5.486  2.7144 -1.1977 -1.5430
 3488SOL     OW22099   0.994   1.594   9.004 -0.3883 -0.4041 -0.2080
 3488SOL    HW122100   1.007   1.689   8.998 -0.9823 -0.3901 -1.1519
 3488SOL    HW222101   0.899   1.591   9.015 -0.4600  0.5989 -0.4815
 3489SOL     OW22102   1.140   3.808   4.217 -0.4108 -0.5416  0.3717
 3489SOL    HW122103   1.125   3.802   4.312  0.3455  0.1422  0.5311
 3489SOL    HW222104   1.208   3.875   4.212 -0.8879 -0.1745 -1.2496
 3490SOL     OW22105   3.044   3.704   7.359  0.2096 -0.3494  0.1718
 3490SOL    HW122106   3.104   3.726   7.287  0.8006  0.0141  0.7658
 3490SOL    HW222107   3.034   3.785   7.408 -1.1970  0.1091 -0.8899
 3491SOL     OW22108   3.326   0.415   0.131  0.1513 -0.3233  0.0841
 3491SOL    HW122109   3.306   0.322   0.122 -0.7188 -0.1423  0.1201
 3491SOL    HW222110   3.369   0.414   0.216  1.6489  2.8242 -0.6101
 3492SOL     OW22111   1.303   0.544  15.558  0.1514 -0.6391 -0.0528
 3492SOL    HW122112   1.275   0.453  15.547 -2.4359  0.3440 -1.4583
 3492SOL    HW222113   1.391   0.532  15.522 -0.0908 -1.7975 -0.2692
 3493SOL     OW22114   2.879   0.119   8.009  0.5873 -0.1707  0.2348
 3493SOL    HW122115   2.901   0.200   7.964 -0.7752  0.0538  0.0045
 3493SOL    HW222116   2.967   0.081   8.011  0.7894  0.3679  1.3096
 3494SOL     OW22117   3.378   1.145   5.738 -0.0015  0.3534  0.4561
 3494SOL    HW122118   3.349   1.231   5.768  0.6981  0.4025  0.9615
 3494SOL    HW222119   3.302   1.103   5.696 -1.0543  2.1354  0.5754
 3495SOL     OW22120   1.600   0.563  11.512  0.0829  0.0166  0.1703
 3495SOL    HW122121   1.692   0.539  11.507  0.4239  1.0572  1.2885
 3495SOL    HW222122   1.574   0.516  11.591 -0.9611 -0.7559 -0.6278
 3496SOL     OW22123   3.431   2.138   0.637  0.3477 -0.0093  0.3176
 3496SOL    HW122124   3.352   2.172   0.680  0.0705  0.1842 -0.3403
 3496SOL    HW222125   3.494   2.206   0.661  0.1589  1.2460 -2.8262
 3497SOL     OW22126   1.507   4.496  10.623 -0.0299  0.0563 -0.1561
 3497SOL    HW122127   1.592   4.493  10.666  0.1645 -0.1693 -0.5538
 3497SOL    HW222128   1.458   4.561  10.674 -1.1748 -0.6783 -0.3174
 3498SOL     OW22129   0.762   1.027   4.060 -0.2039  0.8174  0.2900
 3498SOL    HW122130   0.711   1.003   3.983  0.6319  1.7574 -0.5479
 3498SOL    HW222131   0.699   1.069   4.119  1.1956  4.9631 -1.1618
 3499SOL     OW22132   0.191   4.099  10.183  0.3562 -0.0126 -0.2916
 3499SOL    HW122133   0.183   4.091  10.278  2.4056 -0.9522 -0.1851
 3499SOL    HW222134   0.284   4.118  10.172  0.0067  1.4121 -0.7353
 3500SOL     OW22135   1.953   1.845   8.925 -0.1266 -0.3379 -0.4776
 3500SOL    HW122136   2.023   1.829   8.862  1.8592 -1.0996  1.8914
 3500SOL    HW222137   1.878   1.792   8.900 -0.4081 -0.7285  1.1586
 3501SOL     OW22138   0.222   2.975  15.695  0.1740 -0.0309 -0.1559
 3501SOL    HW122139   0.271   2.974  15.778 -0.5899  3.2205  0.3261
 3501SOL    HW222140   0.171   2.895  15.696 -1.4010  0.9841  0.8168
 3502SOL     OW22141   1.231   3.296  16.550  0.3062 -0.2227  0.1416
 3502SOL    HW122142   1.243   3.229  16.483  0.2777 -0.5156  0.4254
 3502SOL    HW222143   1.154   3.272  16.602  1.2980 -0.7564  1.3703
 3503SOL     OW22144   0.606   4.309   3.824  0.4888 -0.0942 -0.0605
 3503SOL    HW122145   0.638   4.382   3.877 -4.2587  0.2065  2.3633
 3503SOL    HW222146   0.695   4.275   3.811 -0.0171 -0.3636 -2.7617
 3504SOL     OW22147   1.791   1.804   0.073 -0.1202  0.0959 -0.5734
 3504SOL    HW122148   1.844   1.801  17.743 -0.6659 -2.1300 -0.8251
 3504SOL    HW222149   1.843   1.868   0.122  0.8692 -0.4499 -0.9144
 3505SOL     OW22150   3.011   3.557   4.917 -0.4902 -0.5892 -0.0305
 3505SOL    HW122151   3.092   3.560   4.967 -0.3337 -0.4195 -0.2942
 3505SOL    HW222152   3.053   3.548   4.831  0.6796 -0.0242  0.4855
 3506SOL     OW22153   2.463   0.401  10.856  0.1794  0.0459 -0.5557
 3506SOL    HW122154   2.462   0.462  10.783 -1.4863  1.7795  0.9061
 3506SOL    HW222155   2.486   0.458  10.930 -0.8479 -0.3113  0.0520
 3507SOL     OW22156   4.582   1.365   3.539  0.1365  0.2734  0.0211
 3507SOL    HW122157   4.610   1.366   3.630  0.7298 -0.1791 -0.1626
 3507SOL    HW222158   4.560   1.457   3.525 -1.0487  0.0527  0.4230
 3508SOL     OW22159   2.615   1.249  12.592 -0.1717 -0.1569  0.3168
 3508SOL    HW122160   2.576   1.227  12.677  1.4422  1.8293  1.5835
 3508SOL    HW222161   2.596   1.341  12.575  2.9469  0.6463  1.1610
 3509SOL     OW22162   3.902   4.096  10.083 -0.1641  0.1126 -0.2687
 3509SOL    HW122163   3.868   4.039  10.014 -0.4483  0.9531 -0.8151
 3509SOL    HW222164   3.991   4.113  10.051 -0.7098  1.7251 -0.9066
 3510SOL     OW22165   4.579   2.678   5.016 -0.1998  0.2309  0.5426
 3510SOL    HW122166   4.655   2.633   5.052 -0.5101 -1.2501 -0.6254
 3510SOL    HW222167   4.570   2.751   5.077  0.5449 -0.3205  1.3175
 3511SOL     OW22168   1.654   0.703   3.598  0.0568 -0.3744 -0.4370
 3511SOL    HW122169   1.559   0.710   3.609  0.0726 -2.8141  1.2630
 3511SOL    HW222170   1.677   0.782   3.647  3.3545 -0.1099 -2.4642
 3512SOL     OW22171   4.643   0.266   9.121 -0.9884  0.0710 -0.6561
 3512SOL    HW122172   4.607   0.191   9.168  2.0084 -1.8053 -1.3231
 3512SOL    HW222173   4.720   0.293   9.172  0.8571 -4.1134 -1.2455
 3513SOL     OW22174   2.898   2.893   0.108 -0.8229 -0.4196  0.4927
 3513SOL    HW122175   2.964   2.912   0.175  1.2475  0.0329 -1.6908
 3513SOL    HW222176   2.950   2.846   0.043  0.6218 -0.1441  1.4482
 3514SOL     OW22177   3.327   2.687   5.088  0.5869 -0.8380 -0.5813
 3514SOL    HW122178   3.322   2.771   5.134  0.3155 -1.0543 -0.2126
 3514SOL    HW222179   3.419   2.678   5.062  0.5150 -1.6694 -0.5312
 3515SOL     OW22180   1.579   3.004   2.379 -0.1270  0.1974 -0.0268
 3515SOL    HW122181   1.621   2.919   2.392 -3.7805 -1.6904 -0.7242
 3515SOL    HW222182   1.488   2.974   2.376 -0.1097  0.0283  1.3434
 3516SOL     OW22183   2.733   1.982   5.860 -0.2868  0.0456 -0.5992
 3516SOL    HW122184   2.689   1.984   5.775  0.9074  0.3433 -1.2098
 3516SOL    HW222185   2.740   2.077   5.873 -0.3776 -0.3871  2.7023
 3517SOL     OW22186   0.874   2.760   4.555  0.3745  0.2408 -0.1358
 3517SOL    HW122187   0.957   2.735   4.514  1.6194  1.9066  1.3651
 3517SOL    HW222188   0.898   2.839   4.603  2.4393  0.3489 -1.3346
 3518SOL     OW22189   3.443   0.760   8.426 -0.1296 -0.6298  0.0987
 3518SOL    HW122190   3.524   0.743   8.474 -0.1885 -0.3496  0.2993
 3518SOL    HW222191   3.389   0.789   8.500 -0.9143 -0.1306 -0.6774
 3519SOL     OW22192   3.271   1.067  15.593 -0.5164  0.2439 -0.5627
 3519SOL    HW122193   3.201   1.088  15.532 -1.0995  0.1665  0.0724
 3519SOL    HW222194   3.236   1.006  15.658  0.3787 -0.5062 -0.8048
 3520SOL     OW22195   1.876   1.489  13.952  0.5825 -0.2625  0.6375
 3520SOL    HW122196   1.957   1.503  13.903  0.0230 -2.7407 -0.9662
 3520SOL    HW222197   1.810   1.542  13.908  2.3096  1.0143 -0.4165
 3521SOL     OW22198   2.341   4.470   4.535 -0.0043 -0.0480 -0.0448
 3521SOL    HW122199   2.407   4.402   4.550  1.3426  1.0125 -1.0949
 3521SOL    HW222200   2.341   4.476   4.440  0.3749  0.1323 -0.0356
 3522SOL     OW22201   2.818   2.411   3.782 -0.2224  0.3461  0.1595
 3522SOL    HW122202   2.774   2.422   3.867  3.4420  2.6479  1.7244
 3522SOL    HW222203   2.875   2.487   3.788  0.5892 -0.2607  0.1941
 3523SOL     OW22204   0.522   0.076   3.873  0.3407  0.4043  0.0274
 3523SOL    HW122205   0.523   0.122   3.957  0.9975 -0.7411  0.6387
 3523SOL    HW222206   0.432   0.046   3.877  0.4980  0.2588  2.0603
 3524SOL     OW22207   3.706   0.460   6.694 -0.0297 -0.1097  0.2101
 3524SOL    HW122208   3.725   0.373   6.730  0.4180 -0.1124 -0.0420
 3524SOL    HW222209   3.658   0.437   6.614 -0.8118  0.2143  0.5828
 3525SOL     OW22210   3.963   0.554   2.827  0.3692 -0.3678 -0.1497
 3525SOL    HW122211   4.010   0.508   2.895 -2.4350  0.3472  2.2763
 3525SOL    HW222212   3.969   0.494   2.753  1.5260  0.5673 -0.8235
 3526SOL     OW22213   2.273   2.679   8.021 -0.0414  0.4324 -0.1695
 3526SOL    HW122214   2.274   2.665   8.115  0.0202  0.2152 -0.2017
 3526SOL    HW222215   2.211   2.616   7.985  0.8942 -0.2747 -0.5642
 3527SOL     OW22216   0.457   3.472   7.050  0.4826 -0.1486 -0.0380
 3527SOL    HW122217   0.366   3.449   7.031  0.2116 -0.1446  1.2683
 3527SOL    HW222218   0.451   3.567   7.058 -0.9325 -0.2441  0.0164
 3528SOL     OW22219   2.789   3.294   0.689 -0.1270  0.3294 -0.6300
 3528SOL    HW122220   2.706   3.248   0.674 -0.3016 -0.4820  2.8314
 3528SOL    HW222221   2.848   3.222   0.708 -1.6821 -0.7494  0.1337
 3529SOL     OW22222   2.109   4.016   2.007 -0.3426 -0.6695  0.1400
 3529SOL    HW122223   2.146   4.019   2.095  1.3020  0.6793 -0.5942
 3529SOL    HW222224   2.066   4.102   2.002 -0.5732 -0.7501  0.7425
 3530SOL     OW22225   2.845   2.436   4.222  0.0404 -0.7326 -0.2688
 3530SOL    HW122226   2.817   2.469   4.307 -1.6710 -0.5019 -0.9164
 3530SOL    HW222227   2.901   2.511   4.201  3.3461 -2.7401  1.4307
 3531SOL     OW22228   1.598   2.135   2.573 -0.1308  0.0136 -0.0594
 3531SOL    HW122229   1.617   2.229   2.577 -1.2018  0.1973  0.6829
 3531SOL    HW222230   1.671   2.093   2.620  1.0634  1.8481 -0.2774
 3532SOL     OW22231   2.482   1.273   2.772 -0.2574 -0.5131  0.5755
 3532SOL    HW122232   2.534   1.248   2.848  0.0056 -0.9761  0.2444
 3532SOL    HW222233   2.468   1.367   2.779 -1.6098 -0.4185 -3.1898
 3533SOL     OW22234   4.549   3.551  10.619  0.6711  0.4750 -0.0677
 3533SOL    HW122235   4.556   3.470  10.669 -1.0441  0.3980  0.0393
 3533SOL    HW222236   4.586   3.612  10.682 -0.6959 -0.5208  1.6922
 3534SOL     OW22237   1.536   4.636   7.682  0.1639  0.1709  0.3198
 3534SOL    HW122238   1.536   4.730   7.663  2.3437  0.2651  0.7711
 3534SOL    HW222239   1.562   4.601   7.597 -1.4114  0.9332 -0.4735
 3535SOL     OW22240   2.332   2.449   0.838  0.0772 -0.0197  0.3942
 3535SOL    HW122241   2.409   2.427   0.785  0.9112  3.5512  0.1413
 3535SOL    HW222242   2.367   2.498   0.912 -1.0614 -1.7664  2.0795
 3536SOL     OW22243   3.936   1.267  11.352 -0.9387  0.4742  0.1032
 3536SOL    HW122244   3.967   1.222  11.430  1.6042  0.1096 -1.1284
 3536SOL    HW222245   3.918   1.193  11.295 -0.8283  1.4245 -1.1749
 3537SOL     OW22246   2.842   2.624   9.628  0.0806  1.0815 -0.3569
 3537SOL    HW122247   2.836   2.705   9.678 -0.2710 -0.2910  1.7844
 3537SOL    HW222248   2.805   2.659   9.547 -0.7265  0.7459 -0.1238
 3538SOL     OW22249   0.927   2.353   7.374 -0.3195 -0.2602  0.1416
 3538SOL    HW122250   0.954   2.263   7.354  0.0386 -0.1438  0.0931
 3538SOL    HW222251   1.009   2.384   7.412 -1.0372 -0.1565  1.5819
 3539SOL     OW22252   0.695   2.253   2.997  0.6051  0.0851  0.0394
 3539SOL    HW122253   0.602   2.235   3.008 -0.2971  4.0316 -1.1254
 3539SOL    HW222254   0.722   2.257   3.089 -0.9285 -1.3803  0.5506
 3540SOL     OW22255   4.470   4.359   5.606  0.2881 -0.8161  0.0356
 3540SOL    HW122256   4.531   4.346   5.679  0.8634  0.5395 -0.1981
 3540SOL    HW222257   4.512   4.294   5.551  3.5623  0.4736  0.9641
 3541SOL     OW22258   1.565   1.879   3.951 -0.1732  0.1141  0.2975
 3541SOL    HW122259   1.615   1.957   3.928 -0.2152  0.9986  3.1812
 3541SOL    HW222260   1.483   1.912   3.990  1.5061  1.5944  2.5485
 3542SOL     OW22261   2.518   4.379   8.083  0.2370  0.2675 -0.4239
 3542SOL    HW122262   2.518   4.432   8.003  2.0562  0.7853 -0.0689
 3542SOL    HW222263   2.590   4.405   8.139  2.1974  1.9442 -3.7238
 3543SOL     OW22264   3.957   4.232   8.412 -0.0990  0.0528 -0.0198
 3543SOL    HW122265   4.011   4.228   8.491  1.4399  2.4816 -0.9815
 3543SOL    HW222266   3.906   4.153   8.433 -3.7334  2.1120 -1.0830
 3544SOL     OW22267   3.999   1.832   1.614 -0.0463 -0.3824 -0.1697
 3544SOL    HW122268   3.981   1.741   1.590 -2.5324 -0.4352  1.8877
 3544SOL    HW222269   4.001   1.869   1.525  0.6253 -0.7523 -0.3047
 3545SOL     OW22270   4.273   2.643   6.058  0.8444  0.3686  0.4158
 3545SOL    HW122271   4.349   2.701   6.056  1.1886 -0.0742  0.6935
 3545SOL    HW222272   4.310   2.561   6.089  1.3650 -0.1309 -1.5547
 3546SOL     OW22273   3.438   1.852  12.686 -0.0172 -0.4259  0.2009
 3546SOL    HW122274   3.457   1.819  12.774  0.6825 -1.2596 -0.2637
 3546SOL    HW222275   3.488   1.933  12.685  0.8025 -0.9321  0.4012
 3547SOL     OW22276   0.944   0.261   6.088 -0.1280  0.5432 -0.0035
 3547SOL    HW122277   0.927   0.273   6.181 -1.2912 -2.1509  0.1383
 3547SOL    HW222278   1.003   0.186   6.098 -2.0811 -0.9061  0.6886
 3548SOL     OW22279   0.188   0.331   6.578  0.3198  0.1194 -0.3352
 3548SOL    HW122280   0.144   0.253   6.614  1.4902 -0.2878  0.2317
 3548SOL    HW222281   0.273   0.317   6.620 -0.3474  2.1977  1.7305
 3549SOL     OW22282   3.529   1.001   6.681  0.1112 -0.2087  0.4931
 3549SOL    HW122283   3.612   1.049   6.690 -0.5108  0.9015  0.3966
 3549SOL    HW222284   3.520   0.956   6.765  1.3537 -0.0416  0.7205
 3550SOL     OW22285   2.426   0.135  10.839  0.0728  0.5333  0.0296
 3550SOL    HW122286   2.424   0.231  10.836 -0.5305  0.4700 -1.5384
 3550SOL    HW222287   2.491   0.116  10.907  0.2972 -1.1941 -0.6870
 3551SOL     OW22288   0.542   4.161   5.307  0.5246  0.9352 -0.2635
 3551SOL    HW122289   0.561   4.107   5.383 -0.0986  2.3584  0.8970
 3551SOL    HW222290   0.610   4.229   5.312 -1.0255  2.5013 -0.3736
 3552SOL     OW22291   0.935   3.253   1.655 -0.2877 -0.4094 -0.0204
 3552SOL    HW122292   0.881   3.322   1.692 -1.4123 -0.2011 -2.0141
 3552SOL    HW222293   1.010   3.298   1.617 -1.2592  0.7809 -0.5376
 3553SOL     OW22294   2.969   1.692  10.724  0.2296 -0.0103  0.5082
 3553SOL    HW122295   2.894   1.725  10.772 -1.0500 -2.7185  0.4046
 3553SOL    HW222296   2.916   1.657  10.651  0.9551 -0.2187  0.0787
 3554SOL     OW22297   3.924   1.366  16.821  0.0051 -1.2149  0.3664
 3554SOL    HW122298   3.976   1.447  16.817 -2.1227  0.0127 -2.5669
 3554SOL    HW222299   3.949   1.325  16.739 -1.0151  0.9751 -1.0570
 3555SOL     OW22300   3.602   3.944   7.311  0.2222  0.2545 -0.2066
 3555SOL    HW122301   3.625   3.953   7.403 -0.9460 -1.1447  0.2239
 3555SOL    HW222302   3.545   3.867   7.320 -2.0556  2.3343  2.9447
 3556SOL     OW22303   2.136   3.836  11.657 -0.2571  0.0850 -0.2591
 3556SOL    HW122304   2.050   3.807  11.628 -0.1635  1.3299 -1.7774
 3556SOL    HW222305   2.147   3.772  11.728  1.3648 -0.3134 -0.8571
 3557SOL     OW22306   1.449   1.048   6.352  0.0304  0.3394 -0.5370
 3557SOL    HW122307   1.389   0.999   6.408  0.8690  0.4362  0.4374
 3557SOL    HW222308   1.431   1.139   6.378  0.1541  0.4313 -0.7696
 3558SOL     OW22309   4.391   3.628   2.162  0.0478 -0.1360 -0.0697
 3558SOL    HW122310   4.466   3.595   2.212 -0.8276 -2.4506 -0.3156
 3558SOL    HW222311   4.385   3.559   2.096  0.8232 -0.5507  0.2915
 3559SOL     OW22312   0.483   4.394  10.675 -0.1126  0.2087  0.2017
 3559SOL    HW122313   0.522   4.314  10.712 -1.2803 -0.5193 -0.1611
 3559SOL    HW222314   0.566   4.440  10.663 -0.3756  1.2266  2.1772
 3560SOL     OW22315   3.188   1.161   4.340  0.0228  0.6770  0.4654
 3560SOL    HW122316   3.094   1.166   4.359 -0.4463  0.4169 -1.7496
 3560SOL    HW222317   3.191   1.066   4.332  0.2182  0.7226 -0.0016
 3561SOL     OW22318   3.142   2.047   2.887 -0.2326 -0.0135  0.1947
 3561SOL    HW122319   3.181   2.088   2.811  1.6426  0.0244  1.1801
 3561SOL    HW222320   3.053   2.041   2.852 -0.5898 -0.0353  1.0832
 3562SOL     OW22321   1.598   4.456   2.346  0.2990 -0.3831 -0.1866
 3562SOL    HW122322   1.651   4.526   2.309 -1.5156  1.5908  0.9498
 3562SOL    HW222323   1.549   4.504   2.413 -1.2151 -1.8300 -0.2559
 3563SOL     OW22324   4.140   2.972   7.733 -0.3852  0.1658 -0.3542
 3563SOL    HW122325   4.228   2.976   7.695  0.4502 -0.5295  1.5009
 3563SOL    HW222326   4.092   2.905   7.683  0.6334 -0.9177  0.1145
 3564SOL     OW22327   2.335   2.074   4.246  0.2393  0.1514  0.1985
 3564SOL    HW122328   2.248   2.047   4.275  0.5423  0.0762  1.0401
 3564SOL    HW222329   2.312   2.143   4.184 -0.4027  1.8027  2.2731
 3565SOL     OW22330   3.594   2.008   2.256 -0.0108  0.0638  0.2713
 3565SOL    HW122331   3.518   2.022   2.313 -0.4660 -0.2107 -0.2726
 3565SOL    HW222332   3.641   1.940   2.304  0.3269 -0.5062 -0.8612
 3566SOL     OW22333   2.435   4.547   1.466  0.1869  0.0793 -0.2278
 3566SOL    HW122334   2.392   4.630   1.450  1.2843  0.7497  0.2845
 3566SOL    HW222335   2.401   4.526   1.553 -1.1238 -2.7477 -1.4199
 3567SOL     OW22336   0.158   4.359   2.620  0.2619  0.4809  0.2164
 3567SOL    HW122337   0.161   4.442   2.667 -2.2111  0.3520  0.6018
 3567SOL    HW222338   0.239   4.368   2.570  0.6951 -0.5486  0.7335
 3568SOL     OW22339   3.814   4.318   3.601  0.0219  0.9532  0.3879
 3568SOL    HW122340   3.726   4.320   3.563 -0.1027 -1.4416  0.5389
 3568SOL    HW222341   3.785   4.264   3.674  0.5625 -0.3012 -0.3228
 3569SOL     OW22342   3.240   3.177   4.043  0.0334  0.6959  0.0658
 3569SOL    HW122343   3.290   3.229   3.980 -0.8886 -1.8311 -2.7436
 3569SOL    HW222344   3.224   3.253   4.098  2.7557  1.0044  0.4444
 3570SOL     OW22345   2.562   1.124  15.316  0.3052  0.8752 -0.1712
 3570SOL    HW122346   2.563   1.202  15.371  1.1756 -0.4018  1.6140
 3570SOL    HW222347   2.508   1.143  15.239 -1.4347  1.0923  1.0895
 3571SOL     OW22348   1.958   4.089   8.728  0.4257  0.9407 -0.0599
 3571SOL    HW122349   2.028   4.150   8.750 -0.2078  1.8964 -0.6854
 3571SOL    HW222350   1.920   4.070   8.814  0.4192 -0.7200 -0.4361
 3572SOL     OW22351   4.330   3.104   6.848 -0.0315  0.0107 -0.3237
 3572SOL    HW122352   4.410   3.151   6.823  1.4889 -1.7896  1.1467
 3572SOL    HW222353   4.266   3.134   6.784 -0.0458 -0.0952 -0.3592
 3573SOL     OW22354   0.558   0.964   3.503  0.0198 -0.2618 -0.3219
 3573SOL    HW122355   0.642   0.965   3.458  0.1441 -1.0163 -0.1099
 3573SOL    HW222356   0.497   0.995   3.437  0.2405 -2.2338 -1.4362
 3574SOL     OW22357   2.621   2.372   2.450 -0.6808 -0.2947 -0.0462
 3574SOL    HW122358   2.676   2.376   2.528  0.0019 -0.4488 -0.5198
 3574SOL    HW222359   2.655   2.303   2.394 -0.5959 -0.3992  0.1334
 3575SOL     OW22360   3.856   1.746   7.852  0.7382 -0.5437 -0.0783
 3575SOL    HW122361   3.859   1.688   7.928  0.5458 -0.8921 -0.3311
 3575SOL    HW222362   3.775   1.722   7.806  1.6569 -0.8396 -1.5559
 3576SOL     OW22363   3.622   2.526   9.505 -0.0242  0.7613  0.1299
 3576SOL    HW122364   3.576   2.588   9.448 -0.6320  0.0149 -0.2033
 3576SOL    HW222365   3.674   2.472   9.445 -0.4727 -1.4479  1.7131
 3577SOL     OW22366   3.544   3.608   5.685  0.7092  0.3701  0.1522
 3577SOL    HW122367   3.486   3.537   5.714 -1.5569  1.7451 -0.9614
 3577SOL    HW222368   3.547   3.665   5.761  0.0992 -0.0735  0.5083
 3578SOL     OW22369   3.412   0.911  10.393  0.5173 -0.2887  0.5129
 3578SOL    HW122370   3.393   1.003  10.375 -3.4772 -0.0468  6.0494
 3578SOL    HW222371   3.389   0.869  10.310  0.0421 -1.0971  1.0589
 3579SOL     OW22372   2.553   2.574   1.628 -0.0672 -0.5617 -0.1559
 3579SOL    HW122373   2.509   2.640   1.576 -2.5798 -0.9154  1.5274
 3579SOL    HW222374   2.481   2.526   1.670  1.8069 -2.5562  0.8374
 3580SOL     OW22375   2.985   1.851   6.808  0.0819 -0.1567 -0.5524
 3580SOL    HW122376   2.982   1.888   6.720  0.7618 -0.0717 -0.5402
 3580SOL    HW222377   2.944   1.768   6.783 -0.5172 -0.4967  1.5411
 3581SOL     OW22378   3.131   0.895   2.316 -0.4458 -0.5915 -0.0637
 3581SOL    HW122379   3.038   0.904   2.296 -0.6171  0.6916  1.3070
 3581SOL    HW222380   3.171   0.923   2.233 -0.5308  3.0517  1.1085
 3582SOL     OW22381   0.676   2.391   2.092  0.3749 -0.2196 -0.3599
 3582SOL    HW122382   0.689   2.413   2.000  0.3983  1.6317  0.0915
 3582SOL    HW222383   0.600   2.333   2.084 -0.4905  0.6418  1.4800
 3583SOL     OW22384   3.556   2.781   8.443  0.0062 -0.1373 -0.3153
 3583SOL    HW122385   3.625   2.766   8.507 -0.2048  1.0909  0.2065
 3583SOL    HW222386   3.565   2.707   8.382 -2.3576 -0.6471 -0.0343
 3584SOL     OW22387   1.843   2.771  12.321 -0.0105 -0.0644  0.3523
 3584SOL    HW122388   1.929   2.812  12.309 -0.8411  0.7625 -3.0027
 3584SOL    HW222389   1.821   2.779  12.228  1.8412  0.6374 -0.0352
 3585SOL     OW22390   1.865   0.874   8.237  0.4323 -0.4480 -0.2095
 3585SOL    HW122391   1.786   0.877   8.292  0.8018 -1.1926  0.3639
 3585SOL    HW222392   1.834   0.922   8.160  0.6220 -1.4658 -0.9164
 3586SOL     OW22393   0.983   1.249   6.127 -0.5212  0.2649 -0.3916
 3586SOL    HW122394   1.047   1.222   6.060  0.5250  2.8758 -0.4492
 3586SOL    HW222395   0.958   1.334   6.090  1.8516  2.3271  2.7766
 3587SOL     OW22396   1.308   1.075  12.964 -1.0955 -0.2259 -0.1913
 3587SOL    HW122397   1.237   1.053  12.904 -1.2938 -1.6972  0.5954
 3587SOL    HW222398   1.352   1.133  12.901 -1.2548  0.8757  0.7169
 3588SOL     OW22399   4.117   3.925   8.752 -0.0145  0.4735 -0.2804
 3588SOL    HW122400   4.177   3.852   8.768 -1.0619 -0.7846 -2.2431
 3588SOL    HW222401   4.041   3.891   8.800 -0.1598 -2.0824 -2.3110
 3589SOL     OW22402   1.488   3.644   2.049 -0.1993 -0.1000  0.0264
 3589SOL    HW122403   1.510   3.589   2.125  0.0257 -2.8316 -2.0253
 3589SOL    HW222404   1.572   3.630   2.005 -0.4080  0.0722 -0.4167
 3590SOL     OW22405   1.639   2.661   5.176  0.2485 -0.0060  0.2834
 3590SOL    HW122406   1.574   2.590   5.175  1.1656 -0.8213 -2.2418
 3590SOL    HW222407   1.664   2.670   5.268  2.3773 -0.1630 -0.2712
 3591SOL     OW22408   3.499   3.120  15.101 -0.0753  0.3954 -0.4510
 3591SOL    HW122409   3.514   3.054  15.034  0.5542  0.2959 -0.2142
 3591SOL    HW222410   3.469   3.068  15.175 -1.1431 -0.5517 -1.5651
 3592SOL     OW22411   1.452   3.727  13.272  0.4577 -0.3524  0.8614
 3592SOL    HW122412   1.358   3.738  13.290  0.0660  0.3145 -1.6470
 3592SOL    HW222413   1.479   3.756  13.359 -0.7661 -1.0631  1.4706
 3593SOL     OW22414   1.717   3.280   0.948  0.5305  0.1197 -0.2533
 3593SOL    HW122415   1.660   3.347   0.985 -1.1743 -2.2727  1.3701
 3593SOL    HW222416   1.653   3.211   0.935  0.8815 -0.3097  0.2966
 3594SOL     OW22417   2.004   0.885   3.424  0.0192 -0.1132 -0.0316
 3594SOL    HW122418   2.089   0.893   3.468  0.0342 -0.3374 -0.0197
 3594SOL    HW222419   1.967   0.969   3.450  2.1060  0.7041  0.3134
 3595SOL     OW22420   3.363   2.871   6.134 -0.2293 -0.1771 -0.1339
 3595SOL    HW122421   3.346   2.781   6.160  0.0816 -0.6425 -1.5327
 3595SOL    HW222422   3.428   2.890   6.202 -0.3084  2.1683 -0.7060
 3596SOL     OW22423   1.981   2.055  13.646 -0.4868  0.1215 -0.5018
 3596SOL    HW122424   2.070   2.035  13.617  0.2232 -2.5084  3.4448
 3596SOL    HW222425   1.977   2.150  13.658 -0.3303  0.0696 -0.0363
 3597SOL     OW22426   1.693   2.947   1.676 -0.5608  0.7917  0.4777
 3597SOL    HW122427   1.615   2.976   1.725 -0.2188  0.8714  0.9739
 3597SOL    HW222428   1.718   3.017   1.616  0.3721  1.2661  1.4193
 3598SOL     OW22429   2.119   4.368  15.131  0.5586 -0.5619  0.2967
 3598SOL    HW122430   2.035   4.360  15.086 -0.6550  1.8303  2.1282
 3598SOL    HW222431   2.101   4.454  15.169 -1.8101 -1.5090  1.3529
 3599SOL     OW22432   2.941   4.101   4.631 -0.0745 -0.1097 -0.2423
 3599SOL    HW122433   2.941   4.123   4.538  1.8377 -0.5666 -0.3485
 3599SOL    HW222434   2.888   4.172   4.667  0.0581 -0.0475 -0.1709
 3600SOL     OW22435   2.696   3.082   2.444 -0.0142 -0.2066 -0.4521
 3600SOL    HW122436   2.696   3.116   2.534 -0.3791 -1.4680  0.0224
 3600SOL    HW222437   2.721   3.163   2.400  3.7206 -1.0809  0.0214
 3601SOL     OW22438   0.119   1.960   5.261  0.4649 -0.3845 -0.3048
 3601SOL    HW122439   0.209   1.953   5.231 -0.0264  0.1648 -1.9699
 3601SOL    HW222440   0.127   1.956   5.356 -1.1877  1.9423 -0.0372
 3602SOL     OW22441   2.251   2.235   4.938 -0.1751 -0.1692 -0.0383
 3602SOL    HW122442   2.180   2.206   4.880  0.4436 -0.9866 -0.3807
 3602SOL    HW222443   2.330   2.189   4.909  0.1515 -0.6204  1.5873
 3603SOL     OW22444   0.498   2.921  11.586  0.6678  0.1234  0.6681
 3603SOL    HW122445   0.452   2.878  11.514  0.4787  0.5390  0.5365
 3603SOL    HW222446   0.426   2.970  11.626 -1.5213 -1.6173 -1.0988
 3604SOL     OW22447   4.242   2.727   7.958  0.0816 -0.0745  0.3841
 3604SOL    HW122448   4.218   2.811   7.918  1.7107  0.8122  1.2761
 3604SOL    HW222449   4.167   2.714   8.015 -2.1829  0.3078 -2.4872
 3605SOL     OW22450   3.659   0.730  16.506 -0.3962  0.9491  0.3733
 3605SOL    HW122451   3.601   0.655  16.519 -0.0305  0.3159 -1.5750
 3605SOL    HW222452   3.602   0.792  16.552 -0.8625  0.6135  0.2440
 3606SOL     OW22453   1.403   3.343   6.652  0.0379  0.4085 -0.6486
 3606SOL    HW122454   1.479   3.292   6.678  2.1956  2.5746 -2.7118
 3606SOL    HW222455   1.426   3.426   6.693 -0.7589  0.7047 -0.7901
 3607SOL     OW22456   0.005   1.572  10.928 -0.0993  0.3168  0.6652
 3607SOL    HW122457   4.688   1.647  10.904 -1.9626 -1.4954 -0.8011
 3607SOL    HW222458   4.735   1.509  10.856 -1.2197  1.5305 -0.2772
 3608SOL     OW22459   0.476   0.735   0.876  0.0688 -0.1493 -0.2353
 3608SOL    HW122460   0.450   0.800   0.812 -0.1222  1.3763  1.3785
 3608SOL    HW222461   0.421   0.662   0.847  1.3821 -1.7235  1.1922
 3609SOL     OW22462   3.993   0.002  15.938 -0.3317  0.4235 -0.1532
 3609SOL    HW122463   4.032   4.652  15.937  1.7216  1.3480 -2.6238
 3609SOL    HW222464   3.996   0.022  15.844 -0.9855  2.2724  0.2316
 3610SOL     OW22465   1.728   3.618   3.817 -0.7179  0.1381 -0.4324
 3610SOL    HW122466   1.689   3.576   3.741 -0.7612 -1.3553  0.4052
 3610SOL    HW222467   1.654   3.670   3.849  0.3002  0.7603  0.9514
 3611SOL     OW22468   0.725   1.961   1.831 -0.3752 -0.1468  0.1311
 3611SOL    HW122469   0.741   1.877   1.875 -3.3397 -0.3749  0.7581
 3611SOL    HW222470   0.805   1.963   1.778 -0.8680 -0.9707 -0.6490
 3612SOL     OW22471   1.656   3.780   4.738 -0.1519 -0.7092 -0.4828
 3612SOL    HW122472   1.739   3.802   4.696  0.1224  1.7240  1.3360
 3612SOL    HW222473   1.608   3.863   4.735  0.1715 -0.5488 -1.0871
 3613SOL     OW22474   0.851   3.965  11.637 -0.3022  0.5595  0.8326
 3613SOL    HW122475   0.779   3.924  11.590  1.8535  0.8168 -2.7264
 3613SOL    HW222476   0.805   4.048  11.646  1.2065  1.4611  0.1829
 3614SOL     OW22477   3.888   4.707   2.461  0.4784 -0.2727 -0.9807
 3614SOL    HW122478   3.955   4.710   2.393  0.0614  2.0690 -1.2986
 3614SOL    HW222479   3.950   4.689   2.531 -1.2228 -0.5426  0.4590
 3615SOL     OW22480   2.515   1.866  17.450 -0.2840  0.1881  0.2043
 3615SOL    HW122481   2.600   1.849  17.409 -1.6695  0.8037 -2.9507
 3615SOL    HW222482   2.456   1.842  17.379 -2.1397  0.8213  1.5230
 3616SOL     OW22483   1.758   0.361   2.292  0.0620 -0.1906 -0.0974
 3616SOL    HW122484   1.741   0.423   2.222 -1.3307 -1.0485 -0.5114
 3616SOL    HW222485   1.828   0.305   2.257 -0.6743 -0.5147 -1.0373
 3617SOL     OW22486   4.597   4.200  17.357  0.4666 -0.3986 -0.7527
 3617SOL    HW122487   4.644   4.245  17.428 -0.9136 -0.2169  0.0546
 3617SOL    HW222488   4.673   4.161  17.315  0.2757 -0.2395 -1.2424
 3618SOL     OW22489   1.733   1.201   0.907 -0.4516  0.4161  0.5474
 3618SOL    HW122490   1.643   1.192   0.875 -1.0983  1.4635  2.0849
 3618SOL    HW222491   1.758   1.109   0.916  0.1712  0.6012  0.7013
 3619SOL     OW22492   1.023   1.893  13.646  0.3935 -0.1133 -0.0696
 3619SOL    HW122493   0.978   1.873  13.728 -1.1208 -0.2580 -0.9362
 3619SOL    HW222494   1.105   1.845  13.654  1.1814  0.9557 -1.9486
 3620SOL     OW22495   1.417   0.489   0.283  0.3555  0.0974  0.1450
 3620SOL    HW122496   1.391   0.432   0.211 -0.5680 -1.2543  1.5535
 3620SOL    HW222497   1.433   0.571   0.235  1.0088 -0.1024  0.0293
 3621SOL     OW22498   0.402   2.324   8.261  0.5161  0.0623  0.3358
 3621SOL    HW122499   0.379   2.236   8.231 -1.6013  0.9158 -0.5468
 3621SOL    HW222500   0.336   2.376   8.214  1.4360 -0.6270 -1.7168
 3622SOL     OW22501   1.169   2.870   3.977 -0.3168 -0.0550  0.6806
 3622SOL    HW122502   1.216   2.866   4.060  1.9733  2.1042 -0.4855
 3622SOL    HW222503   1.166   2.776   3.958 -1.6913  0.4958 -1.8980
 3623SOL     OW22504   0.089   2.667   1.690 -0.5172 -0.2524 -0.2272
 3623SOL    HW122505   0.106   2.582   1.730  1.0667 -0.4388 -1.3033
 3623SOL    HW222506   0.157   2.730   1.710 -1.3373 -0.1776  2.2593
 3624SOL     OW22507   2.790   1.943   0.269 -0.0836  0.2727 -0.0801
 3624SOL    HW122508   2.723   2.009   0.251  0.6145  0.8919 -0.4144
 3624SOL    HW222509   2.750   1.914   0.351 -2.4139  3.4390 -0.0719
 3625SOL     OW22510   4.118   1.888   4.117  0.5718 -0.2540  0.5026
 3625SOL    HW122511   4.040   1.938   4.094  0.6063 -0.5891 -0.3521
 3625SOL    HW222512   4.130   1.832   4.040 -0.0870 -0.8434  0.8196
 3626SOL     OW22513   1.055   4.657   5.417  0.2989  0.6335  0.1139
 3626SOL    HW122514   0.992   4.702   5.361  0.2623  1.9901  1.2288
 3626SOL    HW222515   1.051   4.710   5.497 -0.6427  0.4542  0.1740
 3627SOL     OW22516   2.503   1.692   0.085  0.4635  0.0856  0.4559
 3627SOL    HW122517   2.563   1.617   0.078  1.5890  1.2291 -2.0121
 3627SOL    HW222518   2.493   1.688   0.180  1.4976  0.2190  0.5651
 3628SOL     OW22519   0.086   0.849   7.292 -0.3396  0.4073  0.6310
 3628SOL    HW122520   0.135   0.925   7.323 -0.7454  1.7338 -1.9769
 3628SOL    HW222521   0.152   0.798   7.245  1.1028  3.1010 -0.2916
 3629SOL     OW22522   1.384   1.320  14.955  0.0939 -0.2031 -0.4634
 3629SOL    HW122523   1.405   1.397  15.009 -1.1783 -2.0919  2.7424
 3629SOL    HW222524   1.448   1.320  14.884 -0.1662  1.4377 -0.7096
 3630SOL     OW22525   0.077   1.308   6.994  0.1089  0.9289 -0.6295
 3630SOL    HW122526   0.117   1.222   6.986  4.0309  2.5993  1.1030
 3630SOL    HW222527   0.023   1.283   7.069  2.2705  0.8981  0.9156
 3631SOL     OW22528   3.689   1.727   1.797 -0.3456 -0.0406 -0.1411
 3631SOL    HW122529   3.716   1.641   1.765  0.1579  0.6793 -1.6831
 3631SOL    HW222530   3.598   1.708   1.817 -0.3575  0.1048 -0.0593
 3632SOL     OW22531   1.122   0.432   5.963 -0.1977 -0.4564  0.0429
 3632SOL    HW122532   1.111   0.367   6.032 -1.2582  0.5516  0.8087
 3632SOL    HW222533   1.217   0.432   5.949 -0.1632 -0.2659  0.2793
 3633SOL     OW22534   2.641   4.447   8.843  0.1094 -0.6967 -0.1498
 3633SOL    HW122535   2.726   4.403   8.849  1.3847  2.0977  2.4257
 3633SOL    HW222536   2.668   4.505   8.772 -2.8788  2.2954  1.1670
 3634SOL     OW22537   3.607   2.622   7.849  0.0294  0.0942  0.9243
 3634SOL    HW122538   3.608   2.658   7.937 -0.0973  0.1974  0.8830
 3634SOL    HW222539   3.643   2.533   7.852 -1.1815 -0.3690  1.9473
 3635SOL     OW22540   0.548   2.406   6.913 -0.5291 -0.3664  0.3644
 3635SOL    HW122541   0.638   2.380   6.894 -0.4285 -0.2860  0.7334
 3635SOL    HW222542   0.522   2.461   6.839  0.9988 -0.0973  0.0160
 3636SOL     OW22543   3.189   4.328   9.125  0.1898  0.0122 -0.2400
 3636SOL    HW122544   3.173   4.233   9.123 -0.8024  0.2024 -1.1292
 3636SOL    HW222545   3.109   4.364   9.164  0.4227 -0.3058  0.5296
 3637SOL     OW22546   2.343   1.031   5.997  0.3827  0.7653  0.0852
 3637SOL    HW122547   2.259   1.059   6.034  1.0738 -0.4229  2.5827
 3637SOL    HW222548   2.377   0.959   6.050  0.6035 -0.2353 -1.4254
 3638SOL     OW22549   2.616   2.445   5.336  0.0008  0.6842  1.0925
 3638SOL    HW122550   2.539   2.408   5.378 -1.3738 -0.8698 -2.7938
 3638SOL    HW222551   2.580   2.522   5.292 -0.5316  0.5652  1.3218
 3639SOL     OW22552   2.792   0.909  13.407  0.1794 -0.1865 -0.0184
 3639SOL    HW122553   2.721   0.871  13.356 -2.9304 -0.6341  4.6006
 3639SOL    HW222554   2.758   0.918  13.496  1.1255 -1.5596  0.4996
 3640SOL     OW22555   4.698   0.385   5.403 -0.0847  0.1654 -0.2796
 3640SOL    HW122556   0.036   0.335   5.373 -0.3422 -0.9779  0.9580
 3640SOL    HW222557   4.645   0.307   5.422 -0.2481 -0.0300 -1.5210
 3641SOL     OW22558   4.075   4.659  10.684  0.5588  0.3666 -0.1951
 3641SOL    HW122559   4.008   4.727  10.688 -1.2819 -1.4171 -0.5466
 3641SOL    HW222560   4.100   4.668  10.592  0.6260 -2.8994 -0.4770
 3642SOL     OW22561   2.232   1.085   4.960  0.4428 -0.4387 -0.4917
 3642SOL    HW122562   2.226   1.093   5.055 -1.7966 -0.1916 -0.6581
 3642SOL    HW222563   2.264   0.995   4.964 -2.5931 -1.5284 -0.6912
 3643SOL     OW22564   4.028   4.420   6.046 -0.3947 -0.2265 -0.0176
 3643SOL    HW122565   3.969   4.470   6.102  1.5981  1.4276  0.5936
 3643SOL    HW222566   4.051   4.344   6.100  1.7245  0.4332  0.0046
 3644SOL     OW22567   0.962   1.877   8.974  0.3709 -0.2855 -0.2516
 3644SOL    HW122568   0.888   1.937   8.979 -1.3799 -2.6942  2.9208
 3644SOL    HW222569   0.983   1.880   8.881 -2.4724  1.5111 -0.8206
 3645SOL     OW22570   0.274   2.422  13.715  0.2366 -0.1993 -0.3023
 3645SOL    HW122571   0.368   2.435  13.721  0.0571  0.5397  1.0200
 3645SOL    HW222572   0.264   2.326  13.709  1.9047 -0.3142 -0.9911
 3646SOL     OW22573   2.794   3.160   3.878 -0.1443  0.2648 -0.3287
 3646SOL    HW122574   2.865   3.097   3.869  1.2116  1.4156  2.2601
 3646SOL    HW222575   2.809   3.184   3.970 -0.5304 -0.6784 -0.0165
 3647SOL     OW22576   4.144   1.547   2.274 -0.2889 -0.2903  0.2148
 3647SOL    HW122577   4.229   1.539   2.232 -0.4745 -4.1619  0.6562
 3647SOL    HW222578   4.146   1.624   2.331 -0.4565 -0.3102  0.2467
 3648SOL     OW22579   0.458   4.559  16.428 -1.0223  0.2991  0.2761
 3648SOL    HW122580   0.540   4.603  16.451  0.4977 -0.9202 -2.9515
 3648SOL    HW222581   0.423   4.599  16.349 -2.1527  0.3622  0.8123
 3649SOL     OW22582   1.568   1.510   2.664  0.3396 -0.1804  0.6648
 3649SOL    HW122583   1.658   1.515   2.696 -0.1528 -0.9183  2.1078
 3649SOL    HW222584   1.516   1.460   2.727  0.7084 -3.4449 -1.6057
 3650SOL     OW22585   0.094   2.736   2.887  0.5362 -0.4540  0.1439
 3650SOL    HW122586   0.184   2.758   2.910  0.9924 -0.8347 -1.3063
 3650SOL    HW222587   0.107   2.643   2.869  1.0221  0.0641 -2.1500
 3651SOL     OW22588   4.554   4.424   8.189 -0.1809  0.3458 -0.1505
 3651SOL    HW122589   4.535   4.447   8.280 -1.4269 -1.4105  0.0282
 3651SOL    HW222590   4.602   4.505   8.171  0.2481 -0.0295 -0.6970
 3652SOL     OW22591   3.460   0.634  15.463  0.0288  0.7060  0.1628
 3652SOL    HW122592   3.478   0.596  15.377 -0.6449 -1.2537  0.8953
 3652SOL    HW222593   3.387   0.588  15.503 -0.6101  1.2076 -0.4251
 3653SOL     OW22594   2.373   1.844   7.086  0.1072 -0.2422 -0.2549
 3653SOL    HW122595   2.344   1.776   7.147 -1.0501 -0.8074 -1.4266
 3653SOL    HW222596   2.405   1.907   7.150 -2.9083  1.6987 -0.6345
 3654SOL     OW22597   0.250   0.022   8.618  0.0054  0.4272 -0.1947
 3654SOL    HW122598   0.266   0.117   8.619 -0.2994  0.4548  1.6560
 3654SOL    HW222599   0.340   4.728   8.621  0.0074  0.5188  0.9743
 3655SOL     OW22600   3.780   2.340  12.493 -0.4213  0.2184  0.1677
 3655SOL    HW122601   3.689   2.339  12.464 -0.5037 -2.7753  0.5748
 3655SOL    HW222602   3.819   2.417  12.450  0.4958 -0.7943 -0.8074
 3656SOL     OW22603   3.929   4.374   5.740  0.3352 -0.8909 -0.0645
 3656SOL    HW122604   3.962   4.374   5.830  2.6234  1.6496 -0.9119
 3656SOL    HW222605   3.994   4.314   5.703  1.2742 -0.2544  0.5550
 3657SOL     OW22606   4.032   3.972  10.331  0.2023  0.2591  0.5895
 3657SOL    HW122607   3.991   3.999  10.249  2.5893  0.3755 -0.5680
 3657SOL    HW222608   4.048   4.058  10.369 -1.4345  0.2381  1.3323
 3658SOL     OW22609   2.108   1.941  11.009 -0.1732  0.2398 -0.3033
 3658SOL    HW122610   2.177   1.909  11.067  0.5088  0.9897 -0.6969
 3658SOL    HW222611   2.063   1.857  10.997 -1.4645  0.8079  0.4853
 3659SOL     OW22612   4.051   2.423   1.815  0.2058 -0.3427 -0.4256
 3659SOL    HW122613   4.128   2.402   1.867 -1.1694 -1.3515  1.2134
 3659SOL    HW222614   3.985   2.400   1.881 -1.9571  1.3899 -1.9869
 3660SOL     OW22615   1.181   1.391   7.483  0.3203 -0.2398 -0.4002
 3660SOL    HW122616   1.134   1.336   7.420 -0.5669  1.7064 -1.4433
 3660SOL    HW222617   1.272   1.370   7.461  0.7615  0.3803  0.8527
 3661SOL     OW22618   2.214   3.726   2.520  0.6358 -0.8662 -0.6112
 3661SOL    HW122619   2.127   3.754   2.495  0.5408  0.1190  0.8099
 3661SOL    HW222620   2.205   3.727   2.615 -1.3457  0.3190 -0.8108
 3662SOL     OW22621   3.066   3.862   9.511  0.1050  0.3676 -0.2708
 3662SOL    HW122622   3.120   3.826   9.441  1.1273  2.8650 -0.7568
 3662SOL    HW222623   3.032   3.944   9.475 -0.3328 -0.1505 -1.0394
 3663SOL     OW22624   4.525   3.276   7.034  0.3534  0.0953  0.6500
 3663SOL    HW122625   4.617   3.270   7.010 -0.4877 -0.1304 -2.5589
 3663SOL    HW222626   4.492   3.325   6.958 -0.4016 -0.6399  0.4953
 3664SOL     OW22627   0.381   1.687   7.268  0.1493 -0.3186  0.0381
 3664SOL    HW122628   0.385   1.722   7.358 -0.3335  0.9997 -0.4464
 3664SOL    HW222629   0.302   1.735   7.243 -0.3924 -1.8025 -1.0225
 3665SOL     OW22630   3.259   0.167   0.199  0.4956 -0.2487  0.7822
 3665SOL    HW122631   3.306   0.084   0.191  1.4491  0.4233 -0.4685
 3665SOL    HW222632   3.174   0.138   0.166  0.3820  0.2920  0.6036
 3666SOL     OW22633   4.336   3.956  16.120 -0.0555  0.4867 -0.0271
 3666SOL    HW122634   4.241   3.945  16.128  0.2390 -1.2884  1.1291
 3666SOL    HW222635   4.339   3.946  16.025 -1.6483  1.3313 -0.1659
 3667SOL     OW22636   1.292   2.051   5.143 -0.0809 -0.1483 -0.3635
 3667SOL    HW122637   1.358   2.066   5.075  1.5243 -1.0006  1.0069
 3667SOL    HW222638   1.225   2.116   5.121 -1.1150 -2.4947 -4.0557
 3668SOL     OW22639   2.637   2.969  12.465  0.8101  0.7707 -0.0035
 3668SOL    HW122640   2.714   3.019  12.439  2.4770 -0.6602  2.2357
 3668SOL    HW222641   2.595   2.955  12.380  0.2963 -0.2703  0.4252
 3669SOL     OW22642   3.579   4.731  13.520  0.0288  0.4939  0.2740
 3669SOL    HW122643   3.562   0.027  13.432 -0.8488  0.4997  0.4416
 3669SOL    HW222644   3.622   4.650  13.491 -1.4177  0.7323 -2.5416
 3670SOL     OW22645   2.081   3.641   7.076 -0.0871  0.1795 -0.4583
 3670SOL    HW122646   2.132   3.695   7.016 -0.2474  0.2122 -0.5642
 3670SOL    HW222647   2.127   3.662   7.158 -1.0907 -3.3310  1.0206
 3671SOL     OW22648   2.794   1.541  17.578 -0.4988  0.4226  0.1680
 3671SOL    HW122649   2.776   1.625  17.621  0.2141  1.7222 -2.0573
 3671SOL    HW222650   2.779   1.473  17.643  0.0431  1.7171  1.6523
 3672SOL     OW22651   2.673   0.940  15.511 -0.0756  0.3219  0.5247
 3672SOL    HW122652   2.627   1.002  15.454  0.4577 -0.0739 -0.3335
 3672SOL    HW222653   2.677   0.867  15.449  1.1059  0.2708  0.6658
 3673SOL     OW22654   0.800   3.710  10.182 -0.7037 -0.4556  0.4482
 3673SOL    HW122655   0.803   3.654  10.259 -1.1051  0.0407  0.8242
 3673SOL    HW222656   0.717   3.690  10.138 -1.1959  1.0231  0.7196
 3674SOL     OW22657   1.429   2.190   1.183 -0.3087  0.3273 -0.5569
 3674SOL    HW122658   1.415   2.098   1.205  1.7286 -0.2598 -1.7444
 3674SOL    HW222659   1.387   2.224   1.263  1.1379 -0.4972  0.5620
 3675SOL     OW22660   2.528   0.557  15.355 -0.2159  0.2408  0.1240
 3675SOL    HW122661   2.611   0.605  15.362 -0.2730  0.3986 -0.3301
 3675SOL    HW222662   2.469   0.606  15.413 -1.4324 -0.7706 -0.2775
 3676SOL     OW22663   0.448   1.415   5.954  0.3056  0.2212  0.1657
 3676SOL    HW122664   0.439   1.392   5.862 -1.6930  0.2201  0.3630
 3676SOL    HW222665   0.456   1.509   5.935 -0.8597  0.3637  0.3691
 3677SOL     OW22666   1.545   0.772   1.047  0.5777 -0.0404 -0.5860
 3677SOL    HW122667   1.503   0.846   1.091 -0.3020 -1.5418  1.1163
 3677SOL    HW222668   1.477   0.707   1.066  1.1980 -0.9022 -1.3370
 3678SOL     OW22669   3.209   1.856   3.583 -0.0910  0.8864  0.3923
 3678SOL    HW122670   3.179   1.841   3.494 -0.4510 -0.9394  0.8268
 3678SOL    HW222671   3.167   1.785   3.632  2.7575  1.1131  3.1553
 3679SOL     OW22672   4.629   3.374   9.546 -0.5025 -0.3498  0.0628
 3679SOL    HW122673   4.572   3.435   9.593 -1.4347  0.3139 -1.9352
 3679SOL    HW222674   4.711   3.393   9.592 -0.7913  3.0669 -0.7921
 3680SOL     OW22675   2.118   1.319  11.740  0.1372  0.1008 -0.1268
 3680SOL    HW122676   2.051   1.358  11.797  1.9077  2.0192  0.6340
 3680SOL    HW222677   2.190   1.382  11.730 -0.7366  1.0365 -0.5111
 3681SOL     OW22678   0.480   1.035  12.735 -0.3995 -0.1177 -0.3041
 3681SOL    HW122679   0.483   0.972  12.807  1.0349  0.6113  0.2521
 3681SOL    HW222680   0.531   0.982  12.674  0.0184 -1.6883  1.4042
 3682SOL     OW22681   3.172   3.699   9.275  0.5198  0.6314 -0.1102
 3682SOL    HW122682   3.257   3.677   9.238  0.6835  0.0318  0.6109
 3682SOL    HW222683   3.108   3.685   9.205  1.1002  0.3385 -0.5772
 3683SOL     OW22684   0.033   2.705   4.488  0.7847  0.1737  0.0151
 3683SOL    HW122685   4.685   2.677   4.520  2.1384 -1.3314  2.2810
 3683SOL    HW222686   0.060   2.749   4.568 -3.2557  1.4654  0.6615
 3684SOL     OW22687   3.080   0.350   8.447  0.5676 -0.5577  0.1177
 3684SOL    HW122688   3.102   0.274   8.393  0.7240  0.8348 -1.7621
 3684SOL    HW222689   3.170   0.366   8.475  0.0022 -0.7348  2.0705
 3685SOL     OW22690   4.330   4.427  10.511 -0.3309 -0.0286 -0.1098
 3685SOL    HW122691   4.375   4.369  10.449 -0.4090  0.2776 -0.4536
 3685SOL    HW222692   4.312   4.497  10.448 -0.6190 -0.8359 -0.9323
 3686SOL     OW22693   4.035   0.209  16.416 -0.3648  0.3505 -0.6278
 3686SOL    HW122694   4.021   0.154  16.339 -0.0934 -1.3872  0.5693
 3686SOL    HW222695   4.079   0.283  16.374  0.0689  1.2223  1.3472
 3687SOL     OW22696   0.768   1.442   8.765 -0.0753  0.0990 -0.0534
 3687SOL    HW122697   0.855   1.462   8.732  0.1814 -0.9644 -0.0226
 3687SOL    HW222698   0.782   1.349   8.785 -1.7003 -0.2566 -0.4971
 3688SOL     OW22699   2.239   4.056   2.286  0.2654  0.5366 -0.3477
 3688SOL    HW122700   2.159   4.064   2.339 -0.2904  0.3969 -1.1648
 3688SOL    HW222701   2.307   4.025   2.345 -0.1476  1.6982  0.7458
 3689SOL     OW22702   0.955   3.473  14.057 -0.7658 -0.9791  0.5501
 3689SOL    HW122703   1.035   3.484  14.006  0.0687  0.8322  2.2310
 3689SOL    HW222704   0.905   3.553  14.038  2.5677  1.0636  0.5419
 3690SOL     OW22705   3.206   1.254   5.226  0.2435  0.0871 -0.3821
 3690SOL    HW122706   3.165   1.299   5.152  1.0318 -0.6746 -1.2909
 3690SOL    HW222707   3.291   1.296   5.238  0.3876 -0.5874  0.9823
 3691SOL     OW22708   3.210   1.961   4.973  0.3477 -0.1819  0.7088
 3691SOL    HW122709   3.221   1.871   4.941 -1.8570 -0.0079 -0.5413
 3691SOL    HW222710   3.283   2.003   4.928  0.5511 -1.3490 -0.0770
 3692SOL     OW22711   1.911   3.625   1.504  0.7502 -0.2542  0.1785
 3692SOL    HW122712   1.926   3.720   1.498 -1.3620  0.1354  0.6784
 3692SOL    HW222713   1.915   3.602   1.412  3.4682 -3.0786  1.0430
 3693SOL     OW22714   1.740   0.088   3.811 -0.3105 -0.5913  0.1565
 3693SOL    HW122715   1.810   0.054   3.867 -0.8444  1.6856  2.2074
 3693SOL    HW222716   1.721   0.164   3.866  1.5498 -0.3058  0.4132
 3694SOL     OW22717   4.584   1.254  10.476 -0.1252 -0.2559  0.4047
 3694SOL    HW122718   4.584   1.217  10.387  0.1300 -1.4330  0.8941
 3694SOL    HW222719   4.674   1.225  10.493 -0.1721 -0.1944  0.7572
 3695SOL     OW22720   3.436   2.601   7.330 -0.1772 -0.1503  0.3583
 3695SOL    HW122721   3.362   2.579   7.387  1.6830  0.4969  3.0102
 3695SOL    HW222722   3.474   2.516   7.310 -1.2159 -0.9035  1.5382
 3696SOL     OW22723   2.405   3.360  16.550  0.1067  0.5113  0.2177
 3696SOL    HW122724   2.483   3.387  16.501  1.7098 -0.9031  2.0251
 3696SOL    HW222725   2.444   3.286  16.595 -0.2279  1.3397  1.8469
 3697SOL     OW22726   1.609   3.128   5.923 -0.0958 -0.3310 -0.0268
 3697SOL    HW122727   1.615   3.092   5.834  1.6830  0.4460 -0.2242
 3697SOL    HW222728   1.544   3.070   5.963 -0.2822 -0.7664 -0.9611
 3698SOL     OW22729   2.384   0.843   5.753 -0.0143 -0.9218 -0.2932
 3698SOL    HW122730   2.359   0.911   5.691 -1.2487 -1.4055 -0.3316
 3698SOL    HW222731   2.334   0.865   5.831 -1.2671 -0.4475 -1.2295
 3699SOL     OW22732   4.073   0.326   9.964 -0.1027  0.1331  0.5461
 3699SOL    HW122733   4.106   0.352  10.050  1.8327 -0.3825 -0.0359
 3699SOL    HW222734   3.990   0.284   9.988 -0.2740  0.2765  0.2054
 3700SOL     OW22735   0.033   1.136  10.823 -0.0998  0.7195 -0.3075
 3700SOL    HW122736   4.720   1.119  10.902 -0.4040  3.2214  0.0371
 3700SOL    HW222737   0.121   1.103  10.840 -0.4791  0.2107  0.6530
 3701SOL     OW22738   4.175   4.241   3.270 -0.6934  0.4866 -0.3188
 3701SOL    HW122739   4.124   4.303   3.321 -1.8159  0.1749 -1.0725
 3701SOL    HW222740   4.146   4.269   3.183 -0.4519  0.8743 -0.2748
 3702SOL     OW22741   4.726   3.125  10.736  0.1077 -0.1176 -0.5828
 3702SOL    HW122742   4.703   3.217  10.722  0.2689  0.0422  0.2102
 3702SOL    HW222743   4.699   3.110  10.826  3.3090 -0.3492  0.3356
 3703SOL     OW22744   3.030   1.095   1.919  0.1064  0.2205 -0.3050
 3703SOL    HW122745   3.037   1.170   1.860 -1.7087  1.1096  0.5658
 3703SOL    HW222746   2.935   1.094   1.931  0.0572  1.5424 -0.5731
 3704SOL     OW22747   3.210   4.095   2.175 -0.0934 -0.5045 -0.0364
 3704SOL    HW122748   3.212   4.059   2.263 -0.8737  0.0485  0.2102
 3704SOL    HW222749   3.304   4.107   2.160  0.2708 -0.9799  1.9704
 3705SOL     OW22750   2.468   2.079   4.869  0.1065 -0.7643  0.0772
 3705SOL    HW122751   2.521   2.090   4.790  1.8795 -1.1681  1.2126
 3705SOL    HW222752   2.536   2.050   4.930  2.1352  3.0583 -0.3719
 3706SOL     OW22753   4.377   4.472  10.201 -0.3339  0.3585  0.6166
 3706SOL    HW122754   4.314   4.542  10.214 -1.0082 -0.3223  0.9872
 3706SOL    HW222755   4.320   4.396  10.190 -0.3864  0.5371 -0.3597
 3707SOL     OW22756   4.373   2.658   2.545  0.1631 -0.0455  0.1129
 3707SOL    HW122757   4.372   2.641   2.639 -2.2206 -2.2406 -0.3144
 3707SOL    HW222758   4.313   2.732   2.538  1.1726  0.7634  0.1109
 3708SOL     OW22759   4.645   2.866   1.908 -0.2174  0.0009  0.2615
 3708SOL    HW122760   4.693   2.868   1.991 -0.4069 -0.6422  0.3868
 3708SOL    HW222761   4.707   2.810   1.862  0.3280  0.1521  0.8132
 3709SOL     OW22762   0.642   0.887   9.431 -0.8321 -0.9899  0.3927
 3709SOL    HW122763   0.616   0.892   9.523  1.2226  1.4892  0.8434
 3709SOL    HW222764   0.570   0.935   9.389 -0.1418 -0.1358  0.1855
 3710SOL     OW22765   2.944   0.863   9.220  0.4148 -0.3846  0.2632
 3710SOL    HW122766   2.929   0.957   9.209 -2.7599 -0.8156  0.8398
 3710SOL    HW222767   2.860   0.835   9.256 -0.0176  0.2120 -0.2792
 3711SOL     OW22768   0.770   0.338  13.478  0.1414 -0.3521 -0.0788
 3711SOL    HW122769   0.680   0.327  13.446  0.7136 -1.5135 -1.3425
 3711SOL    HW222770   0.798   0.407  13.418  2.6245  0.2388  1.7503
 3712SOL     OW22771   2.784   2.789   2.536  0.3398  0.7480 -0.3831
 3712SOL    HW122772   2.808   2.871   2.494  0.1368  0.0911 -1.7620
 3712SOL    HW222773   2.816   2.725   2.473 -0.0648 -0.1500  0.3072
 3713SOL     OW22774   4.486   1.413   8.458 -0.0155 -0.0068  0.6046
 3713SOL    HW122775   4.410   1.415   8.400 -0.5152  0.5325  1.2873
 3713SOL    HW222776   4.553   1.393   8.392 -1.2332 -0.6830 -0.4253
 3714SOL     OW22777   4.624   1.379   6.652 -0.0312 -0.0457 -0.0043
 3714SOL    HW122778   4.673   1.298   6.642  1.0031  0.5586  0.1937
 3714SOL    HW222779   4.554   1.357   6.712 -0.8452  0.5603 -0.7175
 3715SOL     OW22780   4.712   2.207  10.390  0.2580  0.1984 -0.1872
 3715SOL    HW122781   4.719   2.113  10.403 -1.0253  0.1737  0.2664
 3715SOL    HW222782   0.005   2.222  10.301  0.6015  0.1194 -0.0829
 3716SOL     OW22783   1.487   2.029   5.794 -0.2166 -0.6724  0.5628
 3716SOL    HW122784   1.407   1.994   5.755 -0.8366  1.0040  0.3258
 3716SOL    HW222785   1.495   1.975   5.873  1.1862 -0.6572  0.4295
 3717SOL     OW22786   2.684   4.273   6.354 -1.1078  0.7672  0.9666
 3717SOL    HW122787   2.661   4.195   6.404  0.6098 -0.4773 -0.1675
 3717SOL    HW222788   2.617   4.333   6.387  0.2275  3.6631 -1.6440
 3718SOL     OW22789   2.842   4.648   8.375  0.2301  0.0692 -0.1433
 3718SOL    HW122790   2.856   4.632   8.469 -0.3490 -0.2526 -0.1089
 3718SOL    HW222791   2.882   4.733   8.355 -0.0218 -0.0954 -1.3371
 3719SOL     OW22792   1.963   3.430   4.726  0.1921 -0.3221 -0.4361
 3719SOL    HW122793   1.897   3.419   4.795  0.2872 -0.8705 -0.4325
 3719SOL    HW222794   2.043   3.439   4.779 -1.1727 -1.7427  1.8996
 3720SOL     OW22795   2.521   4.121  16.871 -0.2155 -0.3452 -0.0828
 3720SOL    HW122796   2.536   4.037  16.828  1.7562 -0.3297  0.6117
 3720SOL    HW222797   2.433   4.107  16.906 -0.9713  0.0074 -1.8343
 3721SOL     OW22798   0.475   1.657  12.448  0.2569  0.1626 -0.3870
 3721SOL    HW122799   0.453   1.567  12.422 -2.1721  1.0157 -1.2567
 3721SOL    HW222800   0.431   1.652  12.533 -1.4729 -2.8827 -1.4401
 3722SOL     OW22801   3.613   0.318   9.633  0.1285  0.1862 -0.5386
 3722SOL    HW122802   3.541   0.380   9.640  2.2336  2.4175  1.3355
 3722SOL    HW222803   3.674   0.346   9.701  1.4355 -3.0468 -0.3516
 3723SOL     OW22804   4.430   3.933   4.320 -0.3555  0.1428  0.4729
 3723SOL    HW122805   4.480   3.957   4.398 -1.1048  1.2542  0.6138
 3723SOL    HW222806   4.430   4.011   4.264 -0.9518 -0.1189  0.1122
 3724SOL     OW22807   1.452   2.752   5.460 -0.5416 -0.5918 -0.0591
 3724SOL    HW122808   1.398   2.753   5.539  0.2630 -3.4211  0.5029
 3724SOL    HW222809   1.519   2.691   5.489  1.2176  1.4906  0.2387
 3725SOL     OW22810   0.101   4.413   2.323  0.2623  0.0946 -0.4094
 3725SOL    HW122811   0.043   4.477   2.280  0.0383 -1.0051 -1.7497
 3725SOL    HW222812   0.045   4.370   2.388 -0.7469 -0.8032 -1.8701
 3726SOL     OW22813   1.368   0.688   1.300  0.3389 -0.0993 -0.4002
 3726SOL    HW122814   1.450   0.707   1.346  0.4666  0.0290 -0.6796
 3726SOL    HW222815   1.375   0.593   1.306 -0.4665 -0.0707  0.9050
 3727SOL     OW22816   2.810   2.762   8.503  0.1104 -0.4856  0.3406
 3727SOL    HW122817   2.804   2.858   8.505  0.9990 -0.4155 -0.6150
 3727SOL    HW222818   2.874   2.756   8.432  0.2974  1.4895  0.3443
 3728SOL     OW22819   4.128   3.090   8.266  0.6398  0.0811 -0.1864
 3728SOL    HW122820   4.204   3.062   8.216  0.6236 -3.7925  1.9616
 3728SOL    HW222821   4.163   3.103   8.355  0.6030  0.4852 -0.2289
 3729SOL     OW22822   2.430   4.629   5.912 -0.2457 -0.1965 -0.1273
 3729SOL    HW122823   2.337   4.650   5.897 -0.7002 -1.5290  0.8536
 3729SOL    HW222824   2.456   4.587   5.831  1.5326  1.2836 -0.3130
 3730SOL     OW22825   2.966   3.106   9.335 -0.1033 -0.0679  0.4823
 3730SOL    HW122826   2.982   3.077   9.246 -0.4897 -0.1413  0.4354
 3730SOL    HW222827   3.020   3.185   9.336 -0.5550  0.2463 -0.7442
 3731SOL     OW22828   2.417   3.250   7.530  0.5869  0.6501 -0.4065
 3731SOL    HW122829   2.332   3.292   7.515  1.0659  1.5474 -0.6198
 3731SOL    HW222830   2.452   3.316   7.592  0.9830 -1.3066  1.4527
 3732SOL     OW22831   1.451   0.169   6.024 -0.1337  0.5018  0.5003
 3732SOL    HW122832   1.465   0.163   6.118  0.9165  0.5705  0.3508
 3732SOL    HW222833   1.373   0.115   6.030 -0.2579  0.4451 -1.5228
 3733SOL     OW22834   0.128   3.058   3.510  0.2604  0.5081  0.2576
 3733SOL    HW122835   0.123   3.154   3.513  0.7481  0.6835 -5.6933
 3733SOL    HW222836   0.036   3.031   3.511 -0.3895  2.6554 -1.4515
 3734SOL     OW22837   2.529   0.692   0.997 -0.1584  0.4329 -0.3547
 3734SOL    HW122838   2.522   0.681   1.092 -2.2258  0.9842 -0.4444
 3734SOL    HW222839   2.622   0.670   0.989 -0.1893  0.1370  0.0756
 3735SOL     OW22840   0.158   1.254   2.793  0.5527 -0.2216 -0.5622
 3735SOL    HW122841   0.236   1.309   2.795  0.4612 -0.1980  2.5872
 3735SOL    HW222842   0.197   1.166   2.795 -0.7956 -0.7862  0.9702
 3736SOL     OW22843   2.603   2.331   9.894  0.3007 -0.3073 -0.3625
 3736SOL    HW122844   2.524   2.277   9.893  0.0991 -0.0256  0.1080
 3736SOL    HW222845   2.598   2.383   9.814 -0.9037  0.7726  0.4092
 3737SOL     OW22846   2.155   2.675   3.909 -0.0203  0.2218 -0.0582
 3737SOL    HW122847   2.130   2.760   3.873 -0.8428 -0.2867 -0.6819
 3737SOL    HW222848   2.192   2.699   3.994  2.6671  0.0295 -1.1786
 3738SOL     OW22849   0.500   0.951   4.571 -0.2401 -0.0117 -0.1931
 3738SOL    HW122850   0.538   1.029   4.531  1.2715  0.2956  1.8666
 3738SOL    HW222851   0.519   0.891   4.499 -0.3233  2.0972 -1.9618
 3739SOL     OW22852   2.745   4.483   9.982 -0.0940 -0.2305 -0.0408
 3739SOL    HW122853   2.744   4.443   9.896  1.2196 -2.2793  0.9028
 3739SOL    HW222854   2.827   4.452  10.021 -0.2772  1.7379  1.9640
 3740SOL     OW22855   0.894   3.681  10.834 -0.8117  0.2900 -0.4081
 3740SOL    HW122856   0.927   3.682  10.744  1.1983  0.7123  0.3480
 3740SOL    HW222857   0.931   3.598  10.866  0.6510  1.4188  0.8404
 3741SOL     OW22858   2.809   2.711  10.440  0.0827 -0.0061  0.0910
 3741SOL    HW122859   2.868   2.781  10.469  0.6454  0.4915 -2.2074
 3741SOL    HW222860   2.726   2.757  10.430  0.2483 -0.3259 -2.7103
 3742SOL     OW22861   4.083   0.349   6.663  0.0971  0.0112  0.2849
 3742SOL    HW122862   4.145   0.313   6.600  0.9317 -0.1654  1.2063
 3742SOL    HW222863   4.072   0.277   6.725 -2.7006  1.2678  1.2964
 3743SOL     OW22864   1.292   1.254  10.077 -0.2559 -0.1260  0.6903
 3743SOL    HW122865   1.263   1.217  10.160 -0.4555  1.1657  1.1949
 3743SOL    HW222866   1.311   1.345  10.099 -2.2331  0.5360 -0.3618
 3744SOL     OW22867   3.800   1.481  12.344 -0.5594 -0.8478  0.5810
 3744SOL    HW122868   3.795   1.389  12.317 -1.2836 -0.2920 -1.2119
 3744SOL    HW222869   3.710   1.496  12.374 -0.6102  0.5538 -0.2635
 3745SOL     OW22870   4.452   1.473   7.994 -0.4860 -0.6898 -0.0493
 3745SOL    HW122871   4.374   1.501   7.946 -2.1017  0.5926  3.2980
 3745SOL    HW222872   4.417   1.390   8.027  1.4958 -1.5283 -0.0354
 3746SOL     OW22873   2.560   0.697   0.061 -0.4563 -0.2224 -0.3145
 3746SOL    HW122874   2.581   0.790   0.047  1.7044 -0.7014 -0.2363
 3746SOL    HW222875   2.565   0.685   0.156  1.8571  1.2009 -0.2630
 3747SOL     OW22876   0.292   0.092   0.683  0.7531 -0.1432 -0.0000
 3747SOL    HW122877   0.272   0.186   0.677  1.0603 -0.1302 -0.7999
 3747SOL    HW222878   0.370   0.086   0.628 -0.0675 -1.9221 -0.9370
 3748SOL     OW22879   0.727   1.520   4.818 -0.1369 -0.3657 -0.1546
 3748SOL    HW122880   0.653   1.507   4.877 -0.5032  3.9806  0.3277
 3748SOL    HW222881   0.686   1.547   4.736 -0.9453 -2.2038 -0.3478
 3749SOL     OW22882   4.705   3.157   1.472  0.0342  0.4357 -0.2250
 3749SOL    HW122883   0.033   3.119   1.530 -1.9541 -1.3194  0.9080
 3749SOL    HW222884   4.639   3.087   1.474  1.1764 -0.5297  3.1725
 3750SOL     OW22885   2.693   3.299   5.860 -0.2447 -0.3505  0.4312
 3750SOL    HW122886   2.700   3.359   5.934  1.5875 -0.6930  0.5478
 3750SOL    HW222887   2.726   3.353   5.788 -2.6142 -0.3773 -0.6796
 3751SOL     OW22888   1.792   2.909   3.067  0.0534 -0.2919  0.4432
 3751SOL    HW122889   1.820   2.876   3.153 -2.1812  0.0168  1.2827
 3751SOL    HW222890   1.855   2.864   3.011  0.0401  1.9751 -1.3919
 3752SOL     OW22891   1.031   3.682  16.474  0.5877 -0.7473  1.0132
 3752SOL    HW122892   1.078   3.669  16.557  2.4739 -0.0974  0.0362
 3752SOL    HW222893   1.034   3.778  16.479  2.8578 -0.8008  0.2811
 3753SOL     OW22894   1.242   3.916   4.559 -0.0192 -0.0731  0.2659
 3753SOL    HW122895   1.288   3.892   4.640 -2.0514 -0.5211  1.2662
 3753SOL    HW222896   1.313   3.956   4.509 -0.6639  1.1130  0.3187
 3754SOL     OW22897   4.650   1.227   2.160  0.0033  0.1319 -0.2228
 3754SOL    HW122898   4.556   1.230   2.178 -0.3428 -0.5583 -1.9323
 3754SOL    HW222899   4.657   1.301   2.099 -1.0964  0.1925 -0.2808
 3755SOL     OW22900   1.801   3.801  14.920  0.6739  0.5335  0.0633
 3755SOL    HW122901   1.801   3.777  14.827  1.2173  0.3087  0.1232
 3755SOL    HW222902   1.713   3.776  14.948  0.5865  0.2123 -0.4910
 3756SOL     OW22903   3.916   2.568  17.665 -0.1514  0.4989  0.4100
 3756SOL    HW122904   3.897   2.645  17.717 -0.3912  2.6940 -2.9131
 3756SOL    HW222905   3.979   2.518  17.717 -0.1361  1.6269  1.4579
 3757SOL     OW22906   0.138   4.675   8.854 -0.3411  0.3312 -0.4053
 3757SOL    HW122907   0.179   4.685   8.768  1.5794 -2.2187  0.1995
 3757SOL    HW222908   0.202   4.713   8.914 -2.7002  0.6506  1.9015
 3758SOL     OW22909   3.946   1.971   8.819 -0.3873 -0.1707  0.1344
 3758SOL    HW122910   4.022   1.912   8.824 -0.9034 -0.9691 -1.4537
 3758SOL    HW222911   3.875   1.929   8.867 -0.5810  1.8709  1.6143
 3759SOL     OW22912   1.863   3.197   2.957  0.3386  0.7599 -0.1921
 3759SOL    HW122913   1.889   3.109   2.929  0.0795  0.0566  1.8344
 3759SOL    HW222914   1.798   3.211   2.888 -3.0349 -1.2270  2.6498
 3760SOL     OW22915   1.113   3.314  11.367  0.1343 -0.5857  0.5416
 3760SOL    HW122916   1.118   3.381  11.299 -1.7489 -1.3751 -0.3535
 3760SOL    HW222917   1.182   3.350  11.423 -0.3803  0.1481  0.7026
 3761SOL     OW22918   3.087   3.772   8.410 -0.3251 -0.6849 -0.1119
 3761SOL    HW122919   3.127   3.815   8.334  0.3050 -0.5264  0.3056
 3761SOL    HW222920   2.999   3.809   8.409 -0.7348 -1.5896  2.2388
 3762SOL     OW22921   4.001   2.090  14.732 -0.3794 -0.4219 -0.2602
 3762SOL    HW122922   4.019   2.180  14.757 -1.1468 -0.6798  1.2246
 3762SOL    HW222923   3.947   2.099  14.653  1.3554  1.8426 -1.1662
 3763SOL     OW22924   4.219   2.064   1.710 -0.1250 -0.5934  0.4711
 3763SOL    HW122925   4.283   2.086   1.778 -0.6955 -2.7042  1.6837
 3763SOL    HW222926   4.141   2.032   1.754 -1.0350  0.0449 -0.6790
 3764SOL     OW22927   2.284   0.731   4.405 -0.6720  0.3682  0.1740
 3764SOL    HW122928   2.310   0.735   4.497 -0.1882  1.6867 -0.0229
 3764SOL    HW222929   2.336   0.658   4.372 -3.2370 -1.9914  1.3565
 3765SOL     OW22930   0.331   0.664   9.322 -0.9007  0.2514  0.4325
 3765SOL    HW122931   0.269   0.730   9.353 -0.4965  0.7828  0.1077
 3765SOL    HW222932   0.388   0.653   9.398 -0.3120  0.9673  0.0869
 3766SOL     OW22933   0.047   3.811   4.357 -0.1437  0.2495 -0.2367
 3766SOL    HW122934   0.117   3.746   4.349 -1.2366 -1.1505  1.7723
 3766SOL    HW222935   0.023   3.814   4.264 -2.2954 -1.5709  0.2761
 3767SOL     OW22936   2.533   1.131   1.416 -0.0123 -0.3428 -0.1953
 3767SOL    HW122937   2.588   1.207   1.396  0.6926 -1.0991 -1.1107
 3767SOL    HW222938   2.493   1.127   1.329  0.8126  0.1228 -0.6004
 3768SOL     OW22939   3.728   4.657   3.040 -0.3836  0.2844 -0.2103
 3768SOL    HW122940   3.635   4.639   3.035  0.0367 -1.5224 -1.6087
 3768SOL    HW222941   3.750   4.654   2.947 -0.2134  3.4497 -0.2713
 3769SOL     OW22942   4.705   4.315   4.498 -0.5441  0.8572  0.4208
 3769SOL    HW122943   0.024   4.243   4.469  1.1360  2.5873 -0.5793
 3769SOL    HW222944   4.728   4.376   4.429 -1.7617  2.4563  1.4406
 3770SOL     OW22945   3.361   3.039   2.810  0.1062 -0.3937  0.0461
 3770SOL    HW122946   3.428   3.091   2.853 -0.8408 -0.6353  1.7940
 3770SOL    HW222947   3.396   3.013   2.725  3.3138 -0.5513  1.4256
 3771SOL     OW22948   2.917   3.429   1.415 -0.1768 -0.4432  0.1488
 3771SOL    HW122949   2.880   3.503   1.368  2.5462  0.1457 -1.0356
 3771SOL    HW222950   2.937   3.364   1.347  2.1257 -0.8327  1.1833
 3772SOL     OW22951   3.309   3.608   8.059  0.3203  0.4329 -0.1578
 3772SOL    HW122952   3.233   3.661   8.082 -1.4797 -1.6292 -1.3274
 3772SOL    HW222953   3.267   3.522   8.064  0.2307  0.5867  1.6408
 3773SOL     OW22954   0.091   1.679  16.516 -0.1288 -0.0816  0.1901
 3773SOL    HW122955   0.169   1.720  16.553 -1.3525  0.8795  1.6552
 3773SOL    HW222956   0.015   1.737  16.520 -0.4948 -0.4704 -1.0797
 3774SOL     OW22957   0.442   2.407  15.497  0.3738 -0.2822 -0.0916
 3774SOL    HW122958   0.494   2.478  15.536 -0.1419  0.3559 -0.5804
 3774SOL    HW222959   0.487   2.397  15.414  2.4844 -0.0150  1.0064
 3775SOL     OW22960   1.615   0.593  11.094  0.4660  0.2751 -0.0074
 3775SOL    HW122961   1.705   0.586  11.123  0.5329  2.4254  0.3033
 3775SOL    HW222962   1.567   0.638  11.163  0.8301  1.3859 -0.4739
 3776SOL     OW22963   1.050   1.638  16.936  0.4603 -0.3128  0.2446
 3776SOL    HW122964   1.030   1.582  16.861 -0.1811 -2.2517  1.8471
 3776SOL    HW222965   1.144   1.621  16.940  0.9713  3.1646  2.5007
 3777SOL     OW22966   2.816   1.474   5.156  0.2946  0.0210 -0.0835
 3777SOL    HW122967   2.791   1.510   5.241 -2.5679 -0.9416 -0.5085
 3777SOL    HW222968   2.827   1.386   5.191 -1.6734  0.5107  1.7231
 3778SOL     OW22969   0.426   3.506  16.433 -0.9339 -0.5280 -0.4154
 3778SOL    HW122970   0.412   3.579  16.494  1.2435 -0.8318  0.4382
 3778SOL    HW222971   0.427   3.545  16.346  0.2245 -1.7517 -0.9487
 3779SOL     OW22972   2.212   2.262   8.454  0.5204 -0.0466 -0.3353
 3779SOL    HW122973   2.118   2.270   8.473  0.4350 -0.3997 -0.6189
 3779SOL    HW222974   2.205   2.173   8.419 -1.0849  0.0328 -0.1974
 3780SOL     OW22975   0.493   3.787  15.349  0.2294  0.1069 -0.5373
 3780SOL    HW122976   0.581   3.822  15.365  0.0430  0.6818 -0.7762
 3780SOL    HW222977   0.500   3.692  15.343 -0.4724 -0.1452  2.7889
 3781SOL     OW22978   1.340   0.300   6.562 -0.4009 -0.1422  0.2586
 3781SOL    HW122979   1.302   0.326   6.646 -1.1645  1.4099 -0.5810
 3781SOL    HW222980   1.349   0.206   6.581  0.9419  0.3815  2.2759
 3782SOL     OW22981   2.290   1.192  11.172 -0.4501  0.2175  0.4945
 3782SOL    HW122982   2.377   1.233  11.174  0.8463 -2.5827  1.8591
 3782SOL    HW222983   2.228   1.246  11.124 -0.5996  0.8686  1.4353
 3783SOL     OW22984   3.526   0.463   1.065  0.1526 -0.4652  0.4202
 3783SOL    HW122985   3.513   0.517   0.986  3.2908  0.4592  0.5150
 3783SOL    HW222986   3.570   0.523   1.125 -1.2982 -0.6379  1.6545
 3784SOL     OW22987   2.145   2.964   3.153  0.0154  0.0851 -0.3314
 3784SOL    HW122988   2.219   2.907   3.133  0.4064  1.1741 -2.0130
 3784SOL    HW222989   2.105   2.977   3.067  0.8577 -0.5488 -0.8159
 3785SOL     OW22990   0.709   2.327   2.384  0.6565 -0.4242  0.7221
 3785SOL    HW122991   0.694   2.357   2.294  0.3149  1.3240  1.3546
 3785SOL    HW222992   0.640   2.260   2.386 -0.9685  1.2438  0.9934
 3786SOL     OW22993   1.264   3.073   3.302 -0.2781  0.2579 -0.1430
 3786SOL    HW122994   1.212   3.064   3.222  1.1191 -3.2979 -0.6497
 3786SOL    HW222995   1.319   2.995   3.297 -1.5826 -0.9451  3.6164
 3787SOL     OW22996   3.474   3.867   1.690  0.5581 -0.2915 -0.1944
 3787SOL    HW122997   3.380   3.865   1.668  0.3539  0.3750  0.6153
 3787SOL    HW222998   3.500   3.776   1.701  0.3644 -0.6313 -2.4749
 3788SOL     OW22999   1.757   2.253   4.553 -0.6413 -0.5890 -0.0252
 3788SOL    HW123000   1.776   2.213   4.468 -0.4886  2.5507 -1.4375
 3788SOL    HW223001   1.757   2.180   4.615  0.4887  0.9281  1.7654
 3789SOL     OW23002   1.670   4.344   5.350 -0.3828  0.0401  0.0128
 3789SOL    HW123003   1.712   4.425   5.379  0.4421 -0.7070  0.9106
 3789SOL    HW223004   1.745   4.297   5.314 -0.2964 -0.6532  1.0940
 3790SOL     OW23005   3.839   2.776   5.042 -0.0813  0.2563  0.0594
 3790SOL    HW123006   3.855   2.870   5.037 -1.3331  0.4952  0.5842
 3790SOL    HW223007   3.927   2.744   5.020 -0.0174 -0.4461  1.3621
 3791SOL     OW23008   0.110   1.871  15.300  0.0192  0.0234  0.4120
 3791SOL    HW123009   0.182   1.820  15.262  0.8479  1.3862  0.1879
 3791SOL    HW223010   0.127   1.844  15.390  0.3560 -1.0018  0.0471
 3792SOL     OW23011   0.362   2.259   2.818 -0.3988  0.0736  0.6050
 3792SOL    HW123012   0.284   2.310   2.841 -2.6405 -2.4466 -1.4241
 3792SOL    HW223013   0.387   2.229   2.905  1.0834  1.6610  0.7374
 3793SOL     OW23014   1.377   4.238   6.783 -0.1856  0.7265 -0.1840
 3793SOL    HW123015   1.385   4.145   6.764 -0.6234  0.8154 -0.7985
 3793SOL    HW223016   1.371   4.248   6.878 -1.7793  0.8391 -0.2886
 3794SOL     OW23017   4.714   2.553   9.488 -0.2971  0.0452  0.0658
 3794SOL    HW123018   0.068   2.568   9.511  0.0599 -0.7137 -0.8517
 3794SOL    HW223019   4.681   2.643   9.498  0.1359  0.4020 -1.7657
 3795SOL     OW23020   1.804   0.711   2.504  1.1447 -0.0907  0.2692
 3795SOL    HW123021   1.724   0.658   2.500 -0.1819  1.7903  2.0236
 3795SOL    HW223022   1.866   0.663   2.450 -1.8116 -1.1533 -2.2164
 3796SOL     OW23023   3.432   2.043  12.371 -0.3320 -0.4075 -0.1511
 3796SOL    HW123024   3.356   2.078  12.416 -0.6966 -0.6236 -0.5972
 3796SOL    HW223025   3.492   2.116  12.388 -2.8780  2.1626 -2.3476
 3797SOL     OW23026   2.600   1.620  14.153 -0.2324 -0.1175  0.0846
 3797SOL    HW123027   2.529   1.557  14.145 -0.8928  0.6499 -0.1267
 3797SOL    HW223028   2.674   1.565  14.128 -1.2334 -1.0822 -0.7468
 3798SOL     OW23029   2.804   0.992   7.268 -0.3791  0.7929  0.2012
 3798SOL    HW123030   2.889   0.995   7.225 -0.3838  1.5605  0.2414
 3798SOL    HW223031   2.769   0.910   7.235  0.0462  0.4902  0.5065
 3799SOL     OW23032   1.175   0.961   8.741 -0.0314 -0.1968 -0.3420
 3799SOL    HW123033   1.235   0.887   8.734  1.7605  1.0626  1.7852
 3799SOL    HW223034   1.228   1.014   8.801 -1.4191 -0.2246  0.9180
 3800SOL     OW23035   2.115   2.841   4.796  0.2866 -0.4263 -0.5397
 3800SOL    HW123036   2.138   2.848   4.889 -1.2607 -0.4626 -0.1564
 3800SOL    HW223037   2.095   2.747   4.796 -1.0664 -0.1349 -1.3562
 3801SOL     OW23038   1.457   0.042   3.708 -0.0001 -0.2140 -0.6530
 3801SOL    HW123039   1.541   0.047   3.753 -0.1438  1.5997 -0.5808
 3801SOL    HW223040   1.401   0.090   3.769  0.4534 -1.6906  0.9262
 3802SOL     OW23041   1.336   1.171   5.646  0.3092 -0.6107  0.2416
 3802SOL    HW123042   1.406   1.138   5.702  0.5067 -0.9904 -0.2349
 3802SOL    HW223043   1.375   1.172   5.559 -0.2724 -0.7278 -0.0203
 3803SOL     OW23044   1.914   0.053   4.038 -0.0869 -0.1552  0.0598
 3803SOL    HW123045   1.845   0.067   4.104  0.0990  1.5124 -0.1012
 3803SOL    HW223046   1.977   0.120   4.066 -1.6154  1.4508 -0.3701
 3804SOL     OW23047   0.155   3.582   4.628 -0.4010  0.0936 -0.2890
 3804SOL    HW123048   0.084   3.530   4.591  1.4331 -1.2043 -1.9905
 3804SOL    HW223049   0.213   3.575   4.552  0.4819 -0.6812  0.4624
 3805SOL     OW23050   4.016   0.026   6.433 -0.0427  0.6127 -0.5237
 3805SOL    HW123051   3.966   0.104   6.456 -1.7346 -0.3268 -1.0115
 3805SOL    HW223052   4.007   0.017   6.338  1.3681 -1.1830 -0.4854
 3806SOL     OW23053   3.032   0.742   6.405  0.0281  0.4926 -0.0633
 3806SOL    HW123054   3.021   0.787   6.321 -0.2082  0.5745  0.0119
 3806SOL    HW223055   3.113   0.692   6.389 -0.7367 -0.7276 -0.1431
 3807SOL     OW23056   3.913   4.198   6.242 -0.1108  0.1728  0.2248
 3807SOL    HW123057   3.865   4.131   6.291  0.6748 -1.7725 -1.6546
 3807SOL    HW223058   3.926   4.158   6.155  2.1654  2.3289 -0.4063
 3808SOL     OW23059   4.193   0.116  15.056  0.6372  0.5301  0.6695
 3808SOL    HW123060   4.100   0.139  15.063  0.1063 -1.1225 -1.1061
 3808SOL    HW223061   4.198   0.042  15.116 -2.2522  1.1361  1.6494
 3809SOL     OW23062   2.679   1.060   8.578 -0.0788 -0.2538 -0.3664
 3809SOL    HW123063   2.723   0.979   8.606  0.9421 -0.0553 -1.4092
 3809SOL    HW223064   2.687   1.115   8.656 -0.6596 -0.8010  0.0854
 3810SOL     OW23065   1.087   0.668   5.582 -0.3494  0.2924  0.4115
 3810SOL    HW123066   1.156   0.620   5.628 -0.4849 -0.8726 -0.5982
 3810SOL    HW223067   1.129   0.753   5.566  0.7873  0.1292  2.4176
 3811SOL     OW23068   1.465   4.355  11.421  0.1753  0.3712 -0.2510
 3811SOL    HW123069   1.431   4.433  11.464  1.4865  0.0308  1.4078
 3811SOL    HW223070   1.556   4.385  11.426  0.8237 -1.5264 -0.4529
 3812SOL     OW23071   1.852   4.656   4.917  0.4901  0.4771 -0.5411
 3812SOL    HW123072   1.793   4.708   4.862  0.4136  2.6971  1.6867
 3812SOL    HW223073   1.790   4.582   4.923  0.4599  0.5725  0.2197
 3813SOL     OW23074   4.394   4.569   8.782 -0.6672 -0.8442  0.2503
 3813SOL    HW123075   4.414   4.662   8.790 -1.6416 -0.6359  0.3061
 3813SOL    HW223076   4.353   4.554   8.867 -0.2528 -2.8365  0.1157
 3814SOL     OW23077   1.513   1.646  10.445 -0.1592 -0.4163 -0.1068
 3814SOL    HW123078   1.548   1.645  10.534 -0.4868  0.7241  0.0288
 3814SOL    HW223079   1.537   1.733  10.416 -0.7578  0.2774  1.4830
 3815SOL     OW23080   1.422   3.808  10.142  0.8087 -0.3758 -0.0272
 3815SOL    HW123081   1.384   3.874  10.200  2.0674  0.3440 -0.0098
 3815SOL    HW223082   1.390   3.733  10.192 -0.5335  0.9437  1.1077
 3816SOL     OW23083   2.211   3.940   8.938  0.2273 -0.2829 -0.2224
 3816SOL    HW123084   2.163   3.982   8.866  1.1754  1.2653  0.0617
 3816SOL    HW223085   2.145   3.877   8.968 -1.1908  1.7729  0.9826
 3817SOL     OW23086   0.731   2.716   1.508  0.0991  0.5787  0.4676
 3817SOL    HW123087   0.764   2.633   1.543  1.0201  1.5363  1.9159
 3817SOL    HW223088   0.815   2.751   1.478 -0.7258 -0.5729 -3.2155
 3818SOL     OW23089   4.054   1.286   7.352 -0.5154 -0.3214  0.3374
 3818SOL    HW123090   4.099   1.350   7.408  1.1395 -0.8116 -0.4378
 3818SOL    HW223091   3.998   1.344   7.301  0.5037  0.1943 -0.2138
 3819SOL     OW23092   3.397   2.068   4.809 -0.3970 -0.3847 -0.1339
 3819SOL    HW123093   3.489   2.093   4.824 -0.9539  0.5186  1.7273
 3819SOL    HW223094   3.350   2.150   4.820  0.6556  0.0877  0.8113
 3820SOL     OW23095   3.884   2.375   2.495 -0.6516  0.0734 -0.2763
 3820SOL    HW123096   3.977   2.397   2.493 -0.9531  1.4050  1.1981
 3820SOL    HW223097   3.856   2.423   2.417  0.0097 -0.4718 -0.8617
 3821SOL     OW23098   3.461   2.508   9.739 -0.1296  0.4303 -0.4968
 3821SOL    HW123099   3.521   2.505   9.665  1.6199 -0.4881  0.9567
 3821SOL    HW223100   3.465   2.416   9.766 -0.0616  0.9516  1.2413
 3822SOL     OW23101   4.491   1.652   3.521  0.1532 -0.0458  0.6487
 3822SOL    HW123102   4.490   1.734   3.472  0.2209  1.4973  3.2472
 3822SOL    HW223103   4.397   1.637   3.512  0.0805  0.2235  0.9903
 3823SOL     OW23104   2.830   4.423   5.283  0.0035 -0.1955  0.9653
 3823SOL    HW123105   2.830   4.451   5.375  3.6944 -1.2512  1.2502
 3823SOL    HW223106   2.759   4.360   5.298  0.3971 -1.1334 -1.1199
 3824SOL     OW23107   2.929   0.934  14.097  0.0553 -0.1430  0.1260
 3824SOL    HW123108   3.021   0.939  14.069 -0.4654  0.3966 -1.5067
 3824SOL    HW223109   2.927   1.026  14.123  0.4749 -0.0765 -0.0818
 3825SOL     OW23110   3.055   1.806  15.689 -0.2564 -0.4819  0.0392
 3825SOL    HW123111   3.055   1.719  15.728 -3.0876  0.7524  2.7774
 3825SOL    HW223112   3.149   1.818  15.683 -0.6555  1.5681 -2.0067
 3826SOL     OW23113   2.320   2.485   1.765  0.0532  0.2199  0.3173
 3826SOL    HW123114   2.250   2.432   1.727  0.6788 -2.3809  2.8407
 3826SOL    HW223115   2.268   2.555   1.806  1.6645  0.5923  1.7247
 3827SOL     OW23116   2.239   1.311   1.347 -0.0564  0.0565 -0.0790
 3827SOL    HW123117   2.273   1.245   1.408 -1.2436  0.1922  0.7134
 3827SOL    HW223118   2.149   1.284   1.330  0.1878 -0.7579 -0.0882
 3828SOL     OW23119   0.543   1.748   1.617 -0.0313  0.2560 -0.3055
 3828SOL    HW123120   0.464   1.720   1.664 -0.3151  0.6514 -0.5414
 3828SOL    HW223121   0.587   1.792   1.689 -0.6715  0.5844 -0.1121
 3829SOL     OW23122   0.429   1.171   6.599  0.0800  0.0046  0.3338
 3829SOL    HW123123   0.370   1.158   6.525  0.2153 -3.0692  0.7673
 3829SOL    HW223124   0.514   1.193   6.560 -0.9462  3.0821 -0.1743
 3830SOL     OW23125   2.761   3.799   7.613  0.9064 -0.4958  0.3108
 3830SOL    HW123126   2.704   3.754   7.675  0.4200  0.6434  0.7012
 3830SOL    HW223127   2.850   3.785   7.645 -0.1530  2.4528  4.5485
 3831SOL     OW23128   2.236   0.144   0.827  0.1345  0.3329  1.1608
 3831SOL    HW123129   2.226   0.056   0.791  0.5252  0.4286  0.8093
 3831SOL    HW223130   2.201   0.180   0.746 -0.9261  0.4691  1.6898
 3832SOL     OW23131   2.194   2.068   0.485  0.5742 -0.2475  0.3783
 3832SOL    HW123132   2.238   2.050   0.402  1.6416  1.2336  0.6422
 3832SOL    HW223133   2.188   2.163   0.479 -1.1145 -0.4586 -1.6521
 3833SOL     OW23134   3.076   1.927  10.656 -0.8606  0.7126  0.4440
 3833SOL    HW123135   3.155   1.933  10.710 -0.6794  0.9396  0.1527
 3833SOL    HW223136   3.051   1.836  10.672  1.8236 -0.0050  0.3907
 3834SOL     OW23137   4.311   4.323   0.684 -0.3456  0.5228  0.1274
 3834SOL    HW123138   4.310   4.419   0.680 -0.9874  0.6006  2.1135
 3834SOL    HW223139   4.219   4.299   0.692 -0.1160 -1.6466 -3.9921
 3835SOL     OW23140   3.705   1.973   1.965 -0.0103 -0.5899 -0.4855
 3835SOL    HW123141   3.669   1.897   1.920  1.5255  0.4254 -3.4335
 3835SOL    HW223142   3.649   1.969   2.043  1.6434  1.0579  0.7914
 3836SOL     OW23143   1.834   2.626   5.707 -0.1791 -0.2024  0.3251
 3836SOL    HW123144   1.865   2.580   5.785  2.0374  0.0810 -0.3782
 3836SOL    HW223145   1.754   2.663   5.744  0.1301  0.1380  0.6485
 3837SOL     OW23146   4.359   3.078   8.111 -0.3412  0.0546  0.0285
 3837SOL    HW123147   4.441   3.109   8.148 -0.0336  1.4656 -1.8373
 3837SOL    HW223148   4.388   3.066   8.020 -0.7297  1.3461 -0.2593
 3838SOL     OW23149   2.420   1.180   3.237 -0.4954  0.6316 -0.1032
 3838SOL    HW123150   2.440   1.131   3.317 -1.0248 -0.4104 -0.6120
 3838SOL    HW223151   2.324   1.185   3.242 -0.6320 -1.9134 -0.3560
 3839SOL     OW23152   3.172   0.424   9.896 -0.0545  0.4172  0.0120
 3839SOL    HW123153   3.129   0.342   9.922 -0.2355  0.7236  0.6882
 3839SOL    HW223154   3.137   0.482   9.964 -0.0461 -0.9246  1.1674
 3840SOL     OW23155   3.848   3.528   6.745  0.1167  0.2512  0.2098
 3840SOL    HW123156   3.858   3.606   6.800  1.6647  0.5904 -0.5526
 3840SOL    HW223157   3.919   3.536   6.681  0.8223  1.7630  1.1710
 3841SOL     OW23158   3.158   4.666   9.841  0.3488  0.5509  0.4514
 3841SOL    HW123159   3.148   4.582   9.796  1.6022  0.0672  1.0732
 3841SOL    HW223160   3.251   4.667   9.863  0.5445  2.6090 -0.5180
 3842SOL     OW23161   3.736   3.659   3.247 -0.2073  0.3202 -0.0973
 3842SOL    HW123162   3.780   3.691   3.326 -0.9366  0.5294  0.2162
 3842SOL    HW223163   3.708   3.575   3.284  1.3161 -0.6524 -1.1168
 3843SOL     OW23164   4.045   1.732   7.315 -0.5371 -0.2509 -0.1284
 3843SOL    HW123165   4.075   1.819   7.341  1.1914 -0.2066 -2.2786
 3843SOL    HW223166   4.116   1.682   7.356  0.1364  0.3990 -0.5062
 3844SOL     OW23167   1.029   0.322   5.284  0.0737  0.1336 -0.3373
 3844SOL    HW123168   1.117   0.358   5.297 -0.7221  2.5685 -1.6512
 3844SOL    HW223169   0.984   0.340   5.366  1.5346  0.6488  0.3423
 3845SOL     OW23170   4.285   0.312   6.098 -0.3955 -0.0855  0.2402
 3845SOL    HW123171   4.238   0.281   6.021 -2.9910  0.3714  1.6592
 3845SOL    HW223172   4.369   0.264   6.097  0.9904  2.3204  1.2063
 3846SOL     OW23173   4.171   3.497   2.631 -0.5640  0.4126 -0.0895
 3846SOL    HW123174   4.082   3.532   2.627 -0.5143  0.6005  0.4590
 3846SOL    HW223175   4.180   3.424   2.570 -2.5873  0.2498 -0.1788
 3847SOL     OW23176   4.166   3.113   5.744  0.1943  0.0636 -0.2156
 3847SOL    HW123177   4.218   3.081   5.670 -1.5475 -1.9122 -0.5767
 3847SOL    HW223178   4.142   3.032   5.789  0.2468 -0.5784 -1.3495
 3848SOL     OW23179   4.712   0.956   6.886  0.2002  0.4901 -0.2430
 3848SOL    HW123180   0.061   0.988   6.910  0.0763  0.4944  0.2056
 3848SOL    HW223181   4.659   0.967   6.965  2.1903 -1.4414  1.3375
 3849SOL     OW23182   2.902   3.576   3.008 -0.1632  0.2320  0.0339
 3849SOL    HW123183   2.964   3.638   3.045  1.5066 -0.2204 -2.0375
 3849SOL    HW223184   2.938   3.493   3.039 -1.5778 -0.6236 -0.6385
 3850SOL     OW23185   3.471   1.295   4.002 -0.7117  0.2826 -0.1833
 3850SOL    HW123186   3.431   1.349   4.069 -0.6406 -1.7465  1.5003
 3850SOL    HW223187   3.396   1.240   3.981 -1.4994  1.3217 -0.0588
 3851SOL     OW23188   1.437   3.973  13.081 -0.2938 -0.5403 -0.1312
 3851SOL    HW123189   1.366   4.016  13.128  1.9384  1.8485  1.0767
 3851SOL    HW223190   1.440   3.892  13.133 -1.2792  0.6207  1.7247
 3852SOL     OW23191   4.434   2.338   0.836 -0.4808  0.1781 -0.0357
 3852SOL    HW123192   4.502   2.406   0.833 -1.8376  1.5292 -0.3499
 3852SOL    HW223193   4.481   2.268   0.791  0.6340  1.0789 -0.2932
 3853SOL     OW23194   4.191   1.450   1.808  0.4659  0.4241 -0.1254
 3853SOL    HW123195   4.199   1.386   1.878 -0.0762 -0.1267 -0.5678
 3853SOL    HW223196   4.105   1.480   1.838  1.0894  0.6560  1.4144
 3854SOL     OW23197   3.565   3.440  12.690 -0.3129 -0.3488  0.1688
 3854SOL    HW123198   3.509   3.468  12.762 -2.3445  0.2097 -1.6325
 3854SOL    HW223199   3.509   3.472  12.620 -1.6808 -2.1981  0.4310
 3855SOL     OW23200   1.131   2.526   1.474 -0.9433 -0.1229 -0.1036
 3855SOL    HW123201   1.210   2.574   1.449 -0.6189 -0.5577  0.0747
 3855SOL    HW223202   1.067   2.597   1.467 -0.3865  0.5978  2.2537
 3856SOL     OW23203   3.616   2.060  12.734 -0.0020 -1.4359 -0.4784
 3856SOL    HW123204   3.557   2.133  12.716 -0.4041 -1.9630 -1.2842
 3856SOL    HW223205   3.701   2.103  12.726  0.2104 -1.8255 -0.3319
 3857SOL     OW23206   4.588   1.731   4.508 -0.0229 -0.3656 -0.3681
 3857SOL    HW123207   4.495   1.709   4.497 -0.0486 -1.1585  1.5252
 3857SOL    HW223208   4.596   1.796   4.438 -1.6390 -1.0236 -1.1759
 3858SOL     OW23209   0.595   0.362   5.083 -0.2455 -0.2425 -0.2969
 3858SOL    HW123210   0.651   0.414   5.140  0.0803  0.0947 -0.9285
 3858SOL    HW223211   0.514   0.354   5.134  0.5554 -1.0685  0.8387
 3859SOL     OW23212   0.035   1.405   2.984 -0.0231  0.3872  0.3938
 3859SOL    HW123213   0.067   1.351   2.912 -1.8352 -0.2234  0.0648
 3859SOL    HW223214   4.685   1.371   3.001  0.0077  0.3564  0.4918
 3860SOL     OW23215   4.667   2.144   2.020 -0.1932 -0.8919  0.3320
 3860SOL    HW123216   4.615   2.159   2.099 -2.7473  0.5850 -1.6448
 3860SOL    HW223217   0.016   2.134   2.059 -0.2144 -0.9011  0.3770
 3861SOL     OW23218   2.041   3.097   3.383  0.0739 -0.5878 -0.0335
 3861SOL    HW123219   2.126   3.139   3.392 -0.6316  1.1877 -1.5204
 3861SOL    HW223220   2.051   3.055   3.297 -0.8608 -0.0334 -0.4114
 3862SOL     OW23221   0.099   0.478   6.900  1.1766 -0.6224  0.3555
 3862SOL    HW123222   0.120   0.508   6.811  1.6889  0.5584  0.8619
 3862SOL    HW223223   0.144   0.394   6.905  1.3042 -0.5929 -0.2767
 3863SOL     OW23224   4.363   4.566  11.149  0.8635  0.4013 -0.0709
 3863SOL    HW123225   4.321   4.566  11.235  1.4165  0.7300  0.2003
 3863SOL    HW223226   4.419   4.643  11.161  0.6199  0.6577 -0.5680
 3864SOL     OW23227   2.136   0.518   7.576 -0.0260 -0.4892  0.0114
 3864SOL    HW123228   2.056   0.468   7.589  0.5201 -1.3665 -0.0170
 3864SOL    HW223229   2.148   0.518   7.481  0.3084  1.4469  0.0512
 3865SOL     OW23230   3.856   1.773   4.882  0.2630 -0.0794  0.7546
 3865SOL    HW123231   3.873   1.840   4.949 -1.1131 -1.2072  2.2387
 3865SOL    HW223232   3.761   1.775   4.889  0.1582  1.0677 -0.8992
 3866SOL     OW23233   0.296   2.474  12.767 -0.2339  0.3378  1.0667
 3866SOL    HW123234   0.261   2.559  12.793 -1.3543 -0.2382  1.4031
 3866SOL    HW223235   0.389   2.487  12.787  0.0731  2.0616 -1.5051
 3867SOL     OW23236   0.188   4.324   7.819 -0.8043 -0.2784 -0.3184
 3867SOL    HW123237   0.221   4.258   7.881  0.0386  0.8924  0.4762
 3867SOL    HW223238   0.272   4.352   7.783 -0.9231 -3.4744 -3.1084
 3868SOL     OW23239   2.317   1.136   6.983 -0.2138 -0.3378  0.0649
 3868SOL    HW123240   2.246   1.169   7.038  0.8895 -0.4634  1.5726
 3868SOL    HW223241   2.272   1.085   6.917  0.7993 -0.7268 -0.3240
 3869SOL     OW23242   2.689   2.141   1.216 -0.2112  0.5040  0.5476
 3869SOL    HW123243   2.701   2.063   1.269 -2.0621 -1.1756 -1.5290
 3869SOL    HW223244   2.770   2.140   1.164  0.2540  0.1026  1.2888
 3870SOL     OW23245   4.438   1.050   6.187  0.0448  0.2648  0.0970
 3870SOL    HW123246   4.460   1.124   6.243  1.1145 -1.8098  2.4341
 3870SOL    HW223247   4.512   0.990   6.198  0.1681  0.1475 -1.3743
 3871SOL     OW23248   3.463   4.641   8.384  0.0714 -0.5056 -0.5196
 3871SOL    HW123249   3.443   4.671   8.473  0.6875 -1.5882 -0.0228
 3871SOL    HW223250   3.497   4.722   8.347  1.5979 -0.4988  0.9401
 3872SOL     OW23251   0.456   1.558   7.573 -0.2616  0.6702 -0.2285
 3872SOL    HW123252   0.423   1.646   7.556 -0.4454  0.7038  0.2859
 3872SOL    HW223253   0.540   1.572   7.617 -1.0887 -1.6338  2.1550
 3873SOL     OW23254   1.899   0.221   7.808  0.0402 -0.9901  0.1291
 3873SOL    HW123255   1.884   0.207   7.901 -3.3232  2.1857  0.0672
 3873SOL    HW223256   1.941   0.141   7.776  2.7481  0.6237 -0.3429
 3874SOL     OW23257   1.270   3.815   2.132 -0.2753  0.2019  0.1585
 3874SOL    HW123258   1.322   3.840   2.208 -1.1563 -0.0194  0.8274
 3874SOL    HW223259   1.281   3.721   2.116 -3.2485  0.2656 -2.3287
 3875SOL     OW23260   3.311   0.924   3.156 -0.5006 -0.5723 -0.5753
 3875SOL    HW123261   3.307   0.967   3.071 -1.0506  0.1079 -0.2063
 3875SOL    HW223262   3.383   0.866   3.130  0.6006  0.7057 -0.3868
 3876SOL     OW23263   0.373   4.092   4.502  0.4699  0.3991 -0.2849
 3876SOL    HW123264   0.405   4.080   4.413  3.4391  1.1647  0.6400
 3876SOL    HW223265   0.446   4.139   4.543  0.6071 -0.6016  0.6263
 3877SOL     OW23266   3.115   1.316  15.003 -0.1722  0.0283 -0.3022
 3877SOL    HW123267   3.098   1.386  15.065  1.8940 -0.4032  0.7508
 3877SOL    HW223268   3.029   1.274  15.004 -0.7317  1.2085  0.9813
 3878SOL     OW23269   2.572   2.654   0.508 -0.7029  0.0640 -0.0632
 3878SOL    HW123270   2.637   2.632   0.441  0.2300  0.6661  0.6387
 3878SOL    HW223271   2.621   2.635   0.588 -2.0853 -0.7993  0.5719
 3879SOL     OW23272   1.081   2.599   7.101 -0.5570  0.3100  0.1462
 3879SOL    HW123273   1.011   2.645   7.148 -1.5554 -1.7779  0.6970
 3879SOL    HW223274   1.104   2.662   7.033  3.3305 -1.7486 -0.4816
 3880SOL     OW23275   2.623   2.025   5.371  0.2304 -0.5798 -0.1059
 3880SOL    HW123276   2.694   1.960   5.368  0.1970 -0.7116  1.9664
 3880SOL    HW223277   2.575   2.013   5.289 -0.1907  1.1722 -0.1041
 3881SOL     OW23278   0.962   1.614  13.834  0.0875  1.2076  0.7288
 3881SOL    HW123279   0.905   1.637  13.908 -1.9865 -0.1524 -0.4769
 3881SOL    HW223280   1.043   1.639  13.880  0.1811  0.4534  0.9703
 3882SOL     OW23281   2.442   3.363  13.581  0.0926 -0.4839  0.2528
 3882SOL    HW123282   2.357   3.353  13.539 -0.2408 -1.2014  1.1002
 3882SOL    HW223283   2.455   3.457  13.595  1.7845 -0.8059  0.8692
 3883SOL     OW23284   2.451   4.646   3.175 -0.9266 -0.3576  0.1573
 3883SOL    HW123285   2.477   4.734   3.202 -2.5598  1.2634 -3.4803
 3883SOL    HW223286   2.432   4.650   3.081 -1.2055 -2.0457  0.1435
 3884SOL     OW23287   2.273   2.157   1.735  0.3742 -0.0367 -0.2221
 3884SOL    HW123288   2.289   2.142   1.828 -1.6970 -0.3280  0.0687
 3884SOL    HW223289   2.276   2.072   1.691  1.0774  0.8930 -2.0020
 3885SOL     OW23290   3.913   3.348  10.258 -0.2936  0.2195  0.4759
 3885SOL    HW123291   3.883   3.259  10.274  2.7976 -1.0366 -0.9072
 3885SOL    HW223292   3.869   3.371  10.176  0.4121 -2.6767 -0.6996
 3886SOL     OW23293   2.486   3.466   3.026  0.8637 -0.1486 -0.1931
 3886SOL    HW123294   2.407   3.414   3.008 -0.4554  1.3520  1.2076
 3886SOL    HW223295   2.524   3.476   2.939 -0.0024 -1.1278 -0.6957
 3887SOL     OW23296   3.561   4.529  12.441 -0.2743 -0.8129  0.2178
 3887SOL    HW123297   3.538   4.464  12.507  2.0102 -2.4127 -0.5581
 3887SOL    HW223298   3.517   4.484  12.369 -0.4434  0.3763 -0.4290
 3888SOL     OW23299   4.359   0.368   5.599 -0.2047  0.4530  0.3212
 3888SOL    HW123300   4.300   0.443   5.594 -1.1838 -0.4461 -1.8132
 3888SOL    HW223301   4.352   0.331   5.511 -2.0309  0.4745  0.4487
 3889SOL     OW23302   2.057   0.066   2.539  0.1158  0.1720  0.2286
 3889SOL    HW123303   2.019   0.097   2.621  0.7367 -1.8673  1.2636
 3889SOL    HW223304   2.147   0.054   2.568  0.5259 -0.3094 -1.2587
 3890SOL     OW23305   1.137   1.888   6.142 -0.0223  0.2340  0.3975
 3890SOL    HW123306   1.224   1.925   6.122 -0.3592  1.4187  1.0917
 3890SOL    HW223307   1.107   1.944   6.214  0.2628 -0.2235  0.8765
 3891SOL     OW23308   0.405   1.965   2.740 -0.0216 -0.2400 -0.5565
 3891SOL    HW123309   0.407   2.058   2.718  0.6493  0.3015  1.7256
 3891SOL    HW223310   0.318   1.940   2.709 -0.6334  0.4281  0.6153
 3892SOL     OW23311   3.311   1.767   4.395  0.3183  0.0825  0.1609
 3892SOL    HW123312   3.260   1.789   4.473  2.4698 -0.6559  1.7828
 3892SOL    HW223313   3.301   1.672   4.386  0.6872 -0.0912  1.4761
 3893SOL     OW23314   0.590   2.351   3.318  0.3083  0.0783  0.3209
 3893SOL    HW123315   0.569   2.440   3.288 -0.4346 -0.0388  0.4908
 3893SOL    HW223316   0.685   2.348   3.310  0.1929  0.1004 -1.0443
 3894SOL     OW23317   4.565   3.808   9.645  0.5672  0.4545  0.1077
 3894SOL    HW123318   4.545   3.864   9.570 -0.7244  0.0484  0.1530
 3894SOL    HW223319   4.659   3.795   9.632  0.2621 -0.6283 -1.0778
 3895SOL     OW23320   4.342   0.685   5.808 -0.3316  0.3017  0.9266
 3895SOL    HW123321   4.385   0.758   5.763 -3.8233  1.6887 -0.2023
 3895SOL    HW223322   4.290   0.656   5.733  1.1490 -1.4730  0.6053
 3896SOL     OW23323   3.145   4.254   4.859  0.2785 -0.3384 -0.0389
 3896SOL    HW123324   3.078   4.282   4.798  1.6277  1.0348 -0.9012
 3896SOL    HW223325   3.137   4.322   4.926 -0.7802  0.0060 -0.5363
 3897SOL     OW23326   3.909   0.020   1.458 -0.1388 -0.2479  0.4375
 3897SOL    HW123327   3.990   0.056   1.422  1.5136 -1.7634  2.5598
 3897SOL    HW223328   3.879   4.705   1.385  1.1349 -2.9530  1.8558
 3898SOL     OW23329   1.905   3.441   0.708  0.5300  0.1044  0.2823
 3898SOL    HW123330   1.889   3.518   0.762  3.2166 -0.0284  1.2808
 3898SOL    HW223331   1.998   3.450   0.686  0.0794  0.9999 -1.2139
 3899SOL     OW23332   3.917   1.136   2.925 -0.4123 -0.0891  0.0218
 3899SOL    HW123333   3.899   1.214   2.873  2.0042  1.3987  1.4152
 3899SOL    HW223334   3.878   1.070   2.867 -0.5685  0.3159 -0.3276
 3900SOL     OW23335   4.630   4.168   2.473 -0.0175  0.0790 -0.2180
 3900SOL    HW123336   4.646   4.141   2.383 -0.5617  2.0001 -0.8878
 3900SOL    HW223337   4.546   4.126   2.490  0.2277  0.4363  1.9090
 3901SOL     OW23338   1.771   2.125   8.711 -0.3609  0.3753  0.3700
 3901SOL    HW123339   1.734   2.047   8.671 -2.3460  1.2721  0.4615
 3901SOL    HW223340   1.729   2.113   8.796  0.8404 -3.0530  0.4789
 3902SOL     OW23341   2.637   2.444   8.573  0.6074 -0.1487  0.5698
 3902SOL    HW123342   2.660   2.484   8.657 -1.7733  2.6839 -0.1419
 3902SOL    HW223343   2.550   2.475   8.549  0.8150 -1.4028 -1.8730
 3903SOL     OW23344   1.022   2.199   3.715 -0.0730  0.1480  0.4039
 3903SOL    HW123345   0.972   2.121   3.689  1.1006 -0.3282 -0.3914
 3903SOL    HW223346   0.990   2.206   3.805 -1.9446 -3.9401  0.0310
 3904SOL     OW23347   2.221   4.429   6.044 -0.3481  0.5253 -0.8516
 3904SOL    HW123348   2.175   4.431   6.128 -1.7575 -0.0540 -1.6069
 3904SOL    HW223349   2.304   4.470   6.069  0.4210 -1.9928  0.7765
 3905SOL     OW23350   0.756   3.964   9.169  0.2943 -0.1494 -0.2135
 3905SOL    HW123351   0.797   4.035   9.121  0.5134 -0.1460 -0.0175
 3905SOL    HW223352   0.698   3.936   9.097 -0.9653  0.0770  0.7035
 3906SOL     OW23353   2.130   0.554   8.454  0.1663  0.1334 -0.2535
 3906SOL    HW123354   2.214   0.533   8.495 -0.6192 -0.3932  1.1081
 3906SOL    HW223355   2.144   0.503   8.374 -1.6633 -0.9737  0.1244
 3907SOL     OW23356   2.058   0.552   1.226 -1.0701  0.1276  0.2673
 3907SOL    HW123357   2.049   0.605   1.305 -1.2950 -1.4656  1.2943
 3907SOL    HW223358   1.980   0.580   1.179 -1.2274 -0.0889  0.4052
 3908SOL     OW23359   4.001   3.576  10.375  0.1003 -0.0146  0.1374
 3908SOL    HW123360   4.085   3.531  10.385  0.4286  0.1323 -1.8736
 3908SOL    HW223361   3.954   3.508  10.328  0.1643 -0.4858  0.7661
 3909SOL     OW23362   1.904   2.284  10.731 -0.4496 -0.1117  0.2251
 3909SOL    HW123363   1.896   2.191  10.752  1.3374  0.0777  1.6960
 3909SOL    HW223364   1.928   2.274  10.639 -0.6591 -1.6706  0.3333
 3910SOL     OW23365   3.407   2.108   9.593  0.1152  0.0395  0.4716
 3910SOL    HW123366   3.446   2.156   9.666  0.1545 -0.6944  0.9349
 3910SOL    HW223367   3.319   2.144   9.594  0.1576  0.0850  1.9292
 3911SOL     OW23368   0.411   3.106   8.488 -0.1826 -0.5150 -0.0620
 3911SOL    HW123369   0.389   3.180   8.431  0.7360 -2.0463 -2.3987
 3911SOL    HW223370   0.430   3.040   8.421 -2.8772 -0.5937 -0.7426
 3912SOL     OW23371   0.546   3.674   7.799 -0.3163 -0.2231 -0.2647
 3912SOL    HW123372   0.555   3.595   7.853 -1.5511 -1.0049 -1.1943
 3912SOL    HW223373   0.638   3.692   7.784  0.2720 -0.2282  3.1639
 3913SOL     OW23374   3.232   1.350  14.458  0.0666 -0.1296 -0.1836
 3913SOL    HW123375   3.288   1.380  14.387 -1.9031  2.7118 -0.5273
 3913SOL    HW223376   3.144   1.367  14.424  0.0295 -2.1745 -1.1342
 3914SOL     OW23377   4.021   0.924  12.661 -0.3220  0.7008  0.3916
 3914SOL    HW123378   4.110   0.903  12.691 -0.5993 -1.9490 -0.6535
 3914SOL    HW223379   4.022   0.870  12.582  0.7008  1.7382 -0.2914
 3915SOL     OW23380   0.997   3.576   1.914 -0.3928  0.4051 -0.6588
 3915SOL    HW123381   1.084   3.566   1.876  0.3727  0.8884  0.9771
 3915SOL    HW223382   1.010   3.540   2.001  0.9007 -2.5579 -2.0946
 3916SOL     OW23383   3.277   3.983   4.229  0.2017 -0.0568  0.1539
 3916SOL    HW123384   3.202   3.933   4.263 -0.9321  0.8870 -0.9593
 3916SOL    HW223385   3.323   4.014   4.306 -0.9084 -1.4628  1.3842
 3917SOL     OW23386   2.781   1.718  14.984 -0.7254 -0.0311 -0.1746
 3917SOL    HW123387   2.818   1.640  14.940 -1.8992 -0.4035 -0.5018
 3917SOL    HW223388   2.725   1.680  15.052 -0.7959 -0.5574 -0.5235
 3918SOL     OW23389   0.863   3.467   8.257  0.2837  0.4296  0.0891
 3918SOL    HW123390   0.853   3.389   8.312 -0.3983  2.5205  2.8491
 3918SOL    HW223391   0.952   3.494   8.279  0.5058  0.4997 -0.8773
 3919SOL     OW23392   1.639   3.700   2.983  0.3549  0.3979  0.0304
 3919SOL    HW123393   1.556   3.729   3.021  0.4886 -1.8808  1.9966
 3919SOL    HW223394   1.618   3.608   2.997 -3.7429  1.2060 -0.5738
 3920SOL     OW23395   4.196   2.220   7.127 -0.1223  0.6999  0.3479
 3920SOL    HW123396   4.284   2.254   7.143  0.2924 -0.2308  0.0355
 3920SOL    HW223397   4.150   2.231   7.211 -0.9705 -0.6601  0.0629
 3921SOL     OW23398   2.417   1.486   9.083 -0.2890 -0.0141 -0.7459
 3921SOL    HW123399   2.485   1.434   9.125 -0.2308  0.0600 -0.7478
 3921SOL    HW223400   2.427   1.447   8.997  2.3105 -0.4043 -0.2527
 3922SOL     OW23401   2.364   4.040   6.150  0.1247 -0.2735  0.1354
 3922SOL    HW123402   2.449   4.060   6.111  0.0624 -0.6527 -0.1909
 3922SOL    HW223403   2.396   3.985   6.221 -2.9851 -1.0130  0.9759
 3923SOL     OW23404   1.155   0.421  13.690  0.0136  0.3753  0.1988
 3923SOL    HW123405   1.160   0.514  13.668 -1.5188  0.3263 -0.3544
 3923SOL    HW223406   1.212   0.424  13.767 -1.3937 -2.8999  1.3675
 3924SOL     OW23407   1.001   2.815   5.973  0.2065 -0.0533 -0.0118
 3924SOL    HW123408   1.066   2.862   6.024 -2.2927  1.4191  1.8559
 3924SOL    HW223409   1.051   2.735   5.954  0.8145  0.4072 -0.3187
 3925SOL     OW23410   3.672   2.148   9.142 -0.2886  0.0627 -0.1556
 3925SOL    HW123411   3.752   2.118   9.185 -0.1665  1.2606  0.4607
 3925SOL    HW223412   3.599   2.129   9.202 -1.7353 -1.6267 -2.4446
 3926SOL     OW23413   1.756   0.999   1.201  0.5713 -0.0070  0.2313
 3926SOL    HW123414   1.750   1.028   1.110 -1.9424 -0.8681  0.1388
 3926SOL    HW223415   1.666   1.009   1.231  0.4338 -2.1467  0.5149
 3927SOL     OW23416   3.858   3.267  12.330 -0.7798 -0.0666 -0.2722
 3927SOL    HW123417   3.903   3.309  12.257  0.3162  0.6007  0.7872
 3927SOL    HW223418   3.932   3.220  12.369 -1.2890  0.5191  1.4192
 3928SOL     OW23419   3.044   4.474   4.557  0.1022  0.4414  0.0401
 3928SOL    HW123420   2.988   4.474   4.635 -0.6303 -2.9609 -0.4619
 3928SOL    HW223421   2.974   4.514   4.506  0.6247  0.9602 -0.2760
 3929SOL     OW23422   3.348   0.251   4.062 -0.0085 -0.5399 -0.2739
 3929SOL    HW123423   3.322   0.261   3.971  0.9296 -2.0214 -0.7101
 3929SOL    HW223424   3.376   0.340   4.081 -2.9791  0.0282  1.5628
 3930SOL     OW23425   3.014   2.782   8.308 -0.4082  0.5272 -0.7100
 3930SOL    HW123426   3.059   2.865   8.325  1.4472 -0.2913 -1.6553
 3930SOL    HW223427   3.082   2.737   8.257 -1.3907  0.9574 -2.3924
 3931SOL     OW23428   3.922   0.109  15.035  0.2790 -0.3746 -1.1870
 3931SOL    HW123429   3.868   0.058  14.974 -0.0357  2.4313 -3.2471
 3931SOL    HW223430   3.938   0.044  15.104 -1.6809  0.5597  0.1088
 3932SOL     OW23431   3.345   4.410   3.821  0.0546 -0.7103 -0.2503
 3932SOL    HW123432   3.425   4.442   3.862  0.0229  1.3028 -1.7339
 3932SOL    HW223433   3.281   4.435   3.888 -0.0443 -0.6547 -0.3653
 3933SOL     OW23434   4.354   4.049   2.486  0.2129  0.2706 -0.2706
 3933SOL    HW123435   4.310   4.105   2.550 -0.5998 -0.8417  0.1433
 3933SOL    HW223436   4.288   3.982   2.469  1.3719 -1.2344  1.2173
 3934SOL     OW23437   4.240   3.490   7.095  0.1145  0.7315  0.3154
 3934SOL    HW123438   4.203   3.440   7.023 -0.3629 -0.8242  1.6503
 3934SOL    HW223439   4.330   3.501   7.064 -0.9030 -1.2258 -3.2479
 3935SOL     OW23440   1.583   1.328   1.308 -0.1766  0.1751 -0.2800
 3935SOL    HW123441   1.638   1.359   1.236 -2.0604 -0.8315 -2.1715
 3935SOL    HW223442   1.642   1.358   1.376 -0.1452  2.1408 -1.1741
 3936SOL     OW23443   1.811   3.419   4.937 -0.6392 -0.1506  0.0980
 3936SOL    HW123444   1.734   3.476   4.938 -0.6889 -0.2109 -0.5626
 3936SOL    HW223445   1.844   3.445   5.024 -1.7930 -2.0268  1.0876
 3937SOL     OW23446   1.611   0.869   7.529  0.2090 -0.1749  0.2074
 3937SOL    HW123447   1.648   0.782   7.513  0.7210  0.6186 -2.8103
 3937SOL    HW223448   1.607   0.878   7.625  2.9851  0.5777  0.2283
 3938SOL     OW23449   0.135   2.636  13.653  0.2014 -0.1258 -0.3125
 3938SOL    HW123450   0.138   2.664  13.744  0.4298 -1.4254  0.0776
 3938SOL    HW223451   0.198   2.566  13.669 -0.1938 -0.4011  0.0449
 3939SOL     OW23452   1.415   1.417   5.497 -0.3558  0.2820 -0.4013
 3939SOL    HW123453   1.361   1.397   5.574  1.8444 -1.2520  0.7490
 3939SOL    HW223454   1.385   1.349   5.437  0.7620 -0.2714 -0.3425
 3940SOL     OW23455   0.520   1.109   2.042  0.8292  0.0302  0.7120
 3940SOL    HW123456   0.449   1.046   2.027  2.3776 -2.2319  2.8482
 3940SOL    HW223457   0.564   1.097   1.957  3.2071 -2.0195  2.2229
 3941SOL     OW23458   2.297   3.610   2.283 -0.1640 -0.0297 -0.0289
 3941SOL    HW123459   2.268   3.652   2.364 -2.0821  2.1241 -1.8328
 3941SOL    HW223460   2.367   3.670   2.258  1.3332 -1.9534 -0.4540
 3942SOL     OW23461   2.609   4.565   8.470  0.2577  0.5178 -0.5248
 3942SOL    HW123462   2.545   4.496   8.451 -0.4711  0.8045  0.8906
 3942SOL    HW223463   2.685   4.526   8.427 -0.9973 -2.0034 -0.4680
 3943SOL     OW23464   1.503   0.250   4.831  0.5029 -0.6528  0.6907
 3943SOL    HW123465   1.440   0.181   4.851  0.9179 -1.0204  0.7208
 3943SOL    HW223466   1.445   0.326   4.824 -0.9010 -1.5789  2.1242
 3944SOL     OW23467   0.992   3.946   4.457 -0.3424 -0.7791  0.2070
 3944SOL    HW123468   1.056   3.932   4.527  0.6239  1.4465 -0.2398
 3944SOL    HW223469   0.939   3.866   4.463  2.0637 -2.4267 -0.5282
 3945SOL     OW23470   3.741   2.856   1.008 -0.5184  0.6886  0.1442
 3945SOL    HW123471   3.754   2.897   0.923  1.9246 -1.2262 -0.4177
 3945SOL    HW223472   3.827   2.818   1.027  0.8962  2.3425 -3.0765
 3946SOL     OW23473   1.282   0.248  12.923  0.0371  0.1612 -0.2414
 3946SOL    HW123474   1.280   0.155  12.898 -0.2927 -0.8869  3.7594
 3946SOL    HW223475   1.285   0.294  12.839 -0.2966  1.1584  0.2960
 3947SOL     OW23476   0.169   4.083   7.175 -0.2368  0.2744 -0.0096
 3947SOL    HW123477   0.140   4.050   7.260 -2.3657  1.6613 -0.2045
 3947SOL    HW223478   0.108   4.157   7.174 -1.6132 -0.8662 -0.3571
 3948SOL     OW23479   2.652   1.028  13.082  0.2484  0.1151  0.2745
 3948SOL    HW123480   2.660   1.065  12.994  0.9161  1.8564  1.0574
 3948SOL    HW223481   2.646   1.111  13.131 -1.3780  0.1584  0.0119
 3949SOL     OW23482   1.479   3.370   5.510 -0.2070  0.3713 -0.4666
 3949SOL    HW123483   1.443   3.384   5.598  0.5704 -0.9720  0.0628
 3949SOL    HW223484   1.410   3.323   5.463  0.9656 -2.0515  0.2458
 3950SOL     OW23485   2.698   4.486  16.493  0.1870  0.0407  0.3633
 3950SOL    HW123486   2.706   4.551  16.423 -1.3457  0.4107  0.5328
 3950SOL    HW223487   2.603   4.483  16.507  0.0091  1.9609 -0.4355
 3951SOL     OW23488   0.616   3.954   5.967  0.5491  0.1012 -0.1601
 3951SOL    HW123489   0.526   3.984   5.975  0.7026  0.0967  1.7229
 3951SOL    HW223490   0.603   3.863   5.939 -1.5366  1.2322 -2.8281
 3952SOL     OW23491   4.334   3.223   2.187 -0.0406  0.5169 -0.3508
 3952SOL    HW123492   4.287   3.147   2.152  0.7225  0.2833 -0.8748
 3952SOL    HW223493   4.422   3.188   2.202  0.7265  3.1687  1.4347
 3953SOL     OW23494   1.165   0.411   2.089  0.7087 -0.5553  0.4352
 3953SOL    HW123495   1.174   0.439   1.998  0.0076 -0.7930  0.3001
 3953SOL    HW223496   1.090   0.353   2.095  0.0829  0.3519  1.3451
 3954SOL     OW23497   4.127   3.810  15.723 -0.1213 -0.2867  0.0589
 3954SOL    HW123498   4.145   3.717  15.736 -0.2214  0.1016  3.0235
 3954SOL    HW223499   4.058   3.798  15.658 -0.4302 -0.6403  0.4450
 3955SOL     OW23500   2.286   4.218   0.226  0.2935  0.3932  0.2847
 3955SOL    HW123501   2.380   4.224   0.209  0.1554  1.9717  0.0153
 3955SOL    HW223502   2.248   4.196   0.141 -0.3165  0.8288  0.4429
 3956SOL     OW23503   2.801   0.223   8.258  0.2179  0.0427  0.0809
 3956SOL    HW123504   2.859   0.300   8.253  0.4137  0.0198  2.1339
 3956SOL    HW223505   2.816   0.193   8.168  0.7805  1.6689 -0.3718
 3957SOL     OW23506   3.414   1.314   1.120 -0.3033  0.3423  0.2072
 3957SOL    HW123507   3.501   1.276   1.115 -0.0331  0.8316  1.1920
 3957SOL    HW223508   3.382   1.310   1.030  0.7519  1.1012 -0.1942
 3958SOL     OW23509   4.480   1.887   5.692  0.0122  0.4097  0.0653
 3958SOL    HW123510   4.566   1.887   5.736  0.1378 -0.8140 -0.1762
 3958SOL    HW223511   4.473   1.797   5.662 -0.4271  0.4974 -0.1000
 3959SOL     OW23512   1.401   3.035   3.888 -0.1391  0.5619 -0.0206
 3959SOL    HW123513   1.412   3.112   3.944  1.2939  0.4390 -0.1182
 3959SOL    HW223514   1.320   2.993   3.917 -0.7852  0.6050 -1.8126
 3960SOL     OW23515   4.056   3.258   9.291 -0.3490  0.1893 -0.0931
 3960SOL    HW123516   4.070   3.290   9.202  0.1342 -1.4673 -0.6144
 3960SOL    HW223517   4.057   3.335   9.347 -0.1812  0.2087 -0.1214
 3961SOL     OW23518   3.138   3.888   8.960  0.3743 -0.1863 -0.6155
 3961SOL    HW123519   3.157   3.794   8.969  0.7733 -0.2437 -2.0122
 3961SOL    HW223520   3.061   3.890   8.904  0.1659  2.1919 -0.2194
 3962SOL     OW23521   2.214   1.221  17.236  0.0073 -0.1075 -0.5122
 3962SOL    HW123522   2.252   1.309  17.241 -0.6827  0.2522 -1.4982
 3962SOL    HW223523   2.121   1.240  17.246  0.0717  0.8620 -1.6737
 3963SOL     OW23524   0.666   1.063   0.861  1.0340 -0.1735  0.1400
 3963SOL    HW123525   0.585   1.084   0.907  0.1550  0.4837 -1.7025
 3963SOL    HW223526   0.625   1.018   0.787  2.6225 -0.1858 -0.7247
 3964SOL     OW23527   4.549   2.719   6.729 -0.6364  0.0860 -0.1328
 3964SOL    HW123528   4.554   2.770   6.810  0.2619  0.1630 -0.2322
 3964SOL    HW223529   4.459   2.740   6.703 -0.9771 -1.2284  0.0253
 3965SOL     OW23530   2.671   0.664   5.700  0.2324  0.0796 -0.2541
 3965SOL    HW123531   2.631   0.751   5.691  1.7336  0.8296  0.2708
 3965SOL    HW223532   2.606   0.612   5.653  1.3855 -0.2696 -1.4641
 3966SOL     OW23533   3.574   2.614   2.074  0.2541 -0.7377 -0.3161
 3966SOL    HW123534   3.646   2.674   2.091 -1.0270  0.5192  0.6956
 3966SOL    HW223535   3.515   2.669   2.023  0.1380 -0.7017 -0.1469
 3967SOL     OW23536   1.596   0.955   0.211  0.2288  0.3955  0.0763
 3967SOL    HW123537   1.602   0.862   0.188 -1.5348  0.6970 -1.5972
 3967SOL    HW223538   1.662   0.962   0.279 -0.1130 -0.0211  0.4516
 3968SOL     OW23539   0.284   0.623   2.490 -0.0809 -0.1111 -0.1182
 3968SOL    HW123540   0.286   0.672   2.408  0.2460  1.4192  0.7991
 3968SOL    HW223541   0.194   0.590   2.492 -0.4965  0.9165 -2.0717
 3969SOL     OW23542   2.990   1.482   2.648 -0.0570 -0.2640 -0.2197
 3969SOL    HW123543   2.911   1.429   2.663  0.9367 -2.2146 -1.9296
 3969SOL    HW223544   3.018   1.449   2.562 -0.7367 -0.1597 -0.4827
 3970SOL     OW23545   4.652   1.115   3.952  0.3146  0.3132  0.0259
 3970SOL    HW123546   4.622   1.194   3.906 -0.4476 -0.1191 -0.2196
 3970SOL    HW223547   4.581   1.054   3.934  1.2322 -1.1176  1.3468
 3971SOL     OW23548   3.091   1.267   0.690 -0.3986 -0.0419 -0.1208
 3971SOL    HW123549   3.135   1.309   0.763 -0.0857 -0.4755 -0.0570
 3971SOL    HW223550   3.057   1.185   0.726 -1.8773  0.7382  0.2309
 3972SOL     OW23551   1.533   4.308  13.420 -0.1068  0.2958 -0.0676
 3972SOL    HW123552   1.564   4.282  13.333  1.6037  1.6020  0.1560
 3972SOL    HW223553   1.543   4.401  13.400 -1.6663  0.1818 -1.4738
 3973SOL     OW23554   0.232   0.789   1.861  0.0660 -0.0010 -0.3780
 3973SOL    HW123555   0.191   0.708   1.892 -2.4775  1.2201 -0.6493
 3973SOL    HW223556   0.233   0.843   1.939  0.8974  0.3232 -0.6048
 3974SOL     OW23557   4.532   3.501   6.478  0.2750  0.1062  0.1114
 3974SOL    HW123558   4.473   3.442   6.525  1.0401 -2.0081 -1.5955
 3974SOL    HW223559   4.511   3.472   6.389  0.9748  0.1219 -0.0558
 3975SOL     OW23560   1.794   1.889  16.841  0.1185  0.1714 -0.3961
 3975SOL    HW123561   1.877   1.856  16.805  0.5956  1.4669 -0.5190
 3975SOL    HW223562   1.765   1.948  16.771 -0.5113 -0.9706 -1.0919
 3976SOL     OW23563   0.076   0.527   9.599  0.0549 -0.6646 -0.0346
 3976SOL    HW123564   0.015   0.560   9.664  2.7043  2.0890  1.0119
 3976SOL    HW223565   0.157   0.557   9.639  0.0755  0.3333 -0.8242
 3977SOL     OW23566   2.467   3.980   0.068  0.0483  0.3819 -0.0415
 3977SOL    HW123567   2.524   3.982  17.742  0.7554 -0.8195  0.4521
 3977SOL    HW223568   2.384   4.007   0.031  0.7105  0.9036 -1.1540
 3978SOL     OW23569   2.089   1.194   6.519 -0.6471  0.6260  0.2646
 3978SOL    HW123570   2.125   1.114   6.480  2.3291  1.5909  1.0749
 3978SOL    HW223571   2.020   1.209   6.454 -0.7480 -0.5213  0.0984
 3979SOL     OW23572   2.333   4.503   4.815  0.0915  0.0851  0.0976
 3979SOL    HW123573   2.243   4.538   4.811 -0.4869 -0.9172  4.0764
 3979SOL    HW223574   2.346   4.480   4.723 -0.6318  0.6449 -0.1453
 3980SOL     OW23575   4.496   0.594   6.956 -0.8852  0.2210 -0.0388
 3980SOL    HW123576   4.530   0.608   7.044  1.4019  0.3010 -0.9204
 3980SOL    HW223577   4.482   0.500   6.958 -1.1398  0.2149 -2.0636
 3981SOL     OW23578   4.668   3.031   8.051  0.0631  0.2205 -0.0419
 3981SOL    HW123579   0.016   2.988   8.051  0.5163  1.1283  1.1273
 3981SOL    HW223580   4.639   3.002   7.964 -0.5078  1.0969 -0.1504
 3982SOL     OW23581   2.205   0.382   2.979  0.0324  0.1140  0.6290
 3982SOL    HW123582   2.128   0.424   2.941  0.0581  1.5488  2.1296
 3982SOL    HW223583   2.175   0.352   3.065  0.7616  0.8676  1.1477
 3983SOL     OW23584   2.787   0.485   3.350 -0.1716  0.2203  0.3961
 3983SOL    HW123585   2.815   0.395   3.369  1.9123  0.5480 -1.1468
 3983SOL    HW223586   2.839   0.510   3.427  0.8053 -2.0238  0.4732
 3984SOL     OW23587   2.280   4.494   2.558  0.0221 -0.2912  0.2722
 3984SOL    HW123588   2.357   4.476   2.504  0.1800  1.0860  0.0466
 3984SOL    HW223589   2.325   4.564   2.604 -1.1480 -0.5338  1.7649
 3985SOL     OW23590   3.139   1.924  16.835 -0.3711 -0.0059 -0.4391
 3985SOL    HW123591   3.200   1.926  16.908  1.0905  2.0447 -1.7246
 3985SOL    HW223592   3.196   1.888  16.767  0.2837 -0.1312  0.1834
 3986SOL     OW23593   3.013   2.723   4.184 -0.4865 -0.0804 -0.1476
 3986SOL    HW123594   3.097   2.708   4.141  0.5304  4.1556  0.3429
 3986SOL    HW223595   2.973   2.768   4.110  1.3905 -1.5363 -2.0459
 3987SOL     OW23596   4.216   3.782   3.138  0.7684  0.0494 -0.0408
 3987SOL    HW123597   4.305   3.789   3.102  0.5169 -1.0266 -0.8748
 3987SOL    HW223598   4.220   3.848   3.207  0.0151  0.8282 -0.7368
 3988SOL     OW23599   0.661   0.172   2.043  0.4179  0.5465  0.0192
 3988SOL    HW123600   0.616   0.091   2.020 -1.5971  1.2765  1.3852
 3988SOL    HW223601   0.743   0.138   2.078  1.4250  1.4813 -1.3973
 3989SOL     OW23602   3.238   4.178  12.348  0.3320  0.5554 -0.2562
 3989SOL    HW123603   3.185   4.150  12.273 -0.6802  0.2383  0.5936
 3989SOL    HW223604   3.170   4.232  12.387 -0.3560 -2.7041  3.0158
 3990SOL     OW23605   1.019   0.131   4.029 -0.3320 -0.4738 -0.6501
 3990SOL    HW123606   0.932   0.130   3.991  0.8483  0.5544 -3.3596
 3990SOL    HW223607   1.040   0.038   4.034 -0.8697 -0.6722 -2.2669
 3991SOL     OW23608   1.649   4.541  13.738  0.2108  0.4558 -0.1261
 3991SOL    HW123609   1.618   4.502  13.820 -2.1933  2.8147  0.0414
 3991SOL    HW223610   1.570   4.534  13.685 -0.4714 -2.2392  1.2066
 3992SOL     OW23611   2.080   1.842   8.412  0.6444 -0.2084  0.7898
 3992SOL    HW123612   2.049   1.918   8.363 -1.8298 -0.9748  1.1839
 3992SOL    HW223613   2.153   1.824   8.352 -1.0814  0.8183 -1.6233
 3993SOL     OW23614   0.411   4.329  17.143  0.2631  0.3246  0.4320
 3993SOL    HW123615   0.475   4.323  17.072 -0.5525 -0.4223 -0.2427
 3993SOL    HW223616   0.470   4.314  17.217 -1.1485  1.4773  1.7857
 3994SOL     OW23617   1.667   2.959  12.429  0.0591 -0.0386 -0.1892
 3994SOL    HW123618   1.710   3.042  12.410 -0.9980  0.2496 -1.2831
 3994SOL    HW223619   1.725   2.898  12.383  0.9704  0.6115  0.1110
 3995SOL     OW23620   0.748   2.434   7.876 -0.0395 -0.1418  0.4595
 3995SOL    HW123621   0.763   2.520   7.915 -2.7088  0.0742  0.9761
 3995SOL    HW223622   0.654   2.425   7.889 -0.0670  0.6485  0.8093
 3996SOL     OW23623   0.462   1.279  10.724 -0.1176  0.0589 -0.2692
 3996SOL    HW123624   0.408   1.358  10.724 -1.4501 -0.8622 -1.0305
 3996SOL    HW223625   0.527   1.313  10.786  0.0080 -3.0086  1.2896
 3997SOL     OW23626   0.487   2.445   7.965 -0.7095 -0.7346  0.4412
 3997SOL    HW123627   0.442   2.447   8.049 -0.7976 -1.1723  0.4068
 3997SOL    HW223628   0.429   2.476   7.895 -1.0559 -1.9107  0.2054
 3998SOL     OW23629   4.633   2.285  16.430 -0.1610  0.1658  0.2087
 3998SOL    HW123630   4.612   2.284  16.336 -1.1009 -0.4358  0.4281
 3998SOL    HW223631   4.546   2.276  16.469 -0.5516  1.0952 -0.4504
 3999SOL     OW23632   0.968   3.725   9.915  0.0529 -0.0736 -0.3660
 3999SOL    HW123633   1.003   3.778   9.988 -0.1661 -0.1059 -0.2393
 3999SOL    HW223634   0.958   3.644   9.965  2.7032 -0.2454 -0.1013
 4000SOL     OW23635   2.201   3.029   1.402 -0.7977  0.0303  0.6034
 4000SOL    HW123636   2.216   3.002   1.311 -1.4783  0.1006  0.4739
 4000SOL    HW223637   2.191   2.946   1.450  1.0884 -0.2136  0.5837
 4001SOL     OW23638   1.399   0.787   8.747  0.1380 -0.6074 -0.0677
 4001SOL    HW123639   1.453   0.830   8.813 -1.1034  2.2852 -0.9473
 4001SOL    HW223640   1.462   0.737   8.695  0.0362  0.8296 -1.5823
 4002SOL     OW23641   3.146   3.417   1.804  0.3151 -0.2795  0.0502
 4002SOL    HW123642   3.220   3.449   1.855 -0.0600  0.8364 -0.0970
 4002SOL    HW223643   3.136   3.333   1.848  1.4546 -1.0964 -1.2788
 4003SOL     OW23644   1.187   3.422   8.787  0.0326 -0.0342  0.0181
 4003SOL    HW123645   1.200   3.470   8.705 -0.0728  0.6560  0.4029
 4003SOL    HW223646   1.233   3.471   8.855  1.5799 -0.5502 -0.6658
 4004SOL     OW23647   1.461   0.506  13.494 -0.0070  0.6702 -0.2404
 4004SOL    HW123648   1.482   0.450  13.419 -0.6411  0.7290 -0.4637
 4004SOL    HW223649   1.468   0.586  13.441  0.1748  1.2307  0.6339
 4005SOL     OW23650   4.376   2.276  12.386  0.1963 -0.4076 -0.4996
 4005SOL    HW123651   4.364   2.268  12.480 -1.3565 -1.4114 -0.7829
 4005SOL    HW223652   4.335   2.197  12.350 -1.0620  1.0781 -2.4018
 4006SOL     OW23653   3.042   1.975   4.103 -0.1074  0.2621  0.3155
 4006SOL    HW123654   3.120   1.995   4.156  0.5611 -0.4096 -0.4229
 4006SOL    HW223655   2.969   1.977   4.165  0.0145  0.5722  0.4548
 4007SOL     OW23656   2.208   3.212   2.691  0.1079 -0.6184 -0.8066
 4007SOL    HW123657   2.183   3.218   2.598  0.0717  3.3443 -0.5081
 4007SOL    HW223658   2.166   3.291   2.723  3.2399  0.5491  0.3687
 4008SOL     OW23659   1.427   1.748   8.589  0.4238 -0.8120  0.5435
 4008SOL    HW123660   1.408   1.655   8.599  1.5209 -1.2338 -1.4288
 4008SOL    HW223661   1.358   1.777   8.650  0.3309  0.9734 -0.4028
 4009SOL     OW23662   4.667   0.328   4.830  0.6007 -0.6591  0.2571
 4009SOL    HW123663   4.720   0.364   4.759 -1.2661  0.1063 -0.7553
 4009SOL    HW223664   4.656   0.242   4.789  1.0301 -0.7444  0.3165
 4010SOL     OW23665   0.989   2.127   7.692  0.5741  0.0629 -0.5561
 4010SOL    HW123666   0.943   2.193   7.744 -2.4275 -1.2860 -1.5330
 4010SOL    HW223667   0.937   2.105   7.615  0.2364 -2.5220  0.4282
 4011SOL     OW23668   2.130   1.051   5.770 -0.2836 -0.0836 -0.1228
 4011SOL    HW123669   2.106   1.101   5.848  0.6776  0.6522 -0.3041
 4011SOL    HW223670   2.046   1.031   5.729 -0.2794 -2.1569  0.8819
 4012SOL     OW23671   4.224   1.442   8.363 -0.1971 -0.3317 -0.2523
 4012SOL    HW123672   4.244   1.413   8.274 -1.8856  2.9000 -1.6962
 4012SOL    HW223673   4.148   1.389   8.388 -0.0509  0.2427  1.3911
 4013SOL     OW23674   1.781   0.062  10.753  0.6437  0.6197  0.1734
 4013SOL    HW123675   1.759   0.059  10.846 -0.0369 -0.1956 -0.0161
 4013SOL    HW223676   1.729   4.727  10.720  0.3578  0.5715  0.7280
 4014SOL     OW23677   1.628   1.388   4.056 -0.0647 -0.3062 -0.6211
 4014SOL    HW123678   1.553   1.443   4.033 -0.2508 -0.0263  0.6603
 4014SOL    HW223679   1.613   1.318   3.993 -3.9538  0.2776 -0.3430
 4015SOL     OW23680   1.558   3.583   2.585  0.0202 -0.6556  0.3422
 4015SOL    HW123681   1.567   3.526   2.661  3.7218 -2.8850 -1.7887
 4015SOL    HW223682   1.644   3.618   2.561  0.0661 -1.2048 -0.2707
 4016SOL     OW23683   2.482   2.045   2.461  0.5479  0.1907  0.1141
 4016SOL    HW123684   2.423   1.972   2.444 -0.2539  1.2875 -1.8606
 4016SOL    HW223685   2.467   2.109   2.392 -0.6534  0.7513  0.9028
 4017SOL     OW23686   4.409   1.169   1.604  0.9315  0.9210  0.7112
 4017SOL    HW123687   4.409   1.259   1.638 -2.2938  0.8692  0.7823
 4017SOL    HW223688   4.420   1.120   1.686 -0.7258 -0.2679  0.2086
 4018SOL     OW23689   0.285   0.534   4.496 -0.4199 -0.2489 -0.2974
 4018SOL    HW123690   0.331   0.455   4.469  2.0917  0.4518  1.9126
 4018SOL    HW223691   0.229   0.496   4.563 -0.9838 -0.2569 -0.7737
 4019SOL     OW23692   4.245   0.383   7.233  0.6891 -0.0786  0.5709
 4019SOL    HW123693   4.225   0.340   7.150  0.8219 -1.1555  1.0861
 4019SOL    HW223694   4.267   0.303   7.282  0.8676 -1.6249 -2.0094
 4020SOL     OW23695   1.245   1.086   7.364 -0.0305 -0.2314  1.1483
 4020SOL    HW123696   1.261   1.083   7.270  0.1250 -0.6575  1.1903
 4020SOL    HW223697   1.264   0.996   7.388 -1.4709 -0.7585  0.2898
 4021SOL     OW23698   2.404   3.949   6.529  0.4497 -0.4275 -0.0132
 4021SOL    HW123699   2.479   3.996   6.566  0.4533  2.0049 -3.0959
 4021SOL    HW223700   2.432   3.858   6.532  1.2250 -0.1946 -0.2173
 4022SOL     OW23701   3.722   2.212   9.481  0.1753  0.5199  0.7268
 4022SOL    HW123702   3.679   2.238   9.563 -2.2836 -0.5879 -0.2288
 4022SOL    HW223703   3.665   2.138   9.461  0.9035 -0.0169  0.6415
 4023SOL     OW23704   0.704   4.523   5.446 -0.3429  0.5380 -0.5420
 4023SOL    HW123705   0.768   4.486   5.385  0.4351  3.5429 -1.5207
 4023SOL    HW223706   0.625   4.473   5.424 -0.3839  0.1873  0.3828
 4024SOL     OW23707   0.326   4.316  13.500  0.6151  0.8210 -0.0578
 4024SOL    HW123708   0.409   4.309  13.548 -0.1800  1.3028  1.3832
 4024SOL    HW223709   0.265   4.300  13.572 -1.8871  1.6437 -2.0055
 4025SOL     OW23710   2.649   1.566   4.704  0.2750 -0.1203 -0.2360
 4025SOL    HW123711   2.655   1.480   4.661  0.0544  0.5819 -1.6793
 4025SOL    HW223712   2.719   1.622   4.671  0.6927 -1.3566 -1.4443
 4026SOL     OW23713   4.615   1.842  16.512 -0.6299  0.1310  0.0288
 4026SOL    HW123714   4.553   1.852  16.584 -0.6149  1.5225 -0.1577
 4026SOL    HW223715   4.675   1.915  16.525  0.5156 -1.2075  2.1366
 4027SOL     OW23716   4.197   0.612  11.674  0.3947  0.4835 -0.0732
 4027SOL    HW123717   4.233   0.524  11.663  1.3794  0.8866 -0.0240
 4027SOL    HW223718   4.263   0.673  11.641  1.9980 -0.6717  1.0363
 4028SOL     OW23719   0.320   3.198   1.486  0.1526 -0.6000  0.1189
 4028SOL    HW123720   0.308   3.276   1.540 -0.9485 -0.1786 -0.7361
 4028SOL    HW223721   0.415   3.203   1.489  0.1285  0.5907 -1.2453
 4029SOL     OW23722   0.141   3.333   3.521  0.1333  0.3993 -0.4560
 4029SOL    HW123723   0.107   3.420   3.541  2.5166  1.2649 -0.2363
 4029SOL    HW223724   0.234   3.352   3.509 -0.2980  4.0659  2.1230
 4030SOL     OW23725   4.317   1.225   7.741  0.1240 -0.0053 -0.3693
 4030SOL    HW123726   4.408   1.199   7.733  0.3367  0.7407 -0.3872
 4030SOL    HW223727   4.271   1.145   7.715 -0.7878  0.1973  0.6273
 4031SOL     OW23728   0.215   1.616   2.837 -0.1267  0.4160 -0.4543
 4031SOL    HW123729   0.147   1.553   2.814  1.9801 -1.8835 -0.3615
 4031SOL    HW223730   0.186   1.677   2.769  1.2278 -0.1292 -1.5102
 4032SOL     OW23731   0.073   3.304   6.980  0.3456 -0.2287  0.7412
 4032SOL    HW123732   0.080   3.380   7.038 -1.5980  1.4069 -1.2016
 4032SOL    HW223733   0.146   3.246   7.004  0.5142 -0.5373 -0.5017
 4033SOL     OW23734   0.165   2.495   7.340  0.4288 -0.4029  0.4223
 4033SOL    HW123735   0.132   2.474   7.252  2.3492 -0.5872 -0.2612
 4033SOL    HW223736   0.246   2.444   7.353  1.7632  1.2967 -1.1880
 4034SOL     OW23737   2.845   4.420   3.676 -0.3597 -1.0494 -0.3404
 4034SOL    HW123738   2.931   4.379   3.676 -0.6703 -1.7305 -3.2542
 4034SOL    HW223739   2.864   4.511   3.698  1.2071 -1.9967  2.1488
 4035SOL     OW23740   3.650   0.961  10.182 -0.3470 -0.1227 -0.3045
 4035SOL    HW123741   3.561   0.926  10.172  0.0256 -1.0013 -0.5244
 4035SOL    HW223742   3.684   0.922  10.101 -0.3581 -1.1910  0.2011
 4036SOL     OW23743   1.602   0.501   9.157  1.0072  0.1914 -0.1101
 4036SOL    HW123744   1.620   0.416   9.198  0.7248 -0.2674 -0.9428
 4036SOL    HW223745   1.624   0.477   9.067 -0.3331  1.7227 -0.8571
 4037SOL     OW23746   3.179   4.479  12.649 -0.5518  0.6075 -0.6604
 4037SOL    HW123747   3.255   4.520  12.690  0.4569 -1.8457 -0.0729
 4037SOL    HW223748   3.221   4.449  12.568 -1.0699 -0.8008 -0.4038
 4038SOL     OW23749   1.081   2.320   5.330 -0.4119 -0.5346 -0.0469
 4038SOL    HW123750   1.062   2.285   5.243  2.0515 -0.8188 -0.4683
 4038SOL    HW223751   1.096   2.413   5.311  3.1058 -1.1298 -0.2863
 4039SOL     OW23752   2.538   1.396   5.793 -0.2061 -0.5056 -0.5397
 4039SOL    HW123753   2.507   1.309   5.818  1.8809 -0.6682  1.4787
 4039SOL    HW223754   2.496   1.393   5.707 -0.3781 -0.5809 -0.4537
 4040SOL     OW23755   3.261   0.793  17.709 -0.6485 -0.3700  0.9774
 4040SOL    HW123756   3.168   0.774  17.707 -0.6326 -0.5233  1.5886
 4040SOL    HW223757   3.269   0.808  17.615 -0.0217  0.1417  1.1048
 4041SOL     OW23758   3.511   3.912   2.717 -0.8852  0.1751  0.5708
 4041SOL    HW123759   3.567   3.889   2.791  0.2815 -1.9985 -0.9986
 4041SOL    HW223760   3.482   4.000   2.743 -1.0546 -0.6099  3.0109
 4042SOL     OW23761   1.513   1.672   4.719 -0.0294  0.2158  0.4539
 4042SOL    HW123762   1.468   1.618   4.654 -0.1339 -0.7138  1.3048
 4042SOL    HW223763   1.494   1.612   4.791  1.4285 -0.1291  0.5697
 4043SOL     OW23764   3.129   4.521   8.858 -0.0643 -0.5037 -0.1022
 4043SOL    HW123765   3.082   4.595   8.897 -1.2632 -1.6999  0.7456
 4043SOL    HW223766   3.079   4.443   8.882 -0.0482 -1.4007 -3.0408
 4044SOL     OW23767   0.739   1.581   7.696  0.3158  0.4958  0.0909
 4044SOL    HW123768   0.822   1.599   7.652 -0.1280  0.5982 -0.7037
 4044SOL    HW223769   0.758   1.614   7.784  0.1925 -2.4621  1.2346
 4045SOL     OW23770   1.236   4.425   7.490  0.5061 -0.1326 -0.4317
 4045SOL    HW123771   1.290   4.487   7.442  2.3951 -2.6076 -1.4811
 4045SOL    HW223772   1.270   4.344   7.452  1.4338  0.0367  0.0385
 4046SOL     OW23773   1.412   2.605   6.396  0.1279  0.2298  0.2548
 4046SOL    HW123774   1.440   2.697   6.392  1.9720 -0.2879  1.4999
 4046SOL    HW223775   1.409   2.603   6.491 -0.3057  2.1042  0.3002
 4047SOL     OW23776   1.365   1.208   5.333  0.2071  0.3011  0.1791
 4047SOL    HW123777   1.292   1.213   5.272  1.5109  1.3390 -1.2760
 4047SOL    HW223778   1.437   1.199   5.271 -0.5555 -1.7070 -0.4034
 4048SOL     OW23779   0.105   1.665   6.763  0.1269  0.5844  0.4880
 4048SOL    HW123780   0.061   1.741   6.801 -0.7532  0.7279 -0.7940
 4048SOL    HW223781   0.054   1.590   6.791  1.3806 -0.2861  0.4431
 4049SOL     OW23782   1.910   4.730   9.350  0.0731  0.1325 -0.1042
 4049SOL    HW123783   1.906   4.638   9.378  1.0573  0.6934  1.8576
 4049SOL    HW223784   1.883   4.721   9.258 -0.4773 -0.1437  0.0874
 4050SOL     OW23785   3.080   0.724  15.742  0.1136  0.2820  0.1402
 4050SOL    HW123786   3.154   0.781  15.766  0.4159  0.7500 -1.9396
 4050SOL    HW223787   3.002   0.773  15.770 -2.1166 -3.7102  0.8453
 4051SOL     OW23788   2.556   3.202   8.376  0.8770 -0.3039 -0.2712
 4051SOL    HW123789   2.593   3.143   8.309  0.8979  0.3061 -0.7972
 4051SOL    HW223790   2.463   3.196   8.356  0.8371 -1.5636  0.3013
 4052SOL     OW23791   2.393   0.107   6.715 -0.3840 -0.0954  0.1586
 4052SOL    HW123792   2.468   0.049   6.720  2.2967  3.3250 -0.0558
 4052SOL    HW223793   2.411   0.155   6.634  1.2572 -1.4684 -0.2828
 4053SOL     OW23794   0.944   1.533   8.137  0.0428 -0.6915 -0.1212
 4053SOL    HW123795   0.958   1.602   8.202 -1.3818  0.2930 -0.8577
 4053SOL    HW223796   0.947   1.592   8.061 -3.5095  1.1353  1.1498
 4054SOL     OW23797   0.486   0.080  13.416 -0.1306  0.2204  0.5315
 4054SOL    HW123798   0.447   4.733  13.440  2.4347 -1.0764  0.1095
 4054SOL    HW223799   0.576   0.059  13.393 -0.6292 -0.4827 -0.8013
 4055SOL     OW23800   1.993   0.840   5.617 -0.2437  0.3587  0.6272
 4055SOL    HW123801   2.027   0.787   5.545  0.2606 -0.4649  1.4848
 4055SOL    HW223802   1.902   0.851   5.590 -0.6307 -1.6666  1.1796
 4056SOL     OW23803   0.751   4.524   0.340  0.0879  0.0703 -0.0350
 4056SOL    HW123804   0.658   4.505   0.332 -0.2613  1.4336  0.8930
 4056SOL    HW223805   0.744   4.618   0.354 -3.2547 -0.0615 -0.9517
 4057SOL     OW23806   0.455   4.525  16.065 -0.2551  0.1796 -0.4091
 4057SOL    HW123807   0.375   4.527  16.118  1.9109 -3.2402  2.9763
 4057SOL    HW223808   0.443   4.602  16.009 -1.9906  0.2541  0.0771
 4058SOL     OW23809   1.021   0.599   3.270  0.3940  0.0909 -0.2213
 4058SOL    HW123810   0.981   0.664   3.328  2.4720  0.4689  0.8112
 4058SOL    HW223811   1.080   0.654   3.218  1.0899  1.2452  1.7894
 4059SOL     OW23812   4.359   2.044   8.509  0.3183  0.0406  0.2012
 4059SOL    HW123813   4.283   1.999   8.473 -1.0281  0.6163  2.3505
 4059SOL    HW223814   4.341   2.031   8.602 -2.1730  0.3457 -0.2395
 4060SOL     OW23815   0.988   2.484  10.212  0.5450  0.4135 -0.3744
 4060SOL    HW123816   0.937   2.445  10.140 -1.0097 -0.8274  1.3768
 4060SOL    HW223817   0.918   2.530  10.259  1.1577 -1.0860  1.9679
 4061SOL     OW23818   1.641   1.910   5.494 -0.3170 -0.4101 -0.4120
 4061SOL    HW123819   1.576   1.895   5.425  1.1121  0.0652 -1.8660
 4061SOL    HW223820   1.578   1.901   5.565  1.0698  3.0614  1.2395
 4062SOL     OW23821   2.395   4.007  10.348 -0.2114 -0.2753 -0.4248
 4062SOL    HW123822   2.456   3.998  10.274  1.1937  1.7627  0.4703
 4062SOL    HW223823   2.338   4.080  10.323 -1.6092 -1.7293 -1.4983
 4063SOL     OW23824   3.882   3.231   8.217  0.3969 -0.1126  0.3577
 4063SOL    HW123825   3.964   3.182   8.227  0.5495 -0.2807 -1.7994
 4063SOL    HW223826   3.849   3.226   8.307 -1.6478 -1.2622 -0.4570
 4064SOL     OW23827   2.416   4.311   9.085  0.0519  0.1817 -0.4737
 4064SOL    HW123828   2.387   4.321   8.995 -0.1450  1.1958 -0.3013
 4064SOL    HW223829   2.418   4.402   9.115  0.3638 -0.4981  1.6102
 4065SOL     OW23830   2.794   2.322   7.589  0.1314  0.0526 -0.1368
 4065SOL    HW123831   2.731   2.380   7.633  0.3853  0.9614 -0.9766
 4065SOL    HW223832   2.870   2.380   7.584  0.2479 -0.4263 -3.9937
 4066SOL     OW23833   1.636   2.081   8.111 -0.4157  0.0916  0.3580
 4066SOL    HW123834   1.726   2.068   8.141 -1.4006  0.6262  3.4920
 4066SOL    HW223835   1.598   2.117   8.191 -1.5712 -1.2440  0.4152
 4067SOL     OW23836   3.976   1.638   3.710 -0.4090 -0.0426 -0.5920
 4067SOL    HW123837   3.968   1.543   3.704  0.7098 -0.1655 -0.1534
 4067SOL    HW223838   3.919   1.652   3.786  0.2899  0.1409 -0.1016
 4068SOL     OW23839   0.309   0.577   1.211  0.0795 -0.1715 -0.1738
 4068SOL    HW123840   0.396   0.557   1.176  0.0021 -0.2290 -0.3321
 4068SOL    HW223841   0.322   0.572   1.306 -1.2979  1.7328  0.1151
 4069SOL     OW23842   0.662   0.582  12.897 -0.6497  0.1108 -0.1211
 4069SOL    HW123843   0.613   0.550  12.972 -2.1248 -2.4835 -2.1725
 4069SOL    HW223844   0.613   0.553  12.820  1.2682 -1.4554 -0.7750
 4070SOL     OW23845   0.169   3.268   5.713  0.1845  0.2766 -0.5323
 4070SOL    HW123846   0.226   3.201   5.676 -0.8927 -1.7309  1.4437
 4070SOL    HW223847   0.132   3.313   5.637 -1.0042  2.6305  1.4099
 4071SOL     OW23848   2.348   3.780   5.084 -0.0358  0.1947 -0.0213
 4071SOL    HW123849   2.264   3.801   5.125 -0.2010  0.8312 -0.6848
 4071SOL    HW223850   2.346   3.688   5.059  1.4866  0.5978 -1.6929
 4072SOL     OW23851   2.629   3.176  13.148 -0.0515 -0.3518  0.5095
 4072SOL    HW123852   2.614   3.083  13.161  1.0558 -0.7164 -0.7882
 4072SOL    HW223853   2.606   3.215  13.232 -0.7759  1.4114 -0.4992
 4073SOL     OW23854   2.972   1.648  17.217  0.8435 -0.3410 -0.1552
 4073SOL    HW123855   3.053   1.636  17.166  0.3955 -1.8712 -0.5067
 4073SOL    HW223856   2.964   1.569  17.271 -0.3086  0.8458  1.3915
 4074SOL     OW23857   4.691   2.815   3.123  1.3290  0.8874 -0.1431
 4074SOL    HW123858   0.003   2.795   3.044 -0.2621  1.2367 -1.2535
 4074SOL    HW223859   4.704   2.908   3.140 -0.2481  1.2585 -0.9632
 4075SOL     OW23860   3.358   0.268   4.595 -0.0124 -0.2686 -0.0370
 4075SOL    HW123861   3.275   0.227   4.571  0.6079 -2.6299  1.8405
 4075SOL    HW223862   3.411   0.248   4.518  1.7219 -0.2901  1.1551
 4076SOL     OW23863   3.430   1.672   3.925 -0.8600  0.2852  0.2899
 4076SOL    HW123864   3.347   1.657   3.970  0.9776 -0.6311  3.3444
 4076SOL    HW223865   3.409   1.656   3.833  1.3454  0.7695 -0.3135
 4077SOL     OW23866   1.808   3.681   9.051  0.0089  0.6805 -0.5914
 4077SOL    HW123867   1.768   3.692   9.137  3.0267  0.6538  0.8348
 4077SOL    HW223868   1.795   3.773   9.030  2.4712  0.6023 -2.4928
 4078SOL     OW23869   1.782   4.214  11.947  0.3010 -0.5085 -0.6280
 4078SOL    HW123870   1.695   4.252  11.935 -0.1236 -1.6019 -0.9764
 4078SOL    HW223871   1.759   4.149  12.013 -0.7081  1.1580  0.6413
 4079SOL     OW23872   4.367   3.999   0.494  0.0963  0.4138  0.2689
 4079SOL    HW123873   4.384   4.055   0.570 -0.3962  0.2500  0.4951
 4079SOL    HW223874   4.273   3.985   0.494  0.5497 -2.6141  0.2675
 4080SOL     OW23875   4.186   3.378   9.074 -0.6273  0.6008 -0.6630
 4080SOL    HW123876   4.211   3.412   9.160  1.6897  1.1699 -1.5699
 4080SOL    HW223877   4.158   3.456   9.025 -0.1585 -1.4774 -4.2399
 4081SOL     OW23878   1.766   4.681   8.359  0.4884 -0.1152  0.1324
 4081SOL    HW123879   1.747   4.589   8.339  2.0077  0.0502 -2.0811
 4081SOL    HW223880   1.684   4.719   8.327  0.8278  1.2340  0.8522
 4082SOL     OW23881   2.607   3.312   0.401  0.0062  0.1080  0.0966
 4082SOL    HW123882   2.698   3.288   0.381 -0.1622  0.5853 -1.2233
 4082SOL    HW223883   2.582   3.352   0.318 -2.2228  0.6680  1.0402
 4083SOL     OW23884   3.563   0.069  16.257 -0.1996  0.1951 -0.0386
 4083SOL    HW123885   3.612   4.735  16.217 -0.2812 -0.0869  0.3762
 4083SOL    HW223886   3.575   0.135  16.189  0.3079 -1.3432 -1.4340
 4084SOL     OW23887   3.380   3.877   5.756 -0.1318  1.1236  0.0697
 4084SOL    HW123888   3.339   3.802   5.800 -0.8484  2.5656  1.8399
 4084SOL    HW223889   3.303   3.921   5.721  0.0399  0.6784 -0.8603
 4085SOL     OW23890   4.509   3.108   4.184  0.0677  0.0457  0.5078
 4085SOL    HW123891   4.490   3.067   4.269  0.0375 -0.7393  0.1201
 4085SOL    HW223892   4.420   3.103   4.149  0.4345 -2.0269 -0.1436
 4086SOL     OW23893   4.284   2.565  12.269 -0.1622  0.0891  0.0078
 4086SOL    HW123894   4.319   2.482  12.236 -0.6187 -0.1372  0.0891
 4086SOL    HW223895   4.240   2.539  12.350 -0.5475  1.4150  0.2106
 4087SOL     OW23896   4.633   1.862   2.538 -0.2747  0.5548  0.4364
 4087SOL    HW123897   4.650   1.848   2.445 -2.5458 -0.7873  0.2110
 4087SOL    HW223898   4.621   1.776   2.578  2.6098  0.2065  0.5161
 4088SOL     OW23899   2.007   1.223   2.006  0.3957  0.7049 -0.1363
 4088SOL    HW123900   1.920   1.245   2.039  1.0698  1.4467  1.1401
 4088SOL    HW223901   2.041   1.311   1.990  0.6865  0.9616  1.9740
 4089SOL     OW23902   3.583   3.952  16.395  0.6036 -0.1997  0.3624
 4089SOL    HW123903   3.557   3.903  16.317 -2.1512 -0.0233  1.1648
 4089SOL    HW223904   3.646   4.008  16.350 -0.9157  1.6623  0.5619
 4090SOL     OW23905   2.983   1.131  14.359  0.1050 -0.6479 -0.1380
 4090SOL    HW123906   2.979   1.217  14.318 -3.0000 -0.6988  0.0675
 4090SOL    HW223907   3.075   1.107  14.353  0.2721  0.5129 -2.0268
 4091SOL     OW23908   0.506   2.112   4.933  0.0504  0.1039 -0.2002
 4091SOL    HW123909   0.454   2.125   4.854 -0.1118  3.5038  0.4951
 4091SOL    HW223910   0.580   2.165   4.903 -0.5212 -0.4532 -2.6108
 4092SOL     OW23911   1.522   0.790  16.064  0.3385  0.2565 -0.2665
 4092SOL    HW123912   1.606   0.814  16.025  0.0654  2.5359  0.5559
 4092SOL    HW223913   1.466   0.790  15.987 -0.3906  1.8846  0.2632
 4093SOL     OW23914   3.099   4.175  14.553  0.0519 -0.4803  0.2603
 4093SOL    HW123915   3.051   4.093  14.546  0.4543 -0.7489  0.6769
 4093SOL    HW223916   3.188   4.150  14.530  0.2045  0.7932 -0.5750
 4094SOL     OW23917   1.682   0.126   2.989 -0.3950 -0.3631 -0.4087
 4094SOL    HW123918   1.756   0.079   3.028  0.9550  3.4351  1.6283
 4094SOL    HW223919   1.609   0.122   3.051  0.7417 -1.3831  0.8722
 4095SOL     OW23920   1.547   0.507  15.434 -0.2725 -1.3064  0.0908
 4095SOL    HW123921   1.576   0.482  15.346 -2.4479 -2.1709 -0.3999
 4095SOL    HW223922   1.580   0.428  15.477 -0.5078 -0.9266  0.9592
 4096SOL     OW23923   1.978   4.089   6.728 -0.1180 -0.2832 -0.4898
 4096SOL    HW123924   1.959   3.996   6.719 -0.7049 -0.3142  1.0792
 4096SOL    HW223925   2.063   4.085   6.771 -0.0082  1.7719 -0.4995
 4097SOL     OW23926   4.627   4.570   2.234 -0.4504  0.2486  0.1096
 4097SOL    HW123927   4.585   4.512   2.170  0.2756 -0.8799  0.6619
 4097SOL    HW223928   4.673   4.628   2.173 -0.6121  1.7942  1.4712
 4098SOL     OW23929   3.332   2.513   0.611  0.1683  0.5517  0.3265
 4098SOL    HW123930   3.312   2.594   0.659  2.0778  0.1841  1.7058
 4098SOL    HW223931   3.421   2.535   0.584  0.2834 -1.3155 -0.7818
 4099SOL     OW23932   2.304   3.766   1.951  0.2360  0.2223 -0.2768
 4099SOL    HW123933   2.357   3.744   2.028  0.0204 -0.1617 -0.2386
 4099SOL    HW223934   2.231   3.815   1.988  0.6191  0.2573  0.4349
 4100SOL     OW23935   3.300   1.085  12.472 -0.0319  0.2801 -0.3322
 4100SOL    HW123936   3.334   1.164  12.431  0.2274  2.0804  3.3486
 4100SOL    HW223937   3.240   1.040  12.412 -3.3132  3.8224  0.3055
 4101SOL     OW23938   0.255   3.897   8.885 -0.8740  0.4606  0.8150
 4101SOL    HW123939   0.307   3.962   8.933 -0.5982 -0.2834  1.5253
 4101SOL    HW223940   0.219   3.956   8.819 -0.3033 -1.0082 -0.7761
 4102SOL     OW23941   3.693   4.534   0.393 -0.3960  0.6814  0.4207
 4102SOL    HW123942   3.635   4.458   0.387  0.4274 -0.1038  2.3027
 4102SOL    HW223943   3.754   4.510   0.463  2.6734  4.4789 -0.9582
 4103SOL     OW23944   0.387   0.346   4.733  0.1213 -0.6811  0.4195
 4103SOL    HW123945   0.479   0.370   4.747 -0.8317  3.0305  0.2907
 4103SOL    HW223946   0.347   0.366   4.818  1.1998 -1.6271  1.1556
 4104SOL     OW23947   0.995   1.829  12.050 -0.1649 -0.0165 -0.8319
 4104SOL    HW123948   1.083   1.795  12.070  1.0111  2.2113 -2.2028
 4104SOL    HW223949   0.954   1.812  12.135  0.7805  0.1677 -0.3323
 4105SOL     OW23950   0.516   4.160   7.949 -0.3065 -0.9222 -0.1087
 4105SOL    HW123951   0.487   4.081   7.902 -0.5483 -0.6129 -0.4784
 4105SOL    HW223952   0.568   4.106   8.009 -1.5376 -2.3308 -0.3098
 4106SOL     OW23953   4.086   2.990  17.251  0.2832 -0.3969  0.0465
 4106SOL    HW123954   4.083   2.929  17.324 -0.9852 -1.6352 -1.0344
 4106SOL    HW223955   4.176   2.974  17.223 -0.3726 -0.8451 -1.8548
 4107SOL     OW23956   1.932   2.555  14.096 -0.2122  0.3195 -0.1413
 4107SOL    HW123957   1.905   2.646  14.092  1.0778  0.6374 -1.4517
 4107SOL    HW223958   1.957   2.531  14.007 -3.0262  1.2923 -1.2060
 4108SOL     OW23959   4.580   2.002  11.853 -0.7460 -0.3171  0.5704
 4108SOL    HW123960   4.532   2.023  11.933 -1.1697 -0.8681  0.4687
 4108SOL    HW223961   4.665   1.987  11.893 -0.6418 -3.8712 -1.0108
 4109SOL     OW23962   1.208   1.864   1.921  0.2489  0.8094  0.1555
 4109SOL    HW123963   1.253   1.944   1.894  0.0035  0.2718 -1.8496
 4109SOL    HW223964   1.139   1.909   1.969 -0.3981  0.1669 -0.1571
 4110SOL     OW23965   3.068   2.209   5.300 -0.1231 -0.8823  0.2525
 4110SOL    HW123966   3.087   2.155   5.377  0.3625 -0.1585  0.6458
 4110SOL    HW223967   2.978   2.236   5.320  0.2868  1.8937 -1.6794
 4111SOL     OW23968   1.220   2.547   6.036  0.3051 -0.1369 -0.5258
 4111SOL    HW123969   1.283   2.619   6.035 -2.6815  2.4575  2.2663
 4111SOL    HW223970   1.252   2.510   6.119 -2.6630 -3.2259 -0.7485
 4112SOL     OW23971   1.860   2.584   4.985  0.3594 -0.6020  0.1160
 4112SOL    HW123972   1.786   2.639   5.010  0.8754  0.2566 -0.2543
 4112SOL    HW223973   1.858   2.523   5.059  2.3347 -0.8144 -0.0075
 4113SOL     OW23974   1.265   3.074  14.820  0.2459  0.0965  0.0891
 4113SOL    HW123975   1.249   3.167  14.834  0.0585 -0.1681  1.6753
 4113SOL    HW223976   1.346   3.075  14.768 -1.7055  0.6469 -2.9159
 4114SOL     OW23977   4.628   0.512  13.506  0.0718 -0.0749  0.6725
 4114SOL    HW123978   4.602   0.603  13.520 -2.1863 -0.5866 -0.0478
 4114SOL    HW223979   4.602   0.479  13.592  0.8054 -1.3111  0.4140
 4115SOL     OW23980   0.723   4.424  15.649 -0.1820  0.3939 -0.0223
 4115SOL    HW123981   0.762   4.428  15.737  0.0400  0.3709 -0.1183
 4115SOL    HW223982   0.642   4.472  15.664 -0.6447 -0.6351  0.8480
 4116SOL     OW23983   1.150   1.553  12.181 -0.6025 -0.3029  0.0203
 4116SOL    HW123984   1.179   1.639  12.148  0.9379 -1.5268 -1.8357
 4116SOL    HW223985   1.222   1.526  12.237 -0.6591 -2.7423 -1.0816
 4117SOL     OW23986   3.951   0.981   4.251 -0.0327  0.2360 -0.0615
 4117SOL    HW123987   4.043   0.986   4.275 -0.4157 -1.1160  1.7203
 4117SOL    HW223988   3.929   1.073   4.264  1.8846  0.8785 -1.3794
 4118SOL     OW23989   2.266   1.053   9.041  0.4422 -0.1680 -0.2660
 4118SOL    HW123990   2.322   1.114   9.090  2.0922 -1.5682 -0.3752
 4118SOL    HW223991   2.186   1.065   9.091  1.6216  0.7936  1.4057
 4119SOL     OW23992   1.891   3.913   1.525  0.0886  0.0657 -0.3162
 4119SOL    HW123993   1.915   3.920   1.433 -2.2458  1.4415 -0.8149
 4119SOL    HW223994   1.930   3.991   1.564 -0.3236  0.8968 -1.5624
 4120SOL     OW23995   2.141   4.689   2.279  0.7539 -0.0429  0.0037
 4120SOL    HW123996   2.237   4.693   2.283  0.7410 -1.5255  1.3855
 4120SOL    HW223997   2.114   4.722   2.364  0.2615  1.3658 -0.6972
 4121SOL     OW23998   4.326   1.537   6.687  0.4571 -0.0152 -0.1429
 4121SOL    HW123999   4.367   1.490   6.760 -0.0510  0.9248  0.7419
 4121SOL    HW224000   4.241   1.493   6.679  0.9573 -1.2043  0.9403
 4122SOL     OW24001   0.997   2.356   4.730 -0.1192 -0.3254  0.2573
 4122SOL    HW124002   0.942   2.370   4.807  1.5158 -0.7331  1.4951
 4122SOL    HW224003   1.054   2.434   4.723 -2.6067  1.4506 -0.1144
 4123SOL     OW24004   0.360   1.774   6.658 -0.0894  0.4197 -0.3055
 4123SOL    HW124005   0.359   1.679   6.663 -0.6836  0.4407 -0.0379
 4123SOL    HW224006   0.270   1.797   6.681 -0.3913 -1.3507  0.2386
 4124SOL     OW24007   3.940   3.345  13.428  0.3362  0.4400  0.1791
 4124SOL    HW124008   4.034   3.329  13.442  0.4068  0.1076 -0.6719
 4124SOL    HW224009   3.938   3.379  13.339 -1.2710 -3.3177 -1.1944
 4125SOL     OW24010   1.977   1.423   0.755  0.1653  0.1814  0.6835
 4125SOL    HW124011   1.968   1.516   0.734 -0.3038  0.1900  0.9219
 4125SOL    HW224012   2.068   1.422   0.723 -0.4695  1.4271 -1.1963
 4126SOL     OW24013   3.853   0.287   7.963 -0.0921  0.0070  0.3684
 4126SOL    HW124014   3.817   0.205   7.994 -1.6966  1.0663  1.3090
 4126SOL    HW224015   3.780   0.347   7.981  1.1778  1.3958  0.8743
 4127SOL     OW24016   2.394   3.040  16.385 -0.3214 -0.0385  0.7624
 4127SOL    HW124017   2.466   3.004  16.437 -0.1731  0.5284  0.9526
 4127SOL    HW224018   2.331   2.969  16.373 -0.5528  0.6122 -2.0462
 4128SOL     OW24019   3.839   0.701   7.411 -0.2462 -0.1268  0.3329
 4128SOL    HW124020   3.879   0.770   7.464  0.3866 -1.2606  1.3391
 4128SOL    HW224021   3.910   0.637   7.411  0.6332  0.8772 -1.7406
 4129SOL     OW24022   1.036   4.703   0.453  0.1875 -0.1166 -0.0868
 4129SOL    HW124023   1.040   0.060   0.463  1.9672 -0.3957  1.8082
 4129SOL    HW224024   0.955   4.679   0.498 -0.4798  0.6342 -0.8823
 4130SOL     OW24025   1.686   3.533   1.890  0.5615  0.3944 -0.0017
 4130SOL    HW124026   1.621   3.508   1.824 -0.6304 -0.0931  1.3569
 4130SOL    HW224027   1.744   3.591   1.841  0.8866 -1.2524 -1.5682
 4131SOL     OW24028   3.007   3.912   7.525  0.8159 -0.1531 -0.3407
 4131SOL    HW124029   3.090   3.951   7.555  0.6643  0.8489 -1.2409
 4131SOL    HW224030   2.935   3.970   7.548  1.2493  0.6578 -1.0425
 4132SOL     OW24031   2.628   2.745  11.529 -0.2379  0.3924  0.1028
 4132SOL    HW124032   2.599   2.659  11.501 -1.5059  1.2846 -1.2652
 4132SOL    HW224033   2.702   2.760  11.470 -0.5391 -0.4860 -0.4887
 4133SOL     OW24034   2.366   2.670  12.970 -0.1075  0.0542 -0.0356
 4133SOL    HW124035   2.271   2.670  12.972 -0.0748  0.2319  1.3596
 4133SOL    HW224036   2.389   2.621  13.050 -1.3195 -0.8853 -0.2645
 4134SOL     OW24037   1.234   3.197   8.418 -0.2211  0.5818 -0.2406
 4134SOL    HW124038   1.167   3.246   8.466 -0.6533 -1.2933  1.0807
 4134SOL    HW224039   1.258   3.276   8.370 -2.1256  1.0525 -0.4170
 4135SOL     OW24040   2.572   0.876   8.835 -0.6945  0.1864  0.4407
 4135SOL    HW124041   2.577   0.839   8.923 -2.6728 -0.6929  0.1673
 4135SOL    HW224042   2.656   0.857   8.793 -0.6705 -0.8297  0.9521
 4136SOL     OW24043   1.145   3.609  10.090  0.3368 -0.4235 -0.3244
 4136SOL    HW124044   1.120   3.517  10.101  2.0507 -0.8971 -0.4379
 4136SOL    HW224045   1.212   3.618  10.157 -0.0693  0.4279 -0.0327
 4137SOL     OW24046   4.542   2.570  16.718  0.2403  0.2152  0.3343
 4137SOL    HW124047   4.507   2.480  16.717 -1.5297  0.9603 -2.8178
 4137SOL    HW224048   4.563   2.572  16.625 -0.9653  0.2467  0.0553
 4138SOL     OW24049   3.672   1.327  14.800  0.4644 -0.3341  0.1985
 4138SOL    HW124050   3.653   1.242  14.759 -2.3820  1.3457 -1.9875
 4138SOL    HW224051   3.587   1.364  14.777  1.9972  0.6777 -3.9398
 4139SOL     OW24052   3.872   1.387   8.201  0.3308  0.1734  0.2258
 4139SOL    HW124053   3.806   1.447   8.237 -1.2539 -1.3394 -0.1624
 4139SOL    HW224054   3.916   1.355   8.280  0.2912  0.5607  0.4081
 4140SOL     OW24055   4.003   3.088   4.571 -0.3031  0.2801  0.2610
 4140SOL    HW124056   4.092   3.122   4.559  0.4085 -2.0235 -0.9501
 4140SOL    HW224057   4.032   3.008   4.614 -0.8217  0.7385  1.4633
 4141SOL     OW24058   2.540   1.863  14.237 -0.2535 -0.7538  0.4313
 4141SOL    HW124059   2.466   1.828  14.287 -0.3372 -1.2045 -0.0119
 4141SOL    HW224060   2.567   1.785  14.188 -0.9794 -0.1067 -1.0017
 4142SOL     OW24061   4.289   0.029  14.260  0.0726 -0.1549  0.1602
 4142SOL    HW124062   4.237   0.073  14.327 -0.9814  0.9184 -1.3766
 4142SOL    HW224063   4.344   0.097  14.222 -1.0551 -0.3340 -1.7809
 4143SOL     OW24064   1.543   3.887   3.522  0.6757 -0.0718  0.2748
 4143SOL    HW124065   1.599   3.830   3.469  1.4591  1.6722 -0.7329
 4143SOL    HW224066   1.522   3.968   3.478 -0.8100 -1.9564 -2.4421
 4144SOL     OW24067   1.764   0.793   8.814  0.5344  0.0180  0.6758
 4144SOL    HW124068   1.691   0.835   8.860 -1.8343 -1.9369 -1.2575
 4144SOL    HW224069   1.801   0.751   8.892 -1.1134 -2.1795  0.2797
 4145SOL     OW24070   2.783   1.152  17.404 -0.3660 -0.8937 -0.1167
 4145SOL    HW124071   2.813   1.064  17.428 -1.0007 -0.7416  1.2394
 4145SOL    HW224072   2.779   1.147  17.309  1.4324 -0.3278 -0.2172
 4146SOL     OW24073   1.791   0.264   8.080  0.1755 -0.0248  0.1731
 4146SOL    HW124074   1.830   0.178   8.100  0.4538  0.0771  0.0678
 4146SOL    HW224075   1.831   0.320   8.147  1.6712 -0.3976 -0.4147
 4147SOL     OW24076   4.368   0.404   3.821  0.3176  0.0266  0.2812
 4147SOL    HW124077   4.367   0.395   3.726  0.8938  0.7163  0.2093
 4147SOL    HW224078   4.450   0.451   3.836  1.1781 -1.5580  0.5152
 4148SOL     OW24079   2.746   3.462   4.846 -0.0439  0.2294  0.4030
 4148SOL    HW124080   2.705   3.457   4.932  1.3588  2.6450  1.2163
 4148SOL    HW224081   2.829   3.493   4.881  0.7302 -0.6952 -0.6231
 4149SOL     OW24082   2.217   0.256   4.506  0.1335  0.2971  0.3126
 4149SOL    HW124083   2.182   0.187   4.562 -1.3102 -0.3943 -1.4524
 4149SOL    HW224084   2.146   0.254   4.441  1.1734 -1.4317 -0.7442
 4150SOL     OW24085   3.203   1.931  11.052 -0.0454 -0.4122 -0.0886
 4150SOL    HW124086   3.229   2.014  11.012  1.4071 -1.2001 -0.7862
 4150SOL    HW224087   3.114   1.955  11.079  0.1909  2.6107 -1.9733
 4151SOL     OW24088   2.218   3.842   4.068  0.5108 -0.1083 -0.0543
 4151SOL    HW124089   2.124   3.842   4.048 -0.2002 -1.9597  3.4323
 4151SOL    HW224090   2.226   3.910   4.135  1.4983 -0.4076  0.1315
 4152SOL     OW24091   4.456   4.208  16.412 -0.1843 -0.3513  0.3094
 4152SOL    HW124092   4.475   4.204  16.318  1.5797 -0.6350  0.6950
 4152SOL    HW224093   4.478   4.300  16.429  0.3240 -0.4975  0.4242
 4153SOL     OW24094   3.506   3.772   9.431  0.2688  0.7777  0.0597
 4153SOL    HW124095   3.464   3.732   9.354  0.4527  1.8663 -0.6140
 4153SOL    HW224096   3.594   3.736   9.420 -0.0680 -0.4069  1.3287
 4154SOL     OW24097   1.920   0.357   7.067  0.5115  0.3485 -0.1594
 4154SOL    HW124098   1.978   0.334   6.994  1.9902  1.2199  0.7517
 4154SOL    HW224099   1.963   0.307   7.136 -1.1005 -1.8228 -0.7082
 4155SOL     OW24100   3.721   0.165  16.051 -0.1708  0.5314  0.1974
 4155SOL    HW124101   3.713   0.259  16.034  1.1613  0.6770  0.4275
 4155SOL    HW224102   3.714   0.122  15.965  1.1100  0.1434  0.2949
 4156SOL     OW24103   4.592   1.725  15.443 -0.0177  0.0323  0.0566
 4156SOL    HW124104   4.681   1.709  15.475  0.4031  0.2788 -0.9987
 4156SOL    HW224105   4.550   1.751  15.524 -2.4944 -2.3224 -0.4719
 4157SOL     OW24106   4.550   3.315   3.092  0.5887 -0.1237 -0.4333
 4157SOL    HW124107   4.609   3.283   3.024 -1.0795 -2.4373 -0.7751
 4157SOL    HW224108   4.602   3.379   3.141  0.8846 -0.2853 -0.5312
 4158SOL     OW24109   2.348   2.939   7.244  0.1792 -0.0030  0.1974
 4158SOL    HW124110   2.431   2.962   7.287  0.5104  1.2860 -1.1606
 4158SOL    HW224111   2.340   2.850   7.280 -2.8282 -0.9901 -2.8923
 4159SOL     OW24112   3.147   2.424   4.051 -0.0754  0.4946  0.3052
 4159SOL    HW124113   3.158   2.517   4.033  1.2429  0.1403 -0.6877
 4159SOL    HW224114   3.142   2.388   3.962 -1.1058 -0.6906  0.8460
 4160SOL     OW24115   0.745   1.517  11.972  0.1018 -0.3657  0.6943
 4160SOL    HW124116   0.827   1.468  11.966 -0.5581 -1.4182  0.3033
 4160SOL    HW224117   0.722   1.509  12.065  0.6121 -1.0512  0.7617
 4161SOL     OW24118   3.214   3.811   1.603  0.0374  0.2833  0.1092
 4161SOL    HW124119   3.148   3.797   1.671 -0.1941  2.8081  0.4170
 4161SOL    HW224120   3.191   3.732   1.555 -1.8162  0.5728  0.5349
 4162SOL     OW24121   3.221   2.869   4.816 -0.1640 -0.4728 -0.4725
 4162SOL    HW124122   3.212   2.833   4.727 -0.4752  0.1270 -0.6827
 4162SOL    HW224123   3.150   2.824   4.862  0.4724 -2.6994 -1.6598
 4163SOL     OW24124   2.947   0.334   7.855 -0.0991 -0.2172  0.3817
 4163SOL    HW124125   3.016   0.395   7.831  0.6155 -0.3572  2.0614
 4163SOL    HW224126   2.894   0.394   7.908  0.5794 -0.8478  1.7735
 4164SOL     OW24127   3.088   0.785  14.718 -0.0883 -0.0700  0.6520
 4164SOL    HW124128   3.033   0.707  14.730  0.1990 -0.3146  0.3879
 4164SOL    HW224129   3.144   0.748  14.649 -1.6133 -2.1539  0.5322
 4165SOL     OW24130   3.207   3.476   4.310 -0.0263 -0.3833 -0.1501
 4165SOL    HW124131   3.165   3.533   4.246  0.2328  0.2751  0.2670
 4165SOL    HW224132   3.285   3.457   4.257 -0.9007 -0.8787 -1.2565
 4166SOL     OW24133   3.122   0.447   8.131  0.0366 -0.2463  0.5556
 4166SOL    HW124134   3.211   0.426   8.103 -0.7298 -1.8187 -0.7002
 4166SOL    HW224135   3.133   0.445   8.227  3.4172  0.5532  0.1624
 4167SOL     OW24136   4.095   3.770   8.153  0.6789 -0.0142 -0.2396
 4167SOL    HW124137   4.065   3.740   8.239  0.9610 -1.0780 -0.5159
 4167SOL    HW224138   4.082   3.865   8.156  0.3435 -0.0054 -1.7745
 4168SOL     OW24139   0.081   1.962  17.131 -0.0345  0.1569 -0.1592
 4168SOL    HW124140   0.166   1.947  17.091 -0.6873 -0.6423 -1.2496
 4168SOL    HW224141   0.052   2.049  17.102 -1.9997 -0.7324 -0.8915
 4169SOL     OW24142   3.703   2.476   1.750 -0.3093  0.5238 -0.2280
 4169SOL    HW124143   3.734   2.438   1.832  0.2480 -0.5256 -0.9301
 4169SOL    HW224144   3.747   2.426   1.682 -2.0701  0.2749 -1.1857
 4170SOL     OW24145   4.484   0.065   3.025 -0.0899  0.0739  0.5223
 4170SOL    HW124146   4.403   0.060   3.074  0.5332 -1.6050  1.3445
 4170SOL    HW224147   4.540   0.027   3.092  1.0831  1.6328  0.4373
 4171SOL     OW24148   0.988   0.989   8.558 -0.5005  0.0325 -0.5744
 4171SOL    HW124149   0.973   0.895   8.570  0.3851 -0.0984 -0.5026
 4171SOL    HW224150   1.063   0.992   8.618 -0.0177 -0.4589 -1.1563
 4172SOL     OW24151   2.737   1.531   3.227  0.6122  0.2676  0.0686
 4172SOL    HW124152   2.726   1.535   3.132 -0.5631 -0.2769  0.1842
 4172SOL    HW224153   2.784   1.449   3.241  0.9228  0.5164  0.4826
 4173SOL     OW24154   3.801   3.195   3.944 -0.5581 -0.3833 -0.0916
 4173SOL    HW124155   3.820   3.279   3.987 -0.7322 -0.2480 -0.2741
 4173SOL    HW224156   3.780   3.219   3.854 -3.2574 -1.7276  0.1853
 4174SOL     OW24157   0.369   0.439   5.465 -0.2079  0.2758  0.3606
 4174SOL    HW124158   0.325   0.439   5.551 -0.4681 -2.3293  0.2304
 4174SOL    HW224159   0.401   0.530   5.463  0.7580 -0.0593  0.6163
 4175SOL     OW24160   0.420   2.310   5.831 -0.2520 -0.5372  0.3418
 4175SOL    HW124161   0.394   2.232   5.783 -4.8840 -0.6473  3.1012
 4175SOL    HW224162   0.513   2.296   5.848 -0.6803 -1.9467  1.4707
 4176SOL     OW24163   2.999   1.786   4.409 -0.1144  0.0658 -0.1331
 4176SOL    HW124164   2.967   1.720   4.348  2.1360 -1.3641  0.2327
 4176SOL    HW224165   3.083   1.805   4.368  0.4586 -0.2546  0.8853
 4177SOL     OW24166   2.204   0.424   3.960  0.4036 -0.1972 -0.0179
 4177SOL    HW124167   2.136   0.413   4.026 -0.0697 -0.4779 -0.5593
 4177SOL    HW224168   2.225   0.331   3.951  0.5810 -0.0788 -0.8874
 4178SOL     OW24169   2.648   0.714   3.354 -0.1596 -0.2302 -0.6635
 4178SOL    HW124170   2.563   0.716   3.398 -0.9143  2.5073 -2.2815
 4178SOL    HW224171   2.682   0.625   3.362  0.4062 -0.0926 -1.5524
 4179SOL     OW24172   3.705   1.566   8.313 -0.1099  0.0593  0.6214
 4179SOL    HW124173   3.699   1.657   8.342  0.1529 -0.4556  2.2753
 4179SOL    HW224174   3.678   1.572   8.221 -0.6508 -3.7694  0.5460
 4180SOL     OW24175   0.639   4.156  17.292 -0.0979  0.0894  0.1702
 4180SOL    HW124176   0.558   4.104  17.289  0.6400 -1.0252 -0.6192
 4180SOL    HW224177   0.674   4.152  17.203 -1.0755  3.2860 -0.3500
 4181SOL     OW24178   3.642   3.206  16.191 -0.1227  0.1865 -0.1983
 4181SOL    HW124179   3.620   3.289  16.233  1.7247  1.4991 -1.8329
 4181SOL    HW224180   3.677   3.226  16.104  0.4107  0.4781  0.0888
 4182SOL     OW24181   1.239   4.086  13.204  0.1703 -0.0323 -0.0562
 4182SOL    HW124182   1.246   4.180  13.186  0.7597 -0.3157 -1.2873
 4182SOL    HW224183   1.156   4.084  13.252  0.2655 -1.1939  0.0692
 4183SOL     OW24184   4.100   3.948   0.551 -0.6316  0.0231 -0.5596
 4183SOL    HW124185   4.076   4.031   0.592  2.6518 -0.0120  1.3899
 4183SOL    HW224186   4.126   3.892   0.623 -1.2135 -0.9060 -1.0616
 4184SOL     OW24187   2.936   1.915  14.896  0.3576  0.2990  0.6372
 4184SOL    HW124188   2.877   1.851  14.935 -1.8504  1.0827 -1.4264
 4184SOL    HW224189   2.883   1.925  14.817  2.5251 -2.2419 -1.1350
 4185SOL     OW24190   1.790   4.542   8.724  0.8226  0.5294  0.2314
 4185SOL    HW124191   1.804   4.467   8.666  2.5765 -0.0704  1.4298
 4185SOL    HW224192   1.696   4.538   8.739  0.9266 -2.6693  0.1435
 4186SOL     OW24193   0.432   4.646   2.548  0.1988  0.0641  0.1042
 4186SOL    HW124194   0.420   4.611   2.637  0.3510 -1.5580 -0.5135
 4186SOL    HW224195   0.408   4.572   2.492  2.3828 -0.3709 -0.2812
 4187SOL     OW24196   0.332   3.365   8.314  0.4830  0.1565 -0.2311
 4187SOL    HW124197   0.311   3.411   8.396 -1.4505 -0.7915 -0.1988
 4187SOL    HW224198   0.404   3.425   8.292  1.0591 -1.1536 -1.8565
 4188SOL     OW24199   1.540   1.876   3.119  0.0426 -0.1163 -0.1770
 4188SOL    HW124200   1.502   1.931   3.188 -1.4579  0.9712 -1.8882
 4188SOL    HW224201   1.490   1.796   3.132 -0.5859  0.3986  0.5965
 4189SOL     OW24202   0.676   0.222   8.282  0.6357  0.1303 -1.0033
 4189SOL    HW124203   0.687   0.154   8.348  5.0056  1.3941 -0.4304
 4189SOL    HW224204   0.584   0.245   8.295  1.4942  2.4350  0.7580
 4190SOL     OW24205   4.473   3.311   1.746 -0.3224  0.4102 -0.0988
 4190SOL    HW124206   4.474   3.344   1.656  1.2614 -0.9184 -0.5878
 4190SOL    HW224207   4.521   3.229   1.735 -0.1595  0.1791  2.3738
 4191SOL     OW24208   4.296   3.722   2.689 -0.3901 -0.6434 -1.0056
 4191SOL    HW124209   4.225   3.764   2.738  0.5160  0.1869 -0.3972
 4191SOL    HW224210   4.258   3.636   2.672 -0.5325 -0.5912 -0.9526
 4192SOL     OW24211   3.633   3.742   4.958  0.5338 -0.0443  0.3725
 4192SOL    HW124212   3.637   3.813   4.894 -3.1026  0.0662  0.2770
 4192SOL    HW224213   3.586   3.675   4.909  0.8329 -1.6844  2.3425
 4193SOL     OW24214   3.271   0.484  13.120  0.0058 -0.1472 -0.3137
 4193SOL    HW124215   3.263   0.569  13.076 -2.2994  0.4902  1.3609
 4193SOL    HW224216   3.339   0.514  13.180 -0.8395  0.8229  0.1616
 4194SOL     OW24217   2.937   1.972  11.120  0.6629  0.1865 -0.3909
 4194SOL    HW124218   2.891   1.896  11.084  0.9202 -0.1841  0.0595
 4194SOL    HW224219   2.881   2.000  11.192  1.0366 -0.6005  0.2153
 4195SOL     OW24220   2.843   0.177   4.994 -0.5951 -0.0094  0.0560
 4195SOL    HW124221   2.884   0.246   5.046  0.2309 -0.7449  0.3843
 4195SOL    HW224222   2.834   0.225   4.912 -0.7656  1.7047  1.0968
 4196SOL     OW24223   3.683   1.908   7.097  0.1691  0.1178 -0.2527
 4196SOL    HW124224   3.740   1.844   7.139  0.6042 -1.0330 -2.6223
 4196SOL    HW224225   3.731   1.905   7.015  0.0102 -1.2679 -0.2969
 4197SOL     OW24226   2.244   4.119   7.268  0.2060  0.2413 -0.3158
 4197SOL    HW124227   2.248   4.193   7.330  0.6675  0.3539 -0.4784
 4197SOL    HW224228   2.151   4.108   7.251 -0.5641  1.1792  3.1242
 4198SOL     OW24229   1.795   2.419   6.598  0.4788 -0.8492  0.2502
 4198SOL    HW124230   1.828   2.396   6.512  2.3116 -1.5002  1.1258
 4198SOL    HW224231   1.855   2.366   6.650 -1.3515 -0.2529  2.9988
 4199SOL     OW24232   0.848   1.779  14.516 -0.0842 -0.3421  0.1957
 4199SOL    HW124233   0.857   1.685  14.499  0.1357 -0.0596 -1.1897
 4199SOL    HW224234   0.812   1.778  14.605 -1.1809 -0.3644 -0.2566
 4200SOL     OW24235   3.042   1.677   5.663 -0.0723  0.4150  0.0760
 4200SOL    HW124236   3.010   1.725   5.586 -0.3543  2.6494  1.5711
 4200SOL    HW224237   2.971   1.619   5.689 -0.3112 -0.1433 -1.8523
 4201SOL     OW24238   2.751   1.501   2.944  0.0300  0.4016 -0.6866
 4201SOL    HW124239   2.659   1.524   2.938 -0.3570 -1.7713 -2.9573
 4201SOL    HW224240   2.751   1.428   2.882 -1.5509 -1.7395  1.8597
 4202SOL     OW24241   0.885   1.320   6.759 -0.2785  0.5446  0.3032
 4202SOL    HW124242   0.857   1.258   6.692 -1.6094 -0.6005  1.9082
 4202SOL    HW224243   0.810   1.326   6.819  0.0715 -1.0568  0.8823
 4203SOL     OW24244   1.668   4.461   4.916 -0.2577 -0.4083  0.5391
 4203SOL    HW124245   1.610   4.496   4.984  0.3817 -1.6359  1.7071
 4203SOL    HW224246   1.699   4.395   4.978  0.5256  0.2435  0.8311
 4204SOL     OW24247   1.756   2.130   1.108 -0.1982 -0.1750 -0.1235
 4204SOL    HW124248   1.762   2.196   1.178  0.2223 -0.4849  0.1310
 4204SOL    HW224249   1.769   2.174   1.024  1.6840 -0.8560 -0.1857
 4205SOL     OW24250   2.314   0.777   7.254  0.0077 -0.5532 -0.1384
 4205SOL    HW124251   2.378   0.817   7.196  0.0388 -0.5239 -0.0835
 4205SOL    HW224252   2.332   0.834   7.329 -1.5641 -1.8995  1.2715
 4206SOL     OW24253   0.661   0.514   5.975 -0.0001 -0.0282 -0.0029
 4206SOL    HW124254   0.571   0.484   5.965  0.5616 -1.6632 -0.2644
 4206SOL    HW224255   0.668   0.551   5.887  0.0149  1.2871  0.5423
 4207SOL     OW24256   4.546   0.591  14.308  0.0339 -0.2575 -0.5279
 4207SOL    HW124257   4.521   0.589  14.216  1.5393  1.5518 -0.9898
 4207SOL    HW224258   4.490   0.523  14.345  0.9277 -0.4682  0.4348
 4208SOL     OW24259   1.620   4.160  13.179  0.0360  0.0568  0.2338
 4208SOL    HW124260   1.557   4.091  13.158 -0.0713  1.4768 -4.0743
 4208SOL    HW224261   1.689   4.106  13.217  1.8498  1.0520 -1.6700
 4209SOL     OW24262   3.860   4.293   4.211  0.3203 -0.2162 -0.0925
 4209SOL    HW124263   3.941   4.246   4.231  1.3103  1.5975  0.1191
 4209SOL    HW224264   3.870   4.361   4.277  0.1481  1.1419 -1.4868
 4210SOL     OW24265   1.445   4.443  13.081  0.1013 -0.2446 -0.6280
 4210SOL    HW124266   1.474   4.512  13.022  0.4683 -0.7834 -1.0848
 4210SOL    HW224267   1.433   4.377  13.012  1.8499  0.0987 -1.2449
 4211SOL     OW24268   3.451   2.703   5.454 -0.2611 -0.2602 -0.1832
 4211SOL    HW124269   3.515   2.770   5.430 -1.3070  0.8130  0.0165
 4211SOL    HW224270   3.513   2.635   5.427 -0.0350 -0.2216  0.2453
 4212SOL     OW24271   1.382   1.061   1.887 -0.3784  0.2410 -0.1292
 4212SOL    HW124272   1.425   1.087   1.805  1.3085 -0.2666  0.6115
 4212SOL    HW224273   1.291   1.089   1.871 -0.7416 -1.0588 -0.3174
 4213SOL     OW24274   0.514   3.531  15.284  0.1451 -0.8363  0.0917
 4213SOL    HW124275   0.571   3.519  15.209 -1.1846 -2.0356 -0.7276
 4213SOL    HW224276   0.551   3.462  15.339  3.8965  1.0684 -0.0907
 4214SOL     OW24277   3.181   0.508   3.043  0.1419  0.6514 -0.7334
 4214SOL    HW124278   3.131   0.531   2.965  2.4672  2.6557 -1.6443
 4214SOL    HW224279   3.270   0.515   3.007  1.2733 -0.0234  1.8713
 4215SOL     OW24280   4.519   2.976   0.974 -0.3671  0.3844  0.3201
 4215SOL    HW124281   4.613   2.976   0.955 -0.4899 -2.0786 -0.3152
 4215SOL    HW224282   4.465   2.920   0.918  0.4489  0.7494 -0.8301
 4216SOL     OW24283   0.218   3.336   4.280  0.4622 -0.2377 -0.1574
 4216SOL    HW124284   0.189   3.319   4.370 -0.0725 -0.2888 -0.3406
 4216SOL    HW224285   0.149   3.283   4.240  0.8946 -0.1258 -1.0544
 4217SOL     OW24286   4.388   0.110   8.794  0.4459  0.7642  0.2515
 4217SOL    HW124287   4.344   0.161   8.862  0.9218  0.0272  1.1105
 4217SOL    HW224288   4.475   0.148   8.804  1.3892 -1.4466  0.4562
 4218SOL     OW24289   0.488   2.613  10.766  0.0168 -0.1094  0.2012
 4218SOL    HW124290   0.396   2.624  10.743 -0.4872 -1.5420  1.5638
 4218SOL    HW224291   0.507   2.705  10.749 -0.5820  0.3713  2.1117
 4219SOL     OW24292   4.267   4.221  10.255  0.2852 -0.4235 -0.2560
 4219SOL    HW124293   4.359   4.195  10.261  0.9130  1.9527  0.2360
 4219SOL    HW224294   4.243   4.180  10.171 -0.6781 -3.2580  1.4005
 4220SOL     OW24295   3.720   1.828  14.678 -0.4886  0.2334 -0.3216
 4220SOL    HW124296   3.665   1.762  14.722 -1.3406  1.1304 -0.0541
 4220SOL    HW224297   3.759   1.884  14.745 -1.0541 -0.5600  0.6825
 4221SOL     OW24298   0.558   1.643   2.723 -0.0544 -0.0382  0.6251
 4221SOL    HW124299   0.576   1.706   2.653 -0.0852 -1.2009 -0.4277
 4221SOL    HW224300   0.623   1.674   2.785 -0.2308  1.3272  0.1230
 4222SOL     OW24301   0.127   3.760   2.769 -0.5868  0.0983  0.5224
 4222SOL    HW124302   0.181   3.810   2.830 -0.3471  0.9744 -0.4084
 4222SOL    HW224303   0.149   3.778   2.678 -2.4873  0.9152  0.2195
 4223SOL     OW24304   1.903   2.045  10.888 -0.2529  0.1840 -0.0762
 4223SOL    HW124305   1.868   2.084  10.969 -0.4641  1.0593 -0.5905
 4223SOL    HW224306   1.988   2.019  10.924 -1.1497  0.5643  2.3571
 4224SOL     OW24307   4.565   2.932   6.910 -0.4772 -0.2961  0.1505
 4224SOL    HW124308   4.589   2.938   7.003 -0.1291 -0.4251  0.0662
 4224SOL    HW224309   4.477   2.970   6.918  0.1590  1.3028 -0.4486
 4225SOL     OW24310   0.765   2.606   0.275  0.5909  0.5427 -0.6939
 4225SOL    HW124311   0.695   2.630   0.214  0.8797  2.9395 -0.0768
 4225SOL    HW224312   0.729   2.624   0.361 -1.2683  1.2458 -1.6369
 4226SOL     OW24313   2.557   3.620   4.670 -0.1410  0.1172  0.0363
 4226SOL    HW124314   2.628   3.568   4.706  1.2958  0.6567 -2.0086
 4226SOL    HW224315   2.582   3.699   4.718 -0.6884 -0.8883  1.9368
 4227SOL     OW24316   4.544   1.029   2.504 -0.0554 -0.6718  0.2086
 4227SOL    HW124317   4.575   0.957   2.559  1.8189  1.3811  1.9028
 4227SOL    HW224318   4.615   1.091   2.525 -2.0082  0.9280  2.1173
 4228SOL     OW24319   1.298   0.025   6.596 -0.2069  0.3817 -0.0229
 4228SOL    HW124320   1.256   4.687   6.638 -2.1334  1.5585  0.2198
 4228SOL    HW224321   1.390   0.001   6.594 -0.1042  0.7888 -0.2618
 4229SOL     OW24322   0.224   2.668  10.685  0.3877  0.0519  0.6587
 4229SOL    HW124323   0.141   2.621  10.685  1.4452 -1.8191 -3.2508
 4229SOL    HW224324   0.204   2.747  10.636  1.2666  0.5153  1.0535
 4230SOL     OW24325   4.330   3.116   8.443 -0.5686 -0.3715  0.2819
 4230SOL    HW124326   4.400   3.106   8.508 -1.6510 -2.2151  1.1623
 4230SOL    HW224327   4.344   3.040   8.386 -1.1843  0.8284 -1.4328
 4231SOL     OW24328   0.163   4.435  17.158  0.0607  0.5103  0.1113
 4231SOL    HW124329   0.251   4.399  17.148  0.5040  2.8663 -4.4066
 4231SOL    HW224330   0.122   4.349  17.154 -0.6335  0.8301  0.3601
 4232SOL     OW24331   3.248   0.502   7.366  0.0755 -0.2392  0.2034
 4232SOL    HW124332   3.256   0.420   7.415 -0.8393  1.3838  3.0561
 4232SOL    HW224333   3.283   0.474   7.282 -0.6590 -1.0819  0.1770
 4233SOL     OW24334   3.576   0.675   7.449 -0.2414 -0.1127 -0.2911
 4233SOL    HW124335   3.663   0.708   7.425  0.6300 -3.0103 -1.1373
 4233SOL    HW224336   3.589   0.586   7.481 -1.6046 -0.1779  0.0904
 4234SOL     OW24337   0.761   3.355   3.640 -0.1388  0.0453  0.3941
 4234SOL    HW124338   0.808   3.425   3.685 -3.0412  2.2963 -0.0771
 4234SOL    HW224339   0.682   3.347   3.694 -0.7018  3.6523  0.0900
 4235SOL     OW24340   1.194   3.050  15.817 -0.8253 -0.2254 -0.1617
 4235SOL    HW124341   1.123   3.114  15.816  0.0097  0.7290  0.8353
 4235SOL    HW224342   1.233   3.076  15.733 -0.1379  1.1656  0.5848
 4236SOL     OW24343   4.576   4.735   3.279  0.6269  0.2377 -0.0963
 4236SOL    HW124344   4.535   4.667   3.334 -0.2593  0.3960 -0.5561
 4236SOL    HW224345   4.667   4.706   3.274  1.0019  1.5638 -0.8307
 4237SOL     OW24346   0.946   0.677   6.389  0.2002  0.2614  0.1431
 4237SOL    HW124347   0.914   0.712   6.306  0.4627 -2.8065 -1.2434
 4237SOL    HW224348   1.031   0.645   6.358  0.3425  1.6388 -0.8909
 4238SOL     OW24349   1.080   4.501   9.390 -0.3349  0.2142  0.9940
 4238SOL    HW124350   1.139   4.463   9.325  0.1069  1.8245  0.4635
 4238SOL    HW224351   1.136   4.565   9.434 -2.4938  1.3740  2.0899
 4239SOL     OW24352   2.477   3.706   6.563 -0.3238 -0.0381  0.2335
 4239SOL    HW124353   2.452   3.667   6.647 -0.7624  2.1662  1.1364
 4239SOL    HW224354   2.439   3.633   6.514  0.7059 -1.8151  2.0715
 4240SOL     OW24355   0.365   2.678   1.021  0.4794 -0.2442  0.4375
 4240SOL    HW124356   0.273   2.663   1.001  1.0598 -3.1157 -0.0337
 4240SOL    HW224357   0.392   2.746   0.959  0.2213 -2.4798 -2.0928
 4241SOL     OW24358   3.491   0.808  11.513 -0.4501  0.2917  0.0844
 4241SOL    HW124359   3.583   0.796  11.533 -0.0745 -2.6568 -3.5913
 4241SOL    HW224360   3.500   0.838  11.422  0.1619  1.1670  0.4295
 4242SOL     OW24361   0.176   3.563   5.747 -0.4456  0.2331  0.1734
 4242SOL    HW124362   0.267   3.569   5.777  0.2250  1.2538 -2.0633
 4242SOL    HW224363   0.149   3.471   5.750  1.4633 -0.3452 -0.4372
 4243SOL     OW24364   0.088   2.796   2.138  0.0704  0.0088  0.2549
 4243SOL    HW124365   0.174   2.790   2.180  0.1540 -1.1118 -0.0781
 4243SOL    HW224366   0.056   2.707   2.125 -0.8406  0.4298 -0.3824
 4244SOL     OW24367   1.192   0.697   3.056  0.0364  0.6334  0.0314
 4244SOL    HW124368   1.163   0.788   3.052  0.2564  0.6713 -0.7811
 4244SOL    HW224369   1.204   0.679   2.963 -3.1339  0.5266 -0.3339
 4245SOL     OW24370   1.966   0.416   8.816 -0.5553 -0.1056 -0.0971
 4245SOL    HW124371   1.986   0.323   8.809  0.3459  0.0079  1.0471
 4245SOL    HW224372   2.003   0.436   8.902 -0.4797 -0.3100 -0.0816
 4246SOL     OW24373   3.086   4.250  12.806 -0.1003 -0.2331 -0.0665
 4246SOL    HW124374   3.104   4.340  12.833  1.0608 -0.5650  0.2690
 4246SOL    HW224375   3.167   4.243  12.756 -0.4480  0.2428 -0.6991
 4247SOL     OW24376   4.077   1.583   5.381 -0.1393 -0.3187 -0.3659
 4247SOL    HW124377   4.154   1.625   5.342  0.9829 -0.0119  2.1658
 4247SOL    HW224378   4.054   1.512   5.321  0.3659  1.3974 -2.6186
 4248SOL     OW24379   2.094   3.425   2.775  0.1189  0.0414 -0.8055
 4248SOL    HW124380   2.015   3.445   2.724 -0.5623 -2.1701 -0.6126
 4248SOL    HW224381   2.149   3.502   2.760  1.7921 -0.5360  2.5134
 4249SOL     OW24382   3.453   4.700   9.854  0.2226 -0.2215 -0.3182
 4249SOL    HW124383   3.496   4.615   9.865 -2.2745 -1.5243 -0.5705
 4249SOL    HW224384   3.510   4.730   9.783  2.2327  1.0713  1.8412
 4250SOL     OW24385   1.910   4.526   5.436  0.3334 -0.0460  0.0926
 4250SOL    HW124386   1.972   4.466   5.394  2.0260  1.2650  0.6821
 4250SOL    HW224387   1.951   4.545   5.521  2.4312  0.7571 -1.0992
 4251SOL     OW24388   1.285   0.482   2.621  0.2700 -0.3103  0.6272
 4251SOL    HW124389   1.348   0.478   2.692 -0.9886 -2.0613  1.6459
 4251SOL    HW224390   1.340   0.437   2.556 -1.0183  1.6235 -1.8112
 4252SOL     OW24391   3.401   2.527   6.059 -0.5669  0.1489 -0.0047
 4252SOL    HW124392   3.446   2.525   6.144  0.1911 -1.1947 -0.4325
 4252SOL    HW224393   3.331   2.583   6.092 -0.6653  1.4690 -2.5013
 4253SOL     OW24394   3.002   3.223   7.658 -0.0502  0.0396 -0.4927
 4253SOL    HW124395   2.913   3.258   7.647 -0.1096 -0.3018 -1.1104
 4253SOL    HW224396   3.049   3.306   7.657 -0.9167  0.5153 -1.3105
 4254SOL     OW24397   3.651   2.011   6.315 -0.1809 -0.2688 -0.4249
 4254SOL    HW124398   3.590   2.080   6.290  0.6998  0.3642 -0.8169
 4254SOL    HW224399   3.584   1.952   6.352 -0.0419  0.1959  0.5691
 4255SOL     OW24400   1.050   1.752   4.111 -0.3624  0.1931  0.2001
 4255SOL    HW124401   1.003   1.676   4.075 -1.5275  1.7060 -1.4411
 4255SOL    HW224402   1.040   1.746   4.206  0.6676 -0.9695  0.2402
 4256SOL     OW24403   2.112   2.524  17.523 -0.5367 -0.8467  0.9233
 4256SOL    HW124404   2.059   2.596  17.556  1.1029  1.2666 -1.0910
 4256SOL    HW224405   2.149   2.482  17.601 -2.1432 -0.3192  1.9542
 4257SOL     OW24406   1.743   3.916   6.151 -0.3434 -0.3709 -0.9306
 4257SOL    HW124407   1.677   3.930   6.219  1.0680  1.1549  0.1238
 4257SOL    HW224408   1.820   3.896   6.204  0.7038 -1.1490 -2.7602
 4258SOL     OW24409   2.702   3.269   3.634 -0.2811 -0.3066  0.2165
 4258SOL    HW124410   2.658   3.316   3.705  2.4092  1.9204  0.4272
 4258SOL    HW224411   2.749   3.215   3.697  0.2116 -0.4838 -0.3053
 4259SOL     OW24412   1.452   4.170   5.416 -0.0705  0.1836 -0.2442
 4259SOL    HW124413   1.499   4.252   5.400  1.3284 -0.7278 -0.8768
 4259SOL    HW224414   1.490   4.119   5.345 -0.8818  0.5355 -0.9318
 4260SOL     OW24415   0.308   2.578   5.801 -0.1378 -0.8799 -0.2358
 4260SOL    HW124416   0.378   2.513   5.799  0.9283  0.2912 -0.6787
 4260SOL    HW224417   0.238   2.520   5.771 -0.2712 -1.7768  1.7994
 4261SOL     OW24418   1.141   1.520  15.504 -0.5094  0.2181 -0.6804
 4261SOL    HW124419   1.125   1.501  15.596  0.2861 -1.1480 -0.8306
 4261SOL    HW224420   1.202   1.593  15.517  0.1812 -0.0460 -2.4401
 4262SOL     OW24421   3.526   1.510  13.174 -0.9417 -0.2481  0.1208
 4262SOL    HW124422   3.511   1.599  13.143 -1.1413 -0.8297 -1.4454
 4262SOL    HW224423   3.435   1.497  13.200 -1.2864  1.4143 -0.2107
 4263SOL     OW24424   3.643   0.172   8.957  0.5075 -0.2167  0.7054
 4263SOL    HW124425   3.612   0.101   9.013 -0.4375 -0.4023 -0.0562
 4263SOL    HW224426   3.643   0.253   9.009 -1.1696  0.2228  0.0287
 4264SOL     OW24427   1.787   2.725  10.530 -0.2459 -0.1906  0.0233
 4264SOL    HW124428   1.858   2.748  10.470 -0.4584 -0.4595 -0.3294
 4264SOL    HW224429   1.797   2.795  10.595 -0.1864 -1.4870  1.4309
 4265SOL     OW24430   2.712   0.483   1.031 -0.0557 -0.0575  0.0883
 4265SOL    HW124431   2.627   0.441   1.016  1.3397 -2.3152 -1.2892
 4265SOL    HW224432   2.700   0.505   1.123  1.5744 -2.6014  0.8886
 4266SOL     OW24433   1.661   3.873  10.716 -0.0831 -0.4068  0.5942
 4266SOL    HW124434   1.607   3.840  10.788  2.8228  1.7988  3.8063
 4266SOL    HW224435   1.662   3.967  10.732 -0.2478  0.0586 -2.1113
 4267SOL     OW24436   1.944   1.846   0.935  0.1936  0.0942  0.8698
 4267SOL    HW124437   1.995   1.925   0.915 -0.7959  0.6276  0.4293
 4267SOL    HW224438   2.007   1.788   0.978  1.9563 -0.7077 -2.7587
 4268SOL     OW24439   3.092   2.429   5.974  0.3913  0.1975 -0.2969
 4268SOL    HW124440   3.062   2.346   5.936 -0.2777  0.0799  0.4866
 4268SOL    HW224441   3.009   2.445   6.019  0.2909  1.4687 -0.9347
 4269SOL     OW24442   3.694   0.440   9.079 -0.3380 -0.0502  0.2911
 4269SOL    HW124443   3.622   0.459   9.018 -0.2672 -0.5147  0.0628
 4269SOL    HW224444   3.663   0.485   9.157 -2.8475  0.1304 -0.8035
 4270SOL     OW24445   3.978   2.159   3.758 -0.0949  0.3984 -0.2415
 4270SOL    HW124446   4.004   2.207   3.837 -1.3652  1.7660 -0.6464
 4270SOL    HW224447   3.891   2.134   3.786  0.3162 -0.1669  0.5110
 4271SOL     OW24448   1.838   3.154   5.147 -0.0376  0.4839 -0.0396
 4271SOL    HW124449   1.772   3.131   5.081 -0.3911 -0.0559  0.4973
 4271SOL    HW224450   1.893   3.076   5.154  1.4779  1.4931 -0.8517
 4272SOL     OW24451   2.581   3.084   2.105  0.0422 -0.1510 -0.0367
 4272SOL    HW124452   2.616   3.155   2.160 -1.0274  0.0724  0.3691
 4272SOL    HW224453   2.515   3.135   2.057  0.9271  0.7421 -0.3119
 4273SOL     OW24454   3.315   2.598   4.784  0.4385  0.7777 -0.1744
 4273SOL    HW124455   3.410   2.607   4.782  0.5740 -0.0770  2.6026
 4273SOL    HW224456   3.295   2.690   4.769 -0.9797  0.6009  0.5511
 4274SOL     OW24457   3.244   1.855   0.098  0.2721  0.0829 -0.4096
 4274SOL    HW124458   3.224   1.949   0.101 -0.2131  0.0840 -3.3028
 4274SOL    HW224459   3.261   1.830   0.189  0.7859  2.3724  0.1331
 4275SOL     OW24460   4.072   0.594  14.424 -0.3254 -0.6190 -0.2956
 4275SOL    HW124461   4.122   0.660  14.377  0.1703  0.9714  2.4486
 4275SOL    HW224462   4.144   0.536  14.450  0.7058  1.8292  2.3838
 4276SOL     OW24463   2.850   3.827   1.384  0.0350 -0.6498 -0.3986
 4276SOL    HW124464   2.885   3.913   1.363  1.4474 -1.5219 -1.6019
 4276SOL    HW224465   2.816   3.832   1.473  1.1466 -1.9857  0.1006
 4277SOL     OW24466   3.135   0.458   3.304 -0.0784 -0.1390  0.4484
 4277SOL    HW124467   3.094   0.542   3.326 -2.7570 -0.9779 -1.3529
 4277SOL    HW224468   3.170   0.480   3.218 -0.3726 -0.2540  0.3012
 4278SOL     OW24469   3.410   1.424   2.745 -0.3082 -0.0039 -0.5403
 4278SOL    HW124470   3.451   1.476   2.815 -1.0273 -0.1260 -0.0304
 4278SOL    HW224471   3.322   1.424   2.782  0.8631 -0.6403  2.2339
 4279SOL     OW24472   2.501   1.631   1.608 -0.5855  0.2511 -0.3308
 4279SOL    HW124473   2.584   1.667   1.638 -0.0375 -1.5531  0.3525
 4279SOL    HW224474   2.456   1.608   1.689  2.9103 -0.7635  1.3091
 4280SOL     OW24475   3.294   1.601   1.765  0.3706  0.3037  0.3059
 4280SOL    HW124476   3.229   1.671   1.773  0.2892 -0.0077  2.5236
 4280SOL    HW224477   3.309   1.600   1.671 -1.7887 -1.0801 -0.0113
 4281SOL     OW24478   4.377   2.567   2.810  0.0000  0.1501  0.4412
 4281SOL    HW124479   4.421   2.597   2.890  0.3115  0.3807  0.1813
 4281SOL    HW224480   4.414   2.480   2.802  1.7199  0.9566 -0.3266
 4282SOL     OW24481   1.242   3.975  13.650 -0.0599  0.9253  0.1063
 4282SOL    HW124482   1.337   3.989  13.649  0.4831 -2.5419  1.2864
 4282SOL    HW224483   1.233   3.880  13.658 -0.5103  0.8322 -1.5287
 4283SOL     OW24484   3.392   1.047  12.161 -0.0210 -0.5210  0.3260
 4283SOL    HW124485   3.314   0.995  12.182 -0.0570  0.7529  3.2794
 4283SOL    HW224486   3.348   1.127  12.133  1.2101  0.1155  0.2422
 4284SOL     OW24487   1.805   4.695   9.938  0.2691 -0.6225 -0.3735
 4284SOL    HW124488   1.871   0.023   9.958  1.3581 -1.3990 -1.3486
 4284SOL    HW224489   1.795   4.659  10.026 -0.6439 -0.5419 -0.4470
 4285SOL     OW24490   1.344   4.220   7.363  0.6498 -0.2417 -0.1514
 4285SOL    HW124491   1.292   4.143   7.385  3.1157 -2.0246 -0.6881
 4285SOL    HW224492   1.431   4.196   7.396 -0.0559 -2.8561 -0.2118
 4286SOL     OW24493   4.308   4.339   4.424 -0.1450 -0.4931  0.3786
 4286SOL    HW124494   4.265   4.400   4.484 -0.4273 -0.0882 -0.2243
 4286SOL    HW224495   4.345   4.406   4.366  0.6438 -0.8144  0.5177
 4287SOL     OW24496   2.441   0.613   8.186  0.0122  0.3155  0.4630
 4287SOL    HW124497   2.475   0.669   8.117 -0.4509  1.1336  0.9021
 4287SOL    HW224498   2.478   0.659   8.262  1.8415 -0.5466  0.1057
 4288SOL     OW24499   2.657   2.532  16.561  0.5879 -0.3665 -0.6304
 4288SOL    HW124500   2.738   2.582  16.547  0.1722  0.1839 -1.0582
 4288SOL    HW224501   2.593   2.577  16.507  2.3333  1.1495 -1.4309
 4289SOL     OW24502   0.088   0.225   6.044  0.4982 -0.1629  0.0636
 4289SOL    HW124503   0.175   0.192   6.024  0.7028  0.5048 -0.1535
 4289SOL    HW224504   0.099   0.291   6.113  0.1053 -0.9373  0.8660
 4290SOL     OW24505   2.305   0.050   2.675 -0.2873 -0.0880  0.1848
 4290SOL    HW124506   2.292   0.091   2.760 -0.5557 -1.5198  0.8273
 4290SOL    HW224507   2.389   0.084   2.642 -0.4757  0.7625  0.5727
 4291SOL     OW24508   2.673   0.107   7.547 -0.5052  0.2422 -0.1163
 4291SOL    HW124509   2.748   0.111   7.606 -2.3036  0.2950  2.1735
 4291SOL    HW224510   2.643   0.198   7.551 -3.2348 -0.7642  2.2770
 4292SOL     OW24511   4.606   1.780   1.869  0.0872  0.4014 -0.4414
 4292SOL    HW124512   4.623   1.806   1.778 -0.6284 -2.9093 -1.5436
 4292SOL    HW224513   4.525   1.730   1.863 -1.6975  3.4153 -1.3005
 4293SOL     OW24514   1.052   1.077   6.342  0.2093  0.2859  0.2686
 4293SOL    HW124515   1.019   1.121   6.264  0.2072 -0.2342 -0.0248
 4293SOL    HW224516   0.964   1.072   6.379  0.7174 -0.6643  1.3773
 4294SOL     OW24517   1.770   2.534   4.020 -0.2000  0.1366  0.1773
 4294SOL    HW124518   1.837   2.514   4.085  0.0621 -0.2804 -0.2212
 4294SOL    HW224519   1.760   2.627   4.038  0.6043 -0.2399  2.5822
 4295SOL     OW24520   2.312   0.763   9.139 -0.4089  0.2426  0.0515
 4295SOL    HW124521   2.273   0.847   9.161  0.0866  0.5022 -0.0861
 4295SOL    HW224522   2.240   0.722   9.091 -0.9594  1.3076 -0.0261
 4296SOL     OW24523   3.997   2.470   5.938  0.4698  0.2087 -0.1789
 4296SOL    HW124524   4.063   2.481   5.870 -0.3486 -0.5683 -1.0908
 4296SOL    HW224525   3.992   2.374   5.934 -1.1358  0.2182  1.3943
 4297SOL     OW24526   0.972   4.399   8.939  0.4837  0.1104  0.1267
 4297SOL    HW124527   0.911   4.470   8.958 -1.9551 -2.4263  1.8418
 4297SOL    HW224528   1.032   4.453   8.888 -0.2009  2.2044  1.5340
 4298SOL     OW24529   3.429   1.700   5.662  0.5341 -0.0088 -0.1815
 4298SOL    HW124530   3.369   1.670   5.593 -0.8149 -1.3135  1.5601
 4298SOL    HW224531   3.395   1.788   5.677  1.4325  0.2843  0.0895
 4299SOL     OW24532   2.801   3.349   5.628 -0.3361  0.2668 -0.0625
 4299SOL    HW124533   2.776   3.346   5.536 -2.2214 -0.6959  0.4991
 4299SOL    HW224534   2.853   3.269   5.640 -0.2177  0.3224 -0.2047
 4300SOL     OW24535   1.917   1.160   8.980  0.3268 -0.0512  0.2375
 4300SOL    HW124536   1.939   1.252   8.968  1.2437 -0.3128 -0.0274
 4300SOL    HW224537   1.932   1.128   8.892  1.9726 -0.0627  0.5338
 4301SOL     OW24538   0.585   4.003   6.243  0.2577 -0.3051 -0.0144
 4301SOL    HW124539   0.619   4.005   6.153  1.3152 -0.4291  0.3847
 4301SOL    HW224540   0.497   3.976   6.220 -0.0306 -0.2138  0.9871
 4302SOL     OW24541   2.935   3.619   1.719 -0.5094  0.2515  0.0645
 4302SOL    HW124542   2.999   3.559   1.757 -1.3538 -0.4451  0.3861
 4302SOL    HW224543   2.938   3.696   1.776 -0.4104 -0.3864  0.9128
 4303SOL     OW24544   2.684   1.243   2.260 -0.1567  0.2714  0.0837
 4303SOL    HW124545   2.688   1.278   2.349  0.2928 -1.5628  0.7920
 4303SOL    HW224546   2.641   1.159   2.276 -1.4513  1.3409  2.2464
 4304SOL     OW24547   2.336   3.116  12.416  0.3406  0.1148  0.2915
 4304SOL    HW124548   2.317   3.179  12.485  0.9877  1.6914 -0.9684
 4304SOL    HW224549   2.432   3.113  12.417  0.4941  4.6695 -0.6936
 4305SOL     OW24550   2.773   1.611   5.772  0.0261 -0.2103 -0.4117
 4305SOL    HW124551   2.746   1.520   5.763 -1.0340  0.0141  0.6003
 4305SOL    HW224552   2.743   1.641   5.687 -1.0152 -0.7205 -0.2263
 4306SOL     OW24553   3.741   0.692   4.612 -0.2831 -0.2086 -0.0718
 4306SOL    HW124554   3.829   0.721   4.636  0.0103 -0.4901 -0.8185
 4306SOL    HW224555   3.729   0.727   4.524  3.2189  0.1257 -0.4174
 4307SOL     OW24556   1.716   3.864   6.517 -0.7581 -0.3253  0.0876
 4307SOL    HW124557   1.641   3.891   6.463  0.4928 -1.3438 -2.1847
 4307SOL    HW224558   1.779   3.846   6.446  0.3908 -0.4959  1.1506
 4308SOL     OW24559   3.131   1.772   5.909  0.8582  0.0094  0.4699
 4308SOL    HW124560   3.046   1.813   5.921 -0.8216 -3.2906 -0.0706
 4308SOL    HW224561   3.103   1.697   5.856 -1.1719  1.8384 -1.0683
 4309SOL     OW24562   4.377   3.541   3.311  0.0574  0.0580 -0.2013
 4309SOL    HW124563   4.403   3.484   3.239  0.4446 -0.7532  0.5796
 4309SOL    HW224564   4.285   3.551   3.286  0.2546  1.3608 -0.3692
 4310SOL     OW24565   0.707   1.527   7.434  0.0614 -0.1306 -0.2941
 4310SOL    HW124566   0.693   1.434   7.451  0.8202  0.1077  1.5605
 4310SOL    HW224567   0.714   1.564   7.522 -3.2558 -0.9401  0.2962
 4311SOL     OW24568   0.370   2.400   1.108  0.3467  0.4410  0.3788
 4311SOL    HW124569   0.400   2.490   1.098  0.7287  0.4729  1.8281
 4311SOL    HW224570   0.405   2.355   1.031 -3.1202  1.2883 -1.6604
 4312SOL     OW24571   0.226   1.791  14.374  0.4979  0.0311 -0.1581
 4312SOL    HW124572   0.305   1.779  14.320  0.2750 -0.2402 -0.4219
 4312SOL    HW224573   0.263   1.789  14.463 -0.2653 -1.3469  0.1209
 4313SOL     OW24574   3.982   4.520  14.057 -0.1938  0.3561  0.4448
 4313SOL    HW124575   3.959   4.596  14.003 -1.2824  0.1070  0.5558
 4313SOL    HW224576   3.901   4.523  14.107 -0.3189 -2.3054  0.3791
 4314SOL     OW24577   4.016   3.547   9.976 -0.5759 -0.5165 -0.1744
 4314SOL    HW124578   4.026   3.511   9.888  0.6863 -2.4113  0.7483
 4314SOL    HW224579   3.922   3.532   9.988 -0.9790  0.7335 -1.6782
 4315SOL     OW24580   1.602   1.358   2.418  0.1006 -0.3452  0.4258
 4315SOL    HW124581   1.686   1.400   2.403 -1.6790  2.7957 -0.6572
 4315SOL    HW224582   1.567   1.404   2.494  2.8325  0.8938  0.9304
 4316SOL     OW24583   1.342   0.102   5.629  0.2687 -0.2835  0.0867
 4316SOL    HW124584   1.374   0.012   5.631  0.9417 -0.0667 -0.9843
 4316SOL    HW224585   1.247   0.100   5.616  0.4979  0.6278 -1.7623
 4317SOL     OW24586   4.427   4.047   3.764  0.1189  0.0656  0.1713
 4317SOL    HW124587   4.489   4.036   3.836  0.1621 -2.0441 -0.1934
 4317SOL    HW224588   4.416   4.141   3.750  3.8313  0.3936 -0.3648
 4318SOL     OW24589   0.185   2.460   3.203  0.4902  0.8660  0.4440
 4318SOL    HW124590   0.090   2.467   3.199  0.3753 -1.0949 -0.5297
 4318SOL    HW224591   0.202   2.552   3.185 -1.5066  1.3637  1.1387
 4319SOL     OW24592   1.546   3.522   4.983 -0.7024  0.0974 -0.1663
 4319SOL    HW124593   1.481   3.539   4.915 -1.8575 -0.5325  0.7767
 4319SOL    HW224594   1.507   3.447   5.029  1.7652 -1.8731 -1.2836
 4320SOL     OW24595   3.341   3.495   1.320 -0.1367  0.2079  0.1265
 4320SOL    HW124596   3.291   3.500   1.239  1.2007 -0.3081 -0.7246
 4320SOL    HW224597   3.268   3.513   1.380 -0.5901  0.2824 -0.4535
 4321SOL     OW24598   1.996   1.292   1.256  0.4130  0.2291 -0.2911
 4321SOL    HW124599   1.994   1.272   1.163  2.8281  1.5320 -0.6134
 4321SOL    HW224600   1.962   1.381   1.257  3.1842  1.2706 -0.0357
 4322SOL     OW24601   1.275   0.132   7.793 -1.0005  0.3474 -0.1695
 4322SOL    HW124602   1.231   0.075   7.730 -0.3497 -0.1506 -0.1753
 4322SOL    HW224603   1.331   0.070   7.841 -1.8587  0.1946  0.6226
 4323SOL     OW24604   4.623   0.858   7.494  0.7009 -0.0506  0.1725
 4323SOL    HW124605   4.699   0.854   7.436  1.4179 -2.1799  1.2877
 4323SOL    HW224606   4.560   0.850   7.423 -0.0399  0.5805  0.7608
 4324SOL     OW24607   2.262   3.158   9.750 -0.0490 -0.0278 -0.3707
 4324SOL    HW124608   2.223   3.134   9.665  2.1966 -1.1317 -1.0793
 4324SOL    HW224609   2.342   3.107   9.756  0.5807  0.7609 -2.0985
 4325SOL     OW24610   2.039   2.733   0.425  0.6750 -0.0264 -0.1800
 4325SOL    HW124611   2.118   2.779   0.453  0.7446 -0.6106  0.5658
 4325SOL    HW224612   2.047   2.729   0.329 -2.3606  1.1774 -0.4979
 4326SOL     OW24613   3.772   0.673   2.594  0.7291 -0.4098  0.4767
 4326SOL    HW124614   3.834   0.643   2.527  0.9932  1.1703  0.0122
 4326SOL    HW224615   3.773   0.768   2.584 -0.1378 -0.4276  0.1915
 4327SOL     OW24616   1.109   2.583   4.023 -0.5164  0.6979  0.3492
 4327SOL    HW124617   1.034   2.607   4.078 -0.7895 -1.3377  0.8677
 4327SOL    HW224618   1.064   2.517   3.971  1.6768 -0.8984  0.4520
 4328SOL     OW24619   3.823   1.153   7.875  0.0750  0.8471  0.5018
 4328SOL    HW124620   3.738   1.196   7.885 -0.1480  0.6655 -0.5892
 4328SOL    HW224621   3.804   1.064   7.902 -1.3671  1.6723  2.1887
 4329SOL     OW24622   3.679   3.271   2.432 -0.5376  0.3960  0.0024
 4329SOL    HW124623   3.684   3.357   2.473  0.0872 -0.0350  0.8368
 4329SOL    HW224624   3.771   3.246   2.436 -0.2463  1.6482  0.8678
 4330SOL     OW24625   4.722   1.925   2.260 -0.5991 -0.0894 -0.0999
 4330SOL    HW124626   4.634   1.894   2.239  0.4502 -0.8140 -3.5020
 4330SOL    HW224627   0.040   1.891   2.190 -0.7859  2.6144 -1.5587
 4331SOL     OW24628   2.626   3.985   6.078 -0.5213 -0.8816 -0.7115
 4331SOL    HW124629   2.703   4.042   6.086 -1.6919  0.6860 -0.5799
 4331SOL    HW224630   2.669   3.903   6.100  1.0652  0.3323  0.6686
 4332SOL     OW24631   0.422   2.512   6.225 -0.4126 -0.1494  0.0294
 4332SOL    HW124632   0.511   2.507   6.191 -1.3997  1.4484 -2.8055
 4332SOL    HW224633   0.392   2.569   6.154  2.3968  0.5057 -0.6550
 4333SOL     OW24634   0.642   0.471  12.613  0.2673 -0.8114 -0.3279
 4333SOL    HW124635   0.706   0.492  12.545  3.0632 -1.9528  1.9412
 4333SOL    HW224636   0.573   0.526  12.576 -0.4490 -0.6122  1.2950
 4334SOL     OW24637   0.447   3.423   5.811 -0.1956 -0.0922  0.5942
 4334SOL    HW124638   0.483   3.348   5.763 -1.3742  0.5006 -1.2378
 4334SOL    HW224639   0.431   3.375   5.892 -1.7408 -1.2634 -0.4070
 4335SOL     OW24640   2.980   3.851   1.842 -0.0995  0.2868 -0.2913
 4335SOL    HW124641   3.061   3.850   1.893 -1.1699 -0.1354  1.3988
 4335SOL    HW224642   2.970   3.942   1.816 -0.7525 -0.1873 -1.7146
 4336SOL     OW24643   4.643   4.079   9.021 -0.1165  0.1034  0.7072
 4336SOL    HW124644   4.554   4.045   9.011  0.1279 -0.5404  0.6747
 4336SOL    HW224645   4.652   4.067   9.116 -1.3839  2.6506  1.1441
 4337SOL     OW24646   4.313   4.595   3.308  0.3921 -0.1749  0.0260
 4337SOL    HW124647   4.326   4.558   3.221  1.7194 -1.6405  0.8401
 4337SOL    HW224648   4.377   4.542   3.356  0.9945 -0.3917 -1.0263
 4338SOL     OW24649   2.733   2.034   6.155 -0.0104  0.6594 -0.1666
 4338SOL    HW124650   2.810   2.032   6.212  0.1652 -2.8084 -0.5595
 4338SOL    HW224651   2.747   1.973   6.083 -1.6968 -0.2614  0.2866
 4339SOL     OW24652   1.030   0.557   8.213 -0.5062  0.0887 -0.4755
 4339SOL    HW124653   1.085   0.494   8.167 -1.9249 -0.7035 -1.1154
 4339SOL    HW224654   1.092   0.618   8.252 -1.2306  0.2238  0.4675
 4340SOL     OW24655   3.147   2.291   4.283  0.0731 -0.5566  0.0322
 4340SOL    HW124656   3.225   2.342   4.303  1.4065 -1.7438 -2.0197
 4340SOL    HW224657   3.138   2.316   4.191 -0.2232 -0.4800  0.0830
 4341SOL     OW24658   4.341   2.773   6.362 -0.0462  0.4825 -0.3380
 4341SOL    HW124659   4.415   2.767   6.423 -0.3882 -2.7137 -0.2177
 4341SOL    HW224660   4.388   2.761   6.279  3.1716 -0.2205  1.5963
 4342SOL     OW24661   2.328   0.518   3.287  0.6223 -0.1160 -0.3172
 4342SOL    HW124662   2.320   0.609   3.261  1.7146  0.8085  2.4720
 4342SOL    HW224663   2.247   0.501   3.335  0.7599  2.7743  0.9437
 4343SOL     OW24664   1.937   1.085   1.407  0.9408  0.3752 -0.0735
 4343SOL    HW124665   1.899   1.038   1.332  0.3510  1.1653 -0.2709
 4343SOL    HW224666   1.968   1.158   1.354  0.9455 -0.1645 -0.8208
 4344SOL     OW24667   0.144   3.486  13.096 -0.0736 -0.1540 -0.2778
 4344SOL    HW124668   0.178   3.574  13.111  0.9885 -1.0151  2.2788
 4344SOL    HW224669   0.133   3.465  13.188 -1.2534 -0.5225 -0.5019
 4345SOL     OW24670   0.115   3.876   2.259  0.1201 -0.4903 -0.1118
 4345SOL    HW124671   0.126   3.786   2.228  0.2127 -0.7051  0.5330
 4345SOL    HW224672   0.114   3.851   2.352 -0.2400  0.6092  0.1754
 4346SOL     OW24673   2.063   3.813  10.710 -0.1670 -0.2214 -0.1563
 4346SOL    HW124674   2.072   3.720  10.732  2.4439  0.4656  1.6928
 4346SOL    HW224675   2.110   3.803  10.627  2.0496  0.7776  0.9942
 4347SOL     OW24676   2.858   3.128   6.026 -0.4870 -0.4197 -0.6507
 4347SOL    HW124677   2.819   3.161   5.945 -1.1943  2.9467  1.0681
 4347SOL    HW224678   2.846   3.035   6.006 -1.4239  0.1712 -2.7912
 4348SOL     OW24679   3.857   0.953  14.497 -0.2178 -0.0153 -0.0744
 4348SOL    HW124680   3.918   0.989  14.560  0.2099 -0.6584 -0.1161
 4348SOL    HW224681   3.901   0.971  14.414  0.0750  0.3456  0.1664
 4349SOL     OW24682   2.613   4.639   0.412  0.5208 -0.3667  0.2570
 4349SOL    HW124683   2.624   4.712   0.351 -0.5485  0.4219  1.0022
 4349SOL    HW224684   2.650   4.673   0.493  0.8034 -0.0402 -0.0146
 4350SOL     OW24685   3.035   2.347   0.292 -0.0767  0.1384  0.1039
 4350SOL    HW124686   3.014   2.411   0.360  1.1661  1.4835 -0.7755
 4350SOL    HW224687   3.025   2.415   0.226 -1.1664  1.3977  1.5702
 4351SOL     OW24688   0.289   0.955   2.057  0.2392 -0.0045  0.1932
 4351SOL    HW124689   0.341   0.895   2.110 -0.5761 -0.4895  0.4466
 4351SOL    HW224690   0.222   0.968   2.124  1.0870  3.7161  0.3220
 4352SOL     OW24691   4.459   2.324  11.910 -0.7299  0.3004 -0.5229
 4352SOL    HW124692   4.541   2.347  11.953  0.1296 -0.6157 -1.6871
 4352SOL    HW224693   4.447   2.238  11.951 -1.1672 -0.0112 -1.3139
 4353SOL     OW24694   4.414   3.631   5.001 -0.0485 -0.0272  0.0968
 4353SOL    HW124695   4.446   3.655   4.914 -1.0230 -0.0215 -0.2532
 4353SOL    HW224696   4.335   3.685   5.006  0.5005  0.6954  0.8355
 4354SOL     OW24697   2.095   3.088   4.392 -0.4713  0.0248  0.1829
 4354SOL    HW124698   2.180   3.114   4.427 -0.3278  0.6113 -0.6035
 4354SOL    HW224699   2.048   3.161   4.433  0.7467  0.5393  0.6364
 4355SOL     OW24700   0.330   2.832   5.787 -0.3600  0.4793 -0.0752
 4355SOL    HW124701   0.403   2.821   5.727 -0.2725 -0.2203  0.1561
 4355SOL    HW224702   0.309   2.739   5.798  0.7750  0.2990  0.6410
 4356SOL     OW24703   0.253   1.345   7.627 -0.0396 -0.4734 -0.3193
 4356SOL    HW124704   0.313   1.410   7.591  0.3745  1.0084  3.0829
 4356SOL    HW224705   0.192   1.342   7.553  0.6003  0.4306 -0.8918
 4357SOL     OW24706   2.956   3.221  14.837  1.1002  0.1854  0.1707
 4357SOL    HW124707   2.891   3.256  14.777 -0.5914 -1.7190  0.8978
 4357SOL    HW224708   2.957   3.127  14.819 -0.3677  0.2612 -0.2750
 4358SOL     OW24709   0.182   4.610   3.003 -0.6793  0.1664 -0.3352
 4358SOL    HW124710   0.141   4.645   3.082  2.1273  1.1671  0.6892
 4358SOL    HW224711   0.106   4.566   2.965  0.5205 -1.5656 -0.7042
 4359SOL     OW24712   2.513   2.744  16.923 -0.2830 -0.3578  0.0895
 4359SOL    HW124713   2.486   2.824  16.968  1.5052 -0.1979  0.8921
 4359SOL    HW224714   2.451   2.717  16.856  0.0968  0.9882 -0.8043
 4360SOL     OW24715   0.750   3.441  11.986 -0.4491  0.5464 -0.1706
 4360SOL    HW124716   0.817   3.374  12.002 -0.2812  0.2112 -2.1993
 4360SOL    HW224717   0.703   3.437  12.069  1.3185  0.5373  0.8294
 4361SOL     OW24718   2.375   1.709   8.762  0.6563  0.0335 -0.1043
 4361SOL    HW124719   2.284   1.740   8.761  1.3065  1.9885  0.5824
 4361SOL    HW224720   2.426   1.790   8.770 -4.5642  2.9846  2.9116
 4362SOL     OW24721   4.300   1.991   6.134 -0.2334 -0.4798 -0.3902
 4362SOL    HW124722   4.288   2.065   6.194  1.0705  0.4564 -1.2644
 4362SOL    HW224723   4.392   1.997   6.107  0.1240  2.6247  1.5148
 4363SOL     OW24724   0.196   1.315   5.308  0.4311  0.1964  0.6386
 4363SOL    HW124725   0.163   1.367   5.234 -1.9002  1.3850  2.5149
 4363SOL    HW224726   0.250   1.384   5.346 -0.0331  0.4830  0.7813
 4364SOL     OW24727   3.997   3.708   9.501 -0.3002 -0.0422 -0.1366
 4364SOL    HW124728   4.056   3.765   9.550  1.1822 -1.7494  0.0339
 4364SOL    HW224729   4.008   3.745   9.414 -0.7956 -1.3677 -0.7632
 4365SOL     OW24730   4.070   3.694  11.962 -0.0187  0.0982 -0.1336
 4365SOL    HW124731   4.118   3.759  11.912 -3.1835 -1.4435 -5.1686
 4365SOL    HW224732   4.141   3.641  11.999 -0.6166 -1.1087 -0.7148
 4366SOL     OW24733   1.830   0.217   6.029 -0.3973 -0.2424  0.1315
 4366SOL    HW124734   1.758   0.245   5.973  0.5437 -0.5459 -1.2205
 4366SOL    HW224735   1.905   0.264   5.994 -1.1612  1.1762  0.4153
 4367SOL     OW24736   0.006   1.462  11.198 -0.8508  0.5458 -0.5168
 4367SOL    HW124737   4.717   1.492  11.112  1.1943 -0.1743 -1.3966
 4367SOL    HW224738   0.090   1.508  11.196 -1.5687  1.7994 -2.0464
 4368SOL     OW24739   1.926   3.843   8.168  0.2828  0.4274  0.0774
 4368SOL    HW124740   2.004   3.886   8.133  0.6067  0.3708  0.7421
 4368SOL    HW224741   1.957   3.838   8.258 -0.9448  4.0302  0.6676
 4369SOL     OW24742   0.641   3.869   3.771  0.2092 -0.0052 -0.1295
 4369SOL    HW124743   0.582   3.876   3.696 -1.1361  0.1000  0.9395
 4369SOL    HW224744   0.596   3.809   3.830 -0.8297  1.8294  0.9511
 4370SOL     OW24745   3.847   2.773  17.224  0.7814 -0.2966  0.9594
 4370SOL    HW124746   3.844   2.701  17.287  1.0655 -0.9906  0.1886
 4370SOL    HW224747   3.927   2.758  17.173  1.1380  0.1723  1.3820
 4371SOL     OW24748   3.970   1.037  14.258 -0.1719  0.5548  0.8001
 4371SOL    HW124749   4.012   1.012  14.175 -0.1716 -0.4757  1.1143
 4371SOL    HW224750   3.883   1.061  14.227  0.5768  0.7707 -1.1810
 4372SOL     OW24751   2.771   4.620  16.275 -0.4836  0.6364  0.7140
 4372SOL    HW124752   2.846   4.654  16.226  0.5936 -0.1027  1.8350
 4372SOL    HW224753   2.707   4.592  16.210 -0.8353  0.8219  0.9841
 4373SOL     OW24754   1.198   0.909   9.121  0.2292  0.2203  0.7836
 4373SOL    HW124755   1.238   0.873   9.200 -0.6906 -0.0863  1.1129
 4373SOL    HW224756   1.124   0.848   9.111  0.7668  0.0047 -1.8576
 4374SOL     OW24757   3.475   3.475   8.302  0.1708  0.4734 -0.6701
 4374SOL    HW124758   3.570   3.488   8.303  0.3424 -0.9175  0.8088
 4374SOL    HW224759   3.442   3.533   8.233  0.8750 -1.1636 -2.3824
 4375SOL     OW24760   2.113   3.636  11.825  0.0190 -0.7795  0.0461
 4375SOL    HW124761   2.067   3.559  11.792 -1.0500  0.8529 -2.3054
 4375SOL    HW224762   2.080   3.654  11.913  0.3321  2.0489 -0.4133
 4376SOL     OW24763   4.457   1.436   5.455  0.8986 -0.7792 -0.0663
 4376SOL    HW124764   4.412   1.405   5.533  1.1140 -0.0013  0.3690
 4376SOL    HW224765   4.419   1.379   5.388  0.2351 -1.3073  0.7681
 4377SOL     OW24766   4.304   0.630  12.992  0.0123  0.0633 -0.3239
 4377SOL    HW124767   4.399   0.624  12.984  0.1706  0.8393  0.9741
 4377SOL    HW224768   4.280   0.537  12.992  0.3353 -0.0177  0.7938
 4378SOL     OW24769   1.461   2.673   6.003  1.1050 -0.0735  0.2064
 4378SOL    HW124770   1.545   2.640   6.037  1.9420  1.1491 -0.6631
 4378SOL    HW224771   1.507   2.727   5.939 -0.2249 -0.8356 -1.3854
 4379SOL     OW24772   0.381   1.200  10.460  0.0878  0.1281  0.5623
 4379SOL    HW124773   0.402   1.219  10.552 -0.6141  1.0073  0.5444
 4379SOL    HW224774   0.403   1.283  10.417 -1.9108  1.1748  1.5329
 4380SOL     OW24775   0.455   0.966   4.838 -0.5159  0.2567 -0.3517
 4380SOL    HW124776   0.367   0.938   4.864 -0.1387  0.1985  0.8691
 4380SOL    HW224777   0.453   0.957   4.743 -0.3731  1.7420 -0.4873
 4381SOL     OW24778   0.523   1.476   7.181 -0.1586  0.2890 -0.3665
 4381SOL    HW124779   0.492   1.498   7.093 -0.5116 -2.5371 -0.9678
 4381SOL    HW224780   0.472   1.535   7.236  0.7477  0.3857  0.3551
 4382SOL     OW24781   2.061   4.127   9.523 -0.3912 -0.4090 -0.7395
 4382SOL    HW124782   2.017   4.211   9.531  0.6053 -0.1823  2.2481
 4382SOL    HW224783   1.992   4.069   9.556 -0.6333 -1.3701 -2.8861
 4383SOL     OW24784   1.236   3.894  17.301  0.4257 -0.6172  0.3640
 4383SOL    HW124785   1.301   3.844  17.350  0.5115 -0.0621  0.8148
 4383SOL    HW224786   1.176   3.822  17.281  1.2215 -2.0647  3.2849
 4384SOL     OW24787   1.521   2.629   4.435 -0.0890 -0.1354 -0.1836
 4384SOL    HW124788   1.597   2.587   4.395  1.2803  0.9276  1.2863
 4384SOL    HW224789   1.475   2.554   4.474  0.9064 -0.0802  1.0817
 4385SOL     OW24790   2.775   1.927   8.207 -0.0891 -0.1159 -0.8443
 4385SOL    HW124791   2.813   1.843   8.234 -0.4259 -0.1147 -0.3576
 4385SOL    HW224792   2.721   1.894   8.135 -0.2762  0.4032 -0.9411
 4386SOL     OW24793   0.977   1.255   7.172 -0.1192  0.7541 -0.2568
 4386SOL    HW124794   1.012   1.196   7.240  1.3966 -0.9747 -2.5317
 4386SOL    HW224795   0.884   1.247   7.190  0.4789 -0.6065  2.2377
 4387SOL     OW24796   4.446   4.306   3.635 -0.3278 -0.4009 -0.7121
 4387SOL    HW124797   4.477   4.383   3.587  0.4205 -0.2133  0.0910
 4387SOL    HW224798   4.354   4.319   3.610 -0.2845 -0.2113 -0.7687
 4388SOL     OW24799   1.690   1.210   8.176 -0.1513  0.1634 -0.1474
 4388SOL    HW124800   1.694   1.218   8.271  1.1683 -0.5590 -0.1430
 4388SOL    HW224801   1.600   1.237   8.156  0.0174 -0.5905 -1.9445
 4389SOL     OW24802   0.037   2.136   4.488 -0.1243  0.5776  0.2117
 4389SOL    HW124803   4.731   2.153   4.405  0.2329  1.0552  0.1159
 4389SOL    HW224804   4.725   2.203   4.535  0.2569  0.2016  1.1572
 4390SOL     OW24805   4.403   3.042   6.306 -0.4938 -0.2265  0.8423
 4390SOL    HW124806   4.372   2.961   6.346  1.7625 -1.7613 -0.5068
 4390SOL    HW224807   4.382   3.018   6.216 -0.3736 -2.3376  1.3685
 4391SOL     OW24808   1.594   4.105   9.136 -0.1010  0.0016 -0.5512
 4391SOL    HW124809   1.512   4.094   9.185  0.9480  0.0907  1.2317
 4391SOL    HW224810   1.648   4.081   9.211  0.8803 -1.2509 -1.6655
 4392SOL     OW24811   4.311   3.489   4.624  0.0257  0.0796 -0.1428
 4392SOL    HW124812   4.235   3.462   4.675  2.5119  0.4144  3.7210
 4392SOL    HW224813   4.356   3.405   4.623 -2.3321 -1.2131  1.1584
 4393SOL     OW24814   0.849   4.296  17.393  0.3406 -0.1867 -0.2484
 4393SOL    HW124815   0.872   4.248  17.473  0.2976 -1.7314 -1.1627
 4393SOL    HW224816   0.775   4.249  17.354 -0.2520 -0.4175  1.1577
 4394SOL     OW24817   1.801   3.940  11.113  0.4096  0.1816  0.2539
 4394SOL    HW124818   1.852   3.976  11.041 -1.1472 -0.4834 -1.1855
 4394SOL    HW224819   1.862   3.874  11.147  2.1139  2.0006  0.7357
 4395SOL     OW24820   4.476   0.508   7.409 -0.4060  0.0260  0.4010
 4395SOL    HW124821   4.552   0.502   7.468  0.4928  1.5945 -0.5875
 4395SOL    HW224822   4.410   0.464   7.462  0.4222 -0.5122  0.9906
 4396SOL     OW24823   2.366   1.885   6.518 -0.4350 -0.1087 -0.0955
 4396SOL    HW124824   2.402   1.854   6.601  0.8887  1.2937 -0.1434
 4396SOL    HW224825   2.367   1.799   6.476 -0.2934 -0.7028  1.1111
 4397SOL     OW24826   3.644   3.986   3.389  0.1588 -0.1095  1.0533
 4397SOL    HW124827   3.676   3.957   3.474 -1.0999  0.0763  1.5870
 4397SOL    HW224828   3.579   3.921   3.364 -0.7794  0.4777  1.9728
 4398SOL     OW24829   3.794   3.045   4.901  0.1653  0.0414  0.1167
 4398SOL    HW124830   3.764   3.107   4.967  0.3533 -0.1795  0.4100
 4398SOL    HW224831   3.741   3.071   4.826 -1.0397 -0.3151  0.8305
 4399SOL     OW24832   0.814   3.517   4.271  0.1633 -0.0488 -0.8402
 4399SOL    HW124833   0.823   3.592   4.330  0.9946 -0.5498 -0.3393
 4399SOL    HW224834   0.750   3.472   4.327  1.1742  0.3731  0.6592
 4400SOL     OW24835   4.495   4.347   1.801 -0.2733  0.3147  0.7881
 4400SOL    HW124836   4.586   4.356   1.772 -1.0424 -1.7039 -2.2805
 4400SOL    HW224837   4.496   4.252   1.814 -3.7849  0.2405  0.5001
 4401SOL     OW24838   3.127   1.380   2.125 -0.0657  0.0237  0.2418
 4401SOL    HW124839   3.178   1.370   2.044 -2.0832 -2.5745 -0.6736
 4401SOL    HW224840   3.039   1.353   2.101  0.4093 -0.4352 -1.0353
 4402SOL     OW24841   4.636   4.405   5.820 -0.2919  0.4547  0.2715
 4402SOL    HW124842   4.729   4.386   5.825 -0.6842 -2.4534 -3.0811
 4402SOL    HW224843   4.593   4.340   5.876  0.0989 -1.5007 -1.7111
 4403SOL     OW24844   1.122   0.637   4.707  0.2099 -0.3413  0.4252
 4403SOL    HW124845   1.117   0.664   4.615 -0.2677  1.9007  1.1202
 4403SOL    HW224846   1.032   0.608   4.723  0.5710 -0.7336  1.7463
 4404SOL     OW24847   3.699   0.184  16.971  0.0847  0.0605  0.4607
 4404SOL    HW124848   3.643   0.177  17.048  0.2030  1.4963  0.6802
 4404SOL    HW224849   3.785   0.169  17.011  0.6058  1.8082 -0.0170
 4405SOL     OW24850   0.058   1.522   9.224 -0.1430  0.0251  0.0198
 4405SOL    HW124851   0.095   1.440   9.191 -1.3826 -2.2672  4.3182
 4405SOL    HW224852   0.003   1.482   9.292 -1.4975  0.9522 -0.5559
 4406SOL     OW24853   1.900   0.434   8.255  0.2181 -0.4986 -0.1849
 4406SOL    HW124854   1.823   0.471   8.297 -0.1239 -2.1007  0.5971
 4406SOL    HW224855   1.942   0.507   8.209 -2.0037  1.3415  0.7083
 4407SOL     OW24856   3.554   2.232   9.783  0.1261  0.3779 -0.0763
 4407SOL    HW124857   3.551   2.157   9.842  0.3115  2.1494  2.1956
 4407SOL    HW224858   3.635   2.276   9.808 -0.2063  0.9707 -0.0470
 4408SOL     OW24859   2.633   2.653   6.863 -0.0512  1.0273  0.0304
 4408SOL    HW124860   2.563   2.625   6.804  1.2951  0.4567 -1.2899
 4408SOL    HW224861   2.643   2.744   6.838  1.5498  0.3543 -1.7704
 4409SOL     OW24862   2.044   2.077   4.816  0.2582 -0.0310  0.0648
 4409SOL    HW124863   2.028   1.983   4.823  0.8016  0.0261  2.0122
 4409SOL    HW224864   1.974   2.104   4.757  0.6297 -0.6556 -0.6706
 4410SOL     OW24865   4.198   0.213   9.285 -0.1895  0.3979 -0.0172
 4410SOL    HW124866   4.289   0.191   9.302  0.4830  0.7026 -3.2502
 4410SOL    HW224867   4.162   0.198   9.372 -1.3987  0.1073 -0.5614
 4411SOL     OW24868   3.076   2.099  11.548 -0.2575 -0.0484 -1.0694
 4411SOL    HW124869   3.150   2.158  11.533 -1.8346  1.9538 -1.0851
 4411SOL    HW224870   3.069   2.119  11.642 -1.3030 -2.8320 -0.5568
 4412SOL     OW24871   3.317   1.406   3.665  0.1441  0.5680 -0.0092
 4412SOL    HW124872   3.330   1.374   3.576 -1.6920  1.2300 -0.5179
 4412SOL    HW224873   3.361   1.341   3.719  0.3826 -0.9717 -2.0705
 4413SOL     OW24874   1.653   3.270  17.001  0.2365  0.0043  0.2489
 4413SOL    HW124875   1.639   3.270  17.096  0.1142  0.1984  0.2316
 4413SOL    HW224876   1.618   3.349  16.960  2.2134 -0.2044 -1.8520
 4414SOL     OW24877   2.818   3.624  10.065  0.4768  0.2032  0.2485
 4414SOL    HW124878   2.778   3.580  10.139 -2.3367  1.0060 -0.8197
 4414SOL    HW224879   2.904   3.626  10.106  0.8823 -1.7215 -0.4789
 4415SOL     OW24880   2.504   2.486  10.832 -0.6521  0.2416  0.1075
 4415SOL    HW124881   2.560   2.461  10.906 -1.3799  0.1254  0.6250
 4415SOL    HW224882   2.534   2.576  10.818  0.8832 -0.7054 -2.6475
 4416SOL     OW24883   1.869   0.344  13.221  0.0184  0.9053 -0.5896
 4416SOL    HW124884   1.962   0.341  13.241  0.0102  1.9087 -0.3873
 4416SOL    HW224885   1.844   0.266  13.172 -1.2355  1.5267 -0.9587
 4417SOL     OW24886   3.972   2.547  14.889  0.8236 -0.1848 -0.0967
 4417SOL    HW124887   3.990   2.641  14.896  1.1348 -0.2832  0.4259
 4417SOL    HW224888   4.014   2.509  14.966 -0.8194 -1.6748  0.0607
 4418SOL     OW24889   0.355   0.386   4.131  1.2160  0.7510 -0.0548
 4418SOL    HW124890   0.291   0.316   4.120 -0.1325  1.6014  2.3799
 4418SOL    HW224891   0.310   0.464   4.099  0.6340  0.6440  0.5071
 4419SOL     OW24892   1.440   0.401   2.057  0.7627  0.5605 -0.0882
 4419SOL    HW124893   1.426   0.353   2.139 -0.0193  2.6679  1.0014
 4419SOL    HW224894   1.401   0.340   1.995 -0.6973  1.9025 -0.4873
 4420SOL     OW24895   2.801   3.066   4.487 -1.1329 -0.3188  0.2466
 4420SOL    HW124896   2.759   3.096   4.568 -0.0592 -0.5449  0.8823
 4420SOL    HW224897   2.803   2.971   4.490 -3.1304 -0.3626 -0.1100
 4421SOL     OW24898   3.303   4.109   1.031  0.5494 -0.0883 -0.5128
 4421SOL    HW124899   3.234   4.152   1.081  0.7418 -3.1910  2.4223
 4421SOL    HW224900   3.324   4.040   1.093  0.3673 -0.2052 -0.5838
 4422SOL     OW24901   0.454   4.311  15.876  0.3241 -0.3969 -0.1804
 4422SOL    HW124902   0.497   4.231  15.908  0.2326  0.1416  1.2654
 4422SOL    HW224903   0.460   4.372  15.949  3.0158  0.2385 -0.9175
 4423SOL     OW24904   3.696   2.942   3.671  0.2301  0.3270 -0.1893
 4423SOL    HW124905   3.698   2.898   3.586  1.3392 -0.4486  0.2416
 4423SOL    HW224906   3.730   2.875   3.731  0.0724  0.2047 -0.2370
 4424SOL     OW24907   0.215   4.469   8.320 -0.1477  0.1915 -0.0929
 4424SOL    HW124908   0.160   4.397   8.350  0.1267 -0.0115 -0.0714
 4424SOL    HW224909   0.253   4.426   8.243  0.2193  1.4259 -0.6068
 4425SOL     OW24910   3.394   1.871  11.215 -0.5062 -0.8903  0.2354
 4425SOL    HW124911   3.352   1.843  11.296 -1.2240  0.2124  0.2509
 4425SOL    HW224912   3.318   1.882  11.159 -1.7913  2.1519  2.5326
 4426SOL     OW24913   4.585   1.130   4.711 -0.1021 -0.0803 -0.3013
 4426SOL    HW124914   4.601   1.113   4.618  2.8480  2.1539 -0.1806
 4426SOL    HW224915   4.639   1.062   4.753 -2.1404 -0.2798  2.0395
 4427SOL     OW24916   0.405   1.609   3.714  0.2483  0.0676 -0.3122
 4427SOL    HW124917   0.317   1.636   3.686  1.0886  2.4478 -0.6372
 4427SOL    HW224918   0.407   1.515   3.692 -0.8455  0.7185 -3.1855
 4428SOL     OW24919   4.224   1.142   2.565 -0.6969 -0.4424  0.2235
 4428SOL    HW124920   4.250   1.096   2.486  0.2289  1.5668 -0.6265
 4428SOL    HW224921   4.146   1.189   2.534  0.1362  3.0514  3.3672
 4429SOL     OW24922   2.391   0.563   6.553  0.1427  0.2846  0.1728
 4429SOL    HW124923   2.425   0.473   6.551  0.3482  0.3276  2.3997
 4429SOL    HW224924   2.296   0.558   6.543  0.4203 -0.6903 -2.0620
 4430SOL     OW24925   1.681   2.438   4.332 -0.3081  0.9168 -0.8369
 4430SOL    HW124926   1.775   2.425   4.320 -0.3356  0.2340 -0.3271
 4430SOL    HW224927   1.663   2.369   4.396  4.6788 -0.8678 -1.3424
 4431SOL     OW24928   3.605   1.231   3.353  0.3002 -0.2516  0.1288
 4431SOL    HW124929   3.633   1.202   3.267 -0.5475 -1.8959  0.3936
 4431SOL    HW224930   3.579   1.145   3.387  0.9356 -0.4457  0.1141
 4432SOL     OW24931   4.295   1.657   2.799  0.1367 -0.1698 -1.0489
 4432SOL    HW124932   4.252   1.740   2.822 -1.2785 -1.4496  0.8645
 4432SOL    HW224933   4.229   1.600   2.839  1.0004 -0.7149 -0.3895
 4433SOL     OW24934   0.663   4.227   4.216 -0.2190  0.8758 -0.3780
 4433SOL    HW124935   0.593   4.162   4.219 -0.0108  0.6883  0.2950
 4433SOL    HW224936   0.739   4.170   4.227 -0.7304  0.2677 -0.0019
 4434SOL     OW24937   2.430   2.855   3.209 -0.1558 -0.1538 -0.1970
 4434SOL    HW124938   2.516   2.893   3.189  0.1865 -0.3101  0.9999
 4434SOL    HW224939   2.441   2.761   3.194 -2.0198 -0.5527  1.0510
 4435SOL     OW24940   0.718   1.914   6.224 -0.2143  0.8926  0.3411
 4435SOL    HW124941   0.669   1.889   6.302 -0.6707 -1.2868 -0.6698
 4435SOL    HW224942   0.800   1.951   6.256  1.7061 -2.5120 -0.6416
 4436SOL     OW24943   1.061   2.476   3.099  0.5533  0.7470  0.3037
 4436SOL    HW124944   1.095   2.535   3.031  0.8250 -0.5070 -0.6504
 4436SOL    HW224945   1.103   2.391   3.086 -2.4140 -0.6548 -0.1197
 4437SOL     OW24946   3.541   0.133  13.296 -0.3574  0.5022  0.4721
 4437SOL    HW124947   3.455   0.167  13.273 -0.7339 -0.4077  0.5241
 4437SOL    HW224948   3.596   0.181  13.235  0.0279  0.5261  0.8342
 4438SOL     OW24949   2.587   2.341  15.003  0.7773 -0.3653  0.5886
 4438SOL    HW124950   2.668   2.383  14.975  0.5424  1.8534  3.2172
 4438SOL    HW224951   2.548   2.404  15.064 -3.0556  0.1799 -2.3943
 4439SOL     OW24952   2.363   0.515   2.481  0.4041 -0.4224  0.1875
 4439SOL    HW124953   2.371   0.606   2.509  0.3358 -1.4531  3.5440
 4439SOL    HW224954   2.334   0.478   2.565 -2.6366  0.7652 -0.3190
 4440SOL     OW24955   0.225   1.667   4.998 -0.1920 -0.5772  0.0123
 4440SOL    HW124956   0.177   1.730   4.944  0.0269  0.7141  1.3242
 4440SOL    HW224957   0.303   1.667   4.943  0.7617 -0.6912  1.3944
 4441SOL     OW24958   3.176   0.215   2.449  0.3096 -0.0213 -0.7509
 4441SOL    HW124959   3.240   0.166   2.501 -1.1694 -0.9419  0.2207
 4441SOL    HW224960   3.218   0.224   2.364  0.4841  1.1866 -0.5428
 4442SOL     OW24961   4.180   1.042  14.428  0.3479 -0.0704  0.2306
 4442SOL    HW124962   4.120   1.051  14.354  2.5107  5.1685 -0.8741
 4442SOL    HW224963   4.213   1.131  14.437 -0.8433  0.2649  1.3327
 4443SOL     OW24964   4.314   1.967   3.674 -0.7020 -0.1512  0.0447
 4443SOL    HW124965   4.249   2.017   3.624  0.3776  2.3122  1.1123
 4443SOL    HW224966   4.364   1.919   3.609 -2.2844  1.4781 -2.3987
 4444SOL     OW24967   0.345   1.073   3.071  0.2763 -0.1908  0.4057
 4444SOL    HW124968   0.395   1.082   2.990 -0.5887  3.0349  0.2310
 4444SOL    HW224969   0.297   0.998   3.036 -0.7443  0.5533  0.2053
 4445SOL     OW24970   0.778   0.882   1.251  0.2792  0.4575 -0.5229
 4445SOL    HW124971   0.810   0.842   1.170  1.5758  0.2670  0.0733
 4445SOL    HW224972   0.750   0.969   1.221  0.6478  0.0203 -2.1535
 4446SOL     OW24973   0.300   2.838   1.795  0.1079  0.9123 -0.7145
 4446SOL    HW124974   0.308   2.854   1.889 -4.6929  1.4052 -0.4350
 4446SOL    HW224975   0.392   2.823   1.771 -0.2248 -2.0885 -0.1556
 4447SOL     OW24976   0.739   2.461  10.095 -0.5550 -0.0740  0.6581
 4447SOL    HW124977   0.657   2.413  10.088 -1.3829  1.6368 -1.1914
 4447SOL    HW224978   0.727   2.546  10.053  1.1059 -0.2974 -0.2471
 4448SOL     OW24979   1.935   3.537   5.440 -0.5419  0.0001 -0.1691
 4448SOL    HW124980   1.870   3.566   5.504 -1.5777 -0.1750 -1.1436
 4448SOL    HW224981   1.871   3.507   5.375  1.3315  0.7041 -2.3296
 4449SOL     OW24982   0.056   1.910  16.834  0.2910 -0.3089  0.1367
 4449SOL    HW124983   0.128   1.931  16.774  0.0132 -3.1642 -1.1571
 4449SOL    HW224984   0.110   1.894  16.912 -1.0798  1.0964  1.3900
 4450SOL     OW24985   2.844   1.874   5.363 -0.5892  0.1660  0.2945
 4450SOL    HW124986   2.856   1.783   5.390 -0.0823  0.1686  0.0770
 4450SOL    HW224987   2.937   1.894   5.347 -0.6725  0.7758  0.5588
 4451SOL     OW24988   2.270   3.096   6.105 -0.2552  0.0805 -0.4069
 4451SOL    HW124989   2.293   3.091   6.197  0.6475  0.8743 -0.5822
 4451SOL    HW224990   2.345   3.148   6.077 -0.7953  1.8068  1.3655
 4452SOL     OW24991   1.986   1.279   0.990 -0.0142  0.5341  0.3592
 4452SOL    HW124992   2.035   1.329   0.924  2.2387  0.5691  2.0712
 4452SOL    HW224993   1.906   1.261   0.941  0.2046 -2.2360  1.0609
 4453SOL     OW24994   0.028   1.693   4.156 -0.1659  0.3644 -0.2181
 4453SOL    HW124995   0.032   1.719   4.064  0.9127  0.8843 -0.0286
 4453SOL    HW224996   0.002   1.776   4.196 -1.4771  1.0999 -2.5664
 4454SOL     OW24997   0.430   0.606   6.931 -0.4461  0.3568 -0.0376
 4454SOL    HW124998   0.476   0.564   6.859  0.3976  0.6496  0.3148
 4454SOL    HW224999   0.489   0.681   6.942  0.4275 -0.3502  0.1406
 4455SOL     OW25000   3.150   0.694   9.232 -0.0582 -0.2200 -0.4267
 4455SOL    HW125001   3.222   0.753   9.210  0.3550 -0.3990  0.4378
 4455SOL    HW225002   3.079   0.758   9.221 -2.9145 -3.4329 -0.7439
 4456SOL     OW25003   0.372   2.043   6.053  0.4692  0.5612  0.2131
 4456SOL    HW125004   0.365   1.979   6.123  1.3800  0.1490 -0.0742
 4456SOL    HW225005   0.377   2.124   6.103  1.7381 -0.5596  1.8786
 4457SOL     OW25006   4.593   4.241   7.278 -0.6187  0.2470 -0.9876
 4457SOL    HW125007   4.648   4.255   7.201 -0.2411 -3.0051 -1.3152
 4457SOL    HW225008   4.648   4.181   7.330 -0.0957  1.8134  0.2638
 4458SOL     OW25009   4.133   2.921   0.170 -0.2779  0.8686  0.7266
 4458SOL    HW125010   4.049   2.962   0.191 -0.1356  0.5499  1.9167
 4458SOL    HW225011   4.148   2.961   0.085  0.0053 -0.1054  0.3313
 4459SOL     OW25012   4.243   0.018   2.437  0.1893 -0.0512  0.0168
 4459SOL    HW125013   4.265   0.059   2.353 -0.5474  0.1974 -0.0509
 4459SOL    HW225014   4.240   4.666   2.405  0.7848 -0.4872  1.1731
 4460SOL     OW25015   3.508   3.780  13.047 -1.0318 -0.2263 -0.0901
 4460SOL    HW125016   3.485   3.871  13.029  0.5091 -0.0526 -1.1079
 4460SOL    HW225017   3.505   3.781  13.142 -1.9677 -0.7941 -0.1141
 4461SOL     OW25018   2.963   4.076   5.989 -0.5041  0.6653  0.0238
 4461SOL    HW125019   2.936   4.033   6.070 -1.2039  0.1708 -0.4773
 4461SOL    HW225020   3.042   4.025   5.971 -1.9368 -1.4639 -0.1956
 4462SOL     OW25021   1.125   0.701   7.653  0.1427 -0.3266  0.0815
 4462SOL    HW125022   1.122   0.610   7.683 -4.5540 -0.1804 -0.0034
 4462SOL    HW225023   1.053   0.698   7.590 -1.1904 -0.6684  1.6170
 4463SOL     OW25024   1.232   4.147   8.547  0.0614 -0.3477  1.3897
 4463SOL    HW125025   1.240   4.082   8.617 -0.7761 -0.0531  1.7642
 4463SOL    HW225026   1.234   4.087   8.473  0.6785 -0.4220  1.4628
 4464SOL     OW25027   4.419   2.297   3.993  0.2378 -0.0556  0.3987
 4464SOL    HW125028   4.476   2.263   3.923  0.9417 -0.8954  1.3718
 4464SOL    HW225029   4.381   2.220   4.035 -0.4348  0.8132  1.3650
 4465SOL     OW25030   4.559   4.450  16.352 -0.3262 -0.0456 -1.1832
 4465SOL    HW125031   4.608   4.442  16.270 -1.2347  0.6518 -1.8046
 4465SOL    HW225032   4.509   4.528  16.326 -0.3856  1.2327  2.6717
 4466SOL     OW25033   2.277   2.776  17.678 -0.0724  0.7689  0.0502
 4466SOL    HW125034   2.359   2.755  17.722 -0.4784  1.8348  1.3124
 4466SOL    HW225035   2.297   2.741  17.591 -0.7840  2.4699 -0.8188
 4467SOL     OW25036   2.806   2.556   5.663 -0.1790  0.1443 -0.5539
 4467SOL    HW125037   2.890   2.601   5.668 -0.6177  0.9265 -0.2257
 4467SOL    HW225038   2.840   2.467   5.657 -0.0929  0.0435  1.5106
 4468SOL     OW25039   3.478   4.191   4.655 -0.3626  0.0489 -0.1962
 4468SOL    HW125040   3.520   4.148   4.728  0.3537  0.3729 -0.4210
 4468SOL    HW225041   3.540   4.258   4.626  0.4122 -0.4053  0.4276
 4469SOL     OW25042   3.705   0.472   7.150 -0.6784  0.3608 -0.0746
 4469SOL    HW125043   3.772   0.492   7.215  0.3279 -2.9471 -0.0651
 4469SOL    HW225044   3.746   0.502   7.069 -1.3090  1.3726 -0.0183
 4470SOL     OW25045   4.095   0.922  15.321 -0.0788  0.1028  0.4931
 4470SOL    HW125046   4.167   0.871  15.284 -0.4230 -0.0319  0.0099
 4470SOL    HW225047   4.107   1.000  15.268 -0.5352 -0.9503 -1.1534
 4471SOL     OW25048   2.698   2.805  16.145  0.3288 -0.3075 -0.0271
 4471SOL    HW125049   2.762   2.841  16.206  0.3517 -1.7508  0.8022
 4471SOL    HW225050   2.755   2.754  16.089  3.1190  0.6740  1.9144
 4472SOL     OW25051   2.803   1.774   7.165  0.0987 -0.1876 -0.6146
 4472SOL    HW125052   2.752   1.783   7.246  1.1188  0.0521 -0.0024
 4472SOL    HW225053   2.823   1.867   7.148 -0.0432  0.1220  0.9748
 4473SOL     OW25054   1.195   4.075   8.294 -0.0018 -0.1894 -0.0995
 4473SOL    HW125055   1.206   3.983   8.269 -1.6001 -0.4364  0.1037
 4473SOL    HW225056   1.214   4.117   8.210 -0.2270 -0.8656 -0.4967
 4474SOL     OW25057   0.898   0.401   7.782  1.1928 -0.3446  0.6750
 4474SOL    HW125058   0.911   0.434   7.871 -0.6950  3.7346 -0.5577
 4474SOL    HW225059   0.825   0.458   7.756  3.6034  1.2357 -2.6407
 4475SOL     OW25060   4.157   2.970  17.632 -0.5478 -0.1473 -0.5096
 4475SOL    HW125061   4.125   2.896  17.581  0.3194 -1.2653  0.5572
 4475SOL    HW225062   4.236   3.003  17.590  0.7589 -2.4312  0.1558
 4476SOL     OW25063   1.809   0.871  11.210  0.9897  0.7274 -0.5951
 4476SOL    HW125064   1.803   0.897  11.118  0.1802 -1.3081 -1.1347
 4476SOL    HW225065   1.899   0.843  11.224  0.8300  0.9046  0.8386
 4477SOL     OW25066   1.809   2.855   6.012 -0.0635 -0.8215 -0.2715
 4477SOL    HW125067   1.744   2.845   6.081  1.9250 -0.8491  1.5962
 4477SOL    HW225068   1.797   2.775   5.961 -1.0590 -0.6396 -0.3174
 4478SOL     OW25069   4.193   2.303   2.639  0.4644 -0.0630  0.4078
 4478SOL    HW125070   4.279   2.280   2.676  1.2531 -0.5561 -1.7445
 4478SOL    HW225071   4.144   2.311   2.721 -0.1070 -2.7281  0.3074
 4479SOL     OW25072   3.972   1.155   2.373  0.2981 -0.3993 -0.1399
 4479SOL    HW125073   3.945   1.118   2.289 -1.2238 -2.2132  1.1434
 4479SOL    HW225074   3.925   1.102   2.437 -0.3731  0.7334  0.3014
 4480SOL     OW25075   3.955   4.524   4.368 -0.0669 -0.7075  0.0687
 4480SOL    HW125076   3.978   4.462   4.438 -3.6145 -0.6942  1.2372
 4480SOL    HW225077   4.024   4.538   4.304  0.9626  1.3888  1.6421
 4481SOL     OW25078   0.535   0.670   5.141  0.7997  0.4664  0.4605
 4481SOL    HW125079   0.579   0.616   5.075  0.7207 -0.6275  1.3174
 4481SOL    HW225080   0.480   0.604   5.183  0.0397  1.4961  1.0958
 4482SOL     OW25081   0.596   1.214   1.506  0.1526 -0.0522  0.2319
 4482SOL    HW125082   0.580   1.120   1.495  0.9809 -0.2457  0.7667
 4482SOL    HW225083   0.681   1.223   1.464  0.3795 -1.4664  0.3792
 4483SOL     OW25084   1.442   1.525   2.103  0.0257  0.0554 -0.6293
 4483SOL    HW125085   1.429   1.478   2.186 -2.6577  0.6677 -0.6896
 4483SOL    HW225086   1.350   1.535   2.075  0.0310 -1.9783 -1.3817
 4484SOL     OW25087   4.680   4.657   5.741 -0.6189  1.4840  0.2647
 4484SOL    HW125088   4.628   4.579   5.761  2.4072 -0.4502  0.7313
 4484SOL    HW225089   0.028   4.616   5.751 -1.0058  1.2018  2.2879
 4485SOL     OW25090   0.386   0.218   6.790 -0.3081 -0.1062 -0.5050
 4485SOL    HW125091   0.477   0.248   6.783 -0.8060  0.9729 -2.1645
 4485SOL    HW225092   0.403   0.126   6.773 -0.7425 -0.6628  2.1147
 4486SOL     OW25093   3.685   2.322  17.324  0.1794  0.2321  0.0565
 4486SOL    HW125094   3.671   2.236  17.365  0.8849 -0.0025 -0.1937
 4486SOL    HW225095   3.764   2.317  17.271  0.3213  2.6961  0.0690
 4487SOL     OW25096   2.252   0.218   8.043 -0.0761 -0.1840  0.0494
 4487SOL    HW125097   2.210   0.200   8.127 -2.5796  0.2388 -1.1118
 4487SOL    HW225098   2.249   0.314   8.041  1.7449 -0.1170  0.1670
 4488SOL     OW25099   2.447   1.443   0.739 -0.4177 -0.0131  0.1564
 4488SOL    HW125100   2.421   1.361   0.781 -1.3241 -0.1824 -0.7324
 4488SOL    HW225101   2.401   1.453   0.656 -0.2086  1.8052  0.2670
 4489SOL     OW25102   0.261   2.386   5.343  1.1369 -0.0203  0.1599
 4489SOL    HW125103   0.305   2.409   5.261 -0.8931 -1.5843 -1.3539
 4489SOL    HW225104   0.288   2.296   5.362 -0.2173 -0.1974  1.2375
 4490SOL     OW25105   0.294   4.731   8.213  0.1060  0.0676 -0.2836
 4490SOL    HW125106   0.378   4.704   8.248  0.0629 -0.5225 -0.6292
 4490SOL    HW225107   0.237   4.668   8.258 -0.6526 -0.9097 -2.6177
 4491SOL     OW25108   1.610   0.081  12.411  1.1386 -0.0960  0.3004
 4491SOL    HW125109   1.663   0.101  12.489  2.1318 -0.4287 -0.2883
 4491SOL    HW225110   1.523   0.104  12.442  0.7737  0.6446 -1.2748
 4492SOL     OW25111   3.672   2.521   7.011 -0.0942 -0.4201 -0.4689
 4492SOL    HW125112   3.672   2.491   7.102  1.8190  4.6451  1.2163
 4492SOL    HW225113   3.579   2.503   6.994  0.1800 -0.8791 -1.4850
 4493SOL     OW25114   0.179   2.967   7.663  0.4040  0.3784 -0.3800
 4493SOL    HW125115   0.229   2.892   7.631  1.4154  1.7668 -2.0886
 4493SOL    HW225116   0.215   3.027   7.597  1.3773 -0.2224 -0.3958
 4494SOL     OW25117   0.904   2.587  15.301 -0.1910  0.4463 -0.3968
 4494SOL    HW125118   0.966   2.638  15.249 -0.6717  1.2327 -0.1911
 4494SOL    HW225119   0.958   2.509  15.312 -0.2659  0.4370 -0.0821
 4495SOL     OW25120   3.438   4.178   6.739 -0.2618  0.0773  0.2893
 4495SOL    HW125121   3.442   4.261   6.786  3.2597 -0.1395  0.3861
 4495SOL    HW225122   3.522   4.171   6.694 -0.6248  0.7856 -0.4979
 4496SOL     OW25123   1.998   3.118  13.984  0.2520  0.7177 -0.0254
 4496SOL    HW125124   1.915   3.083  13.951  1.0804 -1.2441 -0.0532
 4496SOL    HW225125   2.065   3.058  13.951 -2.8578 -2.1519 -1.1689
 4497SOL     OW25126   1.986   1.570   6.231 -0.7999 -0.9147 -0.2125
 4497SOL    HW125127   1.983   1.508   6.304  1.3571  1.3593  1.8154
 4497SOL    HW225128   2.080   1.591   6.226 -1.0707  0.5573  0.9089
 4498SOL     OW25129   0.518   3.640   4.374 -0.4666  0.2401  0.0431
 4498SOL    HW125130   0.575   3.579   4.421 -1.9414  0.0185  1.5513
 4498SOL    HW225131   0.583   3.710   4.364  0.1661 -0.3204  0.2448
 4499SOL     OW25132   2.015   4.269   6.528  0.9212  0.3220  0.1647
 4499SOL    HW125133   2.007   4.211   6.603  1.6975 -1.9152 -1.4920
 4499SOL    HW225134   2.057   4.211   6.465  0.0661  0.1625 -0.2479
 4500SOL     OW25135   0.401   0.953   8.023  0.3202  0.5605 -0.3005
 4500SOL    HW125136   0.330   1.004   7.983 -0.6745 -1.1558 -0.6852
 4500SOL    HW225137   0.447   1.031   8.054 -1.0265  1.8304 -1.4699
 4501SOL     OW25138   3.374   1.574   7.786  0.6263 -0.1838 -0.0585
 4501SOL    HW125139   3.316   1.501   7.763  1.4728 -1.0952  0.6941
 4501SOL    HW225140   3.337   1.593   7.872  1.3965  1.4181 -0.0913
 4502SOL     OW25141   4.255   1.979   5.782 -0.5050  0.2494  0.1794
 4502SOL    HW125142   4.333   1.934   5.750  0.9170  0.8202  2.7744
 4502SOL    HW225143   4.213   1.898   5.810  0.5678 -0.4287 -0.1882
 4503SOL     OW25144   3.339   2.712  11.847 -0.1996 -0.4117 -1.0609
 4503SOL    HW125145   3.322   2.629  11.801  0.9745 -0.6276 -1.1072
 4503SOL    HW225146   3.404   2.753  11.790  0.9779 -0.7237  0.0409
 4504SOL     OW25147   3.060   3.726   4.523 -0.0126 -0.1655  0.0614
 4504SOL    HW125148   3.149   3.690   4.523 -0.3053 -0.9637  4.8858
 4504SOL    HW225149   3.013   3.657   4.475  0.5560  0.1533 -0.9551
 4505SOL     OW25150   3.787   0.523  13.100  0.2024  0.0445  0.2277
 4505SOL    HW125151   3.838   0.507  13.021 -0.7975  0.5339 -0.5184
 4505SOL    HW225152   3.836   0.590  13.147  0.5303 -0.4979  0.6505
 4506SOL     OW25153   4.244   1.705   7.599 -0.0409  0.0975 -0.1719
 4506SOL    HW125154   4.177   1.763   7.635  0.4025 -0.2324  1.1686
 4506SOL    HW225155   4.317   1.704   7.662  0.4247 -0.4428 -0.7177
 4507SOL     OW25156   1.035   4.179   6.381 -0.0817 -0.2398  0.1593
 4507SOL    HW125157   0.978   4.103   6.397 -0.3049  0.0139  0.5416
 4507SOL    HW225158   0.992   4.215   6.303  0.1500  1.4327  0.8114
 4508SOL     OW25159   2.720   0.077   0.248  0.0321 -0.6211  0.2570
 4508SOL    HW125160   2.801   0.092   0.297  0.6711 -2.1168 -0.3103
 4508SOL    HW225161   2.754   0.029   0.172  0.5934 -1.3908  0.9905
 4509SOL     OW25162   1.732   3.108   7.590 -0.1100  0.0915  0.0080
 4509SOL    HW125163   1.746   3.162   7.512 -0.6847  3.1332  1.9982
 4509SOL    HW225164   1.720   3.182   7.650 -0.5683 -0.8689  1.0983
 4510SOL     OW25165   1.367   1.864   5.596 -0.1662 -0.0446 -0.4246
 4510SOL    HW125166   1.333   1.858   5.507 -0.7425 -0.8231 -0.1573
 4510SOL    HW225167   1.347   1.778   5.633 -0.4579  0.1518 -0.1348
 4511SOL     OW25168   1.332   3.026   8.641 -0.8387  0.5927  0.3238
 4511SOL    HW125169   1.293   2.972   8.573  1.6739  1.2325 -1.6153
 4511SOL    HW225170   1.295   3.110   8.613  0.9354  0.6285 -1.8372
 4512SOL     OW25171   3.678   0.272  13.108  0.0176  0.2401 -0.0579
 4512SOL    HW125172   3.730   0.352  13.102 -1.6199  1.4023  0.9869
 4512SOL    HW225173   3.680   0.242  13.017  0.9600 -0.6931  0.2862
 4513SOL     OW25174   2.429   1.706  15.034 -1.0089 -0.5493  0.4572
 4513SOL    HW125175   2.471   1.755  14.964  0.0985 -2.4183 -0.1911
 4513SOL    HW225176   2.507   1.676  15.080  0.5985 -0.7589 -2.3805
 4514SOL     OW25177   0.334   4.125  16.909 -0.2109 -0.3734 -0.5004
 4514SOL    HW125178   0.300   4.206  16.871  0.3126  0.1507  0.1525
 4514SOL    HW225179   0.322   4.146  17.001  1.3069 -2.5089  0.1987
 4515SOL     OW25180   0.025   3.906   3.615  0.4396  0.0121  0.1899
 4515SOL    HW125181   4.678   3.933   3.578 -0.4512 -0.7304  1.7254
 4515SOL    HW225182   0.055   3.970   3.679  1.7591 -1.0069  0.5628
 4516SOL     OW25183   2.678   3.553   6.098  0.3082  0.2121 -0.4624
 4516SOL    HW125184   2.636   3.533   6.182 -0.8699  0.4100 -1.0079
 4516SOL    HW225185   2.728   3.634   6.107  1.4517 -0.5759  0.2080
 4517SOL     OW25186   4.651   2.611   3.279  0.3925 -0.5933  0.0517
 4517SOL    HW125187   4.662   2.686   3.221 -0.3168 -0.4924  0.0503
 4517SOL    HW225188   4.681   2.655   3.359  2.3880 -1.4858 -0.2133
 4518SOL     OW25189   0.664   4.313  11.022  0.3439 -0.0507  0.6130
 4518SOL    HW125190   0.717   4.336  10.945  0.4680  1.1879  1.0591
 4518SOL    HW225191   0.599   4.255  10.983  0.0479  1.5172 -1.2509
 4519SOL     OW25192   4.580   3.041   3.504  0.9242 -0.2413 -0.4842
 4519SOL    HW125193   4.532   3.085   3.574  0.0635  2.1254 -2.5683
 4519SOL    HW225194   4.531   3.061   3.424 -0.1120 -0.5992  0.0701
 4520SOL     OW25195   3.393   2.763   7.133  0.3315 -0.0599  0.1326
 4520SOL    HW125196   3.382   2.713   7.214 -1.4049 -0.0233 -0.0943
 4520SOL    HW225197   3.301   2.790   7.128  0.3585  0.0501  0.2147
 4521SOL     OW25198   3.934   2.069  13.542  0.4236  0.2004 -0.0031
 4521SOL    HW125199   3.961   2.160  13.553  1.5066 -0.6107  3.8682
 4521SOL    HW225200   3.912   2.063  13.449 -1.8125 -0.0142  0.5485
 4522SOL     OW25201   0.497   4.629   4.939  0.1745 -0.1855 -0.7314
 4522SOL    HW125202   0.483   4.654   4.848 -0.2632  1.3871 -0.2313
 4522SOL    HW225203   0.442   4.694   4.983  0.8535 -1.0696  1.4441
 4523SOL     OW25204   3.106   0.453  15.166  0.4337  0.7349  0.4234
 4523SOL    HW125205   3.189   0.438  15.121 -0.0665 -0.5851 -0.0620
 4523SOL    HW225206   3.092   0.538  15.125 -0.1622  0.3237 -0.2211
 4524SOL     OW25207   1.163   1.431  13.365  0.3130 -0.3972 -0.3944
 4524SOL    HW125208   1.210   1.508  13.333  0.1883 -0.6835 -1.2855
 4524SOL    HW225209   1.196   1.367  13.301 -0.6005 -2.3079  1.0451
 4525SOL     OW25210   3.166   2.839   7.252 -0.3234 -0.1179 -0.2705
 4525SOL    HW125211   3.211   2.923   7.256 -1.2157  0.3415  0.0140
 4525SOL    HW225212   3.105   2.841   7.325  0.6438 -2.6375  0.6018
 4526SOL     OW25213   0.821   3.695  13.727  0.1117 -0.0546 -0.4184
 4526SOL    HW125214   0.792   3.636  13.797  0.7010  2.4798  2.0007
 4526SOL    HW225215   0.765   3.771  13.742  1.9314  1.6410 -2.2320
 4527SOL     OW25216   1.915   0.407   3.858 -0.2085  0.3119 -0.6828
 4527SOL    HW125217   1.884   0.427   3.769 -0.9899  1.4535 -0.1361
 4527SOL    HW225218   2.005   0.436   3.844 -0.1869  0.3897 -0.3647
 4528SOL     OW25219   3.531   4.559   3.924 -0.0476  0.2702  0.1068
 4528SOL    HW125220   3.492   4.610   3.995  0.5891 -1.6716  1.8650
 4528SOL    HW225221   3.621   4.564   3.959  0.1308 -0.9818 -0.1898
 4529SOL     OW25222   0.313   2.947  15.958 -0.3243  0.2791 -0.2651
 4529SOL    HW125223   0.402   2.948  15.993 -0.8799 -0.9695  1.1716
 4529SOL    HW225224   0.270   2.887  16.019  2.3318 -2.6010 -1.2188
 4530SOL     OW25225   2.677   4.135   3.252 -0.4268 -0.0382 -0.4663
 4530SOL    HW125226   2.735   4.071   3.211  0.0524 -0.0511  0.2158
 4530SOL    HW225227   2.725   4.163   3.330  2.4261 -1.7562 -1.5889
 4531SOL     OW25228   4.205   3.855   9.952  0.0137 -0.1489  0.9703
 4531SOL    HW125229   4.183   3.947   9.965  0.8826  0.1790  0.1605
 4531SOL    HW225230   4.224   3.828  10.042  0.1165 -2.9476  0.1257
 4532SOL     OW25231   1.709   3.410   1.352  0.0223 -0.2299 -0.4451
 4532SOL    HW125232   1.788   3.363   1.327 -0.2334  0.0951 -1.8705
 4532SOL    HW225233   1.654   3.408   1.274 -2.2719  2.0262  1.1043
 4533SOL     OW25234   4.362   0.355  10.428 -0.0395 -0.7012 -0.5110
 4533SOL    HW125235   4.362   0.262  10.452 -0.3842 -0.7573 -0.7250
 4533SOL    HW225236   4.327   0.381  10.513  0.7349  0.3602 -0.5215
 4534SOL     OW25237   1.631   0.678   5.193  0.2914 -0.0758 -0.6116
 4534SOL    HW125238   1.610   0.621   5.119 -1.5237 -1.3560  0.8910
 4534SOL    HW225239   1.583   0.627   5.258 -0.8241 -0.0911 -1.4531
 4535SOL     OW25240   2.907   3.829   6.364 -0.3079 -0.0950  0.3064
 4535SOL    HW125241   2.919   3.846   6.458 -0.4623  1.3975  0.0553
 4535SOL    HW225242   2.826   3.777   6.370  0.3357 -1.2200 -0.6912
 4536SOL     OW25243   0.909   1.269  10.839 -0.3309  0.3142 -0.2243
 4536SOL    HW125244   0.876   1.210  10.771  1.5355  1.7866 -2.4371
 4536SOL    HW225245   0.874   1.353  10.808 -2.9522 -0.1146  1.6498
 4537SOL     OW25246   3.706   4.466  15.138 -0.8406 -0.3139 -0.2549
 4537SOL    HW125247   3.777   4.510  15.092 -0.6586 -0.9173 -0.5470
 4537SOL    HW225248   3.719   4.517  15.218  0.8192  0.3164 -0.9458
 4538SOL     OW25249   0.246   1.404   6.120  0.3799  0.2421  0.5389
 4538SOL    HW125250   0.320   1.444   6.074  0.3082 -0.1501  0.0818
 4538SOL    HW225251   0.197   1.362   6.049  0.7093  0.7256  0.0271
 4539SOL     OW25252   3.494   0.017   4.704  0.2947  0.0409  0.2132
 4539SOL    HW125253   3.588   0.001   4.698  0.2853  1.0663 -3.0504
 4539SOL    HW225254   3.479   0.102   4.663 -0.3531  0.0720  0.5218
 4540SOL     OW25255   2.537   0.730   2.556 -0.0636  0.4902  0.3579
 4540SOL    HW125256   2.563   0.650   2.602 -0.0053  0.6115  0.5377
 4540SOL    HW225257   2.563   0.791   2.625 -1.6682  0.7545  0.7270
 4541SOL     OW25258   3.925   3.077   7.896  0.0021  0.3752 -0.0421
 4541SOL    HW125259   3.937   3.169   7.916 -1.3248  0.9899 -2.0866
 4541SOL    HW225260   4.004   3.056   7.845 -0.8929 -0.6430 -1.0101
 4542SOL     OW25261   0.221   4.063   5.380 -0.0091  0.0618 -0.1097
 4542SOL    HW125262   0.205   4.114   5.459  0.2314 -2.2312  1.4355
 4542SOL    HW225263   0.279   4.117   5.328  0.3562  0.3786  0.6307
 4543SOL     OW25264   3.860   0.441  13.780 -0.7518 -0.0226  0.0309
 4543SOL    HW125265   3.874   0.535  13.767  0.4344 -0.3617 -1.1966
 4543SOL    HW225266   3.766   0.428  13.771 -0.5670 -2.0252  0.9914
 4544SOL     OW25267   1.896   3.806  16.367 -0.2760  0.3215 -0.1747
 4544SOL    HW125268   1.911   3.895  16.335  0.2324  0.1707 -0.3551
 4544SOL    HW225269   1.846   3.841  16.441  2.8686  1.5780  1.3578
 4545SOL     OW25270   1.482   0.951   1.237 -0.3152  0.3725  0.3692
 4545SOL    HW125271   1.496   0.905   1.320 -1.5611 -1.6410 -0.5317
 4545SOL    HW225272   1.431   1.027   1.264  0.8958  0.5825  2.0652
 4546SOL     OW25273   1.116   3.254   5.513  0.0046  0.8775 -0.3150
 4546SOL    HW125274   1.034   3.223   5.474  0.1268 -1.1025  1.0611
 4546SOL    HW225275   1.157   3.317   5.452  1.8075  0.2352  0.2388
 4547SOL     OW25276   2.588   0.955   0.044  0.2279 -0.3396  0.0698
 4547SOL    HW125277   2.648   1.009   0.096  2.5094 -2.6231 -0.2278
 4547SOL    HW225278   2.548   1.022  17.739  1.0049 -0.0112 -0.0871
 4548SOL     OW25279   3.493   0.429   8.902  0.4396  0.5241 -0.6017
 4548SOL    HW125280   3.407   0.469   8.887  0.4144  1.0420  0.9302
 4548SOL    HW225281   3.545   0.452   8.825 -1.7755 -0.1485 -2.2803
 4549SOL     OW25282   4.240   2.453   2.404  0.3118  0.1145 -0.0998
 4549SOL    HW125283   4.310   2.512   2.433  0.5091  0.9787 -2.3358
 4549SOL    HW225284   4.220   2.405   2.484  0.7994 -0.8496 -0.5633
 4550SOL     OW25285   4.017   3.044  11.575 -0.3607  0.2288 -0.6055
 4550SOL    HW125286   3.927   3.051  11.607  0.0161  0.4394  0.3838
 4550SOL    HW225287   4.061   3.011  11.653 -0.0088  1.5216 -0.2575
 4551SOL     OW25288   2.180   0.850   8.056  0.5534 -0.8266 -0.1639
 4551SOL    HW125289   2.139   0.936   8.043 -0.9572 -1.4690  0.2998
 4551SOL    HW225290   2.159   0.838   8.149 -0.5518  0.6899 -0.2130
 4552SOL     OW25291   4.590   4.048   1.788 -0.0895 -0.0916  1.0745
 4552SOL    HW125292   4.554   3.990   1.855  2.0583  1.0590  3.2368
 4552SOL    HW225293   4.682   4.022   1.793  0.3190  0.6884 -2.4015
 4553SOL     OW25294   1.955   3.353   4.163  0.4293 -0.0978  0.0744
 4553SOL    HW125295   1.995   3.439   4.156 -0.7572  0.5825  1.6831
 4553SOL    HW225296   1.956   3.334   4.257 -1.1490  0.0397  0.1311
 4554SOL     OW25297   1.873   3.025   4.254 -0.5052 -0.5918 -0.2427
 4554SOL    HW125298   1.963   3.051   4.270 -0.0036 -1.1715 -2.1548
 4554SOL    HW225299   1.835   3.009   4.341  0.7185 -0.3492  0.3291
 4555SOL     OW25300   3.036   0.011   5.550  0.5251  0.0734  0.6134
 4555SOL    HW125301   3.011   4.661   5.579 -1.0671  0.0990 -0.6701
 4555SOL    HW225302   3.006   0.069   5.620  1.0615  0.8756  0.1745
 4556SOL     OW25303   0.704   3.401  15.141 -0.6104 -0.2224 -0.2529
 4556SOL    HW125304   0.787   3.412  15.189  0.5607  2.4329 -2.8751
 4556SOL    HW225305   0.692   3.307  15.153  0.1545 -0.5736 -2.3365
 4557SOL     OW25306   3.627   3.030   3.304 -0.3265 -0.2793  0.2519
 4557SOL    HW125307   3.541   3.015   3.266  0.3595  0.2291 -1.5052
 4557SOL    HW225308   3.692   3.014   3.235 -0.7961 -1.3827  0.0604
 4558SOL     OW25309   1.998   0.719   9.292 -0.2153 -0.3212  0.2798
 4558SOL    HW125310   1.948   0.796   9.319 -3.9376 -1.8703 -2.0866
 4558SOL    HW225311   1.965   0.661   9.360 -0.1455  0.9712  1.4227
 4559SOL     OW25312   1.284   2.851  14.353  0.0065  0.0887 -0.1158
 4559SOL    HW125313   1.215   2.806  14.305 -0.1297 -0.1810  0.3338
 4559SOL    HW225314   1.251   2.851  14.443  1.0305 -0.6699  0.2553
 4560SOL     OW25315   0.095   2.561   6.852  0.0208 -0.3386 -0.4340
 4560SOL    HW125316   0.082   2.576   6.758 -0.8332 -2.3439 -0.6243
 4560SOL    HW225317   0.147   2.639   6.871  0.1385 -0.7735  1.0224
 4561SOL     OW25318   0.862   3.508   6.764 -0.4855 -0.0101  0.0376
 4561SOL    HW125319   0.942   3.460   6.743 -0.4579 -0.0189  0.1609
 4561SOL    HW225320   0.892   3.592   6.730 -1.5018 -0.1694 -1.2540
 4562SOL     OW25321   4.261   2.464   8.562 -0.0122  0.0381  0.4482
 4562SOL    HW125322   4.348   2.441   8.528 -0.1322  0.7183 -0.3039
 4562SOL    HW225323   4.267   2.557   8.541 -1.6209  0.2559  0.9561
 4563SOL     OW25324   4.309   4.404   4.065 -0.1540 -0.7886  0.6860
 4563SOL    HW125325   4.361   4.409   4.145  0.8357  1.4632 -0.0685
 4563SOL    HW225326   4.242   4.470   4.084 -0.0094 -0.8701  1.4869
 4564SOL     OW25327   3.365   1.986   3.125 -0.1599 -0.5932  0.5171
 4564SOL    HW125328   3.275   1.982   3.157 -1.0177  1.1209 -1.6650
 4564SOL    HW225329   3.385   1.893   3.113  2.4172  0.0333 -0.0992
 4565SOL     OW25330   4.177   0.619   5.633 -1.1155 -0.1307 -0.0841
 4565SOL    HW125331   4.151   0.655   5.548 -2.3903  2.6012  1.4749
 4565SOL    HW225332   4.102   0.644   5.686 -1.1212 -0.6227  0.1384
 4566SOL     OW25333   4.725   1.891   4.326  0.1160 -0.2188 -0.4111
 4566SOL    HW125334   0.074   1.859   4.348 -0.0736  0.6585  1.6513
 4566SOL    HW225335   4.732   1.984   4.307 -1.6823 -0.0720 -0.3842
 4567SOL     OW25336   0.522   2.688   5.060 -0.0442  0.5023 -0.3684
 4567SOL    HW125337   0.457   2.750   5.026  0.0101  0.1195 -1.1623
 4567SOL    HW225338   0.532   2.637   4.980 -0.4095 -0.0345 -0.0706
 4568SOL     OW25339   3.486   2.368   4.587  0.6679 -0.5718 -0.0189
 4568SOL    HW125340   3.423   2.390   4.656  1.9941  0.6637  0.8137
 4568SOL    HW225341   3.562   2.333   4.633  1.6430 -0.0923 -1.2944
 4569SOL     OW25342   1.114   0.387   7.611  0.0345  0.2991  0.6434
 4569SOL    HW125343   1.089   0.396   7.520 -1.7438  1.4242  1.2519
 4569SOL    HW225344   1.033   0.382   7.661  0.4054 -1.6111  1.0673
 4570SOL     OW25345   2.248   0.342  15.687  0.0196  0.7681 -0.3842
 4570SOL    HW125346   2.206   0.262  15.655  0.4369 -0.0372  1.0916
 4570SOL    HW225347   2.187   0.411  15.662 -3.0247 -2.2561 -1.2629
 4571SOL     OW25348   3.158   4.318   7.031  0.1027 -0.4388  0.2555
 4571SOL    HW125349   3.244   4.360   7.025  0.5712 -1.3560  0.5932
 4571SOL    HW225350   3.104   4.380   7.080  0.4988  0.0693  0.0447
 4572SOL     OW25351   3.532   2.631  11.557  0.2424  0.3431  0.6561
 4572SOL    HW125352   3.466   2.575  11.598 -1.0187  1.0398 -0.4393
 4572SOL    HW225353   3.524   2.715  11.602 -1.2387  2.2227 -3.1472
 4573SOL     OW25354   2.059   1.516   3.320 -0.1173  0.7228  0.0641
 4573SOL    HW125355   2.151   1.519   3.347 -0.2137 -3.6994  0.8213
 4573SOL    HW225356   2.014   1.562   3.391  1.4091  0.3712  1.2562
 4574SOL     OW25357   1.981   1.661   3.862 -0.2767  0.0697 -0.0630
 4574SOL    HW125358   1.905   1.648   3.806 -0.5330 -1.4840  0.6184
 4574SOL    HW225359   1.963   1.601   3.935 -1.7186 -0.2726 -0.7068
 4575SOL     OW25360   3.759   2.997   7.136 -0.1950 -0.3586  0.2692
 4575SOL    HW125361   3.820   2.929   7.162 -0.7731  0.0498  2.7865
 4575SOL    HW225362   3.719   2.948   7.065  0.5528 -2.4078  1.2824
 4576SOL     OW25363   3.249   2.224   8.757 -0.2607 -0.0548 -0.2334
 4576SOL    HW125364   3.218   2.151   8.703  2.0784  0.9879 -3.0112
 4576SOL    HW225365   3.187   2.289   8.722  0.8456  1.0535 -0.1113
 4577SOL     OW25366   0.533   3.665  17.129 -0.3486  0.2907 -0.2628
 4577SOL    HW125367   0.530   3.642  17.222  0.5472 -1.9013 -0.7814
 4577SOL    HW225368   0.468   3.736  17.130  0.4270  0.9781  2.4252
 4578SOL     OW25369   2.032   2.539   7.918  0.0491  0.6860 -0.2155
 4578SOL    HW125370   1.960   2.538   7.981  0.1279  1.5687 -0.1053
 4578SOL    HW225371   1.981   2.554   7.838  1.3420  0.8113 -1.0179
 4579SOL     OW25372   0.633   0.777   8.851 -0.0660 -0.6615  0.6145
 4579SOL    HW125373   0.714   0.737   8.821 -1.0164 -0.9406 -1.5664
 4579SOL    HW225374   0.597   0.714   8.913 -0.7195 -1.8332 -0.9634
 4580SOL     OW25375   3.259   0.094  14.013 -0.5383 -0.3048  0.0475
 4580SOL    HW125376   3.185   0.134  14.059 -1.0736 -0.9117 -0.2891
 4580SOL    HW225377   3.289   0.164  13.956 -1.1995 -0.0629 -0.0070
 4581SOL     OW25378   4.687   0.698   4.613 -0.5676  0.0542 -0.3628
 4581SOL    HW125379   4.696   0.784   4.654  1.1944 -0.5241  0.4875
 4581SOL    HW225380   4.659   0.638   4.682 -0.5839 -0.7750 -1.0887
 4582SOL     OW25381   1.149   4.016   2.402 -0.2894 -0.2462  0.2999
 4582SOL    HW125382   1.234   4.035   2.442  0.1528  0.4727 -0.9850
 4582SOL    HW225383   1.148   4.067   2.321  0.6389 -1.5537 -0.5169
 4583SOL     OW25384   2.353   0.478   8.687 -0.3429 -0.3712 -0.2202
 4583SOL    HW125385   2.289   0.411   8.714 -1.3568 -0.6059 -3.1627
 4583SOL    HW225386   2.432   0.425   8.693  0.6829  1.2735  0.7655
 4584SOL     OW25387   0.622   0.789   6.886 -0.3354  0.3706  0.7120
 4584SOL    HW125388   0.630   0.884   6.882 -1.5727  0.4882  0.9632
 4584SOL    HW225389   0.623   0.764   6.793 -0.1739 -1.0568  1.0956
 4585SOL     OW25390   1.782   0.975   5.239 -0.4354 -0.3443  0.6954
 4585SOL    HW125391   1.755   0.971   5.331  0.6000 -1.3865  0.9558
 4585SOL    HW225392   1.872   1.005   5.252 -0.3668 -0.6593  0.9728
 4586SOL     OW25393   0.328   4.093   5.757  0.0739  0.0318  0.2174
 4586SOL    HW125394   0.342   4.052   5.843 -0.6116  0.9911  0.7868
 4586SOL    HW225395   0.326   4.019   5.697 -1.1058  0.5709 -0.4089
 4587SOL     OW25396   0.882   4.470   7.859 -0.9343 -0.6117  0.4145
 4587SOL    HW125397   0.877   4.509   7.771 -1.5248 -2.1871 -0.2575
 4587SOL    HW225398   0.802   4.417   7.858 -2.0917  1.1245  1.8593
 4588SOL     OW25399   4.236   0.906  11.804  0.0589  0.5204 -0.0038
 4588SOL    HW125400   4.269   0.824  11.841 -1.9917 -0.0181  0.6450
 4588SOL    HW225401   4.253   0.903  11.710  2.7922  1.2039  0.4654
 4589SOL     OW25402   2.780   3.359   1.089  0.6683  0.0123 -0.2560
 4589SOL    HW125403   2.863   3.380   1.047  1.1497 -0.5523  0.4059
 4589SOL    HW225404   2.762   3.447   1.121  1.0545 -0.4193  1.1658
 4590SOL     OW25405   1.427   0.711   9.161  0.1329  0.2494  0.2957
 4590SOL    HW125406   1.354   0.683   9.217 -0.7017  1.7812 -0.0235
 4590SOL    HW225407   1.483   0.634   9.169 -0.0662  0.3383  2.6269
 4591SOL     OW25408   2.442   2.029   5.184  0.1472 -0.1266  0.1279
 4591SOL    HW125409   2.373   2.005   5.123 -0.8561  1.1974  0.7348
 4591SOL    HW225410   2.467   2.119   5.163 -0.6265 -0.2771 -1.4567
 4592SOL     OW25411   3.750   2.711   5.846 -0.3243  0.0130  0.4512
 4592SOL    HW125412   3.776   2.745   5.932 -2.5842  0.7293  0.8450
 4592SOL    HW225413   3.682   2.773   5.821 -2.3182 -2.0637  0.6396
 4593SOL     OW25414   3.112   2.703   6.899  0.0963  0.7954  0.0960
 4593SOL    HW125415   3.092   2.660   6.816 -0.2292  1.2671 -0.0685
 4593SOL    HW225416   3.117   2.626   6.955  1.8975 -0.0622 -1.2232
 4594SOL     OW25417   0.768   0.983   5.122 -0.1687 -0.2838 -0.4820
 4594SOL    HW125418   0.724   0.923   5.182  0.8454 -0.5750 -0.0311
 4594SOL    HW225419   0.825   1.038   5.175 -2.7551 -0.3614  2.3487
 4595SOL     OW25420   4.569   4.109   0.339  0.0311 -0.1009 -0.0277
 4595SOL    HW125421   4.618   4.129   0.419 -0.7405  1.0260  0.1721
 4595SOL    HW225422   4.490   4.077   0.384 -0.3736  0.9636  0.0283
 4596SOL     OW25423   0.116   1.273   5.944  0.0544  0.1246  0.2304
 4596SOL    HW125424   0.076   1.190   5.971 -2.1576  1.3783  0.7626
 4596SOL    HW225425   0.076   1.291   5.859 -1.9776 -0.2447  1.1008
 4597SOL     OW25426   0.982   3.646   7.672  0.0956  0.3901 -0.5107
 4597SOL    HW125427   0.986   3.570   7.729 -1.3592  1.7047  1.3332
 4597SOL    HW225428   1.073   3.648   7.641  0.9456 -1.6965  1.8922
 4598SOL     OW25429   3.752   0.674   2.957 -0.1234  0.3286 -0.6059
 4598SOL    HW125430   3.768   0.600   3.015 -1.5549  0.5677  0.0963
 4598SOL    HW225431   3.790   0.640   2.876 -0.0941 -0.8758 -0.0788
 4599SOL     OW25432   0.225   0.611   7.624  0.1677 -0.2671  0.6037
 4599SOL    HW125433   0.243   0.621   7.531 -1.3487  0.6165  0.3970
 4599SOL    HW225434   0.252   0.520   7.620 -1.1099 -0.6262  0.1632
 4600SOL     OW25435   0.572   2.658   8.332 -0.8389 -0.2783  0.4167
 4600SOL    HW125436   0.481   2.646   8.359 -1.1466  2.9733  0.9199
 4600SOL    HW225437   0.599   2.567   8.338 -1.3967 -0.5980 -1.9963
 4601SOL     OW25438   4.478   4.615   6.558 -0.3126  0.1824  0.3197
 4601SOL    HW125439   4.414   4.549   6.532 -1.4559  1.8101 -0.9774
 4601SOL    HW225440   4.501   4.658   6.476  0.5928 -1.8078 -0.4893
 4602SOL     OW25441   1.324   4.530   7.233  0.4247 -0.2820  0.0950
 4602SOL    HW125442   1.340   4.619   7.266  0.6894 -0.0280 -0.7206
 4602SOL    HW225443   1.276   4.548   7.152 -1.6140 -2.9724  0.6838
 4603SOL     OW25444   3.782   0.304   1.574  0.1677 -0.1487 -0.5326
 4603SOL    HW125445   3.722   0.291   1.501  0.7173 -1.0798 -0.8210
 4603SOL    HW225446   3.843   0.230   1.572 -0.1073 -0.3739 -0.5715
 4604SOL     OW25447   1.958   2.049   1.750  0.1001  0.0788  0.5494
 4604SOL    HW125448   1.951   2.092   1.835 -1.4734  0.1382  0.3910
 4604SOL    HW225449   2.005   2.119   1.704 -3.2417  0.5943 -2.0738
 4605SOL     OW25450   1.183   4.202   5.745  0.3683 -0.0587 -0.0598
 4605SOL    HW125451   1.095   4.232   5.767 -1.2509 -2.2284 -3.6069
 4605SOL    HW225452   1.176   4.188   5.651  1.1155  2.5914 -0.5176
 4606SOL     OW25453   2.771   0.719  14.068 -0.0930  0.1695 -0.8808
 4606SOL    HW125454   2.825   0.796  14.087  1.1772 -1.3532  1.8146
 4606SOL    HW225455   2.703   0.744  14.130  2.3556  0.1315  1.8528
 4607SOL     OW25456   1.649   3.543  16.473 -0.1717  0.7081 -0.0318
 4607SOL    HW125457   1.577   3.518  16.531  1.3134 -1.7497  0.7343
 4607SOL    HW225458   1.626   3.636  16.465 -0.9878  0.0489 -5.0526
 4608SOL     OW25459   2.723   0.825   4.206 -0.3600 -0.2034  0.3214
 4608SOL    HW125460   2.740   0.751   4.264  1.5221  0.8479  1.1070
 4608SOL    HW225461   2.775   0.806   4.127 -2.5256 -2.1352 -0.6586
 4609SOL     OW25462   3.261   3.313   4.516  0.5006  0.1831  0.5806
 4609SOL    HW125463   3.240   3.366   4.439  1.2140 -2.2845 -1.3089
 4609SOL    HW225464   3.174   3.277   4.531 -0.0532  1.2417 -0.0261
 4610SOL     OW25465   2.801   3.306  12.831 -0.2433 -0.0679 -0.3887
 4610SOL    HW125466   2.879   3.307  12.774  0.4605 -2.5076  0.5114
 4610SOL    HW225467   2.775   3.397  12.820  1.2967  0.5964  1.5026
 4611SOL     OW25468   1.813   2.641  10.220  0.0229 -0.6094 -0.2885
 4611SOL    HW125469   1.761   2.672  10.295  1.3904 -0.8941  0.7947
 4611SOL    HW225470   1.852   2.724  10.191  0.5755  0.5789  3.6942
 4612SOL     OW25471   3.933   4.674   5.450  0.3820  0.1354 -0.0031
 4612SOL    HW125472   3.911   0.025   5.421 -0.7497 -0.4616 -0.9639
 4612SOL    HW225473   3.881   4.628   5.385 -0.5962  0.2721  0.6792
 4613SOL     OW25474   2.108   4.631   2.855 -0.0859 -0.1135 -0.2994
 4613SOL    HW125475   2.125   4.619   2.761  0.8148 -2.1187  0.1130
 4613SOL    HW225476   2.172   4.696   2.883 -0.6824  0.1296  0.4925
 4614SOL     OW25477   2.739   1.096   7.508 -0.2127 -0.4490 -0.0655
 4614SOL    HW125478   2.763   1.095   7.415 -0.5840 -1.6847 -0.1561
 4614SOL    HW225479   2.808   1.142   7.556 -0.6169  0.4363 -0.3396
 4615SOL     OW25480   0.240   4.316   3.369 -0.3180 -0.3005 -0.0152
 4615SOL    HW125481   0.314   4.293   3.313 -0.0429 -1.2062  0.7213
 4615SOL    HW225482   0.226   4.247   3.433 -3.7423  1.7336  1.4997
 4616SOL     OW25483   2.183   4.273   1.771 -0.3312  0.2181  0.4170
 4616SOL    HW125484   2.205   4.190   1.729  0.1199  0.7703 -0.4288
 4616SOL    HW225485   2.172   4.251   1.863  0.8783  1.9843  0.9851
 4617SOL     OW25486   1.985   0.340   4.116  0.0408  0.6873 -0.0029
 4617SOL    HW125487   1.949   0.333   4.028  0.5072  1.2018 -0.2350
 4617SOL    HW225488   1.916   0.385   4.165 -1.0509 -1.8816  0.7876
 4618SOL     OW25489   2.416   3.305   6.513  0.6121  0.0163  0.3722
 4618SOL    HW125490   2.461   3.263   6.587 -1.0033 -0.8657  0.8698
 4618SOL    HW225491   2.336   3.333   6.559  0.7719  0.2246  0.5214
 4619SOL     OW25492   0.984   3.796   8.737  0.0562  1.0256  0.0587
 4619SOL    HW125493   0.975   3.888   8.762  1.7950  0.9258  1.0403
 4619SOL    HW225494   0.924   3.749   8.794  0.3121  1.0691  0.3693
 4620SOL     OW25495   0.226   4.036   3.443  0.1228  0.4384 -0.5500
 4620SOL    HW125496   0.190   3.948   3.449 -0.7118  0.7881 -0.3396
 4620SOL    HW225497   0.175   4.072   3.516 -1.4638  1.2295 -2.0521
 4621SOL     OW25498   1.270   2.290   2.226  0.4377  0.4315 -0.1695
 4621SOL    HW125499   1.176   2.278   2.216  0.2100  3.6871 -1.7941
 4621SOL    HW225500   1.271   2.359   2.293  0.1067 -0.3942  0.6838
 4622SOL     OW25501   2.154   1.374   0.277  0.2203 -0.4462 -0.2707
 4622SOL    HW125502   2.065   1.341   0.290  0.1219  0.9376  2.4706
 4622SOL    HW225503   2.180   1.313   0.208  0.0116  0.0338 -0.7771
 4623SOL     OW25504   2.625   1.630   2.281 -0.1466  0.4146 -0.2021
 4623SOL    HW125505   2.608   1.551   2.231  1.0895  0.7572 -1.1581
 4623SOL    HW225506   2.711   1.604   2.314 -0.7445  0.5343  1.4622
 4624SOL     OW25507   2.094   2.825   4.519  0.5409 -0.0441 -0.5592
 4624SOL    HW125508   2.082   2.863   4.606  1.2400  2.1128 -1.3948
 4624SOL    HW225509   2.087   2.906   4.467  2.2528  1.0287  0.8778
 4625SOL     OW25510   0.407   2.424   7.119  0.2156  0.1382 -0.4270
 4625SOL    HW125511   0.458   2.412   7.039  0.7366  0.5940 -0.1623
 4625SOL    HW225512   0.325   2.388   7.084  0.6434 -0.4499 -0.8312
 4626SOL     OW25513   0.802   2.000   3.257 -0.4166  0.1300  0.1133
 4626SOL    HW125514   0.895   1.991   3.278 -0.0039 -1.1797 -2.2002
 4626SOL    HW225515   0.785   1.909   3.230 -0.9059  0.3381 -0.2659
 4627SOL     OW25516   2.313   0.066   9.232 -0.3700  0.0816  0.5674
 4627SOL    HW125517   2.282   0.132   9.294  0.7370 -1.0405  2.3197
 4627SOL    HW225518   2.375   0.116   9.181  0.1960  0.1852  1.3555
 4628SOL     OW25519   3.971   2.218   5.257 -0.4415 -0.5169 -0.0778
 4628SOL    HW125520   3.933   2.303   5.235  0.6888  0.3823  1.4491
 4628SOL    HW225521   3.887   2.173   5.269 -0.1148 -1.0678  0.1652
 4629SOL     OW25522   3.814   2.857  14.959  0.4517 -0.3052  0.3460
 4629SOL    HW125523   3.849   2.911  15.030  2.5321  0.4757 -1.2833
 4629SOL    HW225524   3.724   2.890  14.950  0.9242  1.0917  0.7813
 4630SOL     OW25525   2.349   0.753   8.684 -0.4725 -0.0689  0.1723
 4630SOL    HW125526   2.425   0.763   8.740 -0.1450 -2.0082  0.0809
 4630SOL    HW225527   2.336   0.658   8.688 -3.1543  0.3562  2.0001
 4631SOL     OW25528   1.995   1.289   4.310  0.2405  0.4895  0.2037
 4631SOL    HW125529   2.012   1.258   4.221 -0.2870 -1.6839  0.8393
 4631SOL    HW225530   2.031   1.222   4.369  1.4212 -0.9039 -2.1151
 4632SOL     OW25531   4.695   2.912  16.499 -0.6108 -0.8524  0.3162
 4632SOL    HW125532   4.705   2.910  16.594 -4.7810 -1.6022  0.7604
 4632SOL    HW225533   0.032   2.964  16.471 -1.4557 -0.3415 -1.0232
 4633SOL     OW25534   3.811   2.799   4.711  0.2282  0.1633 -0.1699
 4633SOL    HW125535   3.722   2.804   4.674 -0.7344  0.1528  2.1683
 4633SOL    HW225536   3.815   2.887   4.747 -1.1176 -0.3849  1.3351
 4634SOL     OW25537   1.299   0.240  11.559  0.4575 -0.1915 -0.3466
 4634SOL    HW125538   1.357   0.180  11.605 -0.6794 -0.9419  0.1142
 4634SOL    HW225539   1.215   0.201  11.583 -0.4368  2.0130  0.1091
 4635SOL     OW25540   1.371   1.554   9.299  0.1532 -0.5776  0.5370
 4635SOL    HW125541   1.447   1.523   9.250  1.2574 -0.0233  1.8954
 4635SOL    HW225542   1.296   1.513   9.256  0.0897 -0.6032  0.6718
 4636SOL     OW25543   0.271   2.102   8.144 -0.2245  0.5606  0.3899
 4636SOL    HW125544   0.272   2.017   8.100  1.1631  0.0757  1.3547
 4636SOL    HW225545   0.183   2.088   8.177 -0.3182  1.3226  0.4613
 4637SOL     OW25546   1.637   1.228   9.717 -0.0097  0.0806 -0.0375
 4637SOL    HW125547   1.711   1.235   9.777 -0.0102 -0.1257 -0.0149
 4637SOL    HW225548   1.689   1.207   9.639 -0.3057 -1.6957  0.2470
 4638SOL     OW25549   0.731   0.559   4.508  0.0566  0.6587 -0.2390
 4638SOL    HW125550   0.784   0.573   4.429  2.2934  2.2376  1.5458
 4638SOL    HW225551   0.754   0.467   4.525 -0.7616 -0.0832 -3.0193
 4639SOL     OW25552   0.494   1.309  17.345 -0.1216 -0.1513 -0.2034
 4639SOL    HW125553   0.485   1.251  17.269 -2.3393 -0.7288  0.4985
 4639SOL    HW225554   0.416   1.362  17.331  0.4629  0.6974 -0.2658
 4640SOL     OW25555   0.884   0.528   3.950 -0.3316 -0.0812 -0.2470
 4640SOL    HW125556   0.978   0.521   3.968 -0.5496  0.0458  0.9577
 4640SOL    HW225557   0.888   0.556   3.859 -0.9603  1.1533  0.0899
 4641SOL     OW25558   0.962   4.527   1.220 -0.0114 -0.2342  0.0157
 4641SOL    HW125559   1.025   4.575   1.274  0.5799  1.0079 -1.7861
 4641SOL    HW225560   0.893   4.590   1.198 -0.4872 -0.0746  1.9839
 4642SOL     OW25561   2.375   2.665   1.031 -0.4283 -0.4354 -0.0903
 4642SOL    HW125562   2.391   2.713   1.112 -1.9909  0.3932 -0.2853
 4642SOL    HW225563   2.281   2.650   1.034 -0.5371  0.4656  0.7771
 4643SOL     OW25564   1.282   3.510   1.280 -0.2119  0.1001  0.2895
 4643SOL    HW125565   1.216   3.575   1.256 -1.4716 -0.7291  1.4936
 4643SOL    HW225566   1.354   3.528   1.220 -1.6163 -0.4532 -1.5455
 4644SOL     OW25567   3.360   4.662   0.175  0.3314 -0.0159  0.4077
 4644SOL    HW125568   3.302   4.591   0.149 -0.6771  0.1674  2.1804
 4644SOL    HW225569   3.413   4.673   0.096  1.4620  0.4081  1.2244
 4645SOL     OW25570   1.539   1.604   3.867 -0.0158 -0.7840 -0.1193
 4645SOL    HW125571   1.475   1.600   3.938  0.3288  0.2234  0.2440
 4645SOL    HW225572   1.567   1.695   3.878 -0.6174 -0.7540  1.1091
 4646SOL     OW25573   3.528   2.857  11.691 -0.5362 -0.4488 -0.3120
 4646SOL    HW125574   3.464   2.920  11.723  1.6824  1.1760  0.8673
 4646SOL    HW225575   3.605   2.913  11.682 -0.5284 -0.0437  2.3331
 4647SOL     OW25576   3.055   0.158  17.538  0.0098  0.0201  0.0596
 4647SOL    HW125577   3.085   0.235  17.586 -1.6758 -0.4737  1.9398
 4647SOL    HW225578   3.120   0.149  17.468 -0.3609  2.0993 -0.5630
 4648SOL     OW25579   3.624   3.151  12.731 -0.1681 -0.1194  0.6271
 4648SOL    HW125580   3.666   3.102  12.802 -0.1054  2.9403  2.6752
 4648SOL    HW225581   3.672   3.232  12.719 -0.6260  0.1009  0.2716
 4649SOL     OW25582   4.295   4.072   9.260 -0.2100  0.4803  0.1798
 4649SOL    HW125583   4.330   4.083   9.171  1.8886  0.5080  1.0227
 4649SOL    HW225584   4.204   4.092   9.237 -0.0763  2.5670  1.4582
 4650SOL     OW25585   1.464   2.145   3.545  0.1856  0.3959 -0.1467
 4650SOL    HW125586   1.445   2.177   3.457  0.1506 -1.7305 -0.9217
 4650SOL    HW225587   1.547   2.191   3.551  0.0102  0.3551  2.3697
 4651SOL     OW25588   4.089   4.372   3.001 -0.2693  0.0664  0.1404
 4651SOL    HW125589   4.008   4.390   2.953 -0.4189 -0.7223  0.0966
 4651SOL    HW225590   4.110   4.286   2.963 -0.1988  0.7525 -1.3671
 4652SOL     OW25591   1.429   0.356  12.677  0.1677  0.6535 -0.4092
 4652SOL    HW125592   1.522   0.378  12.679  0.5727 -1.0382 -0.8236
 4652SOL    HW225593   1.388   0.440  12.654 -2.4948 -0.6150 -0.3449
 4653SOL     OW25594   1.864   3.449  15.539 -0.0657  0.1100  0.1116
 4653SOL    HW125595   1.843   3.398  15.617  2.6694 -0.6298  0.3772
 4653SOL    HW225596   1.798   3.438  15.471  0.5000 -0.0084 -0.4183
 4654SOL     OW25597   1.331   0.511  11.464 -0.5223 -0.1610  0.5669
 4654SOL    HW125598   1.423   0.535  11.464 -0.1155 -1.7482 -0.5820
 4654SOL    HW225599   1.335   0.417  11.480 -1.1043 -0.2317  0.2945
 4655SOL     OW25600   3.532   4.109  17.731 -0.6939  0.0593 -0.1173
 4655SOL    HW125601   3.608   4.119   0.039 -0.2174 -2.6868 -0.2583
 4655SOL    HW225602   3.498   4.030   0.023 -1.0041  0.3359  0.1453
 4656SOL     OW25603   0.192   0.278  13.539 -0.6055 -0.3179 -0.2189
 4656SOL    HW125604   0.164   0.268  13.629  2.2088 -0.3203  0.6751
 4656SOL    HW225605   0.240   0.361  13.547 -0.3234 -0.4025 -0.9875
 4657SOL     OW25606   0.251   3.615   4.372  0.0255  0.1787 -0.3827
 4657SOL    HW125607   0.259   3.529   4.332 -1.1379  0.8465 -2.0769
 4657SOL    HW225608   0.345   3.631   4.364 -0.0099  0.5855 -0.0034
 4658SOL     OW25609   3.931   4.093   7.976  0.0257  0.2968  0.0753
 4658SOL    HW125610   3.998   4.133   7.920 -1.6070  0.0270 -2.0707
 4658SOL    HW225611   3.972   4.097   8.062 -1.4137 -0.0297  0.7708
 4659SOL     OW25612   1.588   3.256   2.513 -0.4598 -0.0295  0.3170
 4659SOL    HW125613   1.595   3.183   2.452  0.6902  1.0349 -0.8235
 4659SOL    HW225614   1.646   3.315   2.464 -1.9912  1.3546  0.1543
 4660SOL     OW25615   3.543   2.123   2.593  0.0464 -0.0822  0.1834
 4660SOL    HW125616   3.490   2.054   2.554  0.1659  1.0103 -1.9182
 4660SOL    HW225617   3.523   2.109   2.686 -0.1916  0.2803  0.1904
 4661SOL     OW25618   0.697   0.241   2.692  0.7163  0.1807 -0.3659
 4661SOL    HW125619   0.694   0.206   2.603 -0.4430  0.3407 -0.3877
 4661SOL    HW225620   0.720   0.334   2.687  0.7319  0.3115  2.1520
 4662SOL     OW25621   0.709   3.388   3.170  0.5645 -0.7888 -0.7327
 4662SOL    HW125622   0.687   3.409   3.079 -2.3614 -2.5427 -0.4213
 4662SOL    HW225623   0.679   3.468   3.212 -1.6922 -0.7685 -2.3816
 4663SOL     OW25624   0.516   3.637   8.883 -0.0676  0.1900 -0.3640
 4663SOL    HW125625   0.460   3.599   8.816  1.0470 -2.7726  0.3776
 4663SOL    HW225626   0.459   3.610   8.954  1.2272  2.6815  1.6291
 4664SOL     OW25627   2.189   4.566   5.651  0.0268  0.1142 -0.5534
 4664SOL    HW125628   2.213   4.478   5.621 -0.0073  0.1184 -0.5930
 4664SOL    HW225629   2.095   4.558   5.665  0.0979  2.8985  1.3409
 4665SOL     OW25630   1.003   0.718  15.068  0.4499 -0.1580 -0.5137
 4665SOL    HW125631   0.974   0.662  15.140  0.6338 -0.3510 -0.5902
 4665SOL    HW225632   0.957   0.677  14.995 -0.2788 -0.9063  0.3612
 4666SOL     OW25633   4.736   2.397   1.802 -0.2690 -1.1101  0.2061
 4666SOL    HW125634   0.010   2.366   1.892 -1.6732 -1.2045  0.3526
 4666SOL    HW225635   0.076   2.375   1.751 -0.0964 -0.3403  0.1283
 4667SOL     OW25636   2.591   0.741  14.262 -0.1356 -0.3469  0.1804
 4667SOL    HW125637   2.562   0.702  14.344  0.1728 -1.7419 -0.3879
 4667SOL    HW225638   2.570   0.829  14.294 -1.6647 -0.1574 -1.3235
 4668SOL     OW25639   0.623   4.177  11.324  0.4553 -0.5317  0.0795
 4668SOL    HW125640   0.665   4.114  11.265  2.4994  0.3900  0.5605
 4668SOL    HW225641   0.680   4.166  11.400 -1.4518 -0.7285  1.4834
 4669SOL     OW25642   3.864   0.941   0.523 -0.3046 -0.0950  0.3315
 4669SOL    HW125643   3.947   0.986   0.540  0.9092 -2.1544 -0.1673
 4669SOL    HW225644   3.874   0.933   0.428  0.6471 -0.6892  0.4815
 4670SOL     OW25645   2.857   2.693  15.966 -0.1783 -0.5328 -0.0650
 4670SOL    HW125646   2.913   2.621  15.996 -1.0336 -1.3304 -0.3981
 4670SOL    HW225647   2.840   2.671  15.875  1.8402  1.3799 -0.9137
 4671SOL     OW25648   3.817   2.750   5.579 -0.1117 -0.6523  0.0325
 4671SOL    HW125649   3.805   2.735   5.673 -0.8935 -1.0958 -0.1339
 4671SOL    HW225650   3.819   2.657   5.557  0.1450 -0.7999  0.6860
 4672SOL     OW25651   0.956   0.085   5.191 -0.5739 -0.1870 -0.1702
 4672SOL    HW125652   0.955   0.174   5.225 -0.5641 -0.0957 -0.4046
 4672SOL    HW225653   0.973   0.096   5.097  1.3932  2.0596  0.4756
 4673SOL     OW25654   0.568   0.731   1.299 -0.5778  0.0413 -0.1520
 4673SOL    HW125655   0.647   0.781   1.278 -0.4027 -0.6241 -1.0798
 4673SOL    HW225656   0.602   0.643   1.286 -3.5184 -0.8539 -1.8296
 4674SOL     OW25657   3.461   3.796   2.082 -0.4943 -0.1455 -0.8516
 4674SOL    HW125658   3.468   3.886   2.113 -1.1025 -0.0272 -1.0700
 4674SOL    HW225659   3.554   3.790   2.057 -0.2009 -2.6677  0.8458
 4675SOL     OW25660   2.199   1.087  11.409 -0.2262 -0.7119  0.0736
 4675SOL    HW125661   2.266   1.049  11.466 -0.6035 -2.2794 -0.5284
 4675SOL    HW225662   2.236   1.127  11.330  0.0138 -0.1328  0.4826
 4676SOL     OW25663   3.649   3.390  13.102  0.0590 -0.8713 -0.5165
 4676SOL    HW125664   3.692   3.471  13.128 -0.1951 -1.4591  1.7817
 4676SOL    HW225665   3.698   3.322  13.149  0.3510  0.2411  0.7680
 4677SOL     OW25666   4.142   2.599   3.325 -0.3231 -0.4545 -0.0749
 4677SOL    HW125667   4.200   2.618   3.398  1.7930  0.5202 -1.9977
 4677SOL    HW225668   4.088   2.677   3.315  0.5834  0.0841 -0.8974
 4678SOL     OW25669   3.786   1.421   5.642  0.5882 -0.2400  0.4522
 4678SOL    HW125670   3.720   1.434   5.711  0.0695 -0.1360 -0.0564
 4678SOL    HW225671   3.779   1.515   5.623  0.2554 -0.1767  0.8781
 4679SOL     OW25672   2.702   2.218   6.978  0.5528  0.0657  0.6879
 4679SOL    HW125673   2.607   2.212   6.971  0.6022 -0.1119  0.1647
 4679SOL    HW225674   2.722   2.286   6.913 -0.1961 -0.9822 -0.6528
 4680SOL     OW25675   3.850   1.429   7.240 -0.1102  0.1961  0.1846
 4680SOL    HW125676   3.783   1.497   7.242 -0.8994 -0.6001  1.1779
 4680SOL    HW225677   3.804   1.353   7.205  1.3669  0.1470 -1.6590
 4681SOL     OW25678   2.020   3.921   5.517  0.4710  0.1282 -0.5688
 4681SOL    HW125679   1.949   3.932   5.580  0.7983  0.4686 -0.2648
 4681SOL    HW225680   2.090   3.953   5.573  0.1533 -2.6594  1.4298
 4682SOL     OW25681   4.560   3.348   8.936  0.0309 -0.1557 -0.4949
 4682SOL    HW125682   4.582   3.256   8.922  0.4185 -0.1124 -0.1494
 4682SOL    HW225683   4.535   3.339   9.028 -2.0247  1.4258 -0.8948
 4683SOL     OW25684   2.831   3.665  14.125 -0.2283  0.2617 -0.2923
 4683SOL    HW125685   2.751   3.707  14.154 -0.7936 -0.4168 -0.8377
 4683SOL    HW225686   2.796   3.625  14.045 -1.3143 -1.6674  1.1381
 4684SOL     OW25687   1.939   4.557   2.623 -0.3078 -0.5335 -0.0759
 4684SOL    HW125688   1.847   4.565   2.645 -0.1513  2.7629 -0.6730
 4684SOL    HW225689   1.960   4.650   2.617 -2.7938 -0.0256 -0.7831
 4685SOL     OW25690   2.116   0.833   8.334 -0.5707 -0.0346 -0.1772
 4685SOL    HW125691   2.025   0.862   8.328 -0.6583 -0.4638 -0.9173
 4685SOL    HW225692   2.120   0.747   8.375 -0.3753 -0.3124 -0.7805
 4686SOL     OW25693   2.315   0.963  10.564 -0.2468 -0.5256 -0.9482
 4686SOL    HW125694   2.346   1.053  10.576  0.2357 -0.7533 -0.4723
 4686SOL    HW225695   2.314   0.927  10.653  2.8447  0.8695 -0.3465
 4687SOL     OW25696   2.391   0.691  12.709 -0.1339 -0.2960  0.3775
 4687SOL    HW125697   2.400   0.662  12.618  0.8664 -0.4264  0.5222
 4687SOL    HW225698   2.421   0.782  12.706  0.9079 -0.6413  0.1522
 4688SOL     OW25699   3.850   3.973  15.059  0.2774  0.4232  0.1635
 4688SOL    HW125700   3.843   4.052  15.005 -2.2049  1.8598  2.6194
 4688SOL    HW225701   3.757   3.960  15.076 -0.0121  1.3796 -0.6629
 4689SOL     OW25702   1.283   4.325   7.757 -0.8046 -0.2761 -0.1870
 4689SOL    HW125703   1.342   4.392   7.791 -0.3727 -0.7626  0.0235
 4689SOL    HW225704   1.226   4.371   7.695  0.8570  2.1113  0.0665
 4690SOL     OW25705   3.625   3.263   8.405  0.2391  0.4173 -0.1324
 4690SOL    HW125706   3.564   3.305   8.344  0.6419  1.4213  0.1590
 4690SOL    HW225707   3.596   3.174   8.388 -3.3094  0.7945  4.0384
 4691SOL     OW25708   3.739   0.302   9.385 -0.7439  0.2220  0.0305
 4691SOL    HW125709   3.685   0.305   9.464  0.6868 -2.5173  1.0910
 4691SOL    HW225710   3.808   0.361   9.416 -0.8953  0.6782 -0.4807
 4692SOL     OW25711   4.280   1.713   6.219  0.1880  0.2130 -0.6448
 4692SOL    HW125712   4.277   1.801   6.182 -1.2645  0.5434  0.2426
 4692SOL    HW225713   4.280   1.728   6.314 -0.2229  2.1153 -0.9419
 4693SOL     OW25714   1.855   0.959   1.838 -0.4276 -0.0980 -0.5907
 4693SOL    HW125715   1.843   1.052   1.820  2.8169  0.1623 -1.5821
 4693SOL    HW225716   1.774   0.937   1.883  0.0899 -0.3838  0.2111
 4694SOL     OW25717   0.215   2.063   2.114 -0.2157 -0.3250  0.0835
 4694SOL    HW125718   0.189   1.977   2.079 -0.7742 -0.4793  0.8703
 4694SOL    HW225719   0.260   2.035   2.194  0.9989  3.1907  0.6129
 4695SOL     OW25720   3.626   2.341   6.495  0.1160 -0.4457 -0.6214
 4695SOL    HW125721   3.647   2.248   6.501 -0.8546 -0.6057  0.4872
 4695SOL    HW225722   3.571   2.357   6.573 -0.1971 -1.8874 -0.5531
 4696SOL     OW25723   4.337   3.712   1.641 -0.8506  0.6417  0.2313
 4696SOL    HW125724   4.308   3.706   1.732  1.8941 -0.9997  1.0096
 4696SOL    HW225725   4.286   3.793   1.640 -1.1292  0.4816  1.5543
 4697SOL     OW25726   2.993   4.317  10.042 -0.0631 -0.0188 -0.1233
 4697SOL    HW125727   2.978   4.226  10.019  1.5697  0.0706 -1.5256
 4697SOL    HW225728   3.066   4.340   9.985  0.4243 -0.2640  0.3964
 4698SOL     OW25729   3.650   3.584   6.543  0.5979 -0.2375  0.4891
 4698SOL    HW125730   3.598   3.585   6.623 -1.6024  3.7250 -0.9710
 4698SOL    HW225731   3.736   3.576   6.586  0.4342 -0.0970  0.8447
 4699SOL     OW25732   3.747   1.171   3.117 -0.1411  0.1342  0.2881
 4699SOL    HW125733   3.812   1.175   3.047  0.5531 -0.0642  0.9214
 4699SOL    HW225734   3.752   1.265   3.138 -2.9722  0.5862 -1.0399
 4700SOL     OW25735   3.682   2.187  16.855  0.0866  0.4716  0.2607
 4700SOL    HW125736   3.676   2.279  16.881 -0.7012  0.7465 -0.8991
 4700SOL    HW225737   3.644   2.192  16.768 -0.5337 -2.3992  0.3516
 4701SOL     OW25738   2.442   1.772   5.725  0.1581 -0.5929 -0.3928
 4701SOL    HW125739   2.478   1.774   5.636  3.6750  2.5729  1.0858
 4701SOL    HW225740   2.494   1.844   5.761 -0.2088 -1.2088  1.3423
 4702SOL     OW25741   2.511   1.467   6.876 -0.0435 -0.4721 -0.3440
 4702SOL    HW125742   2.517   1.533   6.807  0.2870 -1.9555 -1.7368
 4702SOL    HW225743   2.577   1.495   6.939 -0.8400 -0.1167  0.3265
 4703SOL     OW25744   1.266   1.280   7.782 -0.2600  0.1181 -0.0832
 4703SOL    HW125745   1.360   1.264   7.774 -0.6071 -2.6970  1.3060
 4703SOL    HW225746   1.233   1.198   7.747  2.1078 -0.9025  0.0768
 4704SOL     OW25747   2.501   0.957   6.380 -0.4784  0.4744 -0.3516
 4704SOL    HW125748   2.538   0.887   6.327 -0.5842  1.9930 -2.4234
 4704SOL    HW225749   2.556   0.975   6.456 -2.6499  1.9908  0.8952
 4705SOL     OW25750   3.605   4.039   9.996  0.1045 -0.7364  0.1247
 4705SOL    HW125751   3.578   4.085  10.076 -0.7871 -1.6636  0.3711
 4705SOL    HW225752   3.604   3.949  10.029  3.2240 -0.9185 -0.3381
 4706SOL     OW25753   2.448   0.759   7.946  0.7284  0.4603 -0.6297
 4706SOL    HW125754   2.353   0.774   7.951  0.7700 -0.2068  1.9114
 4706SOL    HW225755   2.460   0.740   7.853  1.9786  2.3345 -0.8554
 4707SOL     OW25756   4.203   0.013   6.044  0.3289 -0.3201 -0.0236
 4707SOL    HW125757   4.123   0.063   6.061 -1.5295 -3.5976  1.0348
 4707SOL    HW225758   4.251   0.069   5.984 -1.1872  2.3782  1.2842
 4708SOL     OW25759   1.834   3.720   2.570  0.1883  0.1031 -0.0041
 4708SOL    HW125760   1.862   3.637   2.609  0.6740  0.7595  1.0305
 4708SOL    HW225761   1.907   3.731   2.510 -1.8752  1.4066 -2.2766
 4709SOL     OW25762   1.166   1.653   4.906  0.6722 -0.0988  0.0237
 4709SOL    HW125763   1.172   1.650   5.002  0.4951  0.3558  0.0470
 4709SOL    HW225764   1.225   1.581   4.881  0.6178  0.4713 -1.7318
 4710SOL     OW25765   4.593   3.036   7.335 -0.5942 -0.4002  0.1796
 4710SOL    HW125766   4.682   3.061   7.361 -0.4188  1.5458 -2.3645
 4710SOL    HW225767   4.547   3.117   7.359  0.6975  0.4095 -0.0703
 4711SOL     OW25768   3.867   1.784   5.327 -0.1379 -0.0586 -0.6215
 4711SOL    HW125769   3.822   1.726   5.388  1.7043  0.3882  1.1454
 4711SOL    HW225770   3.955   1.751   5.345 -0.2780  1.1966  2.2791
 4712SOL     OW25771   1.733   0.982   1.557  0.2923 -0.4022 -0.0377
 4712SOL    HW125772   1.770   0.982   1.645  0.2180  1.5964 -0.0053
 4712SOL    HW225773   1.804   0.998   1.496  0.4495 -0.5615  0.1055
 4713SOL     OW25774   1.617   4.132   7.473 -0.3031 -0.5356  0.0480
 4713SOL    HW125775   1.612   4.145   7.567 -2.1224  1.0406 -0.2669
 4713SOL    HW225776   1.580   4.044   7.466  3.8774 -2.1429 -2.1215
 4714SOL     OW25777   0.653   2.454   0.818 -0.4121 -0.1558  0.2540
 4714SOL    HW125778   0.660   2.525   0.881 -0.6292 -0.4374  0.5921
 4714SOL    HW225779   0.716   2.475   0.749 -2.8548 -1.1036 -2.3062
 4715SOL     OW25780   3.838   3.526  12.397 -0.3573 -0.3328  0.2809
 4715SOL    HW125781   3.822   3.435  12.372  1.9448 -1.4496  2.9342
 4715SOL    HW225782   3.845   3.572  12.313  2.4425 -0.4517  0.4771
 4716SOL     OW25783   1.536   3.436  13.295 -0.3091  0.1290 -0.1359
 4716SOL    HW125784   1.500   3.520  13.267 -0.4799 -0.3113 -1.2634
 4716SOL    HW225785   1.597   3.458  13.365 -1.4068 -0.5738  1.0445
 4717SOL     OW25786   1.006   3.690  10.384  0.4384 -0.5039  0.1304
 4717SOL    HW125787   0.926   3.741  10.397  0.9067  0.2017  0.2197
 4717SOL    HW225788   0.991   3.648  10.299 -1.3878  0.9148 -0.2369
 4718SOL     OW25789   2.519   3.118  16.918 -0.1666 -0.4883  0.3104
 4718SOL    HW125790   2.512   3.124  16.823 -1.5551 -2.1218  0.3009
 4718SOL    HW225791   2.587   3.184  16.930 -1.5922  1.0398 -0.0156
 4719SOL     OW25792   0.071   4.683   4.503 -0.1641 -0.3322  0.0181
 4719SOL    HW125793   0.085   4.664   4.595  0.5389  2.4821  0.4955
 4719SOL    HW225794   0.108   0.032   4.491  0.3641 -0.5828 -0.1351
 4720SOL     OW25795   2.036   2.576   6.388  0.1411 -0.1914 -0.1077
 4720SOL    HW125796   1.946   2.590   6.415 -0.3151 -1.4525 -0.9770
 4720SOL    HW225797   2.073   2.648   6.439  0.0334  0.9572 -1.6655
 4721SOL     OW25798   2.731   0.563  10.411  0.0834  0.1875  0.4037
 4721SOL    HW125799   2.652   0.588  10.362  0.9032  1.7981 -0.0894
 4721SOL    HW225800   2.700   0.483  10.453 -2.3905  0.6625 -0.5094
 4722SOL     OW25801   2.819   1.398   7.863  0.1348 -0.6099 -0.2379
 4722SOL    HW125802   2.742   1.393   7.920  0.1340 -1.3635 -0.3101
 4722SOL    HW225803   2.876   1.454   7.915 -1.2416  0.7263 -0.1644
 4723SOL     OW25804   4.596   0.501   5.129 -0.5334 -0.2059 -0.3298
 4723SOL    HW125805   4.586   0.484   5.223 -1.2652 -0.6610 -0.4898
 4723SOL    HW225806   4.508   0.478   5.099 -0.4980  0.1147 -0.6749
 4724SOL     OW25807   3.614   1.798   4.094 -0.0588 -0.4309 -0.4416
 4724SOL    HW125808   3.538   1.753   4.057 -1.4204  0.7215  0.9236
 4724SOL    HW225809   3.573   1.869   4.143 -0.5263 -1.9824  1.4203
 4725SOL     OW25810   4.564   0.311  13.323  0.1232  0.3593 -0.3773
 4725SOL    HW125811   4.577   0.385  13.383  1.5420 -1.3465  1.4017
 4725SOL    HW225812   4.479   0.282  13.356  1.1721  0.5622  2.5328
 4726SOL     OW25813   3.929   0.040   8.522 -0.2679 -0.2799  0.5975
 4726SOL    HW125814   3.859   0.008   8.579  0.6580 -0.1914  1.7871
 4726SOL    HW225815   4.008   0.005   8.564 -0.3786 -0.7664  0.4082
 4727SOL     OW25816   1.062   1.624   3.139  0.0586 -0.0146  0.3774
 4727SOL    HW125817   0.982   1.661   3.176 -0.5736  1.0497 -2.0464
 4727SOL    HW225818   1.134   1.678   3.171  1.1782 -1.4393  0.2649
 4728SOL     OW25819   2.213   1.840  14.094 -0.1621  0.2806  0.2694
 4728SOL    HW125820   2.121   1.858  14.113 -0.3083  0.9730 -1.1130
 4728SOL    HW225821   2.248   1.825  14.181  1.0799  0.5042 -0.1933
 4729SOL     OW25822   0.607   0.142   7.337 -0.3468 -0.0311  0.1559
 4729SOL    HW125823   0.539   0.197   7.376 -0.8148  0.4592 -1.3319
 4729SOL    HW225824   0.689   0.176   7.372 -1.5950  2.3433  0.8284
 4730SOL     OW25825   1.291   1.545  10.024 -0.4173 -0.2227  0.7060
 4730SOL    HW125826   1.377   1.572   9.992 -0.4615 -1.9696 -0.8659
 4730SOL    HW225827   1.248   1.535   9.939 -0.6863 -3.7411  1.2738
 4731SOL     OW25828   2.184   3.980   1.721  0.7588  0.1803  0.1289
 4731SOL    HW125829   2.198   3.886   1.712  1.2044  0.2526  0.0323
 4731SOL    HW225830   2.177   3.973   1.816  0.1915 -0.2924  0.0510
 4732SOL     OW25831   3.058   2.380   7.643 -0.0429 -0.4186  0.2770
 4732SOL    HW125832   3.058   2.406   7.735  1.0765 -1.5775  0.6024
 4732SOL    HW225833   3.053   2.287   7.666  1.6810 -0.4010  0.6669
 4733SOL     OW25834   1.153   0.998   8.312 -0.6908 -0.1445 -0.5715
 4733SOL    HW125835   1.099   1.033   8.383  0.0995  1.7249 -0.8801
 4733SOL    HW225836   1.087   1.010   8.243  0.6053  0.7933 -1.6542
 4734SOL     OW25837   0.766   1.525   0.430 -0.3046 -0.0314 -0.8201
 4734SOL    HW125838   0.834   1.554   0.491 -0.3698 -0.1844 -0.6720
 4734SOL    HW225839   0.799   1.570   0.353 -0.6077 -0.3121 -1.1150
 4735SOL     OW25840   3.071   3.079   8.106 -0.2641  0.3834 -0.3228
 4735SOL    HW125841   3.101   3.047   8.191 -1.5115  0.7061  0.2489
 4735SOL    HW225842   3.085   3.008   8.044 -0.4354  1.0551 -1.1193
 4736SOL     OW25843   4.044   3.335   9.801 -0.1454 -0.2223 -0.7613
 4736SOL    HW125844   4.037   3.253   9.752 -2.2380 -0.0271 -0.8258
 4736SOL    HW225845   4.042   3.300   9.890 -0.1929  0.8102 -0.3568
 4737SOL     OW25846   0.909   0.971  14.972 -0.2516  1.3020 -0.0991
 4737SOL    HW125847   0.949   0.889  15.002  0.3106  1.1137 -1.3803
 4737SOL    HW225848   0.958   1.031  15.028 -0.5113 -0.1581  1.6656
 4738SOL     OW25849   1.561   2.391  10.432  0.0144  0.1361  0.1915
 4738SOL    HW125850   1.548   2.445  10.353 -3.8201 -0.8774  0.1057
 4738SOL    HW225851   1.486   2.420  10.484 -1.3069  0.7410 -2.0259
 4739SOL     OW25852   2.059   0.108   4.868  0.5757 -0.3769 -0.1652
 4739SOL    HW125853   1.994   0.042   4.892  2.9828 -2.1843  1.4464
 4739SOL    HW225854   2.079   0.078   4.779 -0.9538 -1.3401 -0.1885
 4740SOL     OW25855   3.505   3.452   3.894  0.7167  0.5812 -0.4158
 4740SOL    HW125856   3.503   3.445   3.989  1.5362  1.1367 -0.3572
 4740SOL    HW225857   3.469   3.540   3.883 -3.6301 -1.0562  0.4502
 4741SOL     OW25858   0.042   2.079   3.711  0.1428  0.4262  0.1468
 4741SOL    HW125859   0.034   1.993   3.669  0.2904  1.5419 -2.2022
 4741SOL    HW225860   0.114   2.118   3.662  2.5408 -2.4757  1.3711
 4742SOL     OW25861   2.224   2.963   5.876 -0.1099 -0.1255 -0.2329
 4742SOL    HW125862   2.220   2.877   5.916  1.1019  0.5934  1.4071
 4742SOL    HW225863   2.243   3.021   5.950  1.1304 -2.5743  1.3492
 4743SOL     OW25864   3.949   0.415  16.752 -0.1160 -0.3099 -0.2829
 4743SOL    HW125865   4.031   0.408  16.702  0.1691 -2.0132  0.4121
 4743SOL    HW225866   3.984   0.417  16.841 -1.3939 -0.4611  0.2278
 4744SOL     OW25867   2.826   4.359   0.122 -0.0062  0.3451  0.5528
 4744SOL    HW125868   2.822   4.376   0.216  0.0616  0.0648  0.6058
 4744SOL    HW225869   2.866   4.272   0.127 -1.0191 -0.0949  1.1663
 4745SOL     OW25870   1.823   0.978   9.333  0.5155 -0.1780  0.1596
 4745SOL    HW125871   1.743   1.016   9.296  1.6785  1.4644 -0.6312
 4745SOL    HW225872   1.770   0.902   9.357  0.2095  0.0850  0.3152
 4746SOL     OW25873   2.918   0.569   4.921  0.0451 -0.6560 -0.7664
 4746SOL    HW125874   2.933   0.553   5.014 -0.5310 -0.8416 -0.7013
 4746SOL    HW225875   2.990   0.525   4.877 -0.6353 -0.4607 -2.0728
 4747SOL     OW25876   2.512   0.339   4.163 -0.1736 -0.1905  0.0025
 4747SOL    HW125877   2.496   0.245   4.164 -3.3655  0.3569 -0.0791
 4747SOL    HW225878   2.513   0.360   4.070 -0.7121  3.3085  0.7843
 4748SOL     OW25879   1.172   0.534   3.668 -0.0041  0.1406  0.0806
 4748SOL    HW125880   1.189   0.560   3.758  3.3962 -1.3067 -0.1526
 4748SOL    HW225881   1.083   0.501   3.679  0.0374 -0.9221 -2.7450
 4749SOL     OW25882   1.483   4.095  15.199 -0.1319  0.0676 -0.0721
 4749SOL    HW125883   1.577   4.100  15.182 -0.0234  1.5153  0.9068
 4749SOL    HW225884   1.474   4.184  15.235  0.1145 -0.5661  1.5733
 4750SOL     OW25885   3.337   2.156  10.045 -0.7581  0.2499  0.0133
 4750SOL    HW125886   3.265   2.207  10.009 -1.0676 -0.5561 -0.5074
 4750SOL    HW225887   3.319   2.172  10.138 -2.8224  0.6943 -0.4686
 4751SOL     OW25888   1.193   1.406  10.849 -0.0089 -0.5562 -0.7010
 4751SOL    HW125889   1.206   1.494  10.885 -1.4039 -0.1116 -1.3003
 4751SOL    HW225890   1.112   1.409  10.798 -1.5851 -1.3456  1.7677
 4752SOL     OW25891   1.845   3.993   9.607 -0.2034  0.7120 -0.2503
 4752SOL    HW125892   1.849   3.917   9.548  0.3419 -0.5142  1.3724
 4752SOL    HW225893   1.752   3.996   9.631 -0.3152  1.0544 -0.7252
 4753SOL     OW25894   4.662   3.047   4.620 -0.6055  0.2543 -0.0815
 4753SOL    HW125895   4.616   3.040   4.704 -2.1273  1.3348 -0.8119
 4753SOL    HW225896   4.601   2.990   4.574  0.3752  0.3066 -1.4190
 4754SOL     OW25897   4.091   0.275  15.782  0.7041  0.3560 -1.0226
 4754SOL    HW125898   4.091   0.364  15.748 -2.2635  0.0702 -1.8212
 4754SOL    HW225899   4.057   0.287  15.871 -2.8920  1.6245 -2.5500
 4755SOL     OW25900   4.152   1.671   8.106 -0.1695 -0.2274 -0.9147
 4755SOL    HW125901   4.236   1.716   8.102 -1.4408  2.1956 -0.4581
 4755SOL    HW225902   4.152   1.604   8.038  0.2904 -1.1147 -0.0357
 4756SOL     OW25903   2.664   4.487   3.244  0.0395 -0.3532 -0.0686
 4756SOL    HW125904   2.637   4.418   3.305  1.8259 -0.0680  1.0314
 4756SOL    HW225905   2.578   4.523   3.222  1.0448  1.3825 -1.1503
 4757SOL     OW25906   1.413   2.848   3.225 -0.1519 -0.1114 -0.3044
 4757SOL    HW125907   1.436   2.784   3.292  0.7780  0.8442  0.2853
 4757SOL    HW225908   1.431   2.799   3.144 -0.4380 -0.6181 -0.0612
 4758SOL     OW25909   4.629   2.570   7.060 -0.1425  0.3483 -0.2739
 4758SOL    HW125910   4.665   2.638   7.118  3.0306 -2.0735  0.6051
 4758SOL    HW225911   4.690   2.577   6.987 -0.2515 -1.5085 -0.5320
 4759SOL     OW25912   3.136   1.259   8.879  0.5332 -0.2527  0.7963
 4759SOL    HW125913   3.065   1.219   8.830  0.5700  0.4497  0.1805
 4759SOL    HW225914   3.180   1.306   8.809  0.0566  2.0613  2.0369
 4760SOL     OW25915   3.834   4.039  16.657  0.5409 -0.0221  0.3233
 4760SOL    HW125916   3.880   3.986  16.591 -0.4507  0.5784 -0.8468
 4760SOL    HW225917   3.800   3.975  16.719 -0.2041 -0.4721 -0.5544
 4761SOL     OW25918   1.050   3.807   2.537 -0.3707  0.1309  0.0344
 4761SOL    HW125919   1.088   3.886   2.498  1.2797 -0.0605  1.2556
 4761SOL    HW225920   1.119   3.778   2.598  1.5053  1.7432 -1.3360
 4762SOL     OW25921   4.070   2.742   6.367  0.4169 -0.1533 -0.0286
 4762SOL    HW125922   4.005   2.807   6.336  0.0491  0.0284  1.1386
 4762SOL    HW225923   4.158   2.776   6.354  1.3011 -2.0272  1.1153
 4763SOL     OW25924   2.580   1.381   8.021 -0.1284  0.2546  0.1512
 4763SOL    HW125925   2.535   1.449   8.071  0.5466 -0.1953  1.3676
 4763SOL    HW225926   2.554   1.314   8.085 -0.0456  1.0565  1.0242
 4764SOL     OW25927   3.805   2.679   2.705  0.4342 -0.0989  0.1963
 4764SOL    HW125928   3.852   2.724   2.775 -0.7998  0.0709  0.9113
 4764SOL    HW225929   3.766   2.600   2.742 -5.0097  2.3018 -0.4212
 4765SOL     OW25930   0.660   1.119   5.768 -0.3671  0.1254  0.5864
 4765SOL    HW125931   0.661   1.193   5.828  3.4617  1.1730 -0.7614
 4765SOL    HW225932   0.752   1.092   5.773 -0.9180 -1.5563  1.4672
 4766SOL     OW25933   4.536   0.683   6.019  0.4903  0.0911  0.2125
 4766SOL    HW125934   4.558   0.591   6.009 -0.9034 -0.1764 -0.4795
 4766SOL    HW225935   4.457   0.682   5.964 -0.1331 -1.1177  1.1234
 4767SOL     OW25936   0.449   2.981   6.038 -0.4506  0.4786 -0.0536
 4767SOL    HW125937   0.396   3.031   5.976 -0.4445  0.1214 -0.3429
 4767SOL    HW225938   0.448   2.893   6.000 -1.0352  0.2647  0.4446
 4768SOL     OW25939   0.839   3.595   6.078 -0.0495  0.1798 -0.0179
 4768SOL    HW125940   0.880   3.571   6.161  0.5105 -0.0877 -0.3776
 4768SOL    HW225941   0.831   3.510   6.036 -0.6783  0.2056  0.0427
 4769SOL     OW25942   3.243   2.573   3.049  0.0778 -0.2247  0.1268
 4769SOL    HW125943   3.305   2.501   3.061  1.0572  0.2269 -2.1375
 4769SOL    HW225944   3.303   2.640   3.015 -0.5809  0.6400  0.6751
 4770SOL     OW25945   3.021   0.741   3.218  0.4899 -0.2075  0.3428
 4770SOL    HW125946   2.956   0.788   3.269  0.7036 -0.9370  1.2777
 4770SOL    HW225947   3.101   0.773   3.259  0.0968  1.7353 -0.4138
 4771SOL     OW25948   2.413   0.465   4.692  0.5354  0.0582  0.0364
 4771SOL    HW125949   2.405   0.475   4.597  0.3452 -0.6189 -0.0205
 4771SOL    HW225950   2.452   0.377   4.683  0.0601 -0.1202 -0.2632
 4772SOL     OW25951   1.922   4.556   5.733  0.5015  0.2547 -0.3920
 4772SOL    HW125952   1.921   4.493   5.805 -2.0315  0.8148  0.0688
 4772SOL    HW225953   1.857   4.613   5.775 -1.5988 -0.7261 -2.3255
 4773SOL     OW25954   3.762   3.754   7.194 -0.1602 -0.0532  0.0581
 4773SOL    HW125955   3.813   3.735   7.273  1.6482  4.1918 -0.0883
 4773SOL    HW225956   3.718   3.838   7.209  0.8209  0.5996 -0.7105
 4774SOL     OW25957   0.206   4.086   8.079 -0.0461  0.0162  0.2726
 4774SOL    HW125958   0.269   4.018   8.102 -1.8091 -1.3335  1.0762
 4774SOL    HW225959   0.269   4.154   8.104 -2.2418  1.6608  1.4452
 4775SOL     OW25960   0.638   1.698   8.786 -0.2552  0.2238  0.1962
 4775SOL    HW125961   0.555   1.652   8.802  0.1406 -0.7307 -0.4878
 4775SOL    HW225962   0.701   1.629   8.765  0.5397  0.7121  0.9777
 4776SOL     OW25963   0.966   3.218   2.811  0.5327 -0.0075  0.1864
 4776SOL    HW125964   0.876   3.252   2.813  0.6821  0.4625 -1.0458
 4776SOL    HW225965   0.964   3.145   2.748  1.4615  0.3274 -0.2278
 4777SOL     OW25966   3.456   3.551   4.856 -0.6378 -0.3580 -0.0083
 4777SOL    HW125967   3.501   3.468   4.845  1.2278  0.8184 -1.4088
 4777SOL    HW225968   3.445   3.587   4.768 -1.9184  1.0064  0.6974
 4778SOL     OW25969   0.042   2.298  15.197  0.2745 -0.1294 -0.1151
 4778SOL    HW125970   0.061   2.236  15.268  3.4108 -0.7469 -1.5075
 4778SOL    HW225971   0.083   2.379  15.228  0.0179 -0.3439  0.7809
 4779SOL     OW25972   4.137   1.953   7.044  0.3591  0.2506 -0.4057
 4779SOL    HW125973   4.139   2.032   7.097 -1.0937  0.5664 -0.8215
 4779SOL    HW225974   4.230   1.931   7.042  0.4250  0.6268 -1.3216
 4780SOL     OW25975   0.851   4.073   5.912  0.1096 -0.4025  0.1080
 4780SOL    HW125976   0.842   4.101   5.820  0.0890 -1.7509 -0.2917
 4780SOL    HW225977   0.768   4.028   5.926  0.1040  0.6202  3.3852
 4781SOL     OW25978   3.598   3.764   8.843 -0.3466 -0.6078  0.4019
 4781SOL    HW125979   3.656   3.791   8.914 -0.1588 -0.3095  0.1361
 4781SOL    HW225980   3.571   3.846   8.802  2.3244 -0.4353 -1.0764
 4782SOL     OW25981   1.894   3.698   5.761 -0.3024 -0.0807  0.0181
 4782SOL    HW125982   1.805   3.690   5.727 -0.0640 -2.0963 -0.1529
 4782SOL    HW225983   1.901   3.776   5.816  2.6908 -1.3667  1.4748
 4783SOL     OW25984   0.198   3.132   1.240  0.0659  0.6294  0.5973
 4783SOL    HW125985   0.107   3.110   1.264  1.2784 -3.1520  1.7622
 4783SOL    HW225986   0.241   3.158   1.322  0.2449 -1.9853  1.3435
 4784SOL     OW25987   0.452   1.103   1.064 -0.3868  0.0215  0.2328
 4784SOL    HW125988   0.374   1.154   1.085 -1.4109 -0.7598 -1.6765
 4784SOL    HW225989   0.418   1.020   1.096 -0.6141 -0.1976 -0.5808
 4785SOL     OW25990   2.724   0.579   7.799  0.3303  0.1135  0.1897
 4785SOL    HW125991   2.660   0.640   7.763 -0.3307  0.1329  1.4187
 4785SOL    HW225992   2.801   0.636   7.801  1.1976 -1.0204 -1.3957
 4786SOL     OW25993   4.113   1.086   0.591 -1.0534  0.4019  0.1075
 4786SOL    HW125994   4.170   1.156   0.560 -3.6424  2.3174 -0.2990
 4786SOL    HW225995   4.151   1.009   0.548  0.3362  1.6877 -0.9375
 4787SOL     OW25996   0.801   4.009   3.331 -0.5118  0.7031  0.3875
 4787SOL    HW125997   0.845   3.929   3.302 -0.1257  1.3336 -0.7953
 4787SOL    HW225998   0.870   4.040   3.389 -0.2575 -1.8756  1.4472
 4788SOL     OW25999   3.291   2.738   3.664  0.1069 -0.0877  0.2084
 4788SOL    HW126000   3.200   2.723   3.642 -0.1262 -0.0830  1.1556
 4788SOL    HW226001   3.344   2.710   3.589  2.9154  2.0843  1.3290
 4789SOL     OW26002   4.036   2.118   5.707 -0.2217 -0.4475  0.2440
 4789SOL    HW126003   4.053   2.114   5.613 -0.9622 -1.3428  0.1445
 4789SOL    HW226004   4.125   2.088   5.724  0.1298  1.4023  1.6746
 4790SOL     OW26005   2.355   3.646  15.553  0.3461 -0.8271 -0.0318
 4790SOL    HW126006   2.292   3.714  15.529 -0.3622 -1.3552  0.3341
 4790SOL    HW226007   2.296   3.584  15.597 -0.1289  1.0156  1.9359
 4791SOL     OW26008   3.221   2.476   5.634 -0.2380 -0.2257 -0.2399
 4791SOL    HW126009   3.301   2.440   5.595 -0.2229  0.7205 -1.0901
 4791SOL    HW226010   3.214   2.417   5.709 -2.8445 -1.7341 -1.6788
 4792SOL     OW26011   2.061   3.611   0.445 -0.4573  0.3524  0.3321
 4792SOL    HW126012   2.006   3.536   0.419  0.8789 -1.2611  2.1647
 4792SOL    HW226013   1.996   3.675   0.473 -0.0560  0.6249  0.6411
 4793SOL     OW26014   1.185   0.788   1.981 -0.1521  0.1490 -0.3506
 4793SOL    HW126015   1.151   0.711   1.936  0.4149 -0.7823  0.8227
 4793SOL    HW226016   1.171   0.843   1.904  1.8231  0.2113 -0.6727
 4794SOL     OW26017   2.140   0.565   5.149 -0.3854 -0.3360 -0.2831
 4794SOL    HW126018   2.132   0.524   5.063  1.7217 -1.9044  0.2565
 4794SOL    HW226019   2.057   0.612   5.157 -1.8801 -2.8609 -1.0837
 4795SOL     OW26020   2.450   1.375   2.154 -0.3091  0.1765  0.1937
 4795SOL    HW126021   2.402   1.298   2.185 -0.3566 -0.9069 -2.6289
 4795SOL    HW226022   2.542   1.352   2.172 -0.6269 -0.1390  1.4631
 4796SOL     OW26023   3.308   0.700  14.559  0.2780  0.5088  0.1373
 4796SOL    HW126024   3.294   0.693  14.465 -1.5873 -0.5754  0.5026
 4796SOL    HW226025   3.299   0.606  14.574  0.8723  0.8530  2.6067
 4797SOL     OW26026   3.343   4.494   5.814 -0.2922  0.0184  0.1315
 4797SOL    HW126027   3.410   4.475   5.880 -0.8954 -0.5596  0.5766
 4797SOL    HW226028   3.302   4.575   5.846 -1.3884 -0.7266  0.5989
 4798SOL     OW26029   4.689   3.791  10.119  0.0301 -0.1939  0.2551
 4798SOL    HW126030   4.648   3.877  10.127 -1.9700 -1.1046 -0.0876
 4798SOL    HW226031   4.619   3.739  10.160 -2.1099  2.6943  0.2794
 4799SOL     OW26032   4.620   3.964  16.456 -0.0187  0.4621 -0.3975
 4799SOL    HW126033   4.574   4.047  16.444 -1.2769  0.2489  3.1012
 4799SOL    HW226034   4.550   3.910  16.419  0.1152 -1.8572  2.7520
 4800SOL     OW26035   4.457   4.070   3.396  0.2367  0.0156 -0.5566
 4800SOL    HW126036   4.457   4.141   3.460  0.2835 -0.3018 -0.2070
 4800SOL    HW226037   4.369   4.034   3.404  0.0146  0.5771 -0.4896
 4801SOL     OW26038   2.178   4.447  12.078 -0.2760  0.3411 -0.1342
 4801SOL    HW126039   2.203   4.391  12.005 -1.0547 -0.3166  0.1066
 4801SOL    HW226040   2.250   4.434  12.141 -0.2617  0.4274 -0.1326
 4802SOL     OW26041   3.880   3.769  17.140  0.3218  0.5052  0.5620
 4802SOL    HW126042   3.940   3.718  17.195  2.2267  1.9630 -0.1629
 4802SOL    HW226043   3.936   3.784  17.064 -0.4890 -3.6355 -0.8499
 4803SOL     OW26044   3.694   1.484   1.994 -0.7899  0.1071  0.0614
 4803SOL    HW126045   3.627   1.548   1.971 -0.0282  0.6116 -0.8097
 4803SOL    HW226046   3.641   1.406   1.978 -0.7349 -0.3924  2.3166
 4804SOL     OW26047   1.509   3.182   7.216  0.0143 -0.1629  0.1632
 4804SOL    HW126048   1.453   3.112   7.182  1.1999 -1.4020  0.7694
 4804SOL    HW226049   1.596   3.144   7.204  0.2150  0.7584 -1.2517
 4805SOL     OW26050   0.252   2.361   3.688  0.1305 -0.0079 -0.8411
 4805SOL    HW126051   0.256   2.451   3.655 -1.6680  0.5976  0.6055
 4805SOL    HW226052   0.253   2.315   3.604  3.4357 -0.7076 -0.4153
 4806SOL     OW26053   2.540   2.947  15.835 -0.8172  0.0287 -0.1228
 4806SOL    HW126054   2.499   3.030  15.809  0.6700  0.9512  0.4513
 4806SOL    HW226055   2.535   2.948  15.931 -1.7242  1.6163 -0.1824
 4807SOL     OW26056   3.605   3.015   8.293 -0.5379  0.2792 -0.1861
 4807SOL    HW126057   3.562   2.945   8.344  0.7599 -0.5736 -0.2644
 4807SOL    HW226058   3.679   2.970   8.254  0.1267  1.0412  0.1991
 4808SOL     OW26059   0.150   2.629   6.157  0.6924 -0.4266 -0.0913
 4808SOL    HW126060   0.149   2.723   6.176  3.2524 -0.5909  0.8879
 4808SOL    HW226061   0.115   2.596   6.240  1.1550 -0.0884  0.2368
 4809SOL     OW26062   1.666   0.423   8.886 -0.0113 -0.5479  0.0281
 4809SOL    HW126063   1.758   0.402   8.899  0.3891 -0.4647 -2.5103
 4809SOL    HW226064   1.668   0.465   8.800 -0.8455 -1.8528 -0.6519
 4810SOL     OW26065   0.541   3.427   9.538  0.6606  0.1757 -0.0409
 4810SOL    HW126066   0.592   3.362   9.587  0.2203  0.1272  0.3453
 4810SOL    HW226067   0.458   3.378   9.539  0.7179  0.0502 -0.7715
 4811SOL     OW26068   4.162   0.367   8.840  0.1561  0.4460 -0.2922
 4811SOL    HW126069   4.205   0.391   8.758 -0.2539  0.1795 -0.5840
 4811SOL    HW226070   4.188   0.440   8.897  0.1952  0.2803 -0.0966
 4812SOL     OW26071   2.500   1.978   4.031  0.1123 -0.6941  0.1465
 4812SOL    HW126072   2.479   2.024   3.950  1.3592  0.5190  0.5203
 4812SOL    HW226073   2.502   2.044   4.101  1.2249  0.5550 -1.0735
 4813SOL     OW26074   0.035   1.730   9.868  0.6837  0.2348 -0.3207
 4813SOL    HW126075   0.034   1.712   9.774  0.7030  2.1601 -0.6816
 4813SOL    HW226076   0.040   1.638   9.896 -0.4918  0.3511  0.2965
 4814SOL     OW26077   1.463   4.018   1.576  0.4710  0.4494  0.1015
 4814SOL    HW126078   1.488   3.938   1.529  0.1334  0.7979 -0.6604
 4814SOL    HW226079   1.369   4.019   1.559  0.5148  1.3761 -0.0595
 4815SOL     OW26080   1.314   2.842   2.805  0.0337  0.0418 -0.1630
 4815SOL    HW126081   1.248   2.790   2.853  1.2652 -1.1902  0.1978
 4815SOL    HW226082   1.388   2.824   2.863 -2.2330 -2.6300  1.9831
 4816SOL     OW26083   3.793   3.272   3.369  0.0806 -0.1504  0.1936
 4816SOL    HW126084   3.810   3.244   3.459  1.1230 -0.6491 -0.1561
 4816SOL    HW226085   3.758   3.193   3.328  0.9889 -0.5198  0.1261
 4817SOL     OW26086   0.856   0.763  12.904 -0.2961 -0.5581 -0.4738
 4817SOL    HW126087   0.947   0.734  12.915 -0.4660 -0.9880 -0.2224
 4817SOL    HW226088   0.792   0.692  12.914 -2.2278  0.8126 -3.1557
 4818SOL     OW26089   2.762   3.401   2.028  0.7623  0.0949 -0.1626
 4818SOL    HW126090   2.726   3.456   1.959 -0.2077 -1.6541 -1.0439
 4818SOL    HW226091   2.792   3.333   1.967 -0.3807 -2.3227  1.9492
 4819SOL     OW26092   3.997   0.416   3.340  0.2146 -0.2093 -0.3738
 4819SOL    HW126093   4.001   0.338   3.286  2.5878  0.8767 -1.7791
 4819SOL    HW226094   3.995   0.490   3.279 -0.6797 -0.6474 -0.8707
 4820SOL     OW26095   2.081   3.814  14.043  0.1816  0.0272  0.0939
 4820SOL    HW126096   2.107   3.897  14.081 -0.0774  0.9924 -1.8343
 4820SOL    HW226097   1.995   3.789  14.077  1.1647 -0.0113  2.5577
 4821SOL     OW26098   2.629   2.199   2.110  0.4689  0.0782 -0.3075
 4821SOL    HW126099   2.623   2.233   2.021  2.5477 -1.7762 -1.1477
 4821SOL    HW226100   2.555   2.138   2.113  0.5656  0.0630  2.1546
 4822SOL     OW26101   2.711   4.535   4.170  0.2156 -0.4108  0.0454
 4822SOL    HW126102   2.669   4.470   4.115  1.2395 -0.7813 -0.3037
 4822SOL    HW226103   2.791   4.560   4.122  0.1922  1.7594  1.1089
 4823SOL     OW26104   4.204   3.558  10.158  0.4642  0.4780 -0.5985
 4823SOL    HW126105   4.177   3.650  10.162  0.8189  0.5431  0.3455
 4823SOL    HW226106   4.135   3.528  10.099 -0.1117  1.8800 -0.6235
 4824SOL     OW26107   2.415   2.592   6.239  0.8767  0.5146  0.2702
 4824SOL    HW126108   2.350   2.549   6.184  2.0109 -0.6861 -0.1387
 4824SOL    HW226109   2.449   2.658   6.178 -0.2840  1.2322  0.4055
 4825SOL     OW26110   3.808   1.299  17.058  0.3865 -0.1481  0.3945
 4825SOL    HW126111   3.774   1.211  17.043  0.8393 -0.5339  1.6286
 4825SOL    HW226112   3.861   1.305  16.979  0.3050 -4.3538  0.0303
 4826SOL     OW26113   2.643   3.233  13.432  0.5607 -0.1550  0.2998
 4826SOL    HW126114   2.602   3.291  13.497  0.6222 -0.6934  0.8252
 4826SOL    HW226115   2.621   3.150  13.474  1.5455 -0.2631  0.5993
 4827SOL     OW26116   4.557   1.406   0.230  0.2916 -0.0320  0.1022
 4827SOL    HW126117   4.638   1.454   0.245  0.1635  0.7463 -1.6651
 4827SOL    HW226118   4.591   1.318   0.248 -0.4043 -0.9016 -2.8924
 4828SOL     OW26119   2.139   2.870   6.405  0.4438  0.1287  0.6566
 4828SOL    HW126120   2.100   2.924   6.336  0.0854 -1.7205 -0.5935
 4828SOL    HW226121   2.142   2.926   6.482 -0.8432  2.8616 -1.2777
 4829SOL     OW26122   2.324   2.170  17.291  0.3112 -0.0843 -0.1128
 4829SOL    HW126123   2.303   2.083  17.257 -2.8247  0.6983 -0.1328
 4829SOL    HW226124   2.250   2.174  17.352 -0.1128  1.2404 -0.7230
 4830SOL     OW26125   3.122   4.062   9.174  0.0296 -0.0907 -0.2113
 4830SOL    HW126126   3.137   3.997   9.105  4.4218 -0.8203  1.4576
 4830SOL    HW226127   3.027   4.070   9.165  0.0543  0.6541  0.1632
 4831SOL     OW26128   1.257   4.655  10.660 -0.2880 -0.0875 -0.2893
 4831SOL    HW126129   1.289   4.649  10.750  1.5605 -1.7075 -1.0358
 4831SOL    HW226130   1.295   4.737  10.629 -0.7251 -0.3407 -1.4834
 4832SOL     OW26131   0.234   3.720   5.216 -0.0489  0.1030  0.6445
 4832SOL    HW126132   0.171   3.783   5.250 -0.2652  0.1092  0.2276
 4832SOL    HW226133   0.186   3.682   5.143 -0.8319  0.8155  0.7974
 4833SOL     OW26134   4.197   1.440   7.908 -0.2441 -0.2805  0.1784
 4833SOL    HW126135   4.226   1.353   7.881 -1.4433 -0.0764 -1.7724
 4833SOL    HW226136   4.102   1.430   7.905 -0.3151 -0.5089  3.1236
 4834SOL     OW26137   1.351   2.741   5.199 -0.9544 -0.0719  0.4308
 4834SOL    HW126138   1.393   2.759   5.283  0.8478  3.5850 -1.2647
 4834SOL    HW226139   1.428   2.722   5.145 -0.6880  0.5738  0.5768
 4835SOL     OW26140   3.201   3.470   6.366  0.2208 -0.1329  0.4643
 4835SOL    HW126141   3.111   3.442   6.380 -0.8370  3.3446  0.4860
 4835SOL    HW226142   3.244   3.385   6.381 -0.1720 -0.5244 -0.6203
 4836SOL     OW26143   1.144   1.439   9.147  0.2833  0.0764 -0.2532
 4836SOL    HW126144   1.154   1.362   9.092 -0.6244  0.1811 -0.5650
 4836SOL    HW226145   1.089   1.493   9.089 -1.5848  0.2161  1.6359
 4837SOL     OW26146   4.467   2.851   3.750 -0.3097  0.3667  0.1436
 4837SOL    HW126147   4.536   2.887   3.806  0.8652 -1.0831 -0.3991
 4837SOL    HW226148   4.424   2.806   3.822 -1.5479 -1.1457 -1.5417
 4838SOL     OW26149   2.545   2.363   1.906 -0.7496  0.0802 -0.1057
 4838SOL    HW126150   2.557   2.324   1.819 -2.1534  0.7298 -0.5890
 4838SOL    HW226151   2.449   2.369   1.910 -0.7558 -0.4059  0.4722
 4839SOL     OW26152   0.655   2.615   9.112  0.1048  0.3361  0.3245
 4839SOL    HW126153   0.745   2.599   9.141 -0.3897 -1.3519  0.9280
 4839SOL    HW226154   0.646   2.531   9.067  0.9920  0.5001 -0.1801
 4840SOL     OW26155   1.280   2.403   7.115  0.7293  0.2902 -0.1064
 4840SOL    HW126156   1.206   2.438   7.065  2.0151  0.2534 -2.0655
 4840SOL    HW226157   1.353   2.430   7.059  2.1460 -0.6979  1.2737
 4841SOL     OW26158   0.779   2.576   7.657  0.4127 -0.1288 -0.6533
 4841SOL    HW126159   0.794   2.508   7.723 -0.3867  0.6549  0.3457
 4841SOL    HW226160   0.866   2.597   7.623  0.7455  0.1937  0.3784
 4842SOL     OW26161   2.323   2.716   6.985 -0.3643  0.0432 -0.3009
 4842SOL    HW126162   2.350   2.676   7.068  0.6675  0.4328 -0.4506
 4842SOL    HW226163   2.231   2.694   6.969  0.0078  0.0528 -2.4406
 4843SOL     OW26164   3.181   4.566  14.878  0.1276  0.1809 -0.0718
 4843SOL    HW126165   3.164   4.508  14.804 -0.2113 -2.7106  2.2852
 4843SOL    HW226166   3.248   4.524  14.933 -1.3609  0.3341  1.8553
 4844SOL     OW26167   0.974   4.240   8.001  0.2741 -0.1048  0.1276
 4844SOL    HW126168   1.069   4.247   8.013  0.3072 -1.5378  0.6455
 4844SOL    HW226169   0.951   4.333   7.995  0.7397 -0.0481 -0.9393
 4845SOL     OW26170   3.966   3.726  13.688  0.1563 -0.7368  0.5158
 4845SOL    HW126171   3.962   3.802  13.746  0.8597  2.1210 -3.2247
 4845SOL    HW226172   3.915   3.660  13.735 -1.6482  0.8172  0.7282
 4846SOL     OW26173   2.509   3.519   7.956 -0.2686  0.4361  0.5193
 4846SOL    HW126174   2.576   3.509   8.024  0.7901 -0.2077 -0.5955
 4846SOL    HW226175   2.434   3.498   8.010 -0.2025 -1.0404  0.0386
 4847SOL     OW26176   2.188   0.800   1.555  0.2896  0.3565 -0.7230
 4847SOL    HW126177   2.105   0.789   1.602  0.5276  1.0458 -0.1303
 4847SOL    HW226178   2.243   0.768   1.626  1.7033  2.6343 -0.7847
 4848SOL     OW26179   2.692   1.676   4.971 -0.5975 -0.2778  0.4718
 4848SOL    HW126180   2.660   1.624   4.898 -2.4256  2.3623 -0.6264
 4848SOL    HW226181   2.738   1.609   5.021  0.0143 -0.6632 -0.6125
 4849SOL     OW26182   0.637   4.294   2.201  0.4197 -0.1751 -0.0628
 4849SOL    HW126183   0.722   4.288   2.245  0.8099 -0.2529 -0.8226
 4849SOL    HW226184   0.653   4.245   2.120  0.3341 -1.1295  0.4964
 4850SOL     OW26185   0.337   3.203   1.012  0.2642 -0.0831 -0.3163
 4850SOL    HW126186   0.272   3.262   0.976  1.3745  1.8302  0.8216
 4850SOL    HW226187   0.303   3.186   1.100 -1.9624  0.1944 -1.1433
 4851SOL     OW26188   4.390   4.656   5.062  0.1515 -0.3043  0.1174
 4851SOL    HW126189   4.431   4.585   5.013  2.5261  2.5460 -1.9950
 4851SOL    HW226190   4.313   4.605   5.087  0.2783 -0.5768 -0.0583
 4852SOL     OW26191   3.938   3.763   6.886  0.3645 -0.0597 -0.1309
 4852SOL    HW126192   3.918   3.818   6.811 -2.8561 -1.8872 -0.6270
 4852SOL    HW226193   4.027   3.779   6.918 -0.5657  1.0851  1.8384
 4853SOL     OW26194   2.296   1.396  12.246 -0.0890 -0.0733  0.1181
 4853SOL    HW126195   2.339   1.337  12.308  0.2668 -1.4088 -1.4085
 4853SOL    HW226196   2.374   1.445  12.218 -0.3958  0.5229  0.2879
 4854SOL     OW26197   2.885   0.653   2.979  0.1157 -0.2911 -0.5297
 4854SOL    HW126198   2.931   0.662   3.063 -0.3526  0.0532 -0.3040
 4854SOL    HW226199   2.828   0.730   2.991 -1.2579 -1.7358  2.2320
 4855SOL     OW26200   1.020   0.887   3.328  0.6170 -0.0736 -0.7448
 4855SOL    HW126201   1.042   0.897   3.236 -1.6672  0.0416 -1.2821
 4855SOL    HW226202   1.100   0.864   3.375  1.5124  1.2184 -1.6452
 4856SOL     OW26203   4.661   2.742   3.523 -0.2913 -0.1668  0.2624
 4856SOL    HW126204   4.646   2.737   3.618  3.6627  2.6199  1.0392
 4856SOL    HW226205   4.640   2.832   3.502  2.8920  0.5348  0.0712
 4857SOL     OW26206   4.372   1.057  12.299 -0.2118 -0.0937 -0.3043
 4857SOL    HW126207   4.357   1.092  12.211  0.9497  1.4663  0.1013
 4857SOL    HW226208   4.283   1.060  12.334 -0.5835  1.9537 -1.4100
 4858SOL     OW26209   2.351   0.238   3.344  0.0234 -0.1175  0.0475
 4858SOL    HW126210   2.445   0.226   3.336 -0.0864 -0.3727 -0.9652
 4858SOL    HW226211   2.331   0.320   3.299  2.0447  0.2580 -0.1667
 4859SOL     OW26212   0.503   0.740   6.215  0.0918  0.3641 -0.0948
 4859SOL    HW126213   0.543   0.782   6.138  0.6068  2.7228  1.4819
 4859SOL    HW226214   0.459   0.818   6.248  2.2725  2.5714 -2.4121
 4860SOL     OW26215   1.653   0.367   1.110  0.1645  0.2733 -0.0720
 4860SOL    HW126216   1.722   0.346   1.048 -0.6274 -3.1012  0.1735
 4860SOL    HW226217   1.677   0.449   1.154 -1.8371  1.7505 -1.6923
 4861SOL     OW26218   4.403   0.718   4.900 -0.6063 -0.1914 -0.1667
 4861SOL    HW126219   4.351   0.643   4.872 -0.0398 -0.4917 -0.4210
 4861SOL    HW226220   4.489   0.682   4.878 -1.4345 -0.6109 -2.7458
 4862SOL     OW26221   1.788   2.370   1.279 -0.7640 -0.1309 -0.4891
 4862SOL    HW126222   1.778   2.463   1.262 -2.0282 -0.3399 -0.8891
 4862SOL    HW226223   1.855   2.362   1.348 -3.7961  0.2371  2.4889
 4863SOL     OW26224   3.298   0.682   4.824  0.5352  0.0012 -0.2923
 4863SOL    HW126225   3.325   0.594   4.850 -0.7685 -0.7273 -1.4172
 4863SOL    HW226226   3.356   0.688   4.749 -1.2352 -2.1836 -1.8264
 4864SOL     OW26227   1.227   3.428   6.371 -0.3289 -0.3366 -0.3207
 4864SOL    HW126228   1.203   3.345   6.329  0.4201 -0.5407 -0.3388
 4864SOL    HW226229   1.309   3.449   6.326 -0.1008 -0.0760  0.2256
 4865SOL     OW26230   3.908   4.684   5.162  0.3164 -0.2156  0.1773
 4865SOL    HW126231   3.846   4.615   5.184  0.9292 -0.6315  0.6058
 4865SOL    HW226232   3.860   0.005   5.104  1.0024 -0.7234 -0.9042
 4866SOL     OW26233   0.180   3.957  11.478 -0.3902  0.3241 -0.5231
 4866SOL    HW126234   0.238   3.964  11.401  0.6467 -1.1599  0.1107
 4866SOL    HW226235   0.169   4.047  11.506  2.3320  0.3007  0.6553
 4867SOL     OW26236   0.377   3.730   6.098  0.2658 -0.0349  0.4412
 4867SOL    HW126237   0.467   3.716   6.126 -0.2647 -2.7753  0.7194
 4867SOL    HW226238   0.338   3.673   6.164  0.3958  0.9629  1.3911
 4868SOL     OW26239   2.104   0.579   6.611  0.0086 -0.7438 -0.2658
 4868SOL    HW126240   2.049   0.509   6.648  0.5114 -1.3169 -0.5970
 4868SOL    HW226241   2.086   0.653   6.669  0.3158 -0.0811 -1.0184
 4869SOL     OW26242   4.379   0.234   3.339 -0.1637  0.2470 -0.1337
 4869SOL    HW126243   4.327   0.208   3.264 -0.3089 -0.8578  0.3575
 4869SOL    HW226244   4.455   0.178   3.326 -0.1001  0.3769 -0.3277
 4870SOL     OW26245   1.614   0.850   7.800 -1.1375 -0.4506  0.5188
 4870SOL    HW126246   1.520   0.860   7.818 -1.4239 -1.0885 -0.6034
 4870SOL    HW226247   1.628   0.760   7.831 -1.9082 -0.2485  1.4449
 4871SOL     OW26248   0.823   1.321   7.872  0.3895  0.3227  0.0768
 4871SOL    HW126249   0.866   1.398   7.835  0.3600  0.0446 -0.5312
 4871SOL    HW226250   0.829   1.320   7.968 -0.8553  2.3821  0.1686
 4872SOL     OW26251   2.133   4.632   9.119 -0.5041  0.1156  0.0918
 4872SOL    HW126252   2.136   4.719   9.160  0.3077  0.0083  0.2438
 4872SOL    HW226253   2.101   4.576   9.190 -1.4545  0.5734  0.0227
 4873SOL     OW26254   1.132   3.811   3.640 -0.4469 -0.3282 -0.8492
 4873SOL    HW126255   1.211   3.833   3.689  0.3656 -2.9218 -0.9891
 4873SOL    HW226256   1.070   3.797   3.712  0.0624  0.0607 -0.3332
 4874SOL     OW26257   0.280   3.088   3.762 -0.0709 -0.3862 -0.4045
 4874SOL    HW126258   0.292   3.062   3.671 -0.5308 -2.5658  0.1801
 4874SOL    HW226259   0.186   3.104   3.756  0.3670  3.5714  2.7776
 4875SOL     OW26260   1.866   2.178   5.029 -0.4311  0.3504 -0.0543
 4875SOL    HW126261   1.885   2.093   5.070 -0.3908  0.2023 -0.3773
 4875SOL    HW226262   1.938   2.192   4.968  2.0762 -0.9323  2.6149
 4876SOL     OW26263   4.444   0.315   2.904  0.3212 -0.0893 -0.6063
 4876SOL    HW126264   4.456   0.237   2.958  2.7132  0.3306 -0.5259
 4876SOL    HW226265   4.446   0.276   2.816  1.4466 -1.1788 -0.0940
 4877SOL     OW26266   0.798   0.458   2.533 -0.6604  0.2634  0.0552
 4877SOL    HW126267   0.704   0.440   2.530 -0.9225  1.7435 -0.6239
 4877SOL    HW226268   0.798   0.545   2.494 -0.2056  0.9028  1.4691
 4878SOL     OW26269   1.336   4.580   9.163  0.1286 -0.2603  0.4703
 4878SOL    HW126270   1.328   4.522   9.238  0.4226  0.1704  0.8337
 4878SOL    HW226271   1.419   4.560   9.120  0.1437 -0.8146  0.7549
 4879SOL     OW26272   4.423   3.919   9.022  0.6842  0.1924 -0.0260
 4879SOL    HW126273   4.376   3.971   8.957 -2.3050  0.1470  2.0609
 4879SOL    HW226274   4.398   3.829   9.000 -1.2110  0.9432 -0.9605
 4880SOL     OW26275   3.978   2.823   3.387  0.4534  0.0403 -0.4973
 4880SOL    HW126276   3.899   2.792   3.432  0.3008  1.6648  0.3521
 4880SOL    HW226277   4.032   2.846   3.463  0.3750 -2.4850  0.3183
 4881SOL     OW26278   0.774   4.310  15.250  0.0268  0.3592  0.5806
 4881SOL    HW126279   0.729   4.329  15.167  0.0381 -3.9708 -0.4137
 4881SOL    HW226280   0.699   4.275  15.298 -0.4621  0.2204 -0.2796
 4882SOL     OW26281   1.774   1.765   6.180  0.4598 -0.1562 -0.0175
 4882SOL    HW126282   1.863   1.731   6.184  0.7273  0.5680  0.2098
 4882SOL    HW226283   1.761   1.772   6.086 -0.3649  2.3594  0.2942
 4883SOL     OW26284   0.312   3.785  13.663  0.0207 -0.0039 -0.6489
 4883SOL    HW126285   0.266   3.853  13.714 -0.9723  0.9098 -2.7716
 4883SOL    HW226286   0.368   3.846  13.616 -1.7450  0.3336 -2.3181
 4884SOL     OW26287   3.867   0.518  16.486  0.1129  0.2208 -0.1618
 4884SOL    HW126288   3.934   0.506  16.553 -0.1476 -4.4080 -0.7111
 4884SOL    HW226289   3.833   0.428  16.487 -1.2414  0.7173 -1.1949
 4885SOL     OW26290   4.009   3.937   1.514  0.2412 -0.4977 -0.7082
 4885SOL    HW126291   3.950   3.863   1.523  0.5712 -0.7104 -0.2759
 4885SOL    HW226292   3.957   4.004   1.470  1.1681  0.5080 -0.2733
 4886SOL     OW26293   3.054   4.390  14.721 -0.4934  0.2185 -0.2638
 4886SOL    HW126294   2.986   4.358  14.781  0.1399  0.5363  0.6211
 4886SOL    HW226295   3.058   4.311  14.667  3.2185  0.3606 -0.2159
 4887SOL     OW26296   0.478   0.329  13.322  0.4620  0.0510  0.8070
 4887SOL    HW126297   0.385   0.339  13.303  0.6266 -0.7770 -0.4464
 4887SOL    HW226298   0.478   0.239  13.353  0.0285 -0.5665 -1.0204
 4888SOL     OW26299   0.985   1.624   4.693  0.0998 -0.3713 -0.1700
 4888SOL    HW126300   1.047   1.635   4.766  1.8494 -0.1833 -1.6809
 4888SOL    HW226301   0.913   1.582   4.740 -0.4497 -0.4278 -1.0688
 4889SOL     OW26302   0.996   2.485   8.782  0.4870 -0.0068 -0.6376
 4889SOL    HW126303   0.912   2.462   8.820  0.3385  0.4691 -0.6698
 4889SOL    HW226304   1.002   2.450   8.693 -3.9830 -0.5824 -0.6911
 4890SOL     OW26305   1.798   2.031   5.958  0.1466 -0.4305  0.0432
 4890SOL    HW126306   1.706   2.033   5.984 -0.3068 -1.3437 -1.4977
 4890SOL    HW226307   1.839   2.093   6.018  0.6456 -0.8444  0.1349
 4891SOL     OW26308   4.399   3.518  12.998 -0.0334  0.1643  0.3762
 4891SOL    HW126309   4.466   3.461  12.960 -2.0271 -0.8290 -1.6262
 4891SOL    HW226310   4.453   3.556  13.067  3.8499 -3.2238 -0.7644
 4892SOL     OW26311   0.807   2.423  14.642  0.0163  0.4835 -0.3751
 4892SOL    HW126312   0.742   2.470  14.694  1.6191  1.0691  1.0787
 4892SOL    HW226313   0.761   2.413  14.558  1.5923  0.1936 -1.2046
 4893SOL     OW26314   1.252   2.504   7.767  0.3575 -0.2594 -0.2306
 4893SOL    HW126315   1.213   2.429   7.722  0.8369 -0.7462  0.1642
 4893SOL    HW226316   1.177   2.540   7.814  0.0987  1.4115 -1.9125
 4894SOL     OW26317   1.023   3.247   3.070  0.3264  0.1178  0.3440
 4894SOL    HW126318   1.002   3.242   2.976  0.0704  0.2224  0.3952
 4894SOL    HW226319   1.080   3.171   3.071 -0.4959 -0.5199 -1.5369
 4895SOL     OW26320   4.735   2.001   8.559  0.2515 -0.3979  0.5658
 4895SOL    HW126321   4.699   1.913   8.549 -0.6317  0.2827 -2.1157
 4895SOL    HW226322   4.681   2.012   8.637 -0.4898 -2.0373  0.2726
 4896SOL     OW26323   4.467   1.081   6.741 -0.3347 -0.0479  0.4135
 4896SOL    HW126324   4.552   1.059   6.702 -1.0249 -2.2958  0.1835
 4896SOL    HW226325   4.468   1.019   6.814  2.7444 -2.2888 -1.5136
 4897SOL     OW26326   4.381   2.340   0.031  0.2801 -0.0781 -0.3317
 4897SOL    HW126327   4.392   2.251  17.748 -1.8607 -0.8541  1.0165
 4897SOL    HW226328   4.451   2.328   0.096 -0.0999 -1.7989 -0.2492
 4898SOL     OW26329   0.056   0.461   3.372  0.6496  0.4084 -0.1819
 4898SOL    HW126330   0.102   0.542   3.395  0.3645  0.6850 -0.5743
 4898SOL    HW226331   0.122   0.421   3.315 -0.5560 -1.9063  0.0757
 4899SOL     OW26332   3.411   4.195   6.051  0.0715 -0.8925 -0.1513
 4899SOL    HW126333   3.491   4.233   6.088 -0.1674  1.8647 -2.5123
 4899SOL    HW226334   3.346   4.212   6.120  1.3964 -0.6688  1.0343
 4900SOL     OW26335   0.348   1.819   7.521  0.1827  0.2950  0.2575
 4900SOL    HW126336   0.257   1.812   7.548  0.2701 -0.6900  0.2965
 4900SOL    HW226337   0.365   1.908   7.552  0.3041  0.7863 -1.2088
 4901SOL     OW26338   2.292   2.995   5.216 -0.5672 -0.2047  0.0901
 4901SOL    HW126339   2.241   3.032   5.288 -0.2134 -1.6689  1.0987
 4901SOL    HW226340   2.366   2.964   5.268 -0.6310 -1.8886 -0.8128
 4902SOL     OW26341   3.712   0.901   7.900  0.4884  0.0582  0.5904
 4902SOL    HW126342   3.655   0.905   7.823  1.6419  0.2731 -0.2451
 4902SOL    HW226343   3.742   0.811   7.902  2.8832  0.8258 -0.7862
 4903SOL     OW26344   0.848   4.274   1.271 -0.0101 -0.8737  0.0353
 4903SOL    HW126345   0.900   4.354   1.260  0.3058 -1.1171 -0.2502
 4903SOL    HW226346   0.837   4.287   1.365  1.4289  1.3310 -0.1027
 4904SOL     OW26347   4.695   3.992   2.942  0.3164 -0.0468  0.2102
 4904SOL    HW126348   0.005   4.036   3.012  2.0297  1.3494 -1.8649
 4904SOL    HW226349   4.727   4.023   2.858 -4.2209  1.7234 -0.8995
 4905SOL     OW26350   1.094   4.166   2.698  0.6586 -0.2916  0.2757
 4905SOL    HW126351   1.157   4.225   2.657 -2.9109  2.6206 -1.0300
 4905SOL    HW226352   1.142   4.117   2.766 -1.0064 -2.2242  0.0558
 4906SOL     OW26353   4.709   0.552  15.047  0.2340  0.2563  0.3399
 4906SOL    HW126354   4.622   0.579  15.076 -0.4121 -1.3936 -0.0764
 4906SOL    HW226355   4.726   0.625  14.988  0.5817  1.0872  1.4539
 4907SOL     OW26356   3.177   1.313   9.786 -0.0804 -0.3454 -0.1079
 4907SOL    HW126357   3.261   1.274   9.764  0.3246  1.1333 -1.1497
 4907SOL    HW226358   3.192   1.355   9.871  0.1754 -3.0987  1.2126
 4908SOL     OW26359   0.952   0.809   2.832 -0.1514 -0.0478  0.2006
 4908SOL    HW126360   1.001   0.787   2.753  0.2001  1.9270 -0.1397
 4908SOL    HW226361   0.874   0.850   2.795 -0.0221  1.2287  1.3475
 4909SOL     OW26362   0.069   2.973  11.348  0.0624 -0.1725  0.3572
 4909SOL    HW126363   0.040   2.893  11.391  0.4830  0.2007  1.3315
 4909SOL    HW226364   4.728   3.023  11.327  0.3747 -0.2729 -1.0807
 4910SOL     OW26365   2.501   1.110   5.811  0.1093  0.2381  0.2169
 4910SOL    HW126366   2.435   1.073   5.870 -0.5627 -4.1877 -3.3361
 4910SOL    HW226367   2.578   1.084   5.862 -0.8317 -1.7181  0.6612
 4911SOL     OW26368   2.932   4.221   2.888 -0.0999  0.1499  0.3332
 4911SOL    HW126369   2.854   4.243   2.838 -1.0092 -0.5030  1.4643
 4911SOL    HW226370   2.904   4.132   2.910  1.2534 -0.4756 -0.4811
 4912SOL     OW26371   3.261   3.658  14.624 -0.2071  0.5269 -0.0720
 4912SOL    HW126372   3.280   3.603  14.549  2.7596  2.9198 -1.0371
 4912SOL    HW226373   3.342   3.662  14.674 -0.0041  1.3988 -0.4720
 4913SOL     OW26374   3.952   1.938   5.076  0.1373  0.0203  0.0725
 4913SOL    HW126375   3.923   2.028   5.062 -0.4295 -0.3711 -1.2435
 4913SOL    HW226376   3.911   1.923   5.162 -0.6444  2.4704  0.1272
 4914SOL     OW26377   2.583   0.380   6.786 -0.3361 -0.2181  0.0682
 4914SOL    HW126378   2.535   0.321   6.727 -0.0404 -1.1081  0.7231
 4914SOL    HW226379   2.662   0.402   6.737 -1.0666  0.2464 -0.9041
 4915SOL     OW26380   4.059   2.723  10.016 -0.3745  0.2865  0.4071
 4915SOL    HW126381   4.041   2.806  10.061 -0.6940  1.1760 -1.3104
 4915SOL    HW226382   4.149   2.744   9.989 -0.7828  0.0645 -1.1592
 4916SOL     OW26383   0.153   1.065   2.275 -0.1602  0.5062 -0.2264
 4916SOL    HW126384   0.067   1.102   2.252 -0.3270 -0.7515 -1.6233
 4916SOL    HW226385   0.212   1.141   2.271  2.4641 -1.5106  0.5267
 4917SOL     OW26386   2.932   1.237  14.066 -0.1848 -0.0909  0.0954
 4917SOL    HW126387   2.896   1.300  14.128  1.7014  1.5550 -0.4606
 4917SOL    HW226388   3.017   1.271  14.038 -0.6693  1.3727  0.3957
 4918SOL     OW26389   2.999   2.515   0.536 -0.1601 -0.4646 -0.1345
 4918SOL    HW126390   3.002   2.472   0.621 -0.3581 -0.3677 -0.0790
 4918SOL    HW226391   3.032   2.599   0.569  2.9320 -1.5904 -0.3733
 4919SOL     OW26392   2.628   1.117   6.595 -0.5245  0.0278 -0.2350
 4919SOL    HW126393   2.681   1.129   6.674 -1.9566 -4.1420  1.3472
 4919SOL    HW226394   2.555   1.070   6.634  0.4814  0.0246  1.6448
 4920SOL     OW26395   4.138   2.483  12.484 -0.2982 -0.5258  0.2488
 4920SOL    HW126396   4.143   2.398  12.528  2.4193  0.2615  1.4129
 4920SOL    HW226397   4.051   2.499  12.447 -1.0212  0.8179  2.4945
 4921SOL     OW26398   2.164   4.731   5.901 -0.0931 -0.2059 -0.0908
 4921SOL    HW126399   2.145   4.696   5.814 -0.8256  0.2011 -0.1022
 4921SOL    HW226400   2.090   4.693   5.949 -0.1782  0.3604  0.2224
 4922SOL     OW26401   2.789   1.773   3.359 -0.0303  0.1000  0.0464
 4922SOL    HW126402   2.705   1.818   3.355 -0.6380 -1.0186  0.1110
 4922SOL    HW226403   2.771   1.695   3.305  2.9237 -0.9049  0.5238
 4923SOL     OW26404   2.038   3.709   8.921  0.1312 -1.0561  0.0808
 4923SOL    HW126405   2.039   3.635   8.859  2.5240  0.2792 -1.4841
 4923SOL    HW226406   1.948   3.701   8.953  0.5256  0.9906  1.7068
 4924SOL     OW26407   1.987   3.899   4.858 -0.2044 -0.5960  0.2383
 4924SOL    HW126408   2.005   3.834   4.927  0.4284  0.3545  0.9755
 4924SOL    HW226409   1.924   3.957   4.902 -0.8247  0.4442 -2.0591
 4925SOL     OW26410   4.262   1.400   0.201 -0.0657  0.4779  0.6543
 4925SOL    HW126411   4.355   1.412   0.184 -0.5734  0.5654 -2.0758
 4925SOL    HW226412   4.237   1.332   0.138 -0.0666  1.0663  0.0150
 4926SOL     OW26413   0.397   2.386  11.251  0.3361  0.0537 -0.0210
 4926SOL    HW126414   0.371   2.294  11.257 -0.9010  0.3640 -0.6026
 4926SOL    HW226415   0.348   2.421  11.325 -0.8084 -2.3673  0.3526
 4927SOL     OW26416   1.197   3.498  13.926  0.2024 -0.3089  0.4181
 4927SOL    HW126417   1.232   3.416  13.892  0.4942  0.5762 -1.4104
 4927SOL    HW226418   1.227   3.480  14.016  0.6199  1.0005  0.5397
 4928SOL     OW26419   4.419   2.356   7.142  0.2598  0.4088  0.1587
 4928SOL    HW126420   4.476   2.425   7.109 -2.5560  2.2004 -0.8975
 4928SOL    HW226421   4.491   2.313   7.189  1.2005  0.8176 -0.9028
 4929SOL     OW26422   3.646   1.615   6.182  0.3054 -0.2178  0.0592
 4929SOL    HW126423   3.736   1.650   6.177 -0.6180  2.4078  1.6164
 4929SOL    HW226424   3.620   1.643   6.270 -2.2061 -0.2413 -0.6865
 4930SOL     OW26425   3.390   1.951   1.742  0.2969  0.2678  0.2143
 4930SOL    HW126426   3.325   1.904   1.795  0.1649 -2.2753 -2.2396
 4930SOL    HW226427   3.431   2.002   1.813 -0.9314  1.2945  0.1836
 4931SOL     OW26428   0.493   0.793  12.865 -0.6277  0.1992  0.2577
 4931SOL    HW126429   0.586   0.782  12.844 -0.3096  1.9298  0.7621
 4931SOL    HW226430   0.492   0.813  12.959  1.9660  0.4659  0.2291
 4932SOL     OW26431   2.061   0.752  16.624  0.3951 -1.3432 -0.8829
 4932SOL    HW126432   2.074   0.755  16.529  1.7233  0.1356 -0.6714
 4932SOL    HW226433   2.149   0.727  16.652  1.6086  1.0190 -2.5454
 4933SOL     OW26434   0.582   1.838   2.558 -0.2477  0.0331 -0.1971
 4933SOL    HW126435   0.578   1.824   2.464  0.9835 -2.2381  0.0878
 4933SOL    HW226436   0.495   1.872   2.580  0.6351  2.2338 -0.1384
 4934SOL     OW26437   3.847   1.550   4.477  0.6532 -0.1260  0.1986
 4934SOL    HW126438   3.914   1.613   4.503  1.1114  0.1438 -1.7022
 4934SOL    HW226439   3.859   1.549   4.383 -1.1864  0.6216 -0.0459
 4935SOL     OW26440   3.292   2.094   4.507  0.2292 -0.2780  0.0189
 4935SOL    HW126441   3.213   2.145   4.523 -0.6769 -1.1513 -1.6559
 4935SOL    HW226442   3.269   2.006   4.537 -0.5561 -0.5102 -1.2618
 4936SOL     OW26443   3.451   0.591   9.963  0.1802 -0.3299  0.1097
 4936SOL    HW126444   3.361   0.576   9.991 -0.1779  1.4451 -0.0849
 4936SOL    HW226445   3.450   0.520   9.899  2.3711  0.7608 -1.1267
 4937SOL     OW26446   2.056   3.450  16.774 -0.1696 -0.0556 -0.5744
 4937SOL    HW126447   1.983   3.505  16.746 -0.8791 -1.4721 -1.4521
 4937SOL    HW226448   2.075   3.423  16.685  3.8751  0.5347  0.1160
 4938SOL     OW26449   1.117   2.562   5.198 -0.0702 -0.0852  0.3522
 4938SOL    HW126450   1.094   2.642   5.151 -0.8847  0.8820  2.3990
 4938SOL    HW226451   1.210   2.550   5.176  0.6338  2.0826  2.0933
 4939SOL     OW26452   1.652   3.189   2.773  0.3289 -0.3320 -0.3781
 4939SOL    HW126453   1.642   3.202   2.679 -1.0877  0.7876 -0.0802
 4939SOL    HW226454   1.571   3.229   2.805 -0.2769  1.5520 -4.2634
 4940SOL     OW26455   3.979   1.643   4.249 -0.4441  0.0123  0.2344
 4940SOL    HW126456   3.996   1.580   4.179  1.7964 -0.5687  1.3218
 4940SOL    HW226457   3.985   1.725   4.201  0.9270 -1.9653 -3.0013
 4941SOL     OW26458   0.442   4.038  10.001  0.5469  0.0960  0.6662
 4941SOL    HW126459   0.496   3.959  10.004 -0.1326 -0.4577 -1.5418
 4941SOL    HW226460   0.371   4.002  10.054 -2.6149  0.2073 -3.4986
 4942SOL     OW26461   2.405   3.273   2.000 -0.3029  0.2929  0.3073
 4942SOL    HW126462   2.347   3.218   1.947  0.5037 -0.2081 -0.0461
 4942SOL    HW226463   2.475   3.297   1.939 -0.2344  0.2695  0.3777
 4943SOL     OW26464   3.477   3.333   6.716 -0.4618  0.1535 -0.5214
 4943SOL    HW126465   3.415   3.264   6.741 -3.1802  2.3863 -1.1874
 4943SOL    HW226466   3.430   3.411   6.689  0.2269  1.0656  0.9138
 4944SOL     OW26467   0.654   1.194   7.486  0.6525 -0.4072 -0.2073
 4944SOL    HW126468   0.636   1.101   7.504 -0.3701 -0.1669  0.0276
 4944SOL    HW226469   0.660   1.220   7.578 -0.1970 -0.6843 -0.0710
 4945SOL     OW26470   0.519   4.376  16.893 -0.3936 -0.0703  0.5321
 4945SOL    HW126471   0.428   4.357  16.873 -0.4678 -1.2719  1.9984
 4945SOL    HW226472   0.550   4.437  16.826 -0.3674 -1.2384 -0.5194
 4946SOL     OW26473   3.940   2.682   0.667 -0.2656 -0.1236  0.1200
 4946SOL    HW126474   3.959   2.661   0.759 -0.2931 -1.7724 -0.2483
 4946SOL    HW226475   3.908   2.595   0.642  0.1227  0.6117 -2.8647
 4947SOL     OW26476   1.283   2.833  15.959  0.0866 -0.0822  0.2359
 4947SOL    HW126477   1.366   2.818  15.912  0.3763  0.5680  0.5533
 4947SOL    HW226478   1.246   2.908  15.912 -2.1646 -0.2346  1.7783
 4948SOL     OW26479   0.335   1.126   5.446  0.0497 -0.1373  0.0343
 4948SOL    HW126480   0.280   1.187   5.396  0.0334  0.2794  0.5538
 4948SOL    HW226481   0.419   1.165   5.420  0.1820  0.4386  1.2989
 4949SOL     OW26482   0.608   1.442   4.177  0.8724 -0.3114  0.4561
 4949SOL    HW126483   0.652   1.359   4.159  0.6350 -0.7820  2.1023
 4949SOL    HW226484   0.534   1.442   4.117  0.6231 -0.4682  0.7668
 4950SOL     OW26485   3.441   4.575   7.550 -0.9961  0.0423  0.1068
 4950SOL    HW126486   3.525   4.552   7.589 -0.9413  0.3955  0.1952
 4950SOL    HW226487   3.444   4.542   7.460 -0.1789 -1.3003  0.6313
 4951SOL     OW26488   1.011   0.680   0.803 -0.3537  0.5640  0.1552
 4951SOL    HW126489   0.943   0.617   0.779  1.4116 -1.1612 -0.2681
 4951SOL    HW226490   0.952   0.754   0.822 -0.8146  0.0829  0.6003
 4952SOL     OW26491   1.110   3.162   8.739  0.3689 -0.5098  0.4307
 4952SOL    HW126492   1.097   3.103   8.813  0.5878 -0.0774  0.8095
 4952SOL    HW226493   1.153   3.236   8.782  1.4153  0.1049 -1.6571
 4953SOL     OW26494   2.558   4.484   7.819  0.2637  0.6647 -0.3240
 4953SOL    HW126495   2.536   4.542   7.746 -0.0650  2.2769  1.0436
 4953SOL    HW226496   2.629   4.540   7.850  0.4280  0.1501  0.2081
 4954SOL     OW26497   1.333   4.316   2.650 -0.5135 -0.0522 -0.2645
 4954SOL    HW126498   1.345   4.357   2.736 -0.1138 -0.0362 -0.3284
 4954SOL    HW226499   1.413   4.263   2.644 -1.8157 -2.2827  1.9518
 4955SOL     OW26500   2.878   0.930  14.539  0.6737 -0.4409 -0.0048
 4955SOL    HW126501   2.969   0.906  14.558  1.2026  1.1405 -0.5055
 4955SOL    HW226502   2.876   0.990  14.464  1.5439 -0.8008 -0.3152
 4956SOL     OW26503   1.793   3.473  17.570  0.2604 -0.2380  0.4502
 4956SOL    HW126504   1.870   3.481  17.626 -1.1349  0.6371  2.2084
 4956SOL    HW226505   1.770   3.380  17.560 -0.1585  0.0905 -1.7233
 4957SOL     OW26506   1.209   3.893   7.962  0.0142 -0.0337  0.2381
 4957SOL    HW126507   1.253   3.922   8.041 -1.9364 -0.2858  1.4207
 4957SOL    HW226508   1.257   3.811   7.949  0.3837  0.2032  0.1344
 4958SOL     OW26509   1.479   1.815   8.071  1.1110 -0.0195  0.1162
 4958SOL    HW126510   1.510   1.866   8.146 -1.8304  2.5001 -0.4195
 4958SOL    HW226511   1.414   1.764   8.120  0.5507  0.2215 -0.3838
 4959SOL     OW26512   1.650   3.382   5.862 -0.1772 -0.0902 -0.4425
 4959SOL    HW126513   1.737   3.366   5.827 -0.0818  0.2243 -0.3455
 4959SOL    HW226514   1.625   3.295   5.894 -0.4932 -0.2117 -1.0365
 4960SOL     OW26515   1.034   3.032   7.161  0.1786  0.5800 -0.0263
 4960SOL    HW126516   1.036   3.017   7.255  1.5827  0.7805 -0.0151
 4960SOL    HW226517   0.953   2.989   7.133 -1.1917  1.2452  2.9889
 4961SOL     OW26518   2.949   4.589   2.374 -0.0217  0.5605 -0.8564
 4961SOL    HW126519   2.944   4.590   2.278  0.4468 -1.2536 -0.8983
 4961SOL    HW226520   2.974   4.498   2.386 -0.8422  0.7106  2.0212
 4962SOL     OW26521   0.637   3.333   8.029 -0.1046 -0.3585 -0.4105
 4962SOL    HW126522   0.700   3.266   8.056 -0.7671 -0.9676 -0.3665
 4962SOL    HW226523   0.694   3.407   8.008 -1.4673  1.1713  1.1523
 4963SOL     OW26524   3.639   1.184   9.259  0.0383 -0.2952  0.0906
 4963SOL    HW126525   3.584   1.242   9.311 -0.6892  0.6496 -1.7093
 4963SOL    HW226526   3.596   1.101   9.277  1.9225 -1.8821 -2.6586
 4964SOL     OW26527   0.024   1.318   5.535  0.2285  0.2275  0.1061
 4964SOL    HW126528   4.696   1.381   5.506  0.7213  0.4818 -0.4609
 4964SOL    HW226529   0.036   1.263   5.457  0.5754  1.6793 -0.8669
 4965SOL     OW26530   0.913   0.555   3.670 -0.0347 -0.2850 -0.2984
 4965SOL    HW126531   0.875   0.479   3.627 -0.6925 -0.0527 -0.1242
 4965SOL    HW226532   0.850   0.624   3.646  1.7607  1.5171  0.1590
 4966SOL     OW26533   1.170   3.196   9.790  0.5060 -0.1749 -0.6069
 4966SOL    HW126534   1.244   3.136   9.801  0.3093  0.1637  2.6203
 4966SOL    HW226535   1.122   3.134   9.735 -0.3101 -1.3087  1.3696
 4967SOL     OW26536   4.687   3.506   5.264 -0.1264 -0.3248  0.2919
 4967SOL    HW126537   4.603   3.551   5.259 -0.0195 -0.1569 -0.0136
 4967SOL    HW226538   0.006   3.552   5.202 -0.6226 -1.5468 -1.0827
 4968SOL     OW26539   0.870   2.483  11.317  0.5641 -0.4217  0.0375
 4968SOL    HW126540   0.814   2.449  11.247  0.6263  0.7042 -0.5587
 4968SOL    HW226541   0.815   2.556  11.344 -1.0576 -0.8311 -2.2258
 4969SOL     OW26542   1.767   2.830   0.988  0.1489  0.0076 -0.0158
 4969SOL    HW126543   1.833   2.799   0.926  0.6719 -1.1705  1.1395
 4969SOL    HW226544   1.732   2.743   1.002 -0.6723 -0.0156 -2.1246
 4970SOL     OW26545   2.226   3.991   5.694  0.3096  0.1289  0.3884
 4970SOL    HW126546   2.317   3.961   5.685 -0.0811 -0.3726 -2.1284
 4970SOL    HW226547   2.208   3.963   5.783 -1.3525  2.9959  0.9546
 4971SOL     OW26548   4.693   3.719   3.819  0.0108  0.2666  0.3310
 4971SOL    HW126549   4.605   3.707   3.783  0.7849 -4.8908  0.1555
 4971SOL    HW226550   0.000   3.741   3.738  1.0735  0.6190  1.0201
 4972SOL     OW26551   4.538   1.975   7.432  0.0735 -0.1859 -0.0727
 4972SOL    HW126552   4.505   2.061   7.457  0.4016  0.2115 -1.0523
 4972SOL    HW226553   4.628   1.983   7.402 -0.4856 -0.7973 -1.9231
 4973SOL     OW26554   0.246   1.128  12.310 -0.2352  0.2179  0.0719
 4973SOL    HW126555   0.188   1.152  12.382  1.0895  1.8338  0.5934
 4973SOL    HW226556   0.214   1.195  12.251  0.1910 -0.0918 -0.5112
 4974SOL     OW26557   2.922   3.463   4.338  0.6357  0.1546  0.1234
 4974SOL    HW126558   3.006   3.458   4.294 -0.0152  0.2283 -1.1334
 4974SOL    HW226559   2.851   3.455   4.274  1.3174  0.7870 -0.7151
 4975SOL     OW26560   1.328   2.144   6.911  0.2044  0.0679 -0.2147
 4975SOL    HW126561   1.327   2.140   7.006  0.0588  3.8083 -0.0669
 4975SOL    HW226562   1.253   2.200   6.891  1.2982  0.4207 -3.3647
 4976SOL     OW26563   0.752   1.656   7.198  0.0450  0.0808  0.5117
 4976SOL    HW126564   0.843   1.628   7.207 -0.7721 -1.8027  3.0452
 4976SOL    HW226565   0.702   1.595   7.253  3.9750 -2.3396  1.4247
 4977SOL     OW26566   0.129   3.532   6.623  0.1195 -0.2321 -0.3284
 4977SOL    HW126567   0.084   3.530   6.538 -0.1354  2.0402 -0.2635
 4977SOL    HW226568   0.166   3.620   6.626 -0.7725  0.0612  2.3598
 4978SOL     OW26569   0.317   1.515   5.426 -0.5196 -0.2764  0.5668
 4978SOL    HW126570   0.378   1.542   5.358 -2.0900 -2.1694 -1.5929
 4978SOL    HW226571   0.367   1.519   5.507  0.9313 -1.7902 -0.2560
 4979SOL     OW26572   3.792   2.987  11.744 -0.5705  0.8174  0.1284
 4979SOL    HW126573   3.841   2.910  11.773  1.4993  2.0284 -0.1762
 4979SOL    HW226574   3.819   3.048  11.813  3.1451  1.6752 -2.0550
 4980SOL     OW26575   3.290   4.030   6.282  0.1660  0.1812  0.0171
 4980SOL    HW126576   3.248   4.019   6.368 -0.3735 -1.2247 -0.4379
 4980SOL    HW226577   3.250   3.959   6.233  0.9861  0.3742 -0.9140
 4981SOL     OW26578   0.267   0.909   8.353  0.7338 -0.1551  0.3754
 4981SOL    HW126579   0.249   1.002   8.361  0.9145 -0.2532  2.0234
 4981SOL    HW226580   0.201   0.889   8.287 -0.7520  1.3457  1.4131
 4982SOL     OW26581   2.534   1.076   4.119 -0.0169  0.0923  0.0668
 4982SOL    HW126582   2.482   1.023   4.059  1.7692 -0.7474 -0.7438
 4982SOL    HW226583   2.485   1.157   4.103 -0.8083 -0.5759 -0.8980
 4983SOL     OW26584   3.448   0.391   2.632 -0.3702 -0.5704 -0.3102
 4983SOL    HW126585   3.479   0.416   2.545  1.1365 -2.1520 -0.2384
 4983SOL    HW226586   3.474   0.466   2.686  0.8126 -1.0381 -0.2269
 4984SOL     OW26587   0.425   0.494  15.756  0.2156 -0.0273 -0.2427
 4984SOL    HW126588   0.440   0.527  15.844  3.7883  0.7342 -1.1157
 4984SOL    HW226589   0.436   0.573  15.703  0.0684 -1.2105 -2.0720
 4985SOL     OW26590   3.095   0.345   3.848  0.1956  0.2274  0.3947
 4985SOL    HW126591   3.066   0.304   3.766  1.0033 -0.0556  0.2554
 4985SOL    HW226592   3.057   0.294   3.920 -0.6896  1.2337  0.6432
 4986SOL     OW26593   1.587   3.794   1.486  0.3021 -0.1366  0.0272
 4986SOL    HW126594   1.653   3.819   1.421  0.4117 -2.2928 -0.6899
 4986SOL    HW226595   1.632   3.752   1.559  3.0560  1.7464 -0.6028
 4987SOL     OW26596   0.075   4.395   1.740  0.5230 -0.4362  0.2891
 4987SOL    HW126597   0.105   4.329   1.678 -0.9037 -2.3252  1.6129
 4987SOL    HW226598   0.062   4.474   1.688  0.4695 -1.7533 -1.6861
 4988SOL     OW26599   3.969   1.056  15.517 -0.5049 -0.4267  0.2772
 4988SOL    HW126600   4.004   1.005  15.444  0.7809  1.0866 -0.1620
 4988SOL    HW226601   3.941   1.123  15.455 -0.3104 -0.2023  0.4333
 4989SOL     OW26602   3.222   0.912   6.753 -0.6494  0.4440 -0.2403
 4989SOL    HW126603   3.140   0.921   6.704 -0.6664 -1.5616 -0.6059
 4989SOL    HW226604   3.265   0.996   6.744 -0.4798  0.5170  1.1917
 4990SOL     OW26605   2.027   0.916   0.530 -0.4136  0.0487  0.3193
 4990SOL    HW126606   2.060   0.948   0.447  1.1939  1.2250  1.4177
 4990SOL    HW226607   2.082   0.839   0.546  0.4392  0.2232 -1.8538
 4991SOL     OW26608   2.527   1.618  13.227 -0.4015 -0.2269 -0.7281
 4991SOL    HW126609   2.574   1.584  13.303 -1.4565 -1.1567 -0.4843
 4991SOL    HW226610   2.493   1.536  13.193 -3.3463  1.7647 -2.5718
 4992SOL     OW26611   4.469   0.057   9.260 -0.1637  0.1915  0.1617
 4992SOL    HW126612   4.403   0.003   9.217  1.5345 -0.3419 -1.8243
 4992SOL    HW226613   4.536   4.731   9.284 -0.6363 -0.2765  0.2328
 4993SOL     OW26614   2.428   3.844  16.825 -0.6634 -0.0599  1.0113
 4993SOL    HW126615   2.337   3.816  16.830 -0.0026 -1.8657  2.8986
 4993SOL    HW226616   2.445   3.814  16.735 -3.0250  3.0307 -0.4740
 4994SOL     OW26617   2.885   0.771   3.991  0.2186  0.5151 -0.6369
 4994SOL    HW126618   2.822   0.703   3.968 -0.6875  0.8938  0.7559
 4994SOL    HW226619   2.899   0.803   3.902 -1.0554 -0.0980 -1.0618
 4995SOL     OW26620   3.075   3.470   2.178 -0.1368 -0.0786 -0.6472
 4995SOL    HW126621   3.032   3.385   2.168  1.5214 -1.0632  0.6995
 4995SOL    HW226622   3.164   3.440   2.189  0.0710  1.0175  0.6026
 4996SOL     OW26623   4.384   4.204  15.942 -0.2420  0.0363  0.0418
 4996SOL    HW126624   4.351   4.130  15.891  2.6301  0.9124 -3.0664
 4996SOL    HW226625   4.410   4.263  15.871 -0.0894 -0.5394 -0.3713
 4997SOL     OW26626   4.427   1.768   8.059 -0.0294 -0.2676  0.2049
 4997SOL    HW126627   4.474   1.701   8.109  0.6513  0.5013  0.6026
 4997SOL    HW226628   4.436   1.846   8.114 -0.4942  0.6429 -1.0180
 4998SOL     OW26629   3.853   0.818  12.119  0.2477  0.4699  0.0707
 4998SOL    HW126630   3.917   0.877  12.158 -0.6708  1.5619 -0.0929
 4998SOL    HW226631   3.910   0.762  12.065 -0.6701 -1.5106  1.1857
 4999SOL     OW26632   1.808   1.567   8.634  0.5027 -0.7367 -0.1683
 4999SOL    HW126633   1.843   1.569   8.545  0.9881 -0.9012  0.0197
 4999SOL    HW226634   1.888   1.559   8.686  1.0991 -2.3741 -1.3728
 5000SOL     OW26635   2.923   3.159   7.280 -0.2932 -0.5246 -0.5960
 5000SOL    HW126636   3.013   3.160   7.313 -0.1023  1.6859 -1.2001
 5000SOL    HW226637   2.898   3.240   7.324 -0.2532 -0.2594 -1.0648
 5001SOL     OW26638   2.541   4.250   0.133 -0.3730  0.1988 -0.4926
 5001SOL    HW126639   2.546   4.164   0.092  1.0447  0.2154 -0.3574
 5001SOL    HW226640   2.628   4.280   0.160  0.2298 -0.0126 -2.2002
 5002SOL     OW26641   3.321   3.887   0.185  0.4972  0.2144  0.3046
 5002SOL    HW126642   3.384   3.851   0.123  1.3803  1.3065  0.5676
 5002SOL    HW226643   3.355   3.841   0.262 -3.5908 -1.0449  1.3548
 5003SOL     OW26644   2.623   4.093   1.395 -0.8121 -0.2437 -0.2767
 5003SOL    HW126645   2.685   4.060   1.331 -0.8272  1.8694 -1.3865
 5003SOL    HW226646   2.657   4.048   1.472  0.5366  0.1004 -0.6684
 5004SOL     OW26647   2.491   0.978   7.140 -0.8273  0.5053 -0.3294
 5004SOL    HW126648   2.541   1.057   7.160 -1.0473  0.6004 -0.1521
 5004SOL    HW226649   2.427   1.014   7.079  1.6149  1.2395 -2.4775
 5005SOL     OW26650   2.438   3.485   1.464  0.1174 -0.0235  0.1914
 5005SOL    HW126651   2.490   3.563   1.486  1.0416 -1.0001  1.4695
 5005SOL    HW226652   2.408   3.519   1.380  0.2454 -1.2935 -0.3661
 5006SOL     OW26653   4.431   1.846  16.136 -0.5404 -0.1473 -0.7069
 5006SOL    HW126654   4.484   1.823  16.213 -1.3272 -1.1747 -0.4793
 5006SOL    HW226655   4.478   1.806  16.063  0.9543 -0.0566  0.1993
 5007SOL     OW26656   1.059   2.136   8.023  0.4411 -0.7758 -0.0868
 5007SOL    HW126657   1.153   2.153   8.025  0.2519  0.6164 -2.0182
 5007SOL    HW226658   1.029   2.217   8.064  1.5146 -0.5552  0.2430
 5008SOL     OW26659   0.567   3.527   5.075  0.0113  0.2344  0.1835
 5008SOL    HW126660   0.495   3.465   5.085 -0.7529  0.9097 -1.0992
 5008SOL    HW226661   0.523   3.603   5.115  1.7444  1.5367 -0.3886
 5009SOL     OW26662   3.369   2.858   7.982 -0.4130 -0.1969  0.1106
 5009SOL    HW126663   3.458   2.890   7.998 -0.2767 -1.6907  2.2883
 5009SOL    HW226664   3.324   2.942   7.970 -0.1877 -0.2195 -0.9326
 5010SOL     OW26665   4.592   1.976   8.790 -0.2850 -0.2315  0.0595
 5010SOL    HW126666   4.592   1.895   8.841 -0.8695 -0.8719 -0.9669
 5010SOL    HW226667   4.498   1.986   8.774 -0.5570  0.3970  2.0255
 5011SOL     OW26668   0.368   3.386   5.126  0.4324 -0.3386 -0.3607
 5011SOL    HW126669   0.373   3.389   5.221  0.7838 -0.8346 -0.3579
 5011SOL    HW226670   0.275   3.372   5.112  0.6238 -1.4643 -0.5014
 5012SOL     OW26671   2.937   4.250   8.054  0.0393 -0.2351 -0.0162
 5012SOL    HW126672   3.028   4.227   8.035 -0.1096 -0.1013 -0.8802
 5012SOL    HW226673   2.896   4.197   7.986 -0.8352  0.6197 -0.1515
 5013SOL     OW26674   3.867   3.791  10.424  0.2463 -1.0151 -0.0027
 5013SOL    HW126675   3.929   3.855  10.390  1.0288 -2.5182 -1.3656
 5013SOL    HW226676   3.918   3.711  10.430 -1.5940 -1.9587  3.2481
 5014SOL     OW26677   4.420   1.031   9.499  0.1880  0.1031  0.5782
 5014SOL    HW126678   4.365   1.054   9.574  0.1551  0.6146  0.3963
 5014SOL    HW226679   4.408   1.110   9.446  0.7982  0.5482  1.0940
 5015SOL     OW26680   1.421   3.425  17.148 -0.2195 -0.1532  0.3567
 5015SOL    HW126681   1.507   3.397  17.178  0.3138  0.9986 -0.1122
 5015SOL    HW226682   1.370   3.402  17.226 -0.9808  0.2906 -0.0132
 5016SOL     OW26683   0.167   3.923   8.635 -0.5218 -0.4602  0.0728
 5016SOL    HW126684   0.163   3.858   8.565  0.0375  0.8136 -1.1335
 5016SOL    HW226685   0.077   3.913   8.664 -0.8705 -1.7597 -1.4913
 5017SOL     OW26686   1.127   0.496  10.443  0.4217 -0.3738 -0.2126
 5017SOL    HW126687   1.199   0.446  10.405 -0.8418 -3.3147  1.2876
 5017SOL    HW226688   1.116   0.473  10.535  2.2284  0.3781  0.2023
 5018SOL     OW26689   2.157   3.709   6.219  0.0921  0.0034  0.1070
 5018SOL    HW126690   2.187   3.713   6.129 -0.0034 -0.2806  0.0635
 5018SOL    HW226691   2.184   3.619   6.238 -0.4138 -0.3009 -0.6314
 5019SOL     OW26692   2.753   4.618   6.977  1.1157  0.4024  0.8065
 5019SOL    HW126693   2.671   4.646   7.017 -0.0937 -0.1491 -1.3331
 5019SOL    HW226694   2.806   4.698   6.982  2.5701 -0.4916 -0.2898
 5020SOL     OW26695   2.818   4.383  15.342  0.1883 -0.2179  0.0217
 5020SOL    HW126696   2.747   4.325  15.314  0.2039 -1.1459  1.9173
 5020SOL    HW226697   2.901   4.340  15.325 -0.2846 -1.1203 -0.0021
 5021SOL     OW26698   3.124   3.715   3.403  0.7437  0.2630 -0.4638
 5021SOL    HW126699   3.050   3.726   3.463  0.1226 -1.2441 -0.9654
 5021SOL    HW226700   3.201   3.704   3.459 -0.3629 -0.0402  0.9977
 5022SOL     OW26701   1.696   2.660   7.519  0.3545  0.2748 -0.8901
 5022SOL    HW126702   1.633   2.731   7.512 -0.3674 -0.4844 -2.1228
 5022SOL    HW226703   1.630   2.591   7.511 -0.3559  1.0482 -1.7492
 5023SOL     OW26704   2.130   0.261   8.293  0.4015  0.3662 -0.1009
 5023SOL    HW126705   2.102   0.219   8.375 -1.0544 -1.4330 -1.5105
 5023SOL    HW226706   2.051   0.303   8.258 -1.2810 -2.1693  0.5878
 5024SOL     OW26707   4.643   0.187   8.826 -0.4068 -0.2346  0.0415
 5024SOL    HW126708   4.714   0.123   8.820 -1.4758 -1.7763  3.5536
 5024SOL    HW226709   4.692   0.265   8.852  1.4928 -0.7986 -1.8405
 5025SOL     OW26710   2.184   3.120   5.418 -0.0271  0.0886  0.4525
 5025SOL    HW126711   2.262   3.173   5.402 -1.3528  1.8335 -0.2535
 5025SOL    HW226712   2.212   3.056   5.484  0.0968  0.0902  0.4022
 5026SOL     OW26713   0.778   0.181  11.420  0.6380 -0.5493  0.2716
 5026SOL    HW126714   0.746   0.095  11.396  0.7508 -0.5751  0.2111
 5026SOL    HW226715   0.782   0.216  11.331 -1.6053 -1.3293 -0.1291
 5027SOL     OW26716   4.039   1.092  15.758  0.0665  0.1931 -0.2883
 5027SOL    HW126717   4.032   1.188  15.756  3.7893  0.4704 -0.0297
 5027SOL    HW226718   4.018   1.069  15.668  1.2293 -1.0213 -0.2486
 5028SOL     OW26719   1.379   0.299   6.838 -0.1461  0.9047 -0.5913
 5028SOL    HW126720   1.376   0.394   6.853 -1.2340  0.7008  0.4653
 5028SOL    HW226721   1.472   0.276   6.841 -1.3761 -3.6732  1.7469
 5029SOL     OW26722   1.500   2.196   8.330 -0.0609  0.9886 -0.6916
 5029SOL    HW126723   1.409   2.208   8.355 -0.3739  1.2608 -1.9737
 5029SOL    HW226724   1.500   2.101   8.343 -0.0034  1.1784  0.6835
 5030SOL     OW26725   2.797   0.744   9.654 -0.1005 -0.3368 -0.0639
 5030SOL    HW126726   2.890   0.751   9.633 -0.3614  3.8079  0.1455
 5030SOL    HW226727   2.763   0.792   9.578 -0.7555 -1.5922 -0.5566
 5031SOL     OW26728   2.098   3.123   4.781 -0.0267 -0.5068  0.4513
 5031SOL    HW126729   2.096   3.028   4.793  0.0007 -0.4855  0.6314
 5031SOL    HW226730   2.152   3.156   4.853 -2.0128  1.4437  1.0525
 5032SOL     OW26731   2.352   2.287   6.332  0.5515  0.4099 -0.0358
 5032SOL    HW126732   2.424   2.346   6.352  0.8342  0.6595 -1.7324
 5032SOL    HW226733   2.399   2.206   6.352 -2.4646 -1.2472  0.3870
 5033SOL     OW26734   3.249   1.610   4.099  0.0794 -1.0050  0.3536
 5033SOL    HW126735   3.154   1.601   4.102  0.0433 -0.7982 -0.0832
 5033SOL    HW226736   3.280   1.532   4.145  2.1327 -0.7232 -0.5137
 5034SOL     OW26737   2.884   4.262   4.058  0.0868 -0.4351 -0.0057
 5034SOL    HW126738   2.946   4.200   4.017  0.2761 -0.2473 -0.0023
 5034SOL    HW226739   2.949   4.302   4.116 -0.0133 -0.9887  0.4872
 5035SOL     OW26740   2.295   3.535   7.640 -0.4152  0.1721  0.3753
 5035SOL    HW126741   2.389   3.524   7.659  0.0653  0.8818 -1.6266
 5035SOL    HW226742   2.307   3.630   7.634  2.5315 -0.1083  1.4015
 5036SOL     OW26743   3.079   2.704   4.970 -0.0563 -0.4625 -0.0267
 5036SOL    HW126744   3.165   2.682   5.007  0.4800  0.5894 -0.6441
 5036SOL    HW226745   3.015   2.694   5.040  0.8424  0.6752  0.9459
 5037SOL     OW26746   1.530   1.479  13.973  0.4407 -0.0696 -0.0122
 5037SOL    HW126747   1.567   1.558  13.933 -2.5845  0.1404 -2.3993
 5037SOL    HW226748   1.509   1.423  13.899 -0.6567  1.0380 -0.5387
 5038SOL     OW26749   4.728   0.406   2.214  0.0499  0.0297  0.0991
 5038SOL    HW126750   0.063   0.346   2.226  0.3624  0.8262  2.1649
 5038SOL    HW226751   4.658   0.347   2.245  0.0797 -0.9295 -1.6668
 5039SOL     OW26752   2.922   2.852   1.419 -0.1943 -0.4038  0.6085
 5039SOL    HW126753   2.872   2.932   1.437  1.8599  0.4342  2.6052
 5039SOL    HW226754   2.851   2.792   1.397  0.7296 -1.6143  0.9750
 5040SOL     OW26755   0.108   4.090   2.723 -0.4060  0.2231 -0.3909
 5040SOL    HW126756   0.078   4.014   2.673 -0.8407 -0.8471  1.4835
 5040SOL    HW226757   0.142   4.142   2.651  3.7438 -1.7401  0.1765
 5041SOL     OW26758   1.367   1.606   6.159 -0.4588  0.6531 -0.2443
 5041SOL    HW126759   1.275   1.602   6.130 -1.1786  2.1908  1.8053
 5041SOL    HW226760   1.380   1.684   6.212 -1.3781 -2.1101  4.1105
 5042SOL     OW26761   2.589   1.238  16.769 -0.4554 -0.3955 -0.0889
 5042SOL    HW126762   2.671   1.287  16.755 -0.2442 -0.2429  1.6139
 5042SOL    HW226763   2.593   1.178  16.694 -0.6638 -2.2141  1.3619
 5043SOL     OW26764   4.118   1.484   8.796  0.1011 -0.1509 -0.5256
 5043SOL    HW126765   4.155   1.412   8.745  0.1721  0.8418 -1.8799
 5043SOL    HW226766   4.048   1.434   8.837  1.3472  0.8779  2.7967
 5044SOL     OW26767   3.277   1.598   5.430  0.2193  1.2246  0.4491
 5044SOL    HW126768   3.211   1.605   5.361  0.3244  1.0295  0.3293
 5044SOL    HW226769   3.335   1.535   5.387  0.6277  2.0930 -0.2565
 5045SOL     OW26770   3.289   0.929   9.701 -0.5278 -0.3236 -0.2380
 5045SOL    HW126771   3.381   0.919   9.676 -0.3734  1.6734 -0.4893
 5045SOL    HW226772   3.289   1.015   9.742 -1.6326 -0.8469  0.8352
 5046SOL     OW26773   3.725   1.525  17.207 -0.5873 -0.5157  0.1386
 5046SOL    HW126774   3.672   1.571  17.142  0.2092 -0.1403 -0.2432
 5046SOL    HW226775   3.756   1.451  17.155  0.9880 -0.2205  0.6571
 5047SOL     OW26776   3.067   2.669   5.698 -0.0680  0.6824 -0.1171
 5047SOL    HW126777   3.125   2.712   5.761 -1.1425  1.8195  0.0924
 5047SOL    HW226778   3.132   2.603   5.672 -0.5076  0.1411  0.1463
 5048SOL     OW26779   4.213   1.911   4.786  0.0848 -0.6774 -0.0406
 5048SOL    HW126780   4.204   1.824   4.747  3.4527 -2.1065  2.3290
 5048SOL    HW226781   4.210   1.885   4.878 -0.9983 -0.1297  0.0769
 5049SOL     OW26782   1.657   2.742   8.043  0.2519 -0.5102  0.4396
 5049SOL    HW126783   1.678   2.833   8.022  0.8001 -0.5082  1.0129
 5049SOL    HW226784   1.665   2.718   7.951  3.1670  1.5938  0.1670
 5050SOL     OW26785   1.175   0.269  15.652 -0.2293 -0.2031 -0.0340
 5050SOL    HW126786   1.239   0.273  15.723 -0.0377 -1.3830 -0.1513
 5050SOL    HW226787   1.102   0.227  15.697  0.4154 -0.0953  1.1113
 5051SOL     OW26788   1.069   4.353   4.759 -0.4291 -0.2022 -0.0223
 5051SOL    HW126789   1.155   4.351   4.801 -0.4898  0.6370  0.1472
 5051SOL    HW226790   1.075   4.420   4.690 -0.7096  0.6434  0.7806
 5052SOL     OW26791   4.368   1.343   3.306  0.4284  0.5342  0.4749
 5052SOL    HW126792   4.337   1.377   3.391 -1.2701 -0.3182  0.1834
 5052SOL    HW226793   4.342   1.251   3.310 -1.7384  1.2211  2.1188
 5053SOL     OW26794   2.917   2.899   5.857 -0.2057  0.2850 -0.2322
 5053SOL    HW126795   2.929   2.805   5.840  0.2369  0.5568 -1.4253
 5053SOL    HW226796   2.949   2.948   5.781 -2.1881  1.0654 -0.5806
 5054SOL     OW26797   3.299   1.169  13.028  0.2416 -0.4297 -0.3031
 5054SOL    HW126798   3.360   1.170  12.954  2.1363 -1.5831  1.2607
 5054SOL    HW226799   3.266   1.079  13.031 -0.2340 -0.2136  0.9647
 5055SOL     OW26800   1.399   1.568   4.130 -0.2105 -0.0714  0.0545
 5055SOL    HW126801   1.438   1.509   4.195  0.5006 -1.0206 -1.2267
 5055SOL    HW226802   1.415   1.654   4.169 -0.8532  1.5715 -3.2681
 5056SOL     OW26803   4.170   3.518   3.095  0.3113 -0.1923  0.1332
 5056SOL    HW126804   4.163   3.613   3.106  0.0660 -0.1922 -0.0227
 5056SOL    HW226805   4.085   3.483   3.121  0.6071 -0.4448  0.7567
 5057SOL     OW26806   0.656   3.848   9.977  0.2075 -0.2356 -0.5015
 5057SOL    HW126807   0.703   3.768   9.955 -0.7992 -1.4892  1.8649
 5057SOL    HW226808   0.730   3.909   9.968  0.4377 -0.6522 -1.4021
 5058SOL     OW26809   0.006   0.293   8.036  0.1914  0.1940  0.0910
 5058SOL    HW126810   4.733   0.361   7.969 -0.9067  0.6146  0.6940
 5058SOL    HW226811   4.650   0.274   8.035  0.6357 -2.0504  0.2403
 5059SOL     OW26812   0.198   4.552   3.457  0.6998 -0.2860  0.2148
 5059SOL    HW126813   0.197   4.472   3.404  0.9276  0.4355 -0.8690
 5059SOL    HW226814   0.278   4.532   3.507 -0.1258 -0.4778  1.4638
 5060SOL     OW26815   4.430   0.183   5.152  0.3318 -0.3630 -0.6019
 5060SOL    HW126816   4.452   0.090   5.153 -0.8568 -0.6309  1.4425
 5060SOL    HW226817   4.434   0.195   5.247  0.8757 -1.6043 -0.4699
 5061SOL     OW26818   0.323   0.257  11.187 -0.1967  0.3767  0.0226
 5061SOL    HW126819   0.304   0.281  11.278  0.3492  0.8923  0.0025
 5061SOL    HW226820   0.418   0.246  11.193 -0.1311  1.4590  0.9394
 5062SOL     OW26821   1.825   3.607   7.159  0.4156 -0.2590 -0.7748
 5062SOL    HW126822   1.913   3.628   7.130 -0.1303  0.9630 -1.5527
 5062SOL    HW226823   1.775   3.665   7.102  2.0786  0.9559 -1.0095
 5063SOL     OW26824   3.412   2.540   0.963  0.7629  0.1464 -0.4487
 5063SOL    HW126825   3.463   2.517   1.041 -0.2019 -0.4247  0.0145
 5063SOL    HW226826   3.482   2.574   0.908  0.7129  0.7468 -0.1450
 5064SOL     OW26827   1.162   3.187   4.312 -0.3324 -0.1403 -0.0501
 5064SOL    HW126828   1.253   3.156   4.303 -0.6096 -1.2969  1.2137
 5064SOL    HW226829   1.176   3.276   4.344 -0.1585 -0.1871  0.0022
 5065SOL     OW26830   1.650   4.188  17.006  0.2658 -0.2360  0.2232
 5065SOL    HW126831   1.580   4.181  17.070  0.3634  0.9779  0.4658
 5065SOL    HW226832   1.637   4.279  16.979  1.6518 -0.5001 -1.3394
 5066SOL     OW26833   2.252   0.209   1.942 -0.0114 -0.5298 -0.3761
 5066SOL    HW126834   2.332   0.198   1.995 -2.5963  1.1372  3.8677
 5066SOL    HW226835   2.280   0.219   1.851 -1.2694  1.6875 -0.5034
 5067SOL     OW26836   1.145   0.848   6.117  0.0154 -0.4114  0.3159
 5067SOL    HW126837   1.123   0.903   6.192 -0.2421 -0.5038  0.3064
 5067SOL    HW226838   1.069   0.858   6.060  1.5824 -0.6270 -1.8026
 5068SOL     OW26839   0.475   0.033   4.163 -0.6150  0.5185 -0.3484
 5068SOL    HW126840   0.497   4.704   4.228  2.0082 -1.0603 -2.8585
 5068SOL    HW226841   0.547   0.094   4.178  0.4738 -0.7755 -0.2825
 5069SOL     OW26842   4.644   0.624  10.132 -0.4791  0.0812  0.0028
 5069SOL    HW126843   4.649   0.537  10.171 -0.7765  0.2203  0.3508
 5069SOL    HW226844   4.703   0.682  10.180 -0.3377 -1.7398  2.0582
 5070SOL     OW26845   2.408   0.302   7.391 -0.0272 -0.5299  0.7503
 5070SOL    HW126846   2.335   0.334   7.337  1.8580  0.1942 -1.3823
 5070SOL    HW226847   2.480   0.361   7.371 -1.6691  0.9417 -0.8525
 5071SOL     OW26848   0.111   0.345   8.923 -0.0173 -0.5570  0.5866
 5071SOL    HW126849   0.067   0.321   9.005  1.1125 -0.7786  1.1339
 5071SOL    HW226850   0.202   0.362   8.947  0.4965 -1.0723 -0.9641
 5072SOL     OW26851   3.792   1.999   7.991  0.0109 -0.1246 -0.4327
 5072SOL    HW126852   3.797   2.069   7.926 -0.6262  0.1770 -0.1587
 5072SOL    HW226853   3.800   1.928   7.928  1.2481  0.5838 -1.0838
 5073SOL     OW26854   2.923   3.805   2.631  0.3815  0.1228 -0.1330
 5073SOL    HW126855   3.015   3.830   2.635  0.4041  0.4210 -2.6412
 5073SOL    HW226856   2.922   3.766   2.543  1.6103 -1.9005  0.7448
 5074SOL     OW26857   4.688   2.360   4.635 -0.1078  0.2992  1.0199
 5074SOL    HW126858   0.002   2.377   4.714  0.0428 -2.6729  1.5524
 5074SOL    HW226859   4.736   2.411   4.569  0.7271 -1.4068  0.3234
 5075SOL     OW26860   2.033   1.202   6.814  0.2049 -0.2334  0.4348
 5075SOL    HW126861   2.036   1.168   6.724 -0.4891 -0.8389  0.6357
 5075SOL    HW226862   2.106   1.263   6.805 -0.2463  0.6859  2.8833
 5076SOL     OW26863   0.893   1.968   7.470 -0.2953 -0.4116 -0.0460
 5076SOL    HW126864   0.959   1.900   7.483  1.3568  1.7126  2.6297
 5076SOL    HW226865   0.862   1.964   7.379 -1.0901 -1.6525  0.2631
 5077SOL     OW26866   4.338   2.298   4.324  0.9115 -0.2955  0.0408
 5077SOL    HW126867   4.312   2.211   4.355  2.4092 -1.0299 -0.7365
 5077SOL    HW226868   4.348   2.345   4.407  1.6717 -0.4800  0.0542
 5078SOL     OW26869   3.644   2.471   1.142 -0.1196 -0.2330  0.3615
 5078SOL    HW126870   3.642   2.508   1.230 -0.9375 -1.4919  0.8747
 5078SOL    HW226871   3.666   2.378   1.145 -1.2545 -0.5161 -0.1479
 5079SOL     OW26872   3.382   4.327  10.054  0.0872  0.5009 -0.1345
 5079SOL    HW126873   3.444   4.368  10.114 -0.0757  1.8376 -0.8727
 5079SOL    HW226874   3.374   4.242  10.097  0.8383  0.6748  0.3493
 5080SOL     OW26875   0.812   4.277   5.294 -0.1278  0.6702 -0.2480
 5080SOL    HW126876   0.823   4.217   5.368 -0.6245  0.2853 -0.4805
 5080SOL    HW226877   0.898   4.316   5.305 -0.3780  1.4864 -1.2679
 5081SOL     OW26878   1.851   3.606  16.692  0.7897  0.6418 -0.5300
 5081SOL    HW126879   1.782   3.567  16.638  0.9022  0.0174 -0.2173
 5081SOL    HW226880   1.875   3.683  16.640 -0.9552  0.5505 -1.4711
 5082SOL     OW26881   3.502   0.602   9.279 -0.5958  0.0952  0.0785
 5082SOL    HW126882   3.584   0.629   9.320  0.4348 -1.1083 -1.2145
 5082SOL    HW226883   3.431   0.635   9.335 -1.5849 -0.4765 -0.8383
 5083SOL     OW26884   4.210   0.033   0.373 -0.0688 -0.1121 -0.1606
 5083SOL    HW126885   4.272   0.093   0.331  0.6340 -1.3091 -0.8163
 5083SOL    HW226886   4.222   0.054   0.466 -0.1901 -0.6350 -0.0286
 5084SOL     OW26887   4.029   0.814  10.105 -0.3719  0.8053 -0.0764
 5084SOL    HW126888   3.999   0.786  10.191 -2.2436 -0.5828 -1.2006
 5084SOL    HW226889   4.119   0.781  10.112 -0.5064  0.8795  1.8777
 5085SOL     OW26890   4.412   3.292   4.921 -0.5441 -0.3307  0.1608
 5085SOL    HW126891   4.320   3.270   4.933 -1.0953  1.8873 -0.0535
 5085SOL    HW226892   4.405   3.387   4.918 -0.0750 -0.2787  0.8023
 5086SOL     OW26893   1.163   1.141  14.898 -0.4871  0.3857  0.2010
 5086SOL    HW126894   1.223   1.073  14.868  0.9196  1.8479 -0.2945
 5086SOL    HW226895   1.227   1.197  14.943 -0.5849  0.1209  0.6641
 5087SOL     OW26896   2.592   3.536   1.828 -0.0453  0.0727  0.1347
 5087SOL    HW126897   2.536   3.459   1.817  0.7596 -0.5309  0.3177
 5087SOL    HW226898   2.624   3.543   1.738  2.8006 -1.1827  1.0685
 5088SOL     OW26899   1.470   0.064  11.672 -0.1491 -0.0088  0.4244
 5088SOL    HW126900   1.457   0.010  11.750 -0.5228  1.5738  1.4484
 5088SOL    HW226901   1.565   0.073  11.669 -0.3009  1.1327 -0.7962
 5089SOL     OW26902   3.883   0.860   3.989  0.3032 -0.2554 -0.4763
 5089SOL    HW126903   3.946   0.871   4.060 -0.3426  2.0699 -0.2731
 5089SOL    HW226904   3.809   0.916   4.011 -0.7376 -1.4574 -0.9362
 5090SOL     OW26905   2.422   1.622  16.758  0.1426 -0.1681 -0.0727
 5090SOL    HW126906   2.407   1.622  16.853 -0.6092 -0.9472 -0.1926
 5090SOL    HW226907   2.421   1.528  16.743  0.3369 -0.5284  2.2487
 5091SOL     OW26908   3.534   0.980   4.355  0.1171 -1.1202  0.1141
 5091SOL    HW126909   3.579   1.064   4.353  2.5667 -2.4113  0.8096
 5091SOL    HW226910   3.527   0.974   4.450  0.5001  0.7311  0.2572
 5092SOL     OW26911   4.027   2.086   8.213 -0.0964  0.0255  0.2135
 5092SOL    HW126912   4.000   1.994   8.222 -1.3267  0.5523  1.9471
 5092SOL    HW226913   3.950   2.115   8.164 -0.4824 -1.8768 -0.3154
 5093SOL     OW26914   4.262   2.908   7.292 -0.1528  0.2752  0.2513
 5093SOL    HW126915   4.295   2.849   7.225 -1.4693  0.9317 -0.9731
 5093SOL    HW226916   4.284   2.992   7.251 -0.0477 -0.6214 -1.5175
 5094SOL     OW26917   0.963   4.532  17.104  0.1903 -0.1637  0.4325
 5094SOL    HW126918   1.058   4.547  17.109  0.0348  0.7204  0.7712
 5094SOL    HW226919   0.934   4.570  17.187 -1.7875  1.4312 -1.0103
 5095SOL     OW26920   4.326   1.683   4.445  0.6614  0.0642  0.3794
 5095SOL    HW126921   4.312   1.610   4.385  0.4666 -0.9103  1.5918
 5095SOL    HW226922   4.274   1.655   4.521 -1.0483  0.2380 -0.7353
 5096SOL     OW26923   2.167   0.522   8.151 -0.3773 -0.7835  0.4878
 5096SOL    HW126924   2.118   0.591   8.107  0.4281  0.5079  1.6518
 5096SOL    HW226925   2.254   0.562   8.150 -0.7945  0.1015  0.1996
 5097SOL     OW26926   3.645   1.695   6.439  0.8094 -0.0540 -0.0773
 5097SOL    HW126927   3.706   1.769   6.446  1.6936 -0.7628 -0.2487
 5097SOL    HW226928   3.576   1.716   6.502 -0.5653 -2.0118 -0.9197
 5098SOL     OW26929   2.374   2.223  11.147  0.0146 -0.3095  0.2300
 5098SOL    HW126930   2.323   2.150  11.184  0.8391 -2.7887 -3.5563
 5098SOL    HW226931   2.452   2.179  11.116  0.3311 -0.7526  1.6611
 5099SOL     OW26932   2.673   3.309   6.659 -0.5354  0.0654  0.2402
 5099SOL    HW126933   2.695   3.223   6.625 -0.1433 -0.2601  1.2925
 5099SOL    HW226934   2.603   3.299   6.723 -0.4008  1.9836  0.7056
 5100SOL     OW26935   3.741   2.766   9.622  0.0626  0.2405  0.2994
 5100SOL    HW126936   3.759   2.785   9.530  2.4474 -0.5837  0.5865
 5100SOL    HW226937   3.695   2.683   9.610  1.1431 -0.9329  4.1485
 5101SOL     OW26938   3.449   0.228   3.240 -0.7428  0.1702  0.2459
 5101SOL    HW126939   3.381   0.164   3.264 -0.1707 -1.0434 -1.3022
 5101SOL    HW226940   3.474   0.203   3.151 -1.0413 -1.0173  0.4914
 5102SOL     OW26941   4.084   4.164   6.901 -0.1686 -0.3102 -0.2001
 5102SOL    HW126942   4.074   4.123   6.986  0.2825  0.1638  0.0811
 5102SOL    HW226943   4.151   4.110   6.859  0.3275  0.2853 -0.1661
 5103SOL     OW26944   1.292   3.177   1.994  0.1873  0.4876  0.5675
 5103SOL    HW126945   1.308   3.244   2.061  4.9056  1.4696 -1.5275
 5103SOL    HW226946   1.207   3.195   1.955  0.7147 -0.2425 -0.9301
 5104SOL     OW26947   0.778   3.070   8.332 -0.0543 -0.2121 -0.1246
 5104SOL    HW126948   0.816   2.983   8.325  3.1734  1.1859 -0.1678
 5104SOL    HW226949   0.794   3.094   8.424 -1.9254  2.3498 -0.4935
 5105SOL     OW26950   2.529   3.748   1.386  0.3014  0.6785 -0.0011
 5105SOL    HW126951   2.480   3.781   1.311 -0.5587  0.4254  0.4519
 5105SOL    HW226952   2.612   3.796   1.394  0.3128  0.2770  2.1474
 5106SOL     OW26953   1.294   2.975   5.017  0.0281 -0.5868  0.3779
 5106SOL    HW126954   1.319   2.902   5.074  1.7572  1.7303  2.5896
 5106SOL    HW226955   1.302   2.930   4.932 -0.1119 -0.3120  0.2193
 5107SOL     OW26956   1.638   1.292  14.793  0.2006 -0.0500 -0.3765
 5107SOL    HW126957   1.702   1.262  14.729  1.5474  1.1911  0.3955
 5107SOL    HW226958   1.560   1.282  14.738 -0.0608 -0.7596  0.1227
 5108SOL     OW26959   1.552   0.829   8.216 -0.6447 -0.1098 -0.4959
 5108SOL    HW126960   1.477   0.886   8.201 -1.3776 -0.5235  1.6508
 5108SOL    HW226961   1.610   0.864   8.148  1.3210  1.2061  1.8730
 5109SOL     OW26962   0.197   0.782   1.574  0.1425 -0.0522  0.1830
 5109SOL    HW126963   0.139   0.709   1.554 -0.7866  1.4592 -2.6813
 5109SOL    HW226964   0.212   0.768   1.667  2.7557  0.9868 -0.0741
 5110SOL     OW26965   1.403   1.768  15.263 -0.8465 -0.0147  0.3563
 5110SOL    HW126966   1.419   1.860  15.243 -1.3853  0.0118  0.0547
 5110SOL    HW226967   1.466   1.728  15.204 -0.7110  2.2486 -1.0113
 5111SOL     OW26968   2.879   2.699  15.140 -0.1463  0.0358  0.1460
 5111SOL    HW126969   2.914   2.787  15.158  3.0401 -0.6687 -2.8271
 5111SOL    HW226970   2.784   2.713  15.145 -0.3287 -0.8665 -0.7348
 5112SOL     OW26971   2.700   2.571   8.311  0.2628 -0.4192 -0.0433
 5112SOL    HW126972   2.639   2.521   8.366 -0.3122  2.2895  1.8094
 5112SOL    HW226973   2.723   2.637   8.377 -1.8233 -0.1299  0.3754
 5113SOL     OW26974   3.992   0.709   9.228 -0.4881  0.0773 -0.5642
 5113SOL    HW126975   4.005   0.645   9.158  1.8286 -1.3900  1.1730
 5113SOL    HW226976   4.059   0.664   9.281 -1.4795 -1.8101 -0.9135
 5114SOL     OW26977   3.579   3.952   6.131  0.1068  0.3225 -0.3144
 5114SOL    HW126978   3.541   4.039   6.119 -1.3847 -0.3602 -0.5193
 5114SOL    HW226979   3.504   3.901   6.161  0.5811  0.2994  0.8076
 5115SOL     OW26980   2.080   3.512  14.618  0.6628 -0.2197 -0.7442
 5115SOL    HW126981   2.097   3.419  14.605 -1.6120 -0.9432  1.6998
 5115SOL    HW226982   1.985   3.511  14.624  0.6497 -1.4352 -1.1916
 5116SOL     OW26983   4.042   4.048   8.221  0.0432 -0.0261 -0.0591
 5116SOL    HW126984   3.998   4.129   8.249  1.0388  0.6569 -0.4816
 5116SOL    HW226985   4.073   4.031   8.310  0.2555  1.2899  0.1210
 5117SOL     OW26986   1.235   0.896   5.636 -0.3305  0.0663  0.0238
 5117SOL    HW126987   1.242   0.866   5.727 -0.0257  2.6270  0.8629
 5117SOL    HW226988   1.263   0.988   5.641  0.2570  0.0842 -3.5067
 5118SOL     OW26989   0.677   2.489   6.095  0.1965 -0.3656 -0.2799
 5118SOL    HW126990   0.703   2.520   6.009  1.8678 -0.5329  0.1634
 5118SOL    HW226991   0.764   2.471   6.132  0.7732  1.9993 -0.4895
 5119SOL     OW26992   1.135   2.545  11.367 -0.0782 -0.2143  0.3053
 5119SOL    HW126993   1.062   2.584  11.318 -0.4636  0.1522  1.1548
 5119SOL    HW226994   1.105   2.456  11.385  0.5287 -0.9006 -2.1164
 5120SOL     OW26995   2.810   4.376   4.781 -0.4825  0.0507 -0.3312
 5120SOL    HW126996   2.730   4.361   4.731 -0.3437 -1.9611  0.0480
 5120SOL    HW226997   2.782   4.425   4.859 -0.0202  1.5394 -1.0949
 5121SOL     OW26998   2.145   1.341   9.257 -0.2892  0.5397  0.2227
 5121SOL    HW126999   2.098   1.368   9.178 -1.6666 -2.1222  0.1380
 5121SOL    HW227000   2.104   1.258   9.282 -3.0629  1.7073 -0.5078
 5122SOL     OW27001   4.622   2.826   7.168 -0.0339 -0.8790  0.1015
 5122SOL    HW127002   4.705   2.822   7.215 -0.8219 -1.2752  1.4832
 5122SOL    HW227003   4.562   2.882   7.218  0.0176 -0.1147 -0.6851
 5123SOL     OW27004   1.880   2.169   4.040 -0.3091  0.4492  0.3102
 5123SOL    HW127005   1.836   2.101   3.988 -0.9441  1.6904 -0.7820
 5123SOL    HW227006   1.853   2.243   3.985  1.6676  0.8097 -0.1764
 5124SOL     OW27007   1.468   1.157   0.070 -0.0120  0.2083  0.4239
 5124SOL    HW127008   1.501   1.240   0.103  0.5662 -0.1836  0.8342
 5124SOL    HW227009   1.530   1.095   0.108  2.3357  1.0781 -2.0576
 5125SOL     OW27010   3.260   3.501   5.046 -0.4248  0.4854 -0.3884
 5125SOL    HW127011   3.309   3.531   5.123  0.7352 -0.0376 -0.9211
 5125SOL    HW227012   3.331   3.504   4.981 -0.2797 -1.8889 -0.3490
 5126SOL     OW27013   0.515   3.953  13.480 -0.0781 -0.0919  0.2018
 5126SOL    HW127014   0.487   4.002  13.557 -0.8519 -1.2459  0.6332
 5126SOL    HW227015   0.603   3.927  13.508  0.6506  2.8527  0.6985
 5127SOL     OW27016   4.627   2.195   5.723 -0.1731 -0.6655 -0.1458
 5127SOL    HW127017   4.556   2.259   5.721 -0.5204 -0.9857  1.6716
 5127SOL    HW227018   4.613   2.161   5.635  2.4157 -0.9121 -0.4452
 5128SOL     OW27019   1.810   3.659   4.139  0.4626 -0.5181 -0.0490
 5128SOL    HW127020   1.844   3.733   4.088 -0.5730  0.2934  0.4345
 5128SOL    HW227021   1.813   3.586   4.078 -0.1245 -0.4024 -0.2116
 5129SOL     OW27022   3.881   4.137   4.626 -0.2634  0.0668 -0.5847
 5129SOL    HW127023   3.931   4.150   4.706  1.6055 -2.3401 -1.3398
 5129SOL    HW227024   3.843   4.224   4.616 -2.2016 -0.8842 -1.6216
 5130SOL     OW27025   3.772   3.871   7.777 -0.2134 -0.5079  0.4940
 5130SOL    HW127026   3.790   3.823   7.857 -1.0277 -2.2144 -0.3438
 5130SOL    HW227027   3.757   3.955   7.820 -0.1970  0.0728 -0.6126
 5131SOL     OW27028   2.415   1.004   4.607 -0.0872  0.5445  0.2342
 5131SOL    HW127029   2.388   0.912   4.608 -0.6945  0.6996 -3.3429
 5131SOL    HW227030   2.337   1.039   4.650 -0.1697  2.2633 -1.3364
 5132SOL     OW27031   2.177   3.389  13.453 -0.2967 -0.0255 -0.1152
 5132SOL    HW127032   2.087   3.400  13.482  0.8744  1.0519  3.1391
 5132SOL    HW227033   2.199   3.476  13.419  0.7489  0.4559  1.8194
 5133SOL     OW27034   4.331   0.515   5.257 -0.7030  0.0481 -0.0989
 5133SOL    HW127035   4.324   0.420   5.251 -0.5852  0.0820 -0.7059
 5133SOL    HW227036   4.238   0.536   5.260 -0.7216 -0.1706  0.8994
 5134SOL     OW27037   4.599   1.973   4.863  0.5258 -0.2154 -0.0303
 5134SOL    HW127038   4.671   1.990   4.802  0.9638  0.1690  0.5910
 5134SOL    HW227039   4.606   2.039   4.932  0.6602  0.2816 -0.5263
 5135SOL     OW27040   1.300   0.902  15.396 -0.1135  0.0306  0.4418
 5135SOL    HW127041   1.289   0.994  15.371  1.9895  0.7504  2.1212
 5135SOL    HW227042   1.377   0.905  15.452 -1.2361  1.3462  1.8919
 5136SOL     OW27043   0.955   3.518  12.507 -0.0512  0.0745  0.1195
 5136SOL    HW127044   1.001   3.442  12.472 -0.7515 -0.2205 -0.1643
 5136SOL    HW227045   0.885   3.524  12.442 -1.7528  1.2635  2.0720
 5137SOL     OW27046   1.369   2.056   1.814 -0.2575 -0.3442 -0.0649
 5137SOL    HW127047   1.462   2.053   1.791 -0.1017  1.1808  0.4086
 5137SOL    HW227048   1.363   2.134   1.869  2.1407  0.8423 -1.4893
 5138SOL     OW27049   2.817   3.964  15.506  0.1627  0.1308  0.0921
 5138SOL    HW127050   2.736   3.913  15.504  1.8441 -2.5883  1.1738
 5138SOL    HW227051   2.872   3.894  15.541 -0.1083  0.2401  0.7420
 5139SOL     OW27052   3.770   4.408   4.625 -0.2759 -0.0082 -0.4223
 5139SOL    HW127053   3.729   4.407   4.711 -0.7843  0.2163 -0.6578
 5139SOL    HW227054   3.770   4.502   4.611 -0.7997 -0.2098 -1.8567
 5140SOL     OW27055   0.985   4.704   1.904  0.2875 -0.1662  0.2003
 5140SOL    HW127056   0.930   4.636   1.943 -1.3257  0.7358 -0.4712
 5140SOL    HW227057   1.058   4.651   1.872 -0.7914 -1.7761  0.3978
 5141SOL     OW27058   2.459   0.875  16.275  0.2152 -0.4920 -0.0788
 5141SOL    HW127059   2.472   0.818  16.199 -1.6694 -1.6472  0.4522
 5141SOL    HW227060   2.462   0.809  16.344 -1.9336 -1.4913 -0.9210
 5142SOL     OW27061   4.269   3.793  11.826 -0.2499  0.2034 -0.0415
 5142SOL    HW127062   4.284   3.763  11.736 -1.5381 -1.3701  0.2725
 5142SOL    HW227063   4.302   3.882  11.817 -0.3501 -0.0882 -3.4904
 5143SOL     OW27064   4.509   3.430   9.194  0.2613 -0.3887 -0.1644
 5143SOL    HW127065   4.419   3.449   9.166  0.9344  1.1244 -1.2676
 5143SOL    HW227066   4.506   3.459   9.285  1.7223  0.5207 -0.4232
 5144SOL     OW27067   4.121   2.729   3.675 -0.1509  0.1628 -0.3153
 5144SOL    HW127068   4.170   2.765   3.749 -1.3921  0.9692  0.1190
 5144SOL    HW227069   4.035   2.735   3.717  1.1323  1.9638  2.0911
 5145SOL     OW27070   2.893   3.147  12.523  0.1506 -0.4645 -0.1106
 5145SOL    HW127071   2.986   3.149  12.546  0.6510 -0.9148 -2.1156
 5145SOL    HW227072   2.852   3.097  12.593  1.0652  0.8710  1.3730
 5146SOL     OW27073   2.691   1.261   4.679 -0.3714  0.0216 -0.0206
 5146SOL    HW127074   2.738   1.229   4.756 -0.7856  2.1886  1.1294
 5146SOL    HW227075   2.712   1.191   4.616  1.7669  2.0772 -1.5999
 5147SOL     OW27076   0.617   0.719   4.130  1.1185  0.1115  0.2251
 5147SOL    HW127077   0.590   0.755   4.046  0.4531  0.2439  0.4944
 5147SOL    HW227078   0.608   0.624   4.123  0.4851  0.2297 -0.4907
 5148SOL     OW27079   2.796   0.102   2.922  0.1505  0.0183  0.3436
 5148SOL    HW127080   2.881   0.142   2.941  1.3816 -1.5865 -1.7763
 5148SOL    HW227081   2.772   0.133   2.835  0.0749 -0.7312  0.0977
 5149SOL     OW27082   0.106   0.806  12.497  0.4790 -0.1673 -0.2843
 5149SOL    HW127083   0.034   0.745  12.514 -0.6042  0.6207 -2.0493
 5149SOL    HW227084   0.138   0.831  12.584  0.7438  1.4514 -0.8363
 5150SOL     OW27085   0.603   3.167   3.309 -0.5556 -0.4412 -0.4949
 5150SOL    HW127086   0.684   3.120   3.328 -1.7978 -2.0598  0.7849
 5150SOL    HW227087   0.636   3.249   3.273  1.4387 -2.0164 -2.2410
 5151SOL     OW27088   1.224   1.935   2.235  0.3521 -0.2840 -0.2170
 5151SOL    HW127089   1.210   1.848   2.274 -0.1318 -0.9645 -1.8665
 5151SOL    HW227090   1.313   1.955   2.262  0.7844 -0.6635 -1.3722
 5152SOL     OW27091   1.274   3.117   1.674  0.2921 -0.2119 -0.9224
 5152SOL    HW127092   1.247   3.043   1.727  0.3511  0.0529 -0.5202
 5152SOL    HW227093   1.197   3.168   1.648  0.2378  0.3146  0.2781
 5153SOL     OW27094   0.953   0.136   1.025 -0.2621 -0.1486  0.5480
 5153SOL    HW127095   1.039   0.095   1.026  0.2092  0.7726 -2.6577
 5153SOL    HW227096   0.962   0.207   1.090 -2.4458  1.1742 -0.5893
 5154SOL     OW27097   0.078   2.062   8.916 -0.0406  0.2785  0.4520
 5154SOL    HW127098   0.071   2.048   9.011  0.2895 -0.1550  0.4155
 5154SOL    HW227099   4.734   2.020   8.890 -0.2721  0.2874  1.1563
 5155SOL     OW27100   1.447   3.182  14.632  0.0116  0.0109 -0.4584
 5155SOL    HW127101   1.520   3.243  14.649  0.1207 -0.3518  0.3406
 5155SOL    HW227102   1.492   3.119  14.576  0.3058  1.4296 -1.8336
 5156SOL     OW27103   1.476   3.240   4.042 -0.4056  0.3006  0.0701
 5156SOL    HW127104   1.566   3.209   4.049 -0.4134  1.0816  3.5169
 5156SOL    HW227105   1.491   3.334   4.047  1.7798 -0.1444  1.4467
 5157SOL     OW27106   4.340   4.663   3.849 -0.1445  0.6960  0.0534
 5157SOL    HW127107   4.432   4.683   3.832 -0.2528  1.1483  0.0181
 5157SOL    HW227108   4.343   4.569   3.830 -0.1185  1.2613 -2.7479
 5158SOL     OW27109   0.170   4.573   1.930  0.2106 -0.0867 -0.2835
 5158SOL    HW127110   0.200   4.515   2.000 -0.5621 -1.3469 -0.9951
 5158SOL    HW227111   0.141   4.501   1.873 -2.1445  0.6745 -0.0520
 5159SOL     OW27112   3.777   2.056   7.697  0.4339  0.1603  0.0592
 5159SOL    HW127113   3.847   2.066   7.633 -0.5352 -1.7005 -1.2755
 5159SOL    HW227114   3.713   2.003   7.649  0.0217  1.2916 -0.6368
 5160SOL     OW27115   0.435   2.665   4.274  0.5264 -0.4066  0.1322
 5160SOL    HW127116   0.409   2.627   4.358 -0.6758 -1.7697 -0.8642
 5160SOL    HW227117   0.483   2.745   4.295  0.3221 -0.4991  0.9725
 5161SOL     OW27118   2.425   4.640  12.060 -0.4623 -0.2003  0.0663
 5161SOL    HW127119   2.436   4.576  12.131 -4.2576  0.7908  1.5756
 5161SOL    HW227120   2.446   4.585  11.985  1.1561 -0.6574  0.8358
 5162SOL     OW27121   2.890   1.411  17.340  0.0253  0.3157  0.6708
 5162SOL    HW127122   2.841   1.329  17.345 -0.4067  0.6112  1.2011
 5162SOL    HW227123   2.888   1.434  17.433  0.8406  2.0778  0.2592
 5163SOL     OW27124   4.220   3.524   6.710  0.0738 -0.0180  0.0938
 5163SOL    HW127125   4.265   3.446   6.678 -0.3633 -0.5599  0.8177
 5163SOL    HW227126   4.153   3.481   6.763  0.1848  0.7237  0.8395
 5164SOL     OW27127   1.485   4.008   6.933  0.3149  0.2146  0.1999
 5164SOL    HW127128   1.571   4.022   6.893 -0.6302 -0.0176 -1.9289
 5164SOL    HW227129   1.511   4.046   7.017  1.1453 -0.0926  0.0815
 5165SOL     OW27130   2.995   2.958  15.174  0.3601  0.3068 -0.4915
 5165SOL    HW127131   2.945   3.040  15.171 -2.3056 -1.3264 -1.3630
 5165SOL    HW227132   3.056   2.977  15.103 -0.5206  1.2442 -0.9897
 5166SOL     OW27133   3.149   1.693   4.929  0.0008  0.4011  0.8779
 5166SOL    HW127134   3.213   1.631   4.896 -3.2472 -2.8678  0.7699
 5166SOL    HW227135   3.076   1.648   4.887  1.4891 -1.3578  0.1964
 5167SOL     OW27136   0.213   2.245  17.310  0.0346 -0.2770  0.3454
 5167SOL    HW127137   0.179   2.334  17.323 -1.9663 -0.8456 -0.9546
 5167SOL    HW227138   0.138   2.221  17.255 -2.0501  0.2604  2.9415
 5168SOL     OW27139   4.492   1.408  16.021 -0.3240 -0.4779  0.2687
 5168SOL    HW127140   4.409   1.425  15.977 -0.2726 -1.1754 -0.0943
 5168SOL    HW227141   4.537   1.377  15.943 -2.1384  3.4696 -2.3456
 5169SOL     OW27142   1.324   4.289   4.924 -0.2376 -0.2288 -0.8827
 5169SOL    HW127143   1.382   4.237   4.870  1.3198 -0.0910  0.6564
 5169SOL    HW227144   1.348   4.251   5.009 -1.4723  2.9477  0.8818
 5170SOL     OW27145   4.316   3.699   9.493 -0.6428 -0.1233  0.2463
 5170SOL    HW127146   4.271   3.728   9.573  0.6475 -1.8186  1.5751
 5170SOL    HW227147   4.406   3.731   9.497 -1.1581  1.1704  1.5361
 5171SOL     OW27148   1.657   1.494   8.277  0.2807  0.3958  0.4036
 5171SOL    HW127149   1.612   1.433   8.335  0.3495  1.6750  1.7946
 5171SOL    HW227150   1.738   1.512   8.326  2.2524 -1.1188 -2.3070
 5172SOL     OW27151   4.733   2.103   6.892  0.6316 -0.1999  0.2270
 5172SOL    HW127152   0.073   2.049   6.903  0.6540 -0.0760  0.6439
 5172SOL    HW227153   4.683   2.039   6.941 -0.5798  0.6418  0.1053
 5173SOL     OW27154   3.591   0.729   6.595  0.0036  0.3520 -0.2010
 5173SOL    HW127155   3.504   0.703   6.627 -0.4828  0.6116 -1.3132
 5173SOL    HW227156   3.576   0.796   6.528 -0.3416 -1.5515 -2.0080
 5174SOL     OW27157   0.600   2.604  11.000 -0.1608  0.5089 -0.5760
 5174SOL    HW127158   0.563   2.612  10.912  0.1563  0.7090 -0.6906
 5174SOL    HW227159   0.673   2.665  11.001  0.4855 -0.2903  2.2488
 5175SOL     OW27160   4.375   3.727   6.104 -0.3295 -0.0545  0.5547
 5175SOL    HW127161   4.428   3.730   6.183 -0.0679 -1.2174  0.4156
 5175SOL    HW227162   4.442   3.715   6.036 -0.7768 -0.4408  0.1781
 5176SOL     OW27163   4.169   3.877  14.059  0.0021  0.3119  0.5818
 5176SOL    HW127164   4.263   3.860  14.064 -0.1073 -1.2265 -2.6941
 5176SOL    HW227165   4.169   3.950  14.121 -0.8988 -1.7879  3.0760
 5177SOL     OW27166   0.256   4.094   2.152 -0.1634  0.4850  0.2572
 5177SOL    HW127167   0.332   4.037   2.145 -0.9643 -0.3484 -1.7382
 5177SOL    HW227168   0.220   4.054   2.231 -0.8622 -1.6257 -1.1235
 5178SOL     OW27169   3.198   2.509   7.880 -0.0086  0.5088 -0.1457
 5178SOL    HW127170   3.122   2.553   7.917 -0.1057 -0.3017  0.6055
 5178SOL    HW227171   3.252   2.495   7.958  0.4196 -1.0040 -0.7273
 5179SOL     OW27172   0.323   3.150  12.811 -0.5363 -0.3740  0.6165
 5179SOL    HW127173   0.330   3.245  12.823  1.0291 -0.2980 -0.8401
 5179SOL    HW227174   0.397   3.130  12.869 -0.1273  1.2561  0.6582
 5180SOL     OW27175   2.586   0.069  13.664  0.2764  0.1714  0.2385
 5180SOL    HW127176   2.624   0.109  13.742 -0.0385 -0.2083  0.5944
 5180SOL    HW227177   2.562   0.151  13.622 -2.0509  0.4164  2.0259
 5181SOL     OW27178   3.656   4.298   6.120  0.1348  0.1515  0.1013
 5181SOL    HW127179   3.716   4.242   6.071  1.3734  0.2997  1.4548
 5181SOL    HW227180   3.687   4.386   6.098 -1.4465  0.4274 -1.0096
 5182SOL     OW27181   3.705   1.043   7.616  0.4178  0.2380 -0.0506
 5182SOL    HW127182   3.653   0.970   7.651  2.4926 -0.6813  1.1361
 5182SOL    HW227183   3.647   1.118   7.606 -0.3773 -0.1798  1.5544
 5183SOL     OW27184   1.902   4.687   3.034  0.2515 -0.1059 -0.1537
 5183SOL    HW127185   1.960   4.674   2.959 -0.4309  0.8658 -0.8549
 5183SOL    HW227186   1.945   4.623   3.090  0.8074  0.2897 -0.1227
 5184SOL     OW27187   4.529   2.144   0.679  0.2948  0.0676 -0.4987
 5184SOL    HW127188   4.485   2.108   0.602 -3.5665  0.9517  1.2831
 5184SOL    HW227189   4.493   2.090   0.749  2.2721  1.6994  1.7183
 5185SOL     OW27190   4.205   4.450  14.508  0.2805 -0.2873 -0.4253
 5185SOL    HW127191   4.301   4.451  14.507  0.2565  1.5636  0.0281
 5185SOL    HW227192   4.191   4.423  14.418 -0.5252 -3.2842  0.5829
 5186SOL     OW27193   0.946   0.521   1.429 -0.0665  0.0296  0.1157
 5186SOL    HW127194   0.852   0.527   1.413  0.2181  2.3275 -0.5868
 5186SOL    HW227195   0.941   0.462   1.505  1.3164  1.4296  1.2865
 5187SOL     OW27196   1.772   3.091  13.228  0.4648  0.2982 -0.2991
 5187SOL    HW127197   1.828   3.090  13.150 -0.2810  0.1329 -0.8285
 5187SOL    HW227198   1.801   3.164  13.283  1.8867 -0.6284  0.1876
 5188SOL     OW27199   0.868   2.805  12.406  0.6924 -0.1066  0.5549
 5188SOL    HW127200   0.937   2.772  12.463  0.0321 -2.7582 -0.2154
 5188SOL    HW227201   0.905   2.807  12.318  0.4442 -0.0350  0.4515
 5189SOL     OW27202   0.308   2.377   6.685  0.3733  0.5219  0.7388
 5189SOL    HW127203   0.342   2.383   6.596  0.1430  1.6438  0.7251
 5189SOL    HW227204   0.241   2.311   6.668  0.4001  0.6404  0.1724
 5190SOL     OW27205   3.479   2.568   6.315 -0.1389  0.1142 -0.0312
 5190SOL    HW127206   3.536   2.502   6.355  0.2825 -0.2216 -1.1834
 5190SOL    HW227207   3.403   2.577   6.373  2.0823 -0.7844  3.0339
 5191SOL     OW27208   1.294   2.836   7.189 -0.2778  0.2229  0.3449
 5191SOL    HW127209   1.240   2.835   7.109  0.0902 -0.2360  0.1046
 5191SOL    HW227210   1.380   2.856   7.153  0.7023 -1.6621  1.6432
 5192SOL     OW27211   1.287   1.309  16.628 -0.9062  0.3302 -0.0812
 5192SOL    HW127212   1.348   1.238  16.646 -1.7689  0.0484  1.7606
 5192SOL    HW227213   1.340   1.384  16.601  1.6442 -1.7896 -0.8462
 5193SOL     OW27214   3.233   0.775   8.889 -0.8779  0.4379  0.0395
 5193SOL    HW127215   3.157   0.834   8.895 -1.3776 -0.3744  1.7030
 5193SOL    HW227216   3.310   0.823   8.918 -0.8126 -0.4799  1.3967
 5194SOL     OW27217   1.021   2.687   7.835 -0.4153  0.2415 -1.0240
 5194SOL    HW127218   1.008   2.672   7.929  1.2595 -0.8336 -0.9556
 5194SOL    HW227219   0.932   2.703   7.805 -0.2002  1.7661 -0.8059
 5195SOL     OW27220   3.567   2.049  11.064  0.0624 -0.3639 -0.4777
 5195SOL    HW127221   3.628   2.008  11.002  1.2148 -0.9770  1.0538
 5195SOL    HW227222   3.529   1.969  11.101  0.2613  1.4137  3.6133
 5196SOL     OW27223   3.144   1.542   8.329  0.2202  0.1106  0.1820
 5196SOL    HW127224   3.148   1.482   8.255  1.1811  1.8864 -1.1868
 5196SOL    HW227225   3.219   1.599   8.311  0.2119  0.5323  1.4508
 5197SOL     OW27226   0.785   2.862   6.136  0.0152  0.3628 -0.3698
 5197SOL    HW127227   0.861   2.849   6.080  1.2201 -1.3061  1.6436
 5197SOL    HW227228   0.705   2.846   6.087 -1.2463  1.5295  1.2797
 5198SOL     OW27229   4.632   0.045   2.438 -0.8221  0.1847 -0.6086
 5198SOL    HW127230   4.721   0.046   2.474 -1.0217 -2.2965 -0.0295
 5198SOL    HW227231   4.627   4.693   2.405  1.6487  0.1148 -0.8135
 5199SOL     OW27232   4.188   1.654   4.688  0.0292 -0.0041  0.4484
 5199SOL    HW127233   4.097   1.665   4.660  0.4732  0.2601 -0.8713
 5199SOL    HW227234   4.178   1.585   4.755 -0.9236 -0.2016  0.0946
 5200SOL     OW27235   0.055   0.037   0.799 -0.4022  0.3733  0.1527
 5200SOL    HW127236   0.135   0.058   0.750  0.9703 -0.1929  2.1120
 5200SOL    HW227237   0.007   0.120   0.796 -0.7105  0.1570 -0.9110
 5201SOL     OW27238   1.662   2.658   7.019 -0.0754  0.5034 -0.2312
 5201SOL    HW127239   1.628   2.590   7.078  0.0003  2.8157  2.4429
 5201SOL    HW227240   1.722   2.611   6.962 -1.8185  0.2416 -1.8744
 5202SOL     OW27241   3.684   1.466   1.617 -0.2462 -0.2900 -0.2566
 5202SOL    HW127242   3.626   1.477   1.541 -0.6893 -0.8445 -0.0036
 5202SOL    HW227243   3.692   1.372   1.632 -1.2723 -0.3618 -0.1194
 5203SOL     OW27244   2.791   2.190   4.380 -0.1375 -0.2640  0.1828
 5203SOL    HW127245   2.856   2.209   4.447  1.7279  2.6339 -2.4451
 5203SOL    HW227246   2.831   2.253   4.319  0.3846  0.9680  1.8143
 5204SOL     OW27247   0.442   0.693   8.026  0.6845  0.4752  0.4290
 5204SOL    HW127248   0.422   0.785   8.043 -1.1027  0.0039  0.8852
 5204SOL    HW227249   0.437   0.695   7.930  1.7733 -0.1961  0.3696
 5205SOL     OW27250   4.643   0.617   4.870 -0.5610 -0.0301 -0.4530
 5205SOL    HW127251   4.596   0.540   4.903 -0.8268  0.3061 -0.0514
 5205SOL    HW227252   4.722   0.620   4.924 -0.5216  0.4221 -0.5391
 5206SOL     OW27253   0.343   0.647   3.047 -0.4187  0.1653  0.4197
 5206SOL    HW127254   0.408   0.676   3.111 -1.8413  1.3053  1.3553
 5206SOL    HW227255   0.403   0.604   2.986  1.3043  1.8356  0.9465
 5207SOL     OW27256   0.117   2.837   4.285  0.4764 -0.2584  0.0945
 5207SOL    HW127257   0.080   2.772   4.344  3.0930  0.8669  2.9911
 5207SOL    HW227258   0.149   2.797   4.205 -1.0942 -2.5094  0.5844
 5208SOL     OW27259   2.327   1.755   4.010 -0.0812 -0.4788  0.0521
 5208SOL    HW127260   2.259   1.820   4.026  1.2272  0.8512  0.1940
 5208SOL    HW227261   2.400   1.811   4.036  0.2121  0.1711 -2.1784
 5209SOL     OW27262   0.843   2.179   9.121  0.0263 -0.0552 -0.5659
 5209SOL    HW127263   0.776   2.245   9.136  2.1067  1.2010  3.3291
 5209SOL    HW227264   0.799   2.115   9.065 -0.8414  0.2968 -0.2751
 5210SOL     OW27265   2.806   1.278  12.386 -0.0007 -0.5715  0.5132
 5210SOL    HW127266   2.744   1.255  12.455 -0.1611  0.7124  0.7931
 5210SOL    HW227267   2.868   1.315  12.448  0.0059 -0.8551  0.6800
 5211SOL     OW27268   0.420   1.290   5.696  0.3158  0.1346  0.1337
 5211SOL    HW127269   0.503   1.264   5.655  0.0384 -0.2165 -0.2077
 5211SOL    HW227270   0.397   1.215   5.750 -1.1723 -0.2583 -1.0537
 5212SOL     OW27271   2.875   2.347   9.942  0.1940 -0.1828  0.1707
 5212SOL    HW127272   2.874   2.434   9.983 -2.4924  0.0257 -0.3813
 5212SOL    HW227273   2.783   2.330   9.925  0.1213  0.9422 -0.5678
 5213SOL     OW27274   1.891   4.174   3.255 -0.1364 -0.3217 -0.3818
 5213SOL    HW127275   1.834   4.164   3.179  1.1240  2.2461 -1.6430
 5213SOL    HW227276   1.914   4.085   3.282 -0.6545 -0.8087 -1.5328
 5214SOL     OW27277   3.486   1.759   4.833 -0.2271 -0.5445 -0.6278
 5214SOL    HW127278   3.538   1.833   4.863 -1.6440  0.2044 -0.0427
 5214SOL    HW227279   3.554   1.718   4.780 -0.2520 -0.1804 -0.9411
 5215SOL     OW27280   3.788   2.417   5.107  0.3688  0.0781  0.0152
 5215SOL    HW127281   3.806   2.483   5.040  0.1905  0.2000  0.0852
 5215SOL    HW227282   3.736   2.358   5.053  0.2260  0.6929 -0.5289
 5216SOL     OW27283   1.114   0.481   6.745  0.4304  0.1897 -0.1830
 5216SOL    HW127284   1.173   0.518   6.811 -0.1907 -0.0701  0.5224
 5216SOL    HW227285   1.055   0.554   6.730 -0.7002 -0.1476  2.6514
 5217SOL     OW27286   4.286   3.806   8.466  0.2610 -0.7311 -0.8022
 5217SOL    HW127287   4.380   3.793   8.479  0.1833 -1.3548 -0.8975
 5217SOL    HW227288   4.253   3.720   8.441 -0.3586  0.2900 -3.4219
 5218SOL     OW27289   2.729   2.015  14.364 -0.6078  0.1070 -0.0198
 5218SOL    HW127290   2.813   1.975  14.341 -1.6035 -0.5165 -2.5192
 5218SOL    HW227291   2.679   1.936  14.342 -0.2832  0.1447 -0.9034
 5219SOL     OW27292   3.416   1.545   9.159  0.1776 -0.0213 -0.5094
 5219SOL    HW127293   3.377   1.463   9.128 -0.7827 -0.3376  1.5566
 5219SOL    HW227294   3.343   1.606   9.160 -0.3291 -0.6282  0.0752
 5220SOL     OW27295   3.436   0.297  10.725  0.0587  0.6931  0.2721
 5220SOL    HW127296   3.388   0.234  10.779 -2.2764  0.7544 -1.6870
 5220SOL    HW227297   3.450   0.361  10.794 -0.2134 -1.2258  2.0929
 5221SOL     OW27298   2.925   0.108   7.700 -0.2368  0.0546 -0.5140
 5221SOL    HW127299   2.936   0.185   7.755  1.2138 -0.9749  0.6358
 5221SOL    HW227300   2.954   0.141   7.615 -1.9353 -1.4454 -1.6881
 5222SOL     OW27301   4.497   4.443   2.768  0.1811 -0.9446  0.1559
 5222SOL    HW127302   4.483   4.351   2.790  1.6078 -1.9051 -2.8735
 5222SOL    HW227303   4.539   4.432   2.682  1.9671 -0.3415  0.9544
 5223SOL     OW27304   3.740   0.387  11.686  0.2361 -0.2494  0.2560
 5223SOL    HW127305   3.738   0.405  11.780  1.7502  0.1780  0.2052
 5223SOL    HW227306   3.755   0.293  11.691 -1.1396 -0.5361 -0.9187
 5224SOL     OW27307   2.029   0.981   4.421  0.0824 -0.3692 -0.6264
 5224SOL    HW127308   2.000   1.022   4.503  0.6453 -1.3314  0.0558
 5224SOL    HW227309   2.123   0.996   4.417  0.2066 -0.8599  0.3912
 5225SOL     OW27310   3.536   3.951   8.086 -0.0483 -0.2510 -0.0609
 5225SOL    HW127311   3.581   3.881   8.133  1.9407 -1.1483 -3.2531
 5225SOL    HW227312   3.534   4.026   8.146  0.5511  0.1929 -0.5849
 5226SOL     OW27313   0.506   0.505  14.344  0.1301 -0.8898  0.5294
 5226SOL    HW127314   0.574   0.506  14.277 -1.7150  1.3619 -1.3303
 5226SOL    HW227315   0.441   0.474  14.280 -0.9187  2.3281 -0.0110
 5227SOL     OW27316   2.928   0.592   7.467 -0.1789 -0.4446  0.0406
 5227SOL    HW127317   3.022   0.596   7.453 -0.4531 -0.5383 -1.7683
 5227SOL    HW227318   2.900   0.683   7.475  0.6476 -0.2686  0.8517
 5228SOL     OW27319   4.528   2.338  15.911 -0.6756 -0.0804 -0.7309
 5228SOL    HW127320   4.459   2.401  15.891  0.6797  1.3851 -0.8677
 5228SOL    HW227321   4.571   2.324  15.826 -0.7930 -2.1068 -0.4664
 5229SOL     OW27322   1.524   2.914   6.413 -0.5869  0.2718  0.3603
 5229SOL    HW127323   1.491   2.996   6.449 -0.3544 -0.5078  2.3132
 5229SOL    HW227324   1.559   2.876   6.494  1.3155  0.5175 -0.3279
 5230SOL     OW27325   2.019   3.030   6.245 -0.0430 -0.1511 -0.2930
 5230SOL    HW127326   1.949   3.065   6.189 -2.4499 -0.6725  2.3809
 5230SOL    HW227327   2.064   3.109   6.276 -1.1616  0.6784 -0.7742
 5231SOL     OW27328   3.294   2.496   2.306 -0.1679  0.0488  0.3543
 5231SOL    HW127329   3.242   2.565   2.348  1.1380  1.4812 -0.3325
 5231SOL    HW227330   3.369   2.552   2.284  0.2379 -0.1709  1.1991
 5232SOL     OW27331   4.604   3.743   1.634 -0.1469  0.5009  0.1637
 5232SOL    HW127332   4.620   3.816   1.574  1.1939 -1.7418 -2.2214
 5232SOL    HW227333   4.518   3.706   1.610 -0.6252 -0.5245  3.4582
 5233SOL     OW27334   3.405   1.641   9.541 -0.4536 -0.4329 -0.5925
 5233SOL    HW127335   3.454   1.666   9.462  1.1661  0.7899  0.7813
 5233SOL    HW227336   3.433   1.717   9.593  1.2388 -1.8196  0.5227
 5234SOL     OW27337   4.375   1.426   7.112  0.3430 -0.4512 -0.1892
 5234SOL    HW127338   4.326   1.499   7.150  1.7945  0.9745 -1.0711
 5234SOL    HW227339   4.309   1.377   7.062 -0.4913  2.1692 -1.6334
 5235SOL     OW27340   2.812   2.660  11.348  0.4511  0.1189 -0.1675
 5235SOL    HW127341   2.742   2.690  11.290 -0.9050 -0.4154  1.2065
 5235SOL    HW227342   2.804   2.565  11.334 -0.3658  0.1040  0.3945
 5236SOL     OW27343   0.663   2.219   1.142  0.3428 -0.2542 -0.4913
 5236SOL    HW127344   0.744   2.228   1.092  0.0230  0.9508 -0.7895
 5236SOL    HW227345   0.640   2.310   1.162 -0.6012 -0.9376  1.5435
 5237SOL     OW27346   2.081   3.396   6.029  0.3943 -0.2218 -0.3509
 5237SOL    HW127347   2.082   3.459   5.958  2.0307  0.1848  0.0302
 5237SOL    HW227348   1.997   3.356   6.006 -1.5001  2.4316  1.9119
 5238SOL     OW27349   4.522   2.604   4.557  0.0341 -0.6296 -0.1130
 5238SOL    HW127350   4.532   2.562   4.643 -1.2691 -0.3362  0.1794
 5238SOL    HW227351   4.428   2.590   4.546  0.0886 -0.9212 -0.2176
 5239SOL     OW27352   1.924   1.334   2.665  0.2105  0.2245 -0.7829
 5239SOL    HW127353   1.906   1.427   2.681 -0.3877 -0.2931  1.5310
 5239SOL    HW227354   1.873   1.295   2.736  0.1548  0.0725 -0.9057
 5240SOL     OW27355   4.414   1.565   9.272  0.3927 -0.4943 -0.1297
 5240SOL    HW127356   4.484   1.596   9.215 -0.3331 -1.1511 -1.3944
 5240SOL    HW227357   4.460   1.533   9.350 -2.3803 -1.5423  1.0797
 5241SOL     OW27358   4.613   0.642   9.427 -0.4520  0.4731 -0.2894
 5241SOL    HW127359   4.647   0.706   9.365 -0.3050 -0.7200 -1.4266
 5241SOL    HW227360   4.695   0.601   9.454 -0.4392  2.3185  2.5180
 5242SOL     OW27361   0.222   4.643  15.367 -0.1067  0.6493  0.1996
 5242SOL    HW127362   0.314   4.646  15.338  0.4307  1.5953  2.0285
 5242SOL    HW227363   0.223   4.705  15.439  1.2705  1.3240 -0.3938
 5243SOL     OW27364   3.365   0.698   5.949  0.4093 -0.4815 -0.5506
 5243SOL    HW127365   3.271   0.681   5.936  0.1622  0.1160  0.4785
 5243SOL    HW227366   3.391   0.640   5.878  0.0447  1.4378 -2.2625
 5244SOL     OW27367   3.743   3.758   2.035  0.0169  0.0791 -0.2702
 5244SOL    HW127368   3.770   3.677   1.991  2.9075 -0.1167  1.8609
 5244SOL    HW227369   3.810   3.818   2.001 -0.3439  0.4656 -0.2944
 5245SOL     OW27370   2.369   3.638   3.244  0.0181  0.3078  0.0619
 5245SOL    HW127371   2.435   3.591   3.193 -0.6006 -0.6692  0.1734
 5245SOL    HW227372   2.359   3.724   3.204 -1.6391 -0.0025 -0.1644
 5246SOL     OW27373   3.403   1.168   9.757  0.2524  0.0151 -0.0512
 5246SOL    HW127374   3.435   1.195   9.843 -0.1525 -1.4748  0.5708
 5246SOL    HW227375   3.481   1.157   9.702  0.2650  0.6911 -0.1628
 5247SOL     OW27376   2.290   1.398   6.453  0.0016  0.0518 -0.8113
 5247SOL    HW127377   2.278   1.326   6.515 -2.7368 -0.3097 -1.7789
 5247SOL    HW227378   2.345   1.364   6.383  0.4185  0.5282 -0.7242
 5248SOL     OW27379   2.791   2.934   7.239 -0.0362  0.0922 -0.6697
 5248SOL    HW127380   2.848   2.919   7.163  2.3689  1.9169  0.7723
 5248SOL    HW227381   2.832   3.017   7.263  0.5869  0.1186 -1.8288
 5249SOL     OW27382   2.704   4.595  10.290  0.3157 -0.5139  0.1386
 5249SOL    HW127383   2.771   4.529  10.304  0.9649  0.1378  0.0970
 5249SOL    HW227384   2.746   4.657  10.230 -1.9537  2.1623  1.2942
 5250SOL     OW27385   1.445   3.326   3.179 -0.1507  0.4455 -0.0775
 5250SOL    HW127386   1.498   3.253   3.147  0.6638  0.5917  0.9307
 5250SOL    HW227387   1.442   3.294   3.269  3.2664  0.2830 -0.0093
 5251SOL     OW27388   2.499   2.970  11.611  0.0684 -0.2405  0.6080
 5251SOL    HW127389   2.531   2.891  11.568 -2.6754 -1.0529  0.0881
 5251SOL    HW227390   2.579   3.022  11.621  0.3174 -0.7713  1.4007
 5252SOL     OW27391   3.758   4.688   4.505  0.0091  0.7389 -0.7717
 5252SOL    HW127392   3.827   4.657   4.446 -0.3836  0.5626 -1.1461
 5252SOL    HW227393   3.684   4.630   4.487  0.4207  0.0179 -0.1413
 5253SOL     OW27394   4.077   1.890   9.255  0.4408  0.2164 -0.1019
 5253SOL    HW127395   4.058   1.816   9.312  3.1211  0.7888  1.4873
 5253SOL    HW227396   4.122   1.843   9.185  2.0102  1.1350  0.3058
 5254SOL     OW27397   4.693   3.767   8.708  0.4090  0.3038 -0.2922
 5254SOL    HW127398   4.706   3.682   8.751 -1.6474 -1.1118 -2.5397
 5254SOL    HW227399   4.649   3.807   8.783 -1.3071 -0.7196 -0.7515
 5255SOL     OW27400   3.406   2.289   3.053 -0.1711 -0.1148 -0.4507
 5255SOL    HW127401   3.453   2.312   3.133 -2.5139  3.3561 -0.0505
 5255SOL    HW227402   3.342   2.228   3.089  1.0400 -1.5508 -0.7215
 5256SOL     OW27403   4.645   1.891   1.094  0.6438  0.7292  0.4097
 5256SOL    HW127404   4.668   1.799   1.108 -1.0044  0.1025 -0.8637
 5256SOL    HW227405   4.722   1.920   1.046  1.2462  0.8227  1.4458
 5257SOL     OW27406   0.045   4.109   7.415 -0.6630  0.0712 -0.0039
 5257SOL    HW127407   0.134   4.118   7.449 -0.4166  0.1033 -0.6532
 5257SOL    HW227408   0.002   4.153   7.488  2.0313  4.3594 -0.9917
 5258SOL     OW27409   2.309   1.052   5.240  0.1560 -0.2416  0.3278
 5258SOL    HW127410   2.311   1.041   5.335  0.8005  2.4993  0.6191
 5258SOL    HW227411   2.402   1.067   5.222 -0.3497  1.5687 -0.7627
 5259SOL     OW27412   3.310   0.038   7.645  0.0553  0.3107  1.1343
 5259SOL    HW127413   3.287   4.731   7.727 -0.8231 -3.2568 -1.0389
 5259SOL    HW227414   3.351   4.701   7.602  0.8507  0.7350  1.1706
 5260SOL     OW27415   0.208   2.215   0.981 -0.4645 -0.3244  0.1287
 5260SOL    HW127416   0.242   2.281   1.041  0.7811 -0.5052 -0.3780
 5260SOL    HW227417   0.246   2.249   0.900 -1.6950  0.2916 -0.1849
 5261SOL     OW27418   0.776   1.886   2.879 -0.2080 -0.0736  0.3584
 5261SOL    HW127419   0.795   1.795   2.906 -2.4182 -0.5273  0.3347
 5261SOL    HW227420   0.696   1.900   2.929 -0.9446  0.2066 -0.9154
 5262SOL     OW27421   3.699   2.517  13.912  0.4795  0.6054 -0.3822
 5262SOL    HW127422   3.633   2.468  13.960 -0.1010  1.6426 -0.1118
 5262SOL    HW227423   3.771   2.457  13.897  0.1609 -0.5445  2.8300
 5263SOL     OW27424   1.676   2.339   7.537 -0.0094 -0.3039 -0.5420
 5263SOL    HW127425   1.679   2.362   7.630  0.4215  0.0601 -0.6459
 5263SOL    HW227426   1.587   2.369   7.521 -0.1087 -0.3104  0.0079
 5264SOL     OW27427   4.618   2.582  16.449 -0.9323 -0.0808 -0.4729
 5264SOL    HW127428   4.650   2.505  16.402 -1.0019  0.9139 -2.1382
 5264SOL    HW227429   4.608   2.638  16.372 -1.3500 -2.3099 -2.0269
 5265SOL     OW27430   0.169   2.202   7.631 -0.5625  0.2019 -0.6374
 5265SOL    HW127431   0.190   2.169   7.718 -3.0890  0.6401  0.1496
 5265SOL    HW227432   0.246   2.256   7.618 -0.3191 -0.2746 -1.1847
 5266SOL     OW27433   1.860   2.780   7.315  0.0570 -0.5344  0.4996
 5266SOL    HW127434   1.843   2.708   7.254 -1.6580  0.4728 -0.2208
 5266SOL    HW227435   1.853   2.743   7.403  1.1191  0.5131  1.0290
 5267SOL     OW27436   3.860   0.786  11.799 -0.5348 -0.1688  0.2275
 5267SOL    HW127437   3.907   0.860  11.836 -2.1324  0.9681 -0.0003
 5267SOL    HW227438   3.771   0.806  11.830 -0.0698  3.0964 -0.5844
 5268SOL     OW27439   1.893   2.632  16.909  0.1571  0.4559 -0.6671
 5268SOL    HW127440   1.979   2.622  16.950 -0.4955  0.9966  0.8176
 5268SOL    HW227441   1.902   2.581  16.828  0.0445  0.7202 -0.8437
 5269SOL     OW27442   1.434   3.229   3.449  0.5128 -0.1125  0.2578
 5269SOL    HW127443   1.358   3.177   3.423 -0.3916  0.4963  1.6906
 5269SOL    HW227444   1.391   3.284   3.515 -4.2525 -2.4083 -0.9051
 5270SOL     OW27445   0.103   0.950   4.276  0.2150 -0.5539 -0.3800
 5270SOL    HW127446   0.137   0.879   4.330 -0.6925  1.1811  2.4188
 5270SOL    HW227447   0.172   1.014   4.262 -1.2855  0.7232 -2.0195
 5271SOL     OW27448   3.341   0.767  13.020  0.2073 -0.1322  0.3771
 5271SOL    HW127449   3.420   0.787  12.971 -0.9577 -1.0931 -1.8795
 5271SOL    HW227450   3.271   0.796  12.961 -0.0912  2.1690  1.8637
 5272SOL     OW27451   1.183   0.362   0.994  0.0532  0.1004 -0.4748
 5272SOL    HW127452   1.093   0.391   1.009 -0.5608 -1.3700 -1.2676
 5272SOL    HW227453   1.178   0.280   1.043  0.0664  0.1289 -0.4268
 5273SOL     OW27454   2.317   1.204   1.709 -0.1781  0.0416  0.3398
 5273SOL    HW127455   2.255   1.152   1.760 -0.6841  0.5905  0.2838
 5273SOL    HW227456   2.286   1.184   1.621  0.1874  1.4576 -0.1143
 5274SOL     OW27457   2.807   1.314  17.083  0.1709  0.6320  0.2821
 5274SOL    HW127458   2.869   1.316  17.156  0.1821  2.8066  0.2066
 5274SOL    HW227459   2.755   1.395  17.087  3.0823  2.4361  1.7936
 5275SOL     OW27460   0.886   4.314   2.309 -0.3564  0.2624  0.2700
 5275SOL    HW127461   0.952   4.267   2.259  1.8544  1.8042  1.7554
 5275SOL    HW227462   0.880   4.257   2.386  0.1741  0.2195  0.2755
 5276SOL     OW27463   1.087   4.370   6.938 -0.3705  0.3039  0.1588
 5276SOL    HW127464   1.155   4.342   6.999 -0.1376 -1.6696 -1.0028
 5276SOL    HW227465   1.076   4.287   6.891  0.9164 -0.3105  0.9664
 5277SOL     OW27466   1.750   0.598   7.516 -0.5830 -0.1817  0.0853
 5277SOL    HW127467   1.816   0.618   7.450  0.6487  0.4875  1.5270
 5277SOL    HW227468   1.767   0.510   7.550  0.3396 -0.3772 -0.8950
 5278SOL     OW27469   4.709   1.694   8.670 -0.1746  0.2942 -0.1366
 5278SOL    HW127470   0.064   1.714   8.671 -0.1918  0.4298 -1.6741
 5278SOL    HW227471   4.687   1.685   8.763 -1.6128 -2.0744 -0.7069
 5279SOL     OW27472   2.189   1.636   9.140 -0.2969  0.1835  0.4323
 5279SOL    HW127473   2.231   1.620   9.225 -1.7744 -1.7062  0.7992
 5279SOL    HW227474   2.241   1.578   9.084 -2.3775 -0.1715 -1.1415
 5280SOL     OW27475   2.090   2.303   4.409  0.4941 -0.5477  0.1537
 5280SOL    HW127476   2.102   2.240   4.480 -0.7966  1.1169  1.8435
 5280SOL    HW227477   2.182   2.312   4.383  0.3883  1.0424  0.3244
 5281SOL     OW27478   1.512   0.335   5.560 -0.0233 -0.3489  0.3405
 5281SOL    HW127479   1.476   0.259   5.516 -0.6278 -0.6625  1.3831
 5281SOL    HW227480   1.533   0.291   5.643  1.9523 -1.6009 -0.8272
 5282SOL     OW27481   3.498   4.101   8.331 -0.1358  0.4223 -0.3953
 5282SOL    HW127482   3.533   4.188   8.347 -3.6242  1.8669 -0.5346
 5282SOL    HW227483   3.418   4.098   8.384 -0.7443 -2.0382 -1.4307
 5283SOL     OW27484   4.550   1.288  17.275  0.1258 -0.2878 -0.6521
 5283SOL    HW127485   4.638   1.271  17.311  0.4014  1.0018 -0.7248
 5283SOL    HW227486   4.514   1.200  17.285  2.1788 -1.1953 -1.1245
 5284SOL     OW27487   1.832   3.009   0.071 -0.5082  0.1103 -0.0999
 5284SOL    HW127488   1.852   3.020  17.728 -0.9459  1.9400  0.0262
 5284SOL    HW227489   1.876   2.927   0.095 -0.2100  0.3169  0.0513
 5285SOL     OW27490   2.234   1.529   3.904  0.3674 -0.4056  0.5837
 5285SOL    HW127491   2.149   1.558   3.869 -0.4391  0.1507  3.0306
 5285SOL    HW227492   2.260   1.604   3.957 -0.1434 -0.7427  1.3002
 5286SOL     OW27493   4.320   2.645   7.679  0.5912  0.3800 -0.3870
 5286SOL    HW127494   4.344   2.717   7.620 -0.8373  1.9400  0.9603
 5286SOL    HW227495   4.302   2.686   7.763 -2.3156  0.4856 -1.0641
 5287SOL     OW27496   4.194   0.783   5.403 -0.5201 -0.1232 -0.1766
 5287SOL    HW127497   4.130   0.766   5.334  0.0184 -0.0238 -0.7034
 5287SOL    HW227498   4.130   0.822   5.462  0.2439  2.0479 -0.7574
 5288SOL     OW27499   2.361   2.462   1.322 -0.2816  0.1344  0.5257
 5288SOL    HW127500   2.396   2.416   1.246 -0.7839 -0.1584  0.4784
 5288SOL    HW227501   2.363   2.398   1.394 -0.1919 -0.7723 -0.2872
 5289SOL     OW27502   1.827   1.688   5.904 -0.4895  0.2337 -0.4412
 5289SOL    HW127503   1.790   1.631   5.836 -2.5598  1.3095 -0.2439
 5289SOL    HW227504   1.831   1.771   5.857 -0.5332  1.4486  1.7310
 5290SOL     OW27505   2.657   2.495  10.334 -0.1648  0.1304 -0.0729
 5290SOL    HW127506   2.683   2.416  10.382  1.4253  1.2947  0.9459
 5290SOL    HW227507   2.731   2.552  10.352 -0.2328 -0.5911  2.4548
 5291SOL     OW27508   1.707   3.162   1.483 -0.1381 -0.0082  0.0883
 5291SOL    HW127509   1.798   3.182   1.460 -0.2731  1.3771  0.8222
 5291SOL    HW227510   1.669   3.175   1.396 -0.3505  1.5485  0.4145
 5292SOL     OW27511   0.361   4.419   2.422  0.0992  0.2726  0.1595
 5292SOL    HW127512   0.418   4.344   2.405 -1.9472 -1.1947 -0.0621
 5292SOL    HW227513   0.282   4.402   2.370 -1.0313  0.0623  1.9728
 5293SOL     OW27514   0.320   4.044   6.389  0.0911 -0.1161 -0.1916
 5293SOL    HW127515   0.294   4.075   6.303 -0.8043  1.3507  0.6085
 5293SOL    HW227516   0.371   4.121   6.413 -0.9327  0.0965  1.3196
 5294SOL     OW27517   2.352   0.584   5.806  0.3827 -0.0497  0.6909
 5294SOL    HW127518   2.386   0.671   5.783  0.2280 -0.3024 -0.5023
 5294SOL    HW227519   2.307   0.552   5.727 -0.8341 -0.1891  1.4504
 5295SOL     OW27520   0.680   3.441  10.011  0.0307  0.0004 -0.0811
 5295SOL    HW127521   0.659   3.517   9.957  0.6003  1.5853  1.8960
 5295SOL    HW227522   0.672   3.370   9.948  0.5128  0.1392 -0.2952
 5296SOL     OW27523   0.499   3.472   9.147 -0.2075 -0.0640  0.0216
 5296SOL    HW127524   0.537   3.556   9.171  0.5327 -0.1664 -0.7766
 5296SOL    HW227525   0.411   3.503   9.171 -1.4436 -0.6918 -3.6277
 5297SOL     OW27526   1.510   0.619   4.113 -0.2781 -0.2201  0.1707
 5297SOL    HW127527   1.574   0.656   4.052  1.4120 -1.9337  0.8986
 5297SOL    HW227528   1.478   0.693   4.164 -1.5609 -0.6182 -0.0573
 5298SOL     OW27529   3.310   3.529   6.613 -0.0442 -0.3328 -0.0228
 5298SOL    HW127530   3.257   3.511   6.535 -1.2858 -1.3381  1.0368
 5298SOL    HW227531   3.296   3.622   6.629 -2.7498 -0.6291 -0.6034
 5299SOL     OW27532   0.237   1.328   3.226 -0.2713  0.3914 -0.3616
 5299SOL    HW127533   0.167   1.367   3.172 -1.4520  0.0089  0.8963
 5299SOL    HW227534   0.273   1.258   3.173  1.0058 -0.5629  1.7829
 5300SOL     OW27535   1.304   2.141   2.797  0.6934 -0.2955 -0.3522
 5300SOL    HW127536   1.257   2.057   2.791 -0.2360  0.3937 -2.5649
 5300SOL    HW227537   1.389   2.098   2.810  0.6784  0.0769  1.0460
 5301SOL     OW27538   2.929   2.139   8.827 -0.5693 -0.1122  0.2147
 5301SOL    HW127539   2.958   2.078   8.895 -3.0782  1.9338  3.1747
 5301SOL    HW227540   2.869   2.085   8.776 -1.5337  0.7368  0.4462
 5302SOL     OW27541   0.018   2.517   5.432 -0.3460 -0.2995  0.4937
 5302SOL    HW127542   4.691   2.499   5.364  0.7576 -0.5099 -0.5054
 5302SOL    HW227543   0.093   2.469   5.399 -0.0090  0.8007 -0.3441
 5303SOL     OW27544   3.420   0.050  17.104 -0.0836 -0.0909  0.3218
 5303SOL    HW127545   3.388   0.067  17.016 -0.8339  0.7354  0.7559
 5303SOL    HW227546   3.481   4.717  17.085  1.1257  0.8266  0.8075
 5304SOL     OW27547   3.506   4.272   8.665  0.2772  0.0283 -0.4146
 5304SOL    HW127548   3.507   4.315   8.579  0.8007  0.4497 -0.2011
 5304SOL    HW227549   3.466   4.335   8.725  1.3690  1.5843 -1.2871
 5305SOL     OW27550   0.865   1.276   1.865  0.0795 -0.8814  0.3923
 5305SOL    HW127551   0.775   1.258   1.892 -0.4496  0.8265 -0.2433
 5305SOL    HW227552   0.867   1.204   1.802 -0.7854 -0.0746 -0.5575
 5306SOL     OW27553   0.892   2.341   8.136 -0.4126 -0.1411 -0.6800
 5306SOL    HW127554   0.966   2.402   8.137 -1.3648  1.0236 -2.2336
 5306SOL    HW227555   0.853   2.366   8.053  0.5761 -0.4328 -1.2315
 5307SOL     OW27556   3.316   1.048  12.745  0.0767  0.4440  0.1871
 5307SOL    HW127557   3.411   1.042  12.760  0.3018  2.3052 -0.5558
 5307SOL    HW227558   3.308   1.045  12.650  0.0766  0.3381  0.1902
 5308SOL     OW27559   4.311   2.746   8.870 -0.2245 -0.0278 -0.4259
 5308SOL    HW127560   4.291   2.652   8.870  2.9486 -0.7120  0.0886
 5308SOL    HW227561   4.244   2.792   8.921  0.8477  2.5547 -1.3471
 5309SOL     OW27562   2.675   3.040   1.281  0.7920 -0.7018 -0.2517
 5309SOL    HW127563   2.647   3.116   1.230 -1.4013 -0.3306  1.4731
 5309SOL    HW227564   2.752   3.011   1.232 -0.4760  0.1574 -2.7300
 5310SOL     OW27565   3.966   2.796  12.449 -0.3908 -0.0827 -0.9346
 5310SOL    HW127566   4.009   2.861  12.393  0.3950  0.3974  0.2408
 5310SOL    HW227567   3.917   2.854  12.507 -0.0974 -1.5508  0.7421
 5311SOL     OW27568   1.502   1.363   6.176 -0.5460 -0.4073 -0.7038
 5311SOL    HW127569   1.431   1.313   6.215 -0.7757 -0.3913 -1.0963
 5311SOL    HW227570   1.457   1.446   6.157  0.4183  0.3038  0.0856
 5312SOL     OW27571   0.384   2.729   8.691 -0.1613 -0.4999  0.5664
 5312SOL    HW127572   0.315   2.793   8.677 -0.5795 -1.9918 -4.1700
 5312SOL    HW227573   0.378   2.716   8.786  0.4618 -0.7123  0.5797
 5313SOL     OW27574   2.052   2.631   6.994 -0.0331  0.3438  0.5147
 5313SOL    HW127575   1.992   2.599   6.927 -0.6338 -1.0192  1.7241
 5313SOL    HW227576   1.996   2.622   7.071  0.2074 -1.8359  0.4278
 5314SOL     OW27577   2.382   4.563   7.374 -0.2334  0.1918  0.4363
 5314SOL    HW127578   2.419   4.547   7.461  1.5997  1.4138 -0.0993
 5314SOL    HW227579   2.433   4.638   7.342 -2.7648  1.3046 -0.9340
 5315SOL     OW27580   3.334   3.227   8.762 -0.3556  0.2165  0.4309
 5315SOL    HW127581   3.401   3.171   8.724 -1.5330  0.0040 -1.3382
 5315SOL    HW227582   3.336   3.193   8.852  0.2749 -0.7020  0.0687
 5316SOL     OW27583   1.870   2.510   1.910 -0.6357 -0.5328 -0.0166
 5316SOL    HW127584   1.823   2.488   1.991 -3.3842 -0.1087 -1.4826
 5316SOL    HW227585   1.808   2.496   1.839 -0.4718  0.0154 -0.2614
 5317SOL     OW27586   1.926   4.373   0.852  0.3283 -0.2515 -0.2536
 5317SOL    HW127587   1.959   4.400   0.766  0.0447  3.4855  0.8158
 5317SOL    HW227588   1.913   4.463   0.883 -0.4134 -0.2461 -0.5958
 5318SOL     OW27589   1.321   4.727   8.940  0.1684 -0.3766 -0.1396
 5318SOL    HW127590   1.315   4.691   9.028  2.0466  0.1564  0.2040
 5318SOL    HW227591   1.255   0.058   8.934 -1.5625 -1.9750  0.6567
 5319SOL     OW27592   2.814   1.963  15.653  0.3101 -0.6474  0.4803
 5319SOL    HW127593   2.887   1.902  15.662  0.8788  0.1423  1.2958
 5319SOL    HW227594   2.863   2.037  15.619 -2.4632  0.6744 -0.6338
 5320SOL     OW27595   3.552   2.599  17.619 -0.2248 -0.5223 -0.2165
 5320SOL    HW127596   3.623   2.556  17.573 -0.6903 -1.7626  0.2339
 5320SOL    HW227597   3.555   2.549  17.701 -1.2363  2.2491  1.5283
 5321SOL     OW27598   4.111   3.186   1.763 -0.0760 -0.1749  0.5006
 5321SOL    HW127599   4.048   3.141   1.708 -0.2572  0.8472 -0.1318
 5321SOL    HW227600   4.165   3.118   1.803  1.2059  1.9617  2.4524
 5322SOL     OW27601   3.612   3.273   4.893  0.0621  0.0524  0.0077
 5322SOL    HW127602   3.640   3.268   4.984  0.7571 -1.3422 -0.2842
 5322SOL    HW227603   3.686   3.316   4.851  0.2802 -0.7884 -0.4841
 5323SOL     OW27604   4.285   2.818   0.892 -0.4069  0.0637 -0.3416
 5323SOL    HW127605   4.216   2.880   0.915  0.7829  0.8584  1.1060
 5323SOL    HW227606   4.277   2.756   0.964 -1.4522  1.9266  1.1377
 5324SOL     OW27607   2.922   4.246   6.520  0.1100 -0.2478 -0.0784
 5324SOL    HW127608   2.948   4.193   6.596  0.8742 -0.8974 -0.7940
 5324SOL    HW227609   2.829   4.262   6.539  0.5369  1.7484  0.2938
 5325SOL     OW27610   4.655   3.329  15.635 -0.3870 -0.2209  0.0991
 5325SOL    HW127611   4.600   3.361  15.563 -0.9525 -0.2699  0.5071
 5325SOL    HW227612   4.699   3.259  15.586  1.1095  0.9939 -0.2704
 5326SOL     OW27613   3.733   0.458   9.846 -0.0074 -0.0200  0.5309
 5326SOL    HW127614   3.678   0.420   9.915  1.3157 -0.4843  1.3126
 5326SOL    HW227615   3.821   0.468   9.882 -0.2092  0.2923  0.9344
 5327SOL     OW27616   3.360   0.406   9.689  0.0754 -0.1687  0.2524
 5327SOL    HW127617   3.305   0.406   9.767  1.8114  0.7855  1.4577
 5327SOL    HW227618   3.319   0.336   9.638 -2.1455  0.1860  1.5703
 5328SOL     OW27619   4.055   3.121  12.399  0.3218  0.1850  0.1188
 5328SOL    HW127620   4.080   3.102  12.489  0.1480 -2.1655 -0.3434
 5328SOL    HW227621   4.137   3.107  12.352 -0.3621  0.9080 -1.2986
 5329SOL     OW27622   4.246   2.490   3.083 -0.4127  0.8752  0.1930
 5329SOL    HW127623   4.323   2.542   3.061  0.9923 -2.1063 -1.8884
 5329SOL    HW227624   4.223   2.532   3.166 -1.5197 -0.4724  0.5721
 5330SOL     OW27625   4.684   3.135   5.391  0.1247  0.1106 -0.1202
 5330SOL    HW127626   4.680   3.170   5.302 -0.2618  1.0959  0.2829
 5330SOL    HW227627   0.016   3.194   5.422 -0.8595  0.8266  0.7293
 5331SOL     OW27628   3.417   3.477  12.477  0.3271 -0.5151 -0.1795
 5331SOL    HW127629   3.358   3.420  12.427 -3.3411  1.7879  1.4735
 5331SOL    HW227630   3.459   3.515  12.400 -3.4033  0.1250 -1.9224
 5332SOL     OW27631   2.070   0.945   2.587 -0.3291  0.0894  0.1904
 5332SOL    HW127632   2.084   0.867   2.532  2.5134  0.4034  0.4832
 5332SOL    HW227633   1.979   0.971   2.573  0.4682  1.6093 -2.1106
 5333SOL     OW27634   4.276   0.429  10.183 -0.2435  0.2919  0.0374
 5333SOL    HW127635   4.297   0.402  10.272 -0.4791  0.7640  0.2371
 5333SOL    HW227636   4.290   0.523  10.191 -0.1273  0.1509  1.4919
 5334SOL     OW27637   0.693   1.283   7.245 -0.1507 -0.2984  0.6120
 5334SOL    HW127638   0.642   1.364   7.242  0.8291  0.3839  2.4772
 5334SOL    HW227639   0.671   1.243   7.329 -2.0788  2.0107  1.2094
 5335SOL     OW27640   0.846   0.634   6.925 -0.0992  0.0592 -0.1407
 5335SOL    HW127641   0.894   0.666   7.002  0.5568 -0.9105 -0.1481
 5335SOL    HW227642   0.831   0.713   6.873 -4.6707  0.3164  1.6049
 5336SOL     OW27643   0.678   1.956   8.960 -0.2478 -0.3931 -0.5055
 5336SOL    HW127644   0.642   1.880   8.914  0.0571  0.8636 -2.8280
 5336SOL    HW227645   0.603   2.015   8.968 -1.2906 -1.8955  0.6348
 5337SOL     OW27646   0.692   0.812  10.621 -0.1125 -0.1520  0.0268
 5337SOL    HW127647   0.664   0.830  10.532 -0.1389  0.5109  0.1676
 5337SOL    HW227648   0.664   0.896  10.657 -0.2511 -0.1108 -0.1766
 5338SOL     OW27649   1.702   0.815   4.742  0.1081  0.1907  0.0699
 5338SOL    HW127650   1.724   0.876   4.812 -2.6901  0.0760  1.0391
 5338SOL    HW227651   1.785   0.767   4.739 -0.0939 -0.1084 -0.7512
 5339SOL     OW27652   0.335   3.768   1.953  0.3842 -0.4828 -0.0405
 5339SOL    HW127653   0.263   3.732   2.005  2.3617 -1.0386  2.3106
 5339SOL    HW227654   0.396   3.792   2.023  1.1655  1.5716 -1.4407
 5340SOL     OW27655   4.398   2.011  13.184  0.3255  0.1486 -0.3429
 5340SOL    HW127656   4.473   2.002  13.243  0.3215 -2.8003 -0.7763
 5340SOL    HW227657   4.436   2.079  13.130  1.6981  0.4275  0.9542
 5341SOL     OW27658   1.199   3.812   7.195  0.5784  0.0660  0.0473
 5341SOL    HW127659   1.210   3.775   7.108 -1.3952 -2.2944  0.7904
 5341SOL    HW227660   1.156   3.737   7.236  2.0009  0.0641  1.5401
 5342SOL     OW27661   1.401   1.276  14.640  0.5586  0.0173  0.9022
 5342SOL    HW127662   1.325   1.273  14.698  0.1633 -2.8092  0.2283
 5342SOL    HW227663   1.352   1.284  14.558  1.2003  1.6192  0.6658
 5343SOL     OW27664   2.477   1.825   6.173  0.3499 -0.3714 -0.0852
 5343SOL    HW127665   2.437   1.911   6.188 -0.1833 -0.8153  1.0730
 5343SOL    HW227666   2.468   1.811   6.079  0.3461 -1.4657  0.0823
 5344SOL     OW27667   2.984   2.853   5.507 -0.5282 -0.2321  0.5731
 5344SOL    HW127668   3.036   2.842   5.427  2.1153 -0.3053  2.3107
 5344SOL    HW227669   3.014   2.772   5.549  0.6866 -0.3542 -0.5448
 5345SOL     OW27670   2.057   1.880   4.007 -0.6139 -0.3949  0.2230
 5345SOL    HW127671   2.088   1.942   3.941  1.3110 -0.2469  1.2793
 5345SOL    HW227672   2.033   1.806   3.951 -0.5109 -0.2931  0.0462
 5346SOL     OW27673   3.357   0.855   9.193 -0.3214  0.1962  0.1499
 5346SOL    HW127674   3.409   0.833   9.116 -1.9839  0.8175 -1.1175
 5346SOL    HW227675   3.421   0.883   9.259  0.9103 -0.7359 -0.6369
 5347SOL     OW27676   3.658   2.181   6.876 -0.7445  0.0955  0.2805
 5347SOL    HW127677   3.710   2.101   6.878  2.5697  2.2685  1.6225
 5347SOL    HW227678   3.598   2.165   6.803 -1.8804 -0.1778  1.2738
 5348SOL     OW27679   3.654   2.561   5.352 -0.2247  0.6158 -0.2124
 5348SOL    HW127680   3.669   2.472   5.384 -0.1470  0.7889  0.2490
 5348SOL    HW227681   3.713   2.571   5.278  0.3291  0.4472  0.2043
 5349SOL     OW27682   3.512   4.608  16.841 -0.0263 -0.5881  0.0178
 5349SOL    HW127683   3.477   4.522  16.867 -3.1376  1.0571  1.3701
 5349SOL    HW227684   3.557   4.595  16.758 -2.2215  0.6981 -1.3899
 5350SOL     OW27685   3.134   0.719   5.216  0.5287 -0.5585  0.0770
 5350SOL    HW127686   3.086   0.796   5.247  0.3024 -0.4873 -0.4503
 5350SOL    HW227687   3.215   0.735   5.264  0.2520 -0.2576  0.4440
 5351SOL     OW27688   0.134   4.732   9.598 -0.2612 -0.3760 -0.0657
 5351SOL    HW127689   0.137   0.015   9.505 -0.8873  0.1966  0.0454
 5351SOL    HW227690   0.086   0.068   9.635  0.4632  0.7913 -1.5139
 5352SOL     OW27691   1.288   1.824   4.714 -0.1373  0.3110 -0.5071
 5352SOL    HW127692   1.241   1.779   4.784  0.7922  1.4009  0.8315
 5352SOL    HW227693   1.370   1.775   4.711 -2.3225 -3.3766  0.3563
 5353SOL     OW27694   0.197   0.530  16.664  0.3338 -0.4053 -0.0224
 5353SOL    HW127695   0.107   0.539  16.635 -0.3684 -2.2336  1.5758
 5353SOL    HW227696   0.190   0.481  16.746 -0.8011  0.5747  0.4547
 5354SOL     OW27697   0.671   2.045  10.864 -0.3786 -0.5722  0.5490
 5354SOL    HW127698   0.587   2.082  10.892 -1.0989 -2.7477  1.2387
 5354SOL    HW227699   0.647   1.985  10.794 -3.6049 -0.0455  1.2014
 5355SOL     OW27700   2.078   2.096   8.252  0.2431  0.5742 -0.1772
 5355SOL    HW127701   2.027   2.126   8.177  0.5960 -0.7161 -0.9276
 5355SOL    HW227702   2.163   2.096   8.210  0.5986  0.0521  0.5365
 5356SOL     OW27703   2.561   3.125  16.654 -0.1861  0.5043 -0.4450
 5356SOL    HW127704   2.656   3.134  16.647  0.1390 -2.2739  0.6144
 5356SOL    HW227705   2.557   3.035  16.622 -0.2902  0.1358  0.6005
 5357SOL     OW27706   2.148   3.566   4.037 -0.0086  0.8469  0.2293
 5357SOL    HW127707   2.199   3.646   4.052  0.6672  0.6071 -0.7486
 5357SOL    HW227708   2.219   3.503   4.041 -1.4034 -0.9530 -2.7851
 5358SOL     OW27709   2.451   1.692   0.378 -0.0056  0.1118 -0.0135
 5358SOL    HW127710   2.406   1.609   0.391 -0.5973  0.7008  1.8192
 5358SOL    HW227711   2.515   1.695   0.450 -0.4237  0.1438  0.3606
 5359SOL     OW27712   1.043   1.884  17.070 -0.6362 -0.2930 -0.4930
 5359SOL    HW127713   1.054   1.793  17.043  0.8513 -0.3626  0.3802
 5359SOL    HW227714   1.090   1.930  16.999  0.9724 -0.7608  0.2728
 5360SOL     OW27715   4.737   4.195   7.660  0.3091 -0.2221 -0.2207
 5360SOL    HW127716   0.054   4.245   7.719  0.8680 -0.5900 -0.4344
 5360SOL    HW227717   4.649   4.213   7.694  0.2708 -1.2794  0.2427
 5361SOL     OW27718   3.638   4.372  13.091 -0.1808  0.5391  0.4309
 5361SOL    HW127719   3.633   4.457  13.134 -1.5787 -0.1367  1.5946
 5361SOL    HW227720   3.544   4.355  13.102 -0.5206  1.6949 -0.6648
 5362SOL     OW27721   1.370   4.399   9.370 -0.3575  0.0796 -0.3858
 5362SOL    HW127722   1.368   4.392   9.465 -0.4013 -0.2306 -0.4089
 5362SOL    HW227723   1.462   4.426   9.364 -0.0027 -1.5628 -2.3609
 5363SOL     OW27724   0.667   3.606   9.817 -0.7892 -0.2692  0.1688
 5363SOL    HW127725   0.738   3.578   9.760  0.2544 -0.7479  1.7148
 5363SOL    HW227726   0.623   3.668   9.759  0.0925 -0.0923 -0.2997
 5364SOL     OW27727   1.628   2.393   3.589  0.7387  0.9787 -0.1018
 5364SOL    HW127728   1.715   2.378   3.626  1.0047 -3.2654 -2.4328
 5364SOL    HW227729   1.619   2.488   3.595  0.9698  1.0390 -0.7287
 5365SOL     OW27730   0.135   4.072   3.821 -0.6110  0.0757  0.3457
 5365SOL    HW127731   0.204   4.009   3.842 -2.5524 -2.1388  0.0449
 5365SOL    HW227732   0.096   4.091   3.906 -0.2742 -0.2525  0.5716
 5366SOL     OW27733   2.767   2.639   3.473 -0.2322  0.0105 -0.7144
 5366SOL    HW127734   2.717   2.571   3.518 -0.1098 -0.3984 -1.2064
 5366SOL    HW227735   2.713   2.652   3.395  1.2842  1.1541 -1.5586
 5367SOL     OW27736   4.380   2.239   7.903  0.1781 -0.2263 -0.4967
 5367SOL    HW127737   4.473   2.253   7.924  0.1903  0.0035 -0.7054
 5367SOL    HW227738   4.339   2.222   7.988  1.4710  0.6951  0.3203
 5368SOL     OW27739   3.647   1.931   1.636  0.2446 -0.1430  0.0313
 5368SOL    HW127740   3.553   1.926   1.657 -0.3338  0.2460 -2.4654
 5368SOL    HW227741   3.675   1.855   1.688  1.8822 -0.8089 -1.8430
 5369SOL     OW27742   2.464   3.348  10.377 -0.0741 -0.5310  0.3405
 5369SOL    HW127743   2.431   3.264  10.407  0.4784 -0.1389  2.0651
 5369SOL    HW227744   2.490   3.390  10.460 -1.7400 -0.0344  0.6144
 5370SOL     OW27745   3.768   2.711   3.812 -0.6230 -0.1794  0.6673
 5370SOL    HW127746   3.797   2.645   3.749 -1.2188  2.3793 -2.2127
 5370SOL    HW227747   3.771   2.655   3.890 -0.8240  0.1349  0.9009
 5371SOL     OW27748   4.502   0.302   2.315 -0.4465 -0.0558  0.1235
 5371SOL    HW127749   4.490   0.213   2.349  2.1057 -0.0405  1.0756
 5371SOL    HW227750   4.463   0.300   2.227  0.5045  1.7486 -0.3241
 5372SOL     OW27751   1.487   3.813   7.197  0.8618 -0.5570 -0.2860
 5372SOL    HW127752   1.510   3.837   7.287 -0.5838  1.0021 -0.3239
 5372SOL    HW227753   1.394   3.834   7.191  1.1807  0.8985 -0.1219
 5373SOL     OW27754   1.087   0.018   7.266  0.1548  0.2649  0.6431
 5373SOL    HW127755   1.172   0.039   7.304  0.3729 -0.2184  0.4338
 5373SOL    HW227756   1.110   0.025   7.173 -3.4970  1.5191 -0.1633
 5374SOL     OW27757   3.834   4.148   2.734  0.3275 -0.2793  0.3317
 5374SOL    HW127758   3.746   4.120   2.708 -0.8307  1.4975  2.3436
 5374SOL    HW227759   3.837   4.085   2.806 -0.3795 -0.0441  0.5630
 5375SOL     OW27760   0.708   4.635   6.064 -0.0485 -0.3566 -0.2730
 5375SOL    HW127761   0.641   4.691   6.104 -0.7986  0.6743 -2.9582
 5375SOL    HW227762   0.719   4.686   5.983  1.1163 -0.9423 -0.4846
 5376SOL     OW27763   0.309   4.636   5.519 -0.0003 -0.0235  0.7638
 5376SOL    HW127764   0.369   4.583   5.571  1.0454  0.5957  0.1840
 5376SOL    HW227765   0.244   4.580   5.475  2.2946  0.5358 -3.3201
 5377SOL     OW27766   0.371   2.934  10.542  0.2507  0.0215 -0.1683
 5377SOL    HW127767   0.281   2.947  10.571  0.1456 -1.7522  0.2846
 5377SOL    HW227768   0.367   2.945  10.447  0.0257 -1.3757 -0.3118
 5378SOL     OW27769   0.810   2.814   2.363 -0.5498  0.6366  0.6007
 5378SOL    HW127770   0.879   2.751   2.382 -2.2000 -0.9171  1.4539
 5378SOL    HW227771   0.815   2.864   2.444 -0.8064  0.0132  1.0045
 5379SOL     OW27772   2.742   1.775   1.687 -0.1661  0.1216  0.8909
 5379SOL    HW127773   2.800   1.843   1.653  2.8449 -2.5581  0.7014
 5379SOL    HW227774   2.674   1.830   1.726 -1.5052 -1.5981  1.0396
 5380SOL     OW27775   2.839   1.616   5.449 -0.5603  0.1653  0.1240
 5380SOL    HW127776   2.830   1.523   5.470 -2.7973  0.0894 -1.1575
 5380SOL    HW227777   2.753   1.630   5.409  0.5102 -1.4075 -2.7535
 5381SOL     OW27778   3.308   2.253   2.414 -0.1787  0.1244  0.2119
 5381SOL    HW127779   3.319   2.340   2.375 -2.5731  0.6841  0.7571
 5381SOL    HW227780   3.380   2.265   2.476  0.4162 -0.0848 -0.4480
 5382SOL     OW27781   3.197   1.492  12.501  0.5060 -0.4815 -0.0668
 5382SOL    HW127782   3.203   1.461  12.591 -0.3187  4.2987  1.6069
 5382SOL    HW227783   3.263   1.562  12.498 -0.6291  0.4546 -3.3812
 5383SOL     OW27784   2.358   0.615  11.086  0.1578  0.1442  0.2135
 5383SOL    HW127785   2.356   0.646  11.176 -0.5558  2.9830 -0.7934
 5383SOL    HW227786   2.434   0.658  11.047  1.7962 -2.5261  0.4843
 5384SOL     OW27787   3.085   3.612   6.763  0.6201 -0.2290 -0.1782
 5384SOL    HW127788   3.161   3.558   6.785  0.5950 -0.0364  0.3828
 5384SOL    HW227789   3.024   3.546   6.729  1.4394  0.8011 -3.6355
 5385SOL     OW27790   0.197   2.903   0.559  0.2094 -0.5951 -0.3678
 5385SOL    HW127791   0.261   2.847   0.603 -0.6266 -1.7607 -0.6182
 5385SOL    HW227792   0.248   2.982   0.543 -0.8237 -0.0195 -0.8779
 5386SOL     OW27793   0.467   4.481  15.641 -0.3367  0.0264  0.1742
 5386SOL    HW127794   0.429   4.410  15.692 -1.3956  0.6934  0.3192
 5386SOL    HW227795   0.458   4.454  15.550  0.5128  0.0218  0.0914
 5387SOL     OW27796   2.323   0.935   3.947  0.3482  0.4300  0.0607
 5387SOL    HW127797   2.331   0.873   3.874  0.4677  1.5973 -0.9280
 5387SOL    HW227798   2.373   0.884   4.011 -0.2925 -0.8308 -0.4443
 5388SOL     OW27799   2.075   3.826   3.524 -0.6280  0.8037 -0.9231
 5388SOL    HW127800   2.171   3.827   3.536 -0.6333 -0.5646 -0.7382
 5388SOL    HW227801   2.032   3.876   3.593 -0.6300 -1.3797  0.6577
 5389SOL     OW27802   1.466   0.646  16.551  0.7028 -0.1655 -0.1273
 5389SOL    HW127803   1.427   0.657  16.465 -0.1906 -1.7948  0.0739
 5389SOL    HW227804   1.418   0.701  16.613  0.1023 -1.9902  1.0195
 5390SOL     OW27805   1.165   1.068   4.567  0.2362 -0.3256 -0.0674
 5390SOL    HW127806   1.254   1.104   4.562  0.3232 -0.8323 -2.1331
 5390SOL    HW227807   1.164   1.003   4.637 -1.2285 -0.3296 -0.1070
 5391SOL     OW27808   1.786   0.883  16.019 -0.4867  0.0981  0.4481
 5391SOL    HW127809   1.857   0.843  15.968 -0.5281 -0.6785  1.0059
 5391SOL    HW227810   1.822   0.966  16.049  0.1015  0.9715 -2.6322
 5392SOL     OW27811   0.447   0.674  13.381  0.1129 -0.3223  0.7528
 5392SOL    HW127812   0.519   0.714  13.428 -0.0827  0.1972  0.6148
 5392SOL    HW227813   0.488   0.647  13.298 -1.9503 -1.2935  0.0369
 5393SOL     OW27814   1.510   2.837  15.366 -0.0120 -0.0505  0.3515
 5393SOL    HW127815   1.583   2.800  15.317  0.3434  1.0160  0.0816
 5393SOL    HW227816   1.439   2.808  15.308  1.5926 -0.2784 -1.5136
 5394SOL     OW27817   3.119   1.391   2.413 -0.2502  0.1669 -0.0194
 5394SOL    HW127818   3.132   1.378   2.319  1.7604 -1.4242  0.4978
 5394SOL    HW227819   3.147   1.306   2.446 -0.9254 -0.1176 -0.1775
 5395SOL     OW27820   1.755   4.495  10.751 -0.6818 -0.3181  0.1099
 5395SOL    HW127821   1.845   4.464  10.745  0.4849  2.9660  0.5908
 5395SOL    HW227822   1.739   4.477  10.844  1.5163 -1.6044  0.2335
 5396SOL     OW27823   0.213   0.184   4.410 -0.0542  0.1379 -0.6934
 5396SOL    HW127824   0.196   0.188   4.315 -3.2109 -1.1883 -0.1733
 5396SOL    HW227825   0.293   0.236   4.416  0.3956 -0.8437  1.4360
 5397SOL     OW27826   2.457   2.603   7.572  0.0902 -0.7197 -0.4302
 5397SOL    HW127827   2.399   2.567   7.639  0.4399  0.5692  0.5744
 5397SOL    HW227828   2.509   2.665   7.622 -1.6984 -0.0471  0.6081
 5398SOL     OW27829   0.422   4.524   9.462  0.1203  0.5893  0.9920
 5398SOL    HW127830   0.514   4.509   9.483  0.1906 -0.2368  0.1062
 5398SOL    HW227831   0.432   4.563   9.375  1.0394 -0.5572  0.5812
 5399SOL     OW27832   0.294   1.857   8.041  0.1100 -0.0353  0.1176
 5399SOL    HW127833   0.229   1.794   8.010 -1.7290  1.7494  0.2761
 5399SOL    HW227834   0.347   1.807   8.102  0.0308  1.1058  1.1216
 5400SOL     OW27835   0.919   4.581  16.626  0.7516 -0.2616 -0.0168
 5400SOL    HW127836   0.951   4.532  16.550  0.9017  0.0402 -0.1479
 5400SOL    HW227837   0.957   4.536  16.701  1.5321 -0.2951 -0.4429
 5401SOL     OW27838   3.601   2.177  16.424  0.7439 -0.1134 -0.2767
 5401SOL    HW127839   3.589   2.242  16.494 -0.0292 -0.3445 -0.1930
 5401SOL    HW227840   3.661   2.118  16.469 -1.1172 -2.2528 -0.6254
 5402SOL     OW27841   3.192   1.084   2.120  0.1764 -1.0761  0.4868
 5402SOL    HW127842   3.171   1.149   2.186  1.9418  0.5276 -0.5337
 5402SOL    HW227843   3.124   1.089   2.053  1.2418  2.8541 -0.2845
 5403SOL     OW27844   2.332   0.438   9.038  0.0132  0.3214 -0.1900
 5403SOL    HW127845   2.270   0.492   8.989 -1.4895  1.7073  3.2308
 5403SOL    HW227846   2.294   0.442   9.126  1.3365 -0.4957  0.4140
 5404SOL     OW27847   3.783   2.457   7.557 -0.4518 -0.7256  0.2745
 5404SOL    HW127848   3.698   2.440   7.517 -0.6170  3.9730 -1.4227
 5404SOL    HW227849   3.803   2.546   7.527  0.1766 -1.3483 -1.1321
 5405SOL     OW27850   0.300   4.681   6.601 -0.8079 -0.1929 -0.0544
 5405SOL    HW127851   0.272   4.677   6.510  0.9651  2.0553 -0.6937
 5405SOL    HW227852   0.395   4.680   6.589 -1.1443  0.8430 -2.6821
 5406SOL     OW27853   2.116   0.021  16.675  0.8039 -0.0882  0.0702
 5406SOL    HW127854   2.029   0.032  16.714  0.0003  2.0253 -2.3409
 5406SOL    HW227855   2.094   4.706  16.598  1.4103  0.3412 -0.4040
 5407SOL     OW27856   3.146   0.387  17.665 -0.5455 -0.2376 -0.5638
 5407SOL    HW127857   3.184   0.445  17.731 -1.2415  0.1294 -0.4802
 5407SOL    HW227858   3.228   0.347  17.637 -1.8277 -3.8539  0.9664
 5408SOL     OW27859   4.496   3.628  10.236  0.3515 -0.3941  0.6757
 5408SOL    HW127860   4.422   3.588  10.191  0.5904 -1.4247  1.1838
 5408SOL    HW227861   4.490   3.606  10.330  1.2827  0.7406  0.9930
 5409SOL     OW27862   2.306   3.672   5.649  0.0273  0.2978 -0.2411
 5409SOL    HW127863   2.290   3.612   5.576  0.5346 -1.5201  1.1505
 5409SOL    HW227864   2.224   3.654   5.695  0.6908  3.0593  2.0020
 5410SOL     OW27865   2.763   3.274  16.984 -0.0273  0.4863  0.0583
 5410SOL    HW127866   2.725   3.343  17.037 -0.4884 -0.1289  0.5271
 5410SOL    HW227867   2.811   3.225  17.051  3.8404  3.5402 -0.4655
 5411SOL     OW27868   2.541   3.436  10.630  0.3612  0.1214 -0.2616
 5411SOL    HW127869   2.595   3.403  10.702  0.0653 -0.2345 -0.2049
 5411SOL    HW227870   2.569   3.527  10.620 -2.6276  1.1821  1.1182
 5412SOL     OW27871   2.311   1.482   1.123  0.8509 -0.3465 -0.7610
 5412SOL    HW127872   2.257   1.418   1.169 -1.5398  0.1594 -2.8379
 5412SOL    HW227873   2.361   1.528   1.191 -0.4320  0.0337 -0.0788
 5413SOL     OW27874   1.307   3.527   4.195  0.3355  0.2622  0.0843
 5413SOL    HW127875   1.313   3.456   4.259 -0.8280 -0.7910 -0.9512
 5413SOL    HW227876   1.227   3.575   4.215 -0.3066 -0.2978 -1.1184
 5414SOL     OW27877   3.274   0.028   3.275  0.1999  0.1329 -0.0262
 5414SOL    HW127878   3.223   0.040   3.355  0.8585  0.0114  0.4092
 5414SOL    HW227879   3.247   4.684   3.234 -0.9980  0.3272  0.3738
 5415SOL     OW27880   2.194   1.892   7.401  0.0463 -0.4508 -0.3204
 5415SOL    HW127881   2.204   1.985   7.420 -3.3912 -0.5044  1.6487
 5415SOL    HW227882   2.134   1.857   7.466 -0.7300 -0.4233 -1.0204
 5416SOL     OW27883   4.730   0.112  11.839 -0.2028 -0.3052  0.7560
 5416SOL    HW127884   4.703   0.191  11.794  1.1305 -0.8864 -1.0507
 5416SOL    HW227885   4.652   0.104  11.895 -0.5755  2.5517  0.6084
 5417SOL     OW27886   1.699   3.777   6.976 -0.1573  0.1015 -0.3722
 5417SOL    HW127887   1.638   3.808   6.910 -0.5854  0.7652  0.3403
 5417SOL    HW227888   1.655   3.790   7.060 -1.4978 -1.1292 -0.8858
 5418SOL     OW27889   2.430   2.648  13.722 -0.0486 -0.7066 -0.4468
 5418SOL    HW127890   2.358   2.663  13.783  0.1720  0.2577 -0.4214
 5418SOL    HW227891   2.493   2.703  13.769 -0.9174 -1.5652  1.7240
 5419SOL     OW27892   2.155   2.117   5.344  0.5252  0.7423 -0.3579
 5419SOL    HW127893   2.197   2.185   5.291  0.9489  0.9508  0.2444
 5419SOL    HW227894   2.087   2.163   5.394  0.1774 -0.5632  0.3432
 5420SOL     OW27895   2.757   2.877   2.039  0.0377  0.0723 -0.2857
 5420SOL    HW127896   2.696   2.950   2.047 -0.6478 -0.6469  1.1176
 5420SOL    HW227897   2.804   2.875   2.122  1.6482  0.2088 -1.1860
 5421SOL     OW27898   3.767   3.226   5.117 -0.8709 -0.1690 -0.3656
 5421SOL    HW127899   3.789   3.181   5.199 -0.9765 -0.7720 -0.6654
 5421SOL    HW227900   3.798   3.313   5.143 -0.8119 -0.2692 -0.0904
 5422SOL     OW27901   1.041   3.184   5.915  0.4193  0.7723  0.5808
 5422SOL    HW127902   0.982   3.201   5.841 -0.5516 -1.5474  0.8300
 5422SOL    HW227903   1.115   3.141   5.874  0.6183  1.3124  0.3677
 5423SOL     OW27904   1.848   0.522   4.462  0.0501  0.3372  0.4412
 5423SOL    HW127905   1.898   0.568   4.394  0.0712 -0.4597 -0.0795
 5423SOL    HW227906   1.879   0.572   4.538  1.0215  0.6153 -0.1294
 5424SOL     OW27907   0.905   1.392  16.611 -0.8397  0.0866  0.1109
 5424SOL    HW127908   0.967   1.375  16.682 -1.7361  0.4016  0.9724
 5424SOL    HW227909   0.858   1.470  16.641 -0.8286 -0.5524  1.8084
 5425SOL     OW27910   0.410   2.414   1.536 -0.0326  0.9671  0.0061
 5425SOL    HW127911   0.493   2.425   1.490 -0.1268 -0.3070 -0.4622
 5425SOL    HW227912   0.371   2.460   1.462 -3.6562 -2.4860 -0.2349
 5426SOL     OW27913   4.525   1.540   9.834  0.1950 -0.5589 -0.0909
 5426SOL    HW127914   4.571   1.555   9.751 -0.6157 -2.0936 -0.8117
 5426SOL    HW227915   4.605   1.553   9.886 -0.4451 -0.1573  0.7880
 5427SOL     OW27916   1.299   2.155   4.674  0.2604  0.1910 -0.2839
 5427SOL    HW127917   1.285   2.140   4.581  0.9039  0.2986 -0.3943
 5427SOL    HW227918   1.247   2.086   4.716  1.0619 -0.2442 -0.0102
 5428SOL     OW27919   3.912   1.238   6.999 -0.0664  0.4626 -0.6967
 5428SOL    HW127920   3.882   1.198   6.918  0.3746  0.3084 -0.7870
 5428SOL    HW227921   3.831   1.258   7.046 -0.5603 -1.8535 -0.5897
 5429SOL     OW27922   0.021   2.830   3.780  0.1191 -0.7690  0.3130
 5429SOL    HW127923   0.104   2.842   3.827 -0.6748 -0.2230  1.5712
 5429SOL    HW227924   0.020   2.910   3.728 -4.3737 -1.1824 -0.2666
 5430SOL     OW27925   0.276   3.556   4.031  0.1144 -0.1078  0.8480
 5430SOL    HW127926   0.182   3.539   4.018  0.2615  0.3868 -0.8482
 5430SOL    HW227927   0.291   3.484   4.091  1.0536 -0.5776  0.0437
 5431SOL     OW27928   2.631   3.874  11.190  0.2113 -0.0888 -0.0030
 5431SOL    HW127929   2.582   3.901  11.113 -0.8291  0.0223  0.7012
 5431SOL    HW227930   2.626   3.779  11.188 -3.1207  0.0574  1.0902
 5432SOL     OW27931   0.736   2.546   2.984  0.1595 -0.4657  0.4362
 5432SOL    HW127932   0.740   2.451   2.986 -0.4065 -0.4855  0.6820
 5432SOL    HW227933   0.757   2.571   2.894  0.7847 -0.7725  0.4988
 5433SOL     OW27934   2.545   0.683   7.064  0.5490  0.2560  0.2897
 5433SOL    HW127935   2.620   0.690   7.005  1.6174  0.9486  1.7343
 5433SOL    HW227936   2.531   0.775   7.083  1.1384  0.4173 -0.0543
 5434SOL     OW27937   2.657   2.749   4.145 -0.4844  0.3975  0.5351
 5434SOL    HW127938   2.726   2.815   4.158 -0.2801  0.0178  1.3540
 5434SOL    HW227939   2.604   2.773   4.220  1.0648 -0.8084  2.0302
 5435SOL     OW27940   1.941   1.033   8.738 -0.8124  0.1475 -0.2332
 5435SOL    HW127941   2.011   1.012   8.675  0.2214  0.7525  0.7314
 5435SOL    HW227942   1.927   0.950   8.783  1.3005 -1.5060 -2.6403
 5436SOL     OW27943   2.682   0.400   6.361  0.3868 -0.3230 -0.3690
 5436SOL    HW127944   2.742   0.432   6.428  1.4020  2.2310 -2.5039
 5436SOL    HW227945   2.718   0.314   6.340  1.3898 -0.0175  0.1037
 5437SOL     OW27946   1.651   3.259  17.296  0.4114 -0.0820  0.2105
 5437SOL    HW127947   1.733   3.272  17.343  0.6002 -1.2366  0.2185
 5437SOL    HW227948   1.632   3.165  17.305  2.8564 -0.5319  0.5171
 5438SOL     OW27949   2.469   0.569   3.986  0.4988 -0.5326 -0.1118
 5438SOL    HW127950   2.380   0.536   3.975  0.0050  0.4480  0.9926
 5438SOL    HW227951   2.464   0.617   4.069  0.0906  0.5157 -0.7483
 5439SOL     OW27952   4.537   2.111   2.545 -0.8244 -0.0096  0.3050
 5439SOL    HW127953   4.594   2.034   2.554  1.0004  1.6756  3.2180
 5439SOL    HW227954   4.596   2.178   2.512  0.0523 -1.0251 -0.2000
 5440SOL     OW27955   3.639   3.756  16.580 -0.3322  0.1769  0.6359
 5440SOL    HW127956   3.718   3.785  16.627  1.4091 -0.5851 -1.8719
 5440SOL    HW227957   3.626   3.826  16.516 -3.4141 -0.6599  0.3615
 5441SOL     OW27958   0.167   0.964   6.413 -0.2184  0.3006  0.1423
 5441SOL    HW127959   0.112   0.887   6.400  0.1674  0.2138 -0.9677
 5441SOL    HW227960   0.106   1.033   6.389 -0.5137 -0.2406 -0.6714
 5442SOL     OW27961   1.045   3.298   7.265 -0.0222  0.0345  0.7035
 5442SOL    HW127962   0.996   3.256   7.336 -1.6413  0.8471  0.0632
 5442SOL    HW227963   1.095   3.223   7.234 -1.4744 -0.7403  0.2608
 5443SOL     OW27964   0.738   2.851  11.678 -0.4209 -0.0851  0.0666
 5443SOL    HW127965   0.645   2.870  11.669 -0.1139  1.7067  0.6904
 5443SOL    HW227966   0.736   2.755  11.675 -0.3246 -0.0751 -0.4778
 5444SOL     OW27967   1.775   0.989   4.946  0.2509  0.3972  0.3653
 5444SOL    HW127968   1.736   0.989   5.033 -1.5091 -1.0394 -0.4221
 5444SOL    HW227969   1.802   1.081   4.944 -0.8818  0.6813 -2.1316
 5445SOL     OW27970   4.638   4.440   2.548 -0.0692 -0.1307  0.1371
 5445SOL    HW127971   4.730   4.433   2.575  0.3121 -0.9347 -1.3378
 5445SOL    HW227972   4.621   4.353   2.511  2.2388  0.3088 -2.0365
 5446SOL     OW27973   0.825   1.483   6.223 -0.0772  0.2970 -0.4587
 5446SOL    HW127974   0.772   1.531   6.288 -1.0630  1.0333 -1.8175
 5446SOL    HW227975   0.834   1.556   6.161  0.7171  0.4051 -0.2201
 5447SOL     OW27976   4.683   3.601   8.496  0.1559 -0.2953  0.3894
 5447SOL    HW127977   4.642   3.527   8.539 -0.5325 -1.0283 -1.5328
 5447SOL    HW227978   4.705   3.657   8.570  0.8417 -1.2763  0.9336
 5448SOL     OW27979   2.285   0.219   8.700 -0.4848 -0.2430  0.4385
 5448SOL    HW127980   2.237   0.167   8.765  0.0492  0.8271  1.6958
 5448SOL    HW227981   2.344   0.147   8.678  1.1541  1.2876 -0.1641
 5449SOL     OW27982   0.995   1.756   5.654 -0.1412 -0.3949  0.3203
 5449SOL    HW127983   1.048   1.823   5.700 -0.2010  0.1516 -0.4068
 5449SOL    HW227984   0.915   1.768   5.705 -0.0757  2.1346 -0.1365
 5450SOL     OW27985   2.964   4.002  11.616  0.0926 -0.4304  0.1352
 5450SOL    HW127986   2.930   3.920  11.582 -0.2798 -0.5294  0.7398
 5450SOL    HW227987   2.913   4.066  11.566  0.0029 -0.6764 -0.0851
 5451SOL     OW27988   2.014   0.724   4.378 -0.1242  0.0509 -0.2196
 5451SOL    HW127989   2.003   0.818   4.394  0.9449  0.5180 -2.2157
 5451SOL    HW227990   2.106   0.724   4.349  0.4418 -0.1154  1.5433
 5452SOL     OW27991   3.280   1.830   7.703  0.4154  0.4277  0.1408
 5452SOL    HW127992   3.313   1.907   7.748 -0.5125  0.4044  0.8684
 5452SOL    HW227993   3.310   1.753   7.752  0.4635  0.4183  0.0965
 5453SOL     OW27994   1.555   2.319   6.484  0.5311  0.0906  0.2072
 5453SOL    HW127995   1.601   2.331   6.567 -2.8280  2.6404  1.6701
 5453SOL    HW227996   1.471   2.278   6.505 -0.2011  0.8304 -1.2596
 5454SOL     OW27997   2.343   2.565   4.820 -0.2587  0.5257 -0.5955
 5454SOL    HW127998   2.354   2.504   4.748  0.2982 -0.4646  0.3247
 5454SOL    HW227999   2.257   2.531   4.845  0.1755  0.7072  1.1958
 5455SOL     OW28000   1.567   4.260   4.746  0.2448 -0.2538 -0.6024
 5455SOL    HW128001   1.590   4.336   4.800 -0.1085 -0.4736 -0.1372
 5455SOL    HW228002   1.508   4.301   4.683 -0.8856  1.2215  1.3882
 5456SOL     OW28003   3.100   1.325  10.800  0.4544 -0.3823  0.4983
 5456SOL    HW128004   3.192   1.302  10.809  1.1744  3.1170  1.8388
 5456SOL    HW228005   3.069   1.304  10.888 -2.2228  2.0393  0.1448
 5457SOL     OW28006   0.405   1.174   8.723  0.5678 -0.4942  0.6748
 5457SOL    HW128007   0.443   1.192   8.809  2.6455  1.0080 -0.5639
 5457SOL    HW228008   0.405   1.078   8.727  2.3802 -0.5029  0.6563
 5458SOL     OW28009   2.854   0.157   6.840 -0.0357  0.4888 -0.0046
 5458SOL    HW128010   2.940   0.184   6.807 -0.3851  1.6461  0.0523
 5458SOL    HW228011   2.823   0.110   6.763 -2.7423  0.3053  1.2061
 5459SOL     OW28012   3.764   0.695   9.371  0.0589  0.2732  0.5657
 5459SOL    HW128013   3.842   0.683   9.317  0.7899 -0.6468  1.8444
 5459SOL    HW228014   3.808   0.693   9.456 -3.0910  3.4587  2.3165
 5460SOL     OW28015   1.303   3.446   0.959 -0.3696  0.1768  0.4654
 5460SOL    HW128016   1.233   3.386   0.983  0.4131 -0.7129  0.5158
 5460SOL    HW228017   1.337   3.405   0.880  0.8197  1.0772  0.4995
 5461SOL     OW28018   0.419   3.624   7.482 -0.3644 -0.1550 -0.3170
 5461SOL    HW128019   0.479   3.699   7.488 -1.0854  0.2855  1.3038
 5461SOL    HW228020   0.454   3.566   7.415  0.0121 -0.7590  0.4054
 5462SOL     OW28021   2.314   2.433  16.571 -0.4087  0.5660 -0.1154
 5462SOL    HW128022   2.393   2.382  16.583 -1.0446 -0.7383 -1.4479
 5462SOL    HW228023   2.283   2.386  16.494 -1.0097 -1.2945  1.2765
 5463SOL     OW28024   1.644   2.690   2.101 -0.1415  0.0300  0.1315
 5463SOL    HW128025   1.639   2.638   2.020 -2.0921 -0.3830  0.5192
 5463SOL    HW228026   1.587   2.764   2.079 -1.3245 -1.1104 -0.6670
 5464SOL     OW28027   4.122   3.232   6.151 -0.0319 -0.6160  0.0568
 5464SOL    HW128028   4.092   3.303   6.094 -1.1108  0.7068  2.2779
 5464SOL    HW228029   4.175   3.178   6.092  0.5014  0.4240 -0.4281
 5465SOL     OW28030   3.848   3.160   3.617 -0.7722  0.4655 -0.4700
 5465SOL    HW128031   3.790   3.085   3.634 -0.1090  0.1444  0.3916
 5465SOL    HW228032   3.935   3.122   3.600 -0.5500  0.6696  0.1770
 5466SOL     OW28033   4.667   0.770  12.847  0.1058  0.0155  0.5536
 5466SOL    HW128034   4.660   0.675  12.862  1.6922 -0.0129  1.0976
 5466SOL    HW228035   0.012   0.799  12.885  1.2999  0.4039 -2.3682
 5467SOL     OW28036   1.958   3.207   0.845  0.1969 -0.5088  0.1956
 5467SOL    HW128037   1.878   3.215   0.897  1.0270 -0.7150  1.5096
 5467SOL    HW228038   1.950   3.291   0.800  1.3481 -1.2725 -1.4160
 5468SOL     OW28039   3.188   4.643   5.218 -0.3602 -0.0729 -0.1105
 5468SOL    HW128040   3.189   4.593   5.136 -3.0712 -0.6448  0.2032
 5468SOL    HW228041   3.263   4.702   5.219 -0.1131 -0.3493 -1.3975
 5469SOL     OW28042   2.135   3.474  15.524 -0.0562  0.0947 -0.2508
 5469SOL    HW128043   2.144   3.533  15.449 -0.7927  0.0020 -0.4127
 5469SOL    HW228044   2.041   3.457  15.530  0.2826 -1.6337  0.2981
 5470SOL     OW28045   0.364   4.382   3.981  0.8368 -0.2981 -0.1224
 5470SOL    HW128046   0.404   4.416   4.061  0.0783 -1.6111  0.8124
 5470SOL    HW228047   0.419   4.307   3.960  1.5260 -0.4600  2.3828
 5471SOL     OW28048   1.482   4.008   4.665 -0.7105 -0.0108  0.3113
 5471SOL    HW128049   1.500   3.996   4.572  2.7322  1.4205  0.8045
 5471SOL    HW228050   1.538   4.083   4.685 -0.3125 -0.4103  0.7018
 5472SOL     OW28051   4.080   4.502  13.646  0.1691 -0.4204  0.1281
 5472SOL    HW128052   4.067   4.426  13.588  0.7850 -1.2355  1.0657
 5472SOL    HW228053   4.175   4.509  13.637  0.2346 -0.4279  0.8895
 5473SOL     OW28054   1.855   3.091  17.086 -0.1482 -0.0366 -0.1977
 5473SOL    HW128055   1.790   3.153  17.052  0.6264  0.0747 -1.4534
 5473SOL    HW228056   1.833   3.007  17.048 -1.3721  0.0399  0.3465
 5474SOL     OW28057   2.748   1.932  15.165 -0.1950 -0.4013 -0.3859
 5474SOL    HW128058   2.769   1.850  15.120 -0.7472 -0.7341 -0.0363
 5474SOL    HW228059   2.705   1.991  15.104 -1.3722 -0.4356  0.4136
 5475SOL     OW28060   0.068   1.943   0.700  0.2764 -0.9309 -0.1091
 5475SOL    HW128061   0.089   1.929   0.792  0.5904 -0.0084 -0.0398
 5475SOL    HW228062   0.023   1.863   0.675  1.3141 -1.6063  0.2048
 5476SOL     OW28063   4.447   3.965  17.374  0.6913  0.7004  0.2016
 5476SOL    HW128064   4.484   4.046  17.341 -0.9516  0.5637 -2.0115
 5476SOL    HW228065   4.496   3.955  17.455 -0.1278 -2.9543  0.2731
 5477SOL     OW28066   1.401   0.019  11.130  0.1910 -0.7204  0.4875
 5477SOL    HW128067   1.398   0.089  11.065  0.9981 -1.7385 -0.6638
 5477SOL    HW228068   1.317   0.028  11.174 -0.3418 -1.3823 -0.3805
 5478SOL     OW28069   0.562   4.674  10.170 -0.0656 -0.2378 -0.2090
 5478SOL    HW128070   0.555   4.614  10.096 -3.6577 -0.3557  0.2292
 5478SOL    HW228071   0.472   4.697  10.195  0.6780  1.1520  1.1543
 5479SOL     OW28072   2.246   1.351   8.414 -0.2983  0.3501 -0.0651
 5479SOL    HW128073   2.208   1.355   8.502 -2.4701  0.7367 -1.0180
 5479SOL    HW228074   2.336   1.331   8.440  0.4829  1.1682 -2.2196
 5480SOL     OW28075   3.947   1.661   9.371 -0.2027 -0.0702  0.0391
 5480SOL    HW128076   3.878   1.688   9.431  0.1512  3.1884 -1.0133
 5480SOL    HW228077   3.895   1.600   9.318 -0.1094 -0.7904  0.7840
 5481SOL     OW28078   1.625   1.703   5.119  0.0143 -0.0899 -0.1671
 5481SOL    HW128079   1.548   1.647   5.114 -0.2764  0.2021  1.0638
 5481SOL    HW228080   1.597   1.766   5.185  1.6019  0.7108 -0.2591
 5482SOL     OW28081   2.275   1.737  14.653 -0.3779  0.7121 -0.2344
 5482SOL    HW128082   2.235   1.682  14.720  0.6346  1.6785  1.1733
 5482SOL    HW228083   2.356   1.769  14.693 -0.2602 -0.7135  0.6554
 5483SOL     OW28084   3.221   1.782   6.199  0.7663  0.1621 -0.2047
 5483SOL    HW128085   3.223   1.784   6.103  0.6254 -1.6433 -0.2509
 5483SOL    HW228086   3.138   1.737   6.215  1.4988  0.2107  3.7391
 5484SOL     OW28087   1.035   2.290   3.456 -0.1126  0.0932 -0.2260
 5484SOL    HW128088   1.017   2.382   3.474 -1.7074 -0.2053 -0.2658
 5484SOL    HW228089   1.000   2.246   3.533 -0.3971  1.0536  0.1961
 5485SOL     OW28090   4.139   0.507   9.335 -0.2231  0.1826  0.2402
 5485SOL    HW128091   4.135   0.442   9.265 -0.2121 -1.8074  2.0879
 5485SOL    HW228092   4.234   0.517   9.336 -0.1540 -0.4305  0.0252
 5486SOL     OW28093   1.081   3.444  11.122  0.4056  0.0148 -0.3321
 5486SOL    HW128094   1.106   3.510  11.057 -1.4976  0.9173 -0.1412
 5486SOL    HW228095   1.048   3.364  11.080  1.3120 -0.3922 -0.2723
 5487SOL     OW28096   3.218   0.484   4.341 -0.4571 -0.2055  0.1635
 5487SOL    HW128097   3.161   0.552   4.304 -0.9069 -0.3451  0.6042
 5487SOL    HW228098   3.155   0.412   4.342  1.3420 -1.7527  1.1272
 5488SOL     OW28099   0.083   3.380   5.478 -0.0730  0.6043 -0.2090
 5488SOL    HW128100   0.168   3.417   5.455  0.8293 -1.8312 -0.7839
 5488SOL    HW228101   0.024   3.406   5.407 -1.2182 -0.4134  0.3588
 5489SOL     OW28102   2.606   0.973   2.238  0.7464 -0.0901 -0.3188
 5489SOL    HW128103   2.634   0.977   2.330 -1.2744 -0.7337  0.3126
 5489SOL    HW228104   2.514   0.950   2.249  0.3175  2.0223  0.5382
 5490SOL     OW28105   3.608   1.509   2.918 -0.2506 -0.2854 -0.1088
 5490SOL    HW128106   3.659   1.429   2.906 -1.8283 -1.2014 -0.6247
 5490SOL    HW228107   3.676   1.575   2.926  0.5877 -1.4839  2.7111
 5491SOL     OW28108   1.336   0.546   3.313  0.4447 -1.0847 -0.3108
 5491SOL    HW128109   1.290   0.463   3.315  1.5483 -1.6972 -0.1155
 5491SOL    HW228110   1.418   0.527   3.358  1.6257  1.6779 -1.2341
 5492SOL     OW28111   3.560   0.065   5.922  0.3827  0.2190 -0.1560
 5492SOL    HW128112   3.525   0.010   5.993 -1.2990 -0.3210 -1.4023
 5492SOL    HW228113   3.647   0.091   5.951  1.0592  1.6657 -3.5567
 5493SOL     OW28114   3.417   3.151  12.522 -0.0546 -0.3352 -0.1192
 5493SOL    HW128115   3.472   3.133  12.598 -0.2769 -0.5916 -0.0168
 5493SOL    HW228116   3.448   3.238  12.496 -2.6072  0.4751 -0.4928
 5494SOL     OW28117   3.701   3.706   2.354  0.0256  0.3298  0.6941
 5494SOL    HW128118   3.766   3.764   2.313 -1.7429  1.2287 -0.8151
 5494SOL    HW228119   3.719   3.630   2.298 -1.7452  0.7044 -0.3897
 5495SOL     OW28120   0.866   4.365   3.617  0.5863  0.0612 -0.1166
 5495SOL    HW128121   0.853   4.271   3.631 -0.0571 -0.1828 -2.3726
 5495SOL    HW228122   0.828   4.380   3.530 -0.1430 -0.4589  0.1209
 5496SOL     OW28123   4.344   3.304  10.169 -0.2807 -0.4385  0.3502
 5496SOL    HW128124   4.304   3.384  10.202  1.4367 -0.3112  2.0953
 5496SOL    HW228125   4.342   3.248  10.246  1.4124 -1.0185 -0.0215
 5497SOL     OW28126   1.858   1.503   2.326 -0.1195  0.3596  0.1775
 5497SOL    HW128127   1.796   1.522   2.255  1.1821 -0.2944 -1.1338
 5497SOL    HW228128   1.826   1.572   2.384  0.2623 -1.2087  2.2544
 5498SOL     OW28129   0.009   4.273   7.066 -0.4238  0.1905  0.0920
 5498SOL    HW128130   4.722   4.221   6.989 -0.9103 -0.0904  0.4373
 5498SOL    HW228131   0.028   4.357   7.023  0.4926  0.4061  0.9354
 5499SOL     OW28132   3.284   2.039  12.064  0.1239 -0.2403 -0.2057
 5499SOL    HW128133   3.213   2.044  12.127  2.1710 -1.5820  2.2192
 5499SOL    HW228134   3.345   2.069  12.132 -0.2067 -0.6722  0.2782
 5500SOL     OW28135   1.725   3.070   3.759 -0.0438 -0.6162 -0.4209
 5500SOL    HW128136   1.700   3.098   3.847 -0.7838  1.8883 -1.4144
 5500SOL    HW228137   1.689   2.981   3.751  1.2565 -1.3090  1.4159
 5501SOL     OW28138   0.539   1.658   9.183 -0.0986 -0.4466  0.2775
 5501SOL    HW128139   0.473   1.624   9.243  1.8249 -0.9439  2.1110
 5501SOL    HW228140   0.583   1.722   9.238 -0.4351 -0.9430  1.1120
 5502SOL     OW28141   2.888   1.977   1.543 -0.2828 -0.1809 -0.1163
 5502SOL    HW128142   2.983   1.965   1.546 -0.2790 -0.3794 -0.8068
 5502SOL    HW228143   2.885   2.070   1.523 -1.0334 -0.9466 -3.6010
 5503SOL     OW28144   4.552   0.458   2.567 -0.0875 -0.3921 -0.2072
 5503SOL    HW128145   4.515   0.411   2.642 -1.6696  0.5554 -0.4028
 5503SOL    HW228146   4.538   0.392   2.499  1.8303  0.0280 -0.9989
 5504SOL     OW28147   4.325   4.672   6.268 -0.0363 -0.4866 -0.2299
 5504SOL    HW128148   4.283   4.590   6.296 -1.0781  0.0897 -0.1036
 5504SOL    HW228149   4.280   4.704   6.190  0.5939 -1.7940 -1.1329
 5505SOL     OW28150   1.546   0.940  12.791  0.1539 -0.1058  0.3205
 5505SOL    HW128151   1.507   1.022  12.759 -0.1126 -0.0141  0.8901
 5505SOL    HW228152   1.551   0.877  12.720 -2.0546  0.5056 -0.3579
 5506SOL     OW28153   3.189   3.573   2.524 -0.3332 -0.0556 -0.4771
 5506SOL    HW128154   3.261   3.555   2.585 -1.9588 -0.1044  1.4122
 5506SOL    HW228155   3.234   3.591   2.442  0.3909  2.5597  0.4836
 5507SOL     OW28156   3.307   1.098   4.626  0.3179 -0.8499  0.0436
 5507SOL    HW128157   3.294   1.096   4.531 -0.7094  0.3129  0.1496
 5507SOL    HW228158   3.370   1.026   4.634  0.4948 -0.6862  0.1136
 5508SOL     OW28159   1.230   0.227   3.781 -0.8492  0.1780  0.2138
 5508SOL    HW128160   1.198   0.279   3.854 -2.0389  0.0538 -0.2160
 5508SOL    HW228161   1.147   0.207   3.737 -1.7011  1.9193  1.0504
 5509SOL     OW28162   2.145   2.575   3.026 -0.4552  0.7534  0.2318
 5509SOL    HW128163   2.131   2.659   2.984 -0.0178  0.3051 -0.8294
 5509SOL    HW228164   2.181   2.531   2.949 -1.6303  1.0217 -0.4578
 5510SOL     OW28165   0.857   1.196   1.409  0.3460  0.5754 -0.2008
 5510SOL    HW128166   0.819   1.171   1.324 -4.4296  0.1758  2.0537
 5510SOL    HW228167   0.946   1.162   1.400 -0.7963 -2.7626  0.7506
 5511SOL     OW28168   2.607   4.121   2.269 -0.9337 -0.2521 -0.1134
 5511SOL    HW128169   2.566   4.167   2.341 -0.1029 -0.3205  0.4023
 5511SOL    HW228170   2.626   4.033   2.301  1.8795  0.9890  1.6554
 5512SOL     OW28171   1.458   0.784   2.869 -0.1174 -0.3292  0.2236
 5512SOL    HW128172   1.366   0.765   2.847 -0.2750 -1.8813  2.2299
 5512SOL    HW228173   1.497   0.826   2.793 -1.9673 -0.8741 -1.0423
 5513SOL     OW28174   0.824   2.170  11.077 -0.2002  0.2646 -0.1167
 5513SOL    HW128175   0.771   2.241  11.113 -1.6148 -0.5411 -0.6105
 5513SOL    HW228176   0.770   2.136  11.006  0.1582  0.9798 -0.7357
 5514SOL     OW28177   1.983   1.484   7.140 -0.0379  0.0180 -0.1986
 5514SOL    HW128178   2.018   1.396   7.154  1.3136  0.7946  1.2413
 5514SOL    HW228179   2.037   1.514   7.066  0.7465 -0.9680 -0.0161
 5515SOL     OW28180   4.074   0.379   8.251  0.4464 -0.1209 -0.6157
 5515SOL    HW128181   4.070   0.285   8.233  0.9657  0.4025 -3.4472
 5515SOL    HW228182   4.076   0.380   8.347  0.9455 -2.8686 -0.5849
 5516SOL     OW28183   0.180   0.290  13.247 -0.2147  0.1711  0.1952
 5516SOL    HW128184   0.146   0.379  13.247 -2.9038 -0.8575 -1.3225
 5516SOL    HW228185   0.169   0.262  13.338  1.3913 -0.2677  0.2562
 5517SOL     OW28186   1.367   4.547  11.571 -0.2882  0.2042 -0.4401
 5517SOL    HW128187   1.366   4.566  11.664 -1.4281  0.3282 -0.4802
 5517SOL    HW228188   1.436   4.607  11.542 -0.1667  0.4098  0.2859
 5518SOL     OW28189   0.592   3.983   6.957  0.1558  0.4722  0.3572
 5518SOL    HW128190   0.660   4.041   6.991  0.2088  0.5345  0.1462
 5518SOL    HW228191   0.543   4.050   6.909  2.1543  0.9968 -0.9780
 5519SOL     OW28192   4.458   3.169   7.584 -0.0300 -0.1192  1.1353
 5519SOL    HW128193   4.554   3.178   7.584  0.2014 -2.4919 -0.6698
 5519SOL    HW228194   4.421   3.244   7.537  0.8670 -0.2526  0.2023
 5520SOL     OW28195   4.260   4.439   6.481  0.4179 -0.1217 -0.2554
 5520SOL    HW128196   4.253   4.346   6.461  2.4788 -0.5348  0.8954
 5520SOL    HW228197   4.171   4.465   6.505  0.3988 -0.7975  0.4026
 5521SOL     OW28198   4.095   1.468   3.175  0.1839  0.0757 -0.5665
 5521SOL    HW128199   4.059   1.552   3.203 -0.0351 -0.4775  0.8242
 5521SOL    HW228200   4.137   1.440   3.257 -1.5181  1.4825  0.7870
 5522SOL     OW28201   3.785   4.722   2.755  0.3051  0.2924  0.5105
 5522SOL    HW128202   3.858   4.681   2.709  1.8007  0.1085  3.0617
 5522SOL    HW228203   3.725   4.734   2.682 -1.6400  2.9061  2.5330
 5523SOL     OW28204   0.688   4.708  16.483 -0.3049 -0.1045  0.2627
 5523SOL    HW128205   0.755   4.667  16.537  2.4210  1.2876 -2.0466
 5523SOL    HW228206   0.733   0.053  16.469  2.1508 -1.3185  0.8655
 5524SOL     OW28207   1.442   1.056   2.152  0.0513  0.6618  0.1274
 5524SOL    HW128208   1.418   1.060   2.059 -0.5326 -2.5813  0.1287
 5524SOL    HW228209   1.388   0.985   2.187  2.3558 -0.9020  0.5479
 5525SOL     OW28210   4.081   4.478   8.987 -0.5091  0.3863  0.6830
 5525SOL    HW128211   4.174   4.470   9.008 -0.0466  1.1392 -1.0586
 5525SOL    HW228212   4.052   4.568   8.998  3.7827  1.6452  1.7039
 5526SOL     OW28213   4.281   0.153   2.192 -0.0778  0.0607  0.4294
 5526SOL    HW128214   4.263   0.243   2.164  0.7801  0.0148 -0.2869
 5526SOL    HW228215   4.329   0.133   2.111  1.2768 -0.1927  1.3018
 5527SOL     OW28216   0.345   3.116   5.312 -0.3075  0.4741  0.4958
 5527SOL    HW128217   0.435   3.131   5.283 -0.3576  0.0616  0.1197
 5527SOL    HW228218   0.300   3.194   5.280  1.0184  1.6114  1.4180
 5528SOL     OW28219   2.815   1.959  14.647  0.5618 -0.2266  0.0293
 5528SOL    HW128220   2.760   2.005  14.583  0.6366  1.2941  1.0622
 5528SOL    HW228221   2.833   1.882  14.593 -0.4625 -0.1796 -0.3842
 5529SOL     OW28222   0.926   0.278   6.652  0.0414  0.7940  0.7841
 5529SOL    HW128223   0.986   0.351   6.670  0.7205  0.6541 -0.8669
 5529SOL    HW228224   0.870   0.270   6.729  1.0759 -2.1548  1.2189
 5530SOL     OW28225   2.489   4.668   2.234 -0.4006  0.0715 -0.0520
 5530SOL    HW128226   2.438   4.595   2.269 -1.8309  1.4089  0.6588
 5530SOL    HW228227   2.545   4.680   2.311  1.5789 -0.7830 -1.3567
 5531SOL     OW28228   0.907   1.981  15.513 -0.0288  0.1035  0.0667
 5531SOL    HW128229   0.983   1.952  15.563  0.3116  0.3490 -0.3109
 5531SOL    HW228230   0.882   1.902  15.464 -1.5042  0.9197 -0.4884
 5532SOL     OW28231   4.676   2.046  15.865  0.3712 -0.5367  0.1857
 5532SOL    HW128232   4.693   2.128  15.817 -1.4160 -0.7603 -0.8406
 5532SOL    HW228233   4.586   2.064  15.891  1.1144  0.7516  1.8871
 5533SOL     OW28234   1.592   2.025   4.204 -0.1562 -0.4336  0.3664
 5533SOL    HW128235   1.682   2.053   4.217 -0.2844 -0.0518  0.4501
 5533SOL    HW228236   1.549   2.111   4.203  0.2720 -0.2280 -0.4926
 5534SOL     OW28237   2.532   3.435   3.985  0.1412 -0.2091 -0.6684
 5534SOL    HW128238   2.503   3.376   3.916 -0.3796 -0.3670 -0.3088
 5534SOL    HW228239   2.472   3.408   4.054  0.0232  1.2055 -0.2146
 5535SOL     OW28240   0.925   1.340   3.240 -0.6174  0.3669 -0.1003
 5535SOL    HW128241   0.863   1.408   3.266  1.0993  2.1969 -0.7924
 5535SOL    HW228242   1.005   1.366   3.285  0.4524 -0.4360 -1.5249
 5536SOL     OW28243   1.453   1.858   5.285 -0.7095 -0.1852 -0.4110
 5536SOL    HW128244   1.388   1.793   5.311 -3.4745  2.4203 -0.7387
 5536SOL    HW228245   1.397   1.929   5.254 -0.5451  0.1029 -0.0376
 5537SOL     OW28246   0.358   1.231   7.159  0.4595  0.5032  0.2932
 5537SOL    HW128247   0.437   1.213   7.107 -0.4077 -1.3943 -0.3542
 5537SOL    HW228248   0.366   1.325   7.174 -2.7995  0.6313  1.1244
 5538SOL     OW28249   1.769   4.199  15.469 -0.0732 -0.1204 -0.0504
 5538SOL    HW128250   1.811   4.141  15.405  0.2946  0.8569 -0.6951
 5538SOL    HW228251   1.753   4.148  15.548  0.6821 -1.9104 -1.0360
 5539SOL     OW28252   1.562   4.524   5.943  0.1338  0.0840  0.1059
 5539SOL    HW128253   1.505   4.448   5.933 -1.0467  0.9733  0.0285
 5539SOL    HW228254   1.491   4.575   5.982 -0.2957  2.3896 -3.6558
 5540SOL     OW28255   1.699   2.427   6.241  0.1139 -0.2599  0.2795
 5540SOL    HW128256   1.642   2.439   6.317 -0.8200 -1.7890 -0.1965
 5540SOL    HW228257   1.632   2.391   6.184  0.1821 -1.7055  1.1297
 5541SOL     OW28258   0.904   2.931   3.226  0.1167 -0.0990 -0.4564
 5541SOL    HW128259   0.875   2.844   3.201 -0.8636  0.9594 -2.9825
 5541SOL    HW228260   0.998   2.933   3.205  0.3441 -0.6196  0.5134
 5542SOL     OW28261   1.981   0.797   7.820  0.4301 -0.2226  0.1732
 5542SOL    HW128262   2.012   0.888   7.827  1.8795 -0.6329 -0.9237
 5542SOL    HW228263   1.910   0.808   7.756  0.7284  1.1924  0.0743
 5543SOL     OW28264   3.840   3.542  12.677  0.3493 -0.2150 -0.5718
 5543SOL    HW128265   3.882   3.541  12.591 -1.0633 -1.0236 -1.2714
 5543SOL    HW228266   3.753   3.507  12.654  0.4061  0.1964 -1.4118
 5544SOL     OW28267   2.505   3.474   6.308 -0.4525 -0.2821 -0.0256
 5544SOL    HW128268   2.417   3.453   6.276 -0.5333  1.4304 -0.9326
 5544SOL    HW228269   2.513   3.402   6.371 -1.5160 -0.5231 -0.1614
 5545SOL     OW28270   3.974   1.691   6.376 -0.7127  0.0840  0.0306
 5545SOL    HW128271   4.060   1.690   6.418  0.0444 -2.0373 -1.5584
 5545SOL    HW228272   3.935   1.772   6.408 -0.5302 -0.0915  0.6961
 5546SOL     OW28273   3.515   0.848  14.634  0.3139 -0.3129  0.8540
 5546SOL    HW128274   3.440   0.789  14.646 -2.0996  2.5563 -0.1059
 5546SOL    HW228275   3.516   0.868  14.541  0.9601  0.6649  1.0760
 5547SOL     OW28276   1.679   4.432  11.681  0.5452  0.5529  0.3149
 5547SOL    HW128277   1.646   4.371  11.747 -1.1923  1.7799  0.5797
 5547SOL    HW228278   1.760   4.386  11.659  0.1341 -1.0562  2.2471
 5548SOL     OW28279   2.229   0.672  14.645  0.2621  0.5385  0.0114
 5548SOL    HW128280   2.204   0.581  14.635  4.3897 -0.7965  1.6935
 5548SOL    HW228281   2.282   0.664  14.725 -1.4061  0.4579  1.1099
 5549SOL     OW28282   3.820   1.727   8.648  0.2914 -0.2831  0.1809
 5549SOL    HW128283   3.831   1.634   8.627 -2.3340 -0.7114  0.7195
 5549SOL    HW228284   3.878   1.726   8.724 -0.8115 -0.0458  1.0138
 5550SOL     OW28285   4.025   2.110   4.731 -0.3705  0.0539 -0.2113
 5550SOL    HW128286   4.019   2.079   4.641  0.5645  0.1841 -0.3175
 5550SOL    HW228287   4.067   2.034   4.772  0.0683  1.8446  2.7296
 5551SOL     OW28288   3.737   0.518   6.327 -0.1539  0.4726 -0.3298
 5551SOL    HW128289   3.650   0.510   6.288  0.6722  0.6106 -2.1994
 5551SOL    HW228290   3.750   0.599   6.278  0.1613  1.8430  2.0142
 5552SOL     OW28291   3.636   4.304   4.861 -0.4769  0.3485  0.5667
 5552SOL    HW128292   3.639   4.379   4.921  0.2507  0.7879 -0.0182
 5552SOL    HW228293   3.586   4.247   4.919 -1.5184 -0.8965 -1.5232
 5553SOL     OW28294   2.119   2.400   2.532  0.0615  0.6536  0.5305
 5553SOL    HW128295   2.109   2.316   2.488 -1.7098  2.1508 -1.9756
 5553SOL    HW228296   2.205   2.420   2.494 -0.8132  1.1523 -1.2137
 5554SOL     OW28297   2.904   4.205   7.380 -0.6586  0.3457  0.5142
 5554SOL    HW128298   2.972   4.181   7.317 -0.6545  0.1604  0.5899
 5554SOL    HW228299   2.955   4.209   7.461  1.0602 -1.8235 -0.4520
 5555SOL     OW28300   4.458   0.157   7.397 -0.0720 -0.8968  0.0415
 5555SOL    HW128301   4.487   0.175   7.308  1.5576 -0.2010  0.7145
 5555SOL    HW228302   4.387   0.095   7.378 -0.6309 -0.6164  1.2173
 5556SOL     OW28303   1.337   1.179   1.318  0.2430  0.1436  0.3337
 5556SOL    HW128304   1.290   1.235   1.256  0.9168  2.0514  1.5514
 5556SOL    HW228305   1.421   1.225   1.310 -0.1280  0.7335 -0.1469
 5557SOL     OW28306   0.981   0.328   1.213  0.5628 -0.3360  0.5727
 5557SOL    HW128307   1.021   0.361   1.293  1.7077 -0.3972  0.0296
 5557SOL    HW228308   0.927   0.407   1.202 -0.7953 -0.9083  3.2878
 5558SOL     OW28309   1.750   1.029  11.437 -0.2252  0.4097  0.0484
 5558SOL    HW128310   1.795   0.985  11.365  0.3364  1.9861 -0.5645
 5558SOL    HW228311   1.818   1.086  11.473 -2.0003  0.7211  2.9226
 5559SOL     OW28312   1.805   1.990   2.694  0.0670  0.3141  0.3644
 5559SOL    HW128313   1.817   1.972   2.788 -2.7754 -0.9465  0.4796
 5559SOL    HW228314   1.894   2.017   2.672 -0.0918  1.0479  0.6231
 5560SOL     OW28315   2.673   0.922   3.660 -0.0185  0.1557 -0.1328
 5560SOL    HW128316   2.686   1.000   3.713  1.5148 -0.2512  0.0935
 5560SOL    HW228317   2.753   0.871   3.671  0.1673  0.0072 -2.1579
 5561SOL     OW28318   3.981   1.338   5.832 -0.4614 -0.2900 -0.8276
 5561SOL    HW128319   3.936   1.372   5.755 -1.0780 -1.3471 -0.9309
 5561SOL    HW228320   3.946   1.396   5.899 -0.2349 -0.6152 -0.4230
 5562SOL     OW28321   2.277   4.520   3.621  0.4732 -0.1147  0.3943
 5562SOL    HW128322   2.260   4.604   3.579  1.8277 -1.3382 -2.6086
 5562SOL    HW228323   2.277   4.469   3.539 -1.1330 -0.5645  0.6872
 5563SOL     OW28324   2.208   3.243   8.146 -0.3663 -0.3284  0.2734
 5563SOL    HW128325   2.137   3.181   8.162 -1.3881  0.4249 -1.3175
 5563SOL    HW228326   2.253   3.202   8.073  1.9370 -0.3463  1.7170
 5564SOL     OW28327   2.389   3.499  10.179  0.1661 -0.0319  0.3657
 5564SOL    HW128328   2.407   3.453  10.260  1.9264  0.7130  0.3897
 5564SOL    HW228329   2.424   3.584  10.205 -2.4134  0.8715  0.8907
 5565SOL     OW28330   2.209   1.150   4.717 -0.1117  0.0597  0.6133
 5565SOL    HW128331   2.114   1.165   4.714 -0.2914 -1.2570 -0.3451
 5565SOL    HW228332   2.220   1.134   4.811 -0.2029  0.3497  0.6743
 5566SOL     OW28333   3.054   1.083  13.467 -0.4366  0.1863  0.6337
 5566SOL    HW128334   2.999   1.018  13.512 -2.1016 -0.0975 -1.7480
 5566SOL    HW228335   3.100   1.115  13.544  0.4710 -0.6584  0.4326
 5567SOL     OW28336   4.306   2.619  14.773  0.1473 -0.4457  0.1763
 5567SOL    HW128337   4.257   2.668  14.838  0.2516  1.0928 -0.8945
 5567SOL    HW228338   4.384   2.605  14.827  0.5718  0.5675 -0.1697
 5568SOL     OW28339   0.534   3.543   3.649 -0.3552  0.2372  0.2303
 5568SOL    HW128340   0.562   3.524   3.738  0.4509 -0.2620 -0.1348
 5568SOL    HW228341   0.485   3.624   3.663  2.2789  1.7879  0.4342
 5569SOL     OW28342   0.813   3.617   7.976 -0.9395  0.2170 -0.3262
 5569SOL    HW128343   0.845   3.621   8.066  1.0691 -0.5720 -1.0044
 5569SOL    HW228344   0.786   3.709   7.975  0.5327  0.6496 -0.1368
 5570SOL     OW28345   4.065   4.172   5.374 -0.4856  0.3003 -0.3637
 5570SOL    HW128346   4.158   4.155   5.390 -0.6374 -2.1454 -2.0319
 5570SOL    HW228347   4.057   4.247   5.433 -2.9120  0.3472 -0.7397
 5571SOL     OW28348   0.869   3.997   2.746  0.6645  0.2213  0.5263
 5571SOL    HW128349   0.956   4.031   2.726  0.1017  2.6488  2.2417
 5571SOL    HW228350   0.861   4.013   2.840 -0.5452 -1.1097  0.6416
 5572SOL     OW28351   3.574   0.876   6.374  0.3476 -0.3750  0.1894
 5572SOL    HW128352   3.564   0.828   6.291  0.1882  0.5240 -0.3138
 5572SOL    HW228353   3.535   0.959   6.348 -0.3781 -1.4169 -2.1044
 5573SOL     OW28354   3.916   1.567   1.517 -0.8899 -0.6056  0.2716
 5573SOL    HW128355   3.833   1.540   1.557  0.0266 -1.0768  1.8392
 5573SOL    HW228356   3.955   1.480   1.506  1.5394  0.5871 -0.5252
 5574SOL     OW28357   2.879   1.143   9.248 -0.2808 -0.4414 -0.3582
 5574SOL    HW128358   2.960   1.128   9.297  0.3927 -1.9056 -1.9245
 5574SOL    HW228359   2.905   1.229   9.216  2.0750 -0.9167  0.3138
 5575SOL     OW28360   0.991   1.014   5.326  0.3073 -0.5060  0.0620
 5575SOL    HW128361   0.931   0.960   5.379 -3.0743  1.2764 -1.9161
 5575SOL    HW228362   1.008   1.088   5.383 -0.5255  1.6422 -2.4901
 5576SOL     OW28363   3.143   4.003   4.952 -0.7810 -0.0957 -0.1563
 5576SOL    HW128364   3.158   3.957   4.870  0.7139 -1.0576  0.6504
 5576SOL    HW228365   3.124   4.089   4.916  0.6777  0.1377 -0.3252
 5577SOL     OW28366   2.492   2.390  17.618  0.0423 -0.6262 -0.0531
 5577SOL    HW128367   2.539   2.473  17.624 -0.1829 -0.4225 -1.1094
 5577SOL    HW228368   2.557   2.356  17.679  0.3893  0.6383  0.2786
 5578SOL     OW28369   4.208   4.147   2.898 -0.1938 -0.1108  0.2218
 5578SOL    HW128370   4.291   4.100   2.891  0.3385  0.8265  0.1286
 5578SOL    HW228371   4.184   4.137   2.806 -1.8477  1.0819  0.5249
 5579SOL     OW28372   2.537   2.284   5.140  0.1086 -0.5652  0.0926
 5579SOL    HW128373   2.590   2.340   5.197  0.5030 -1.3242  0.4714
 5579SOL    HW228374   2.576   2.315   5.059 -2.1225 -0.7666 -1.0459
 5580SOL     OW28375   0.545   4.426   9.114  0.5491 -0.6149  0.0962
 5580SOL    HW128376   0.610   4.494   9.135 -1.5872  1.1231  1.0829
 5580SOL    HW228377   0.589   4.348   9.147  1.7893 -0.2385 -0.6599
 5581SOL     OW28378   1.097   2.886  10.335  0.3719 -0.3644 -0.8491
 5581SOL    HW128379   1.185   2.858  10.360  1.3944 -0.1464 -4.1726
 5581SOL    HW228380   1.050   2.802  10.339  1.6148 -0.9338  1.4334
 5582SOL     OW28381   3.467   1.030   2.376 -0.2596  0.2826  0.0138
 5582SOL    HW128382   3.493   1.051   2.287 -0.0619  1.9227  0.4610
 5582SOL    HW228383   3.400   1.096   2.393 -1.4087 -1.7969  3.6054
 5583SOL     OW28384   3.063   4.602  17.430 -0.1177 -0.4300  0.0048
 5583SOL    HW128385   3.028   4.689  17.446 -0.3461 -0.2001 -1.8442
 5583SOL    HW228386   3.093   4.611  17.340 -1.2165  2.0066 -0.0961
 5584SOL     OW28387   1.364   2.395   5.353  0.8105 -0.7283 -0.6079
 5584SOL    HW128388   1.295   2.360   5.410  0.0174  0.6185 -0.7308
 5584SOL    HW228389   1.418   2.454   5.405  0.6294 -0.9708 -0.1399
 5585SOL     OW28390   0.293   3.230   8.013  0.4491  0.1110 -0.2082
 5585SOL    HW128391   0.233   3.302   7.994  0.9978  0.7128  0.3163
 5585SOL    HW228392   0.333   3.272   8.089  1.5803  1.0199 -1.3093
 5586SOL     OW28393   2.903   3.572   9.379  0.7774  0.7558  0.0564
 5586SOL    HW128394   2.840   3.509   9.414 -0.6834  1.3844 -1.4463
 5586SOL    HW228395   2.881   3.651   9.428 -2.3906  1.5685 -2.6812
 5587SOL     OW28396   0.847   3.641   7.253 -0.4986  0.4546  0.5497
 5587SOL    HW128397   0.774   3.699   7.227 -0.3185  0.7358  0.6693
 5587SOL    HW228398   0.872   3.696   7.327  1.5637 -0.1607  0.3005
 5588SOL     OW28399   2.854   3.186  12.068 -0.8653 -0.4675  0.0435
 5588SOL    HW128400   2.865   3.207  11.975 -0.7771 -0.6032  0.0232
 5588SOL    HW228401   2.763   3.155  12.066 -0.4345 -1.7669  1.0315
 5589SOL     OW28402   4.486   0.766   9.956  0.3929 -0.2519 -0.0189
 5589SOL    HW128403   4.465   0.698   9.891 -0.1407  0.8215 -0.9531
 5589SOL    HW228404   4.551   0.717  10.006  1.6087  3.0597  1.6191
 5590SOL     OW28405   4.479   1.397  11.063  0.1146  0.3184  0.0911
 5590SOL    HW128406   4.537   1.321  11.064 -0.6081 -0.2528 -0.5762
 5590SOL    HW228407   4.510   1.423  10.976  0.2708  2.4645  0.8016
 5591SOL     OW28408   4.078   2.267   8.494 -0.1424 -0.0061  0.4366
 5591SOL    HW128409   4.154   2.326   8.497  0.0620 -0.1802 -1.1869
 5591SOL    HW228410   4.118   2.182   8.473 -1.3324 -0.1841 -1.1392
 5592SOL     OW28411   1.165   3.599   6.120 -0.3273  0.4793 -0.4451
 5592SOL    HW128412   1.255   3.573   6.103 -0.2666  1.4280 -1.5530
 5592SOL    HW228413   1.127   3.512   6.111  1.1753 -0.3394  1.1457
 5593SOL     OW28414   0.437   3.714   3.890 -0.5382 -0.1470  0.3490
 5593SOL    HW128415   0.366   3.739   3.831  0.9844 -2.2525 -2.3779
 5593SOL    HW228416   0.383   3.650   3.936 -1.4395  0.6958  0.4789
 5594SOL     OW28417   1.509   4.123  11.315 -0.2451  0.4226  0.0895
 5594SOL    HW128418   1.488   4.069  11.391 -0.4868  0.3606 -0.0216
 5594SOL    HW228419   1.474   4.208  11.342 -0.1226  1.0258 -1.6461
 5595SOL     OW28420   1.670   3.571   5.486 -0.0941  0.4239  0.5438
 5595SOL    HW128421   1.609   3.498   5.472  2.3608 -1.0506 -2.5013
 5595SOL    HW228422   1.642   3.592   5.575 -1.3916  1.8754 -0.1853
 5596SOL     OW28423   2.858   0.578   0.760  0.3480  0.2591  0.3864
 5596SOL    HW128424   2.934   0.521   0.747 -0.6315 -0.8527 -0.4693
 5596SOL    HW228425   2.810   0.524   0.823  0.6714  0.5447  0.8807
 5597SOL     OW28426   3.946   3.716   3.031  0.1296 -0.0701  0.2395
 5597SOL    HW128427   4.022   3.763   3.066 -0.6330 -0.4637  2.3755
 5597SOL    HW228428   3.878   3.718   3.098 -0.6554  0.1700 -0.5722
 5598SOL     OW28429   0.878   4.606   7.368 -0.3026 -0.1148  0.1689
 5598SOL    HW128430   0.953   4.641   7.320  0.9143  2.5840  3.9734
 5598SOL    HW228431   0.817   4.614   7.295  1.2589  0.7325 -1.0251
 5599SOL     OW28432   3.702   0.360  15.420 -0.1838  0.8046  0.1348
 5599SOL    HW128433   3.612   0.370  15.387 -0.3953 -1.1141  0.1416
 5599SOL    HW228434   3.758   0.377  15.344  1.8027 -1.8859  1.0028
 5600SOL     OW28435   3.031   1.386  12.005  0.4267  0.3442 -0.2331
 5600SOL    HW128436   3.013   1.413  11.914  0.9488 -0.5483 -0.5986
 5600SOL    HW228437   3.021   1.464  12.059 -1.2071 -0.6473  0.9001
 5601SOL     OW28438   2.083   1.475   8.239 -0.0716  0.8153  0.5353
 5601SOL    HW128439   2.028   1.408   8.199  1.2888  1.2068 -2.0191
 5601SOL    HW228440   2.149   1.420   8.279 -0.6340  1.5318  2.4432
 5602SOL     OW28441   0.926   0.119   7.618  0.5191 -0.5899 -0.1630
 5602SOL    HW128442   0.896   0.178   7.548  0.3033 -0.1569  0.2945
 5602SOL    HW228443   0.908   0.168   7.698 -1.4108  0.5045 -1.2721
 5603SOL     OW28444   0.118   1.804  15.561 -0.0480 -0.1216  0.3050
 5603SOL    HW128445   0.137   1.874  15.624  1.9046  0.3305 -0.8087
 5603SOL    HW228446   0.135   1.728  15.617 -0.5190 -2.4173 -2.7005
 5604SOL     OW28447   4.244   2.110  11.160 -1.3290  0.3220  0.0382
 5604SOL    HW128448   4.322   2.056  11.153 -2.4289 -1.3119  0.2093
 5604SOL    HW228449   4.225   2.096  11.253  0.0578 -0.1546  0.2422
 5605SOL     OW28450   2.868   1.977   8.477  0.1786  0.6395 -0.3830
 5605SOL    HW128451   2.870   1.978   8.381 -2.6602 -0.6446 -0.4567
 5605SOL    HW228452   2.807   2.048   8.493 -1.8185 -0.9919 -0.6920
 5606SOL     OW28453   3.453   3.891  13.318 -0.2969  0.1266  0.0228
 5606SOL    HW128454   3.377   3.875  13.374 -0.2505  1.5936  0.4919
 5606SOL    HW228455   3.528   3.871  13.373 -0.5773 -1.1496 -0.0663
 5607SOL     OW28456   3.612   2.078   3.213  0.0715  0.7248 -0.2827
 5607SOL    HW128457   3.644   1.990   3.233 -3.1429 -0.4867 -0.5191
 5607SOL    HW228458   3.526   2.056   3.176 -0.4181  0.7079  0.8739
 5608SOL     OW28459   2.826   1.616   3.585 -0.3826  0.4870  0.1157
 5608SOL    HW128460   2.786   1.681   3.528  1.1504  0.7757 -0.6367
 5608SOL    HW228461   2.776   1.631   3.666  0.0956  2.0661  0.1159
 5609SOL     OW28462   2.859   1.848  15.401  0.1972  0.2458 -0.1844
 5609SOL    HW128463   2.820   1.899  15.330 -1.0249  0.9634  1.0015
 5609SOL    HW228464   2.818   1.891  15.477  1.8105  0.4111  0.5842
 5610SOL     OW28465   2.341   1.396   5.230 -0.3428  0.0976 -0.1830
 5610SOL    HW128466   2.344   1.360   5.142  1.7986  1.1116 -0.5404
 5610SOL    HW228467   2.320   1.490   5.225 -0.9505 -0.1101 -1.6611
 5611SOL     OW28468   0.630   0.624   4.751  0.0721 -0.1011  0.2511
 5611SOL    HW128469   0.659   0.715   4.753 -1.3407  0.3564  0.2379
 5611SOL    HW228470   0.655   0.595   4.663 -0.2363  1.3300 -0.2970
 5612SOL     OW28471   2.321   4.569  15.530  0.3106 -0.0910 -0.0463
 5612SOL    HW128472   2.380   4.521  15.587 -0.6151 -1.3525 -0.1485
 5612SOL    HW228473   2.383   4.629  15.489  0.6763 -0.5037 -0.0861
 5613SOL     OW28474   1.591   1.106  16.273  0.2668  0.3284 -0.5038
 5613SOL    HW128475   1.549   1.192  16.277 -0.5319 -0.0302 -1.0953
 5613SOL    HW228476   1.542   1.060  16.205 -0.3854  0.6500 -0.2494
 5614SOL     OW28477   2.891   0.371   5.185  0.3324  0.2386 -0.8643
 5614SOL    HW128478   2.827   0.332   5.244  0.6763  1.6314  0.4208
 5614SOL    HW228479   2.975   0.350   5.227  1.1511  0.6573 -2.2807
 5615SOL     OW28480   4.549   1.998   6.060  0.2355  0.1779 -0.0009
 5615SOL    HW128481   4.549   1.993   5.964  0.2243  0.0415  0.0063
 5615SOL    HW228482   4.604   1.922   6.077  0.2122  0.6604  2.1842
 5616SOL     OW28483   1.534   1.222   4.848 -0.6103 -0.9233 -0.9866
 5616SOL    HW128484   1.623   1.238   4.879 -0.8527  0.3388 -0.9471
 5616SOL    HW228485   1.509   1.147   4.902  0.4336 -0.4430  0.1576
 5617SOL     OW28486   0.618   3.818   7.164  0.5746  0.1243  0.4118
 5617SOL    HW128487   0.526   3.794   7.158 -0.1511  2.6765  1.0149
 5617SOL    HW228488   0.642   3.849   7.076 -1.0814 -1.1547 -0.4824
 5618SOL     OW28489   1.234   2.622   7.339 -0.1669 -0.2538 -0.0187
 5618SOL    HW128490   1.259   2.697   7.285  1.1830 -0.4003  0.4130
 5618SOL    HW228491   1.191   2.571   7.271 -0.2050  1.1595 -1.0516
 5619SOL     OW28492   2.451   3.053   4.695 -0.3652 -0.2129 -0.2992
 5619SOL    HW128493   2.479   2.963   4.712 -0.9173 -0.2176  0.6201
 5619SOL    HW228494   2.408   3.068   4.780 -1.5796 -0.2238 -0.9170
 5620SOL     OW28495   4.333   2.061   4.128  0.3776  0.3466 -0.1193
 5620SOL    HW128496   4.315   2.049   4.221 -0.2452  2.1708 -0.0041
 5620SOL    HW228497   4.250   2.032   4.090  1.0528  0.0570 -1.3742
 5621SOL     OW28498   2.305   3.987   4.483 -0.9152  0.4709 -0.0033
 5621SOL    HW128499   2.285   4.028   4.399 -1.7421  1.1505  0.5127
 5621SOL    HW228500   2.348   3.904   4.465 -0.3088  1.5484 -3.5839
 5622SOL     OW28501   3.903   1.727   5.708 -0.5186  0.0156  0.1557
 5622SOL    HW128502   3.873   1.700   5.795 -0.2663  0.7224  0.4598
 5622SOL    HW228503   3.959   1.653   5.683 -0.3043 -0.4203  1.8897
 5623SOL     OW28504   0.919   1.151   2.706 -0.1550  0.5064  0.0252
 5623SOL    HW128505   0.853   1.116   2.765 -0.5046  0.0770 -0.6175
 5623SOL    HW228506   0.943   1.080   2.646  1.7768  0.8945  0.3239
 5624SOL     OW28507   2.460   4.112   9.279 -0.6579  0.6754 -0.2358
 5624SOL    HW128508   2.434   4.168   9.206 -1.8618 -0.8674 -0.9862
 5624SOL    HW228509   2.456   4.025   9.238 -2.2660  0.9069 -0.5416
 5625SOL     OW28510   1.252   3.420   5.379  0.2771  0.5236  0.5688
 5625SOL    HW128511   1.234   3.489   5.443 -2.7811  0.4672 -0.2249
 5625SOL    HW228512   1.269   3.462   5.294  2.4128 -1.7804 -0.1338
 5626SOL     OW28513   2.290   1.600   3.486  0.1602  0.2934  0.2149
 5626SOL    HW128514   2.345   1.602   3.564  0.4177  0.0428  0.0419
 5626SOL    HW228515   2.340   1.541   3.429  1.8304  0.0806  1.8987
 5627SOL     OW28516   0.625   0.712   2.181 -0.2554 -0.5225  0.2794
 5627SOL    HW128517   0.611   0.689   2.089 -2.9244 -1.6190  0.9436
 5627SOL    HW228518   0.664   0.796   2.160  1.1693 -1.1797  0.2990
 5628SOL     OW28519   4.107   2.032   1.433 -0.5036 -0.0393 -0.2575
 5628SOL    HW128520   4.097   2.060   1.524 -1.2047 -2.0829  0.3084
 5628SOL    HW228521   4.198   2.053   1.412  0.4091 -4.1337 -0.4375
 5629SOL     OW28522   3.374   4.583   3.609  0.0782 -0.6207  0.0882
 5629SOL    HW128523   3.321   4.545   3.680 -0.6871  1.6179  0.7118
 5629SOL    HW228524   3.464   4.561   3.632  0.4567  0.9173  0.1066
 5630SOL     OW28525   4.256   0.181   6.529 -0.6019 -0.9356 -0.6636
 5630SOL    HW128526   4.197   0.120   6.484 -0.6349 -1.3328 -0.0931
 5630SOL    HW228527   4.342   0.143   6.512 -1.5600 -1.5777 -4.1389
 5631SOL     OW28528   4.251   3.718  12.866 -0.3275 -0.2870  0.1427
 5631SOL    HW128529   4.169   3.677  12.839 -1.9914  1.8023  2.0117
 5631SOL    HW228530   4.305   3.644  12.894 -1.7577 -1.3888 -0.0024
 5632SOL     OW28531   0.686   4.613  11.938 -0.3438 -0.1911  0.1445
 5632SOL    HW128532   0.646   4.579  12.018 -1.9479  0.6351 -0.2986
 5632SOL    HW228533   0.610   4.606  11.880  0.3654  0.9604 -0.9327
 5633SOL     OW28534   0.135   1.309   7.368 -0.4979 -0.6349  0.1769
 5633SOL    HW128535   0.070   1.281   7.304  0.7622 -0.1104 -1.3176
 5633SOL    HW228536   0.127   1.404   7.376 -2.7681 -0.5119 -3.7923
 5634SOL     OW28537   3.277   3.105   6.737 -0.2593  0.1429  0.0191
 5634SOL    HW128538   3.298   3.017   6.770 -1.4373  0.4375  1.5458
 5634SOL    HW228539   3.242   3.149   6.815  1.5938  1.7813 -0.1060
 5635SOL     OW28540   2.043   4.193   5.732 -0.3038  0.2554  0.0273
 5635SOL    HW128541   2.017   4.267   5.787 -0.1354  2.6352 -3.1077
 5635SOL    HW228542   2.131   4.170   5.762 -0.6216 -0.3291  0.4925
 5636SOL     OW28543   2.560   0.510   7.300 -0.3432 -0.0977  0.2934
 5636SOL    HW128544   2.643   0.462   7.298  0.4417  1.4253 -3.4497
 5636SOL    HW228545   2.561   0.561   7.219 -0.6031  0.6173  0.7429
 5637SOL     OW28546   4.449   2.283   2.760  0.7262  0.1782 -0.0446
 5637SOL    HW128547   4.514   2.258   2.694  0.3941 -0.4868 -0.1152
 5637SOL    HW228548   4.502   2.275   2.839 -0.5786 -1.6193  0.6433
 5638SOL     OW28549   1.529   1.649   7.632  0.7137  0.5892 -0.5251
 5638SOL    HW128550   1.570   1.717   7.579 -0.2618  0.7409 -1.1007
 5638SOL    HW228551   1.464   1.685   7.692  0.1747  0.4597 -1.0185
 5639SOL     OW28552   3.079   2.284   3.824  0.0133 -0.4182  0.1216
 5639SOL    HW128553   3.077   2.201   3.776 -0.2469 -0.5677  0.3889
 5639SOL    HW228554   2.987   2.301   3.844 -0.5207 -0.6493 -2.1816
 5640SOL     OW28555   2.931   3.544  10.412  0.0004 -0.4680 -0.1374
 5640SOL    HW128556   2.851   3.516  10.368 -0.0821 -0.5673  0.0711
 5640SOL    HW228557   2.903   3.617  10.468  1.1233  0.5407 -0.8932
 5641SOL     OW28558   1.373   1.499   8.189  0.2868  0.0241  0.1906
 5641SOL    HW128559   1.459   1.531   8.217 -0.0228  0.1743  0.9732
 5641SOL    HW228560   1.401   1.418   8.145 -0.6031 -0.6116  0.8073
 5642SOL     OW28561   1.226   3.358   1.492 -0.0497  0.2281 -0.2463
 5642SOL    HW128562   1.285   3.369   1.567  1.1279 -1.1525 -0.9517
 5642SOL    HW228563   1.263   3.419   1.429 -0.9168 -0.8533 -1.7855
 5643SOL     OW28564   2.379   0.682   5.176  0.1003  0.2566  0.5478
 5643SOL    HW128565   2.288   0.654   5.178 -0.3371  1.6841  0.7221
 5643SOL    HW228566   2.424   0.597   5.180  1.2858  0.9771  2.6202
 5644SOL     OW28567   0.520   3.144  12.996 -0.7503  0.0618 -0.5232
 5644SOL    HW128568   0.519   3.108  13.085  0.3939  3.0892  0.7101
 5644SOL    HW228569   0.589   3.206  13.019  0.6166 -2.1319  1.3343
 5645SOL     OW28570   0.598   1.668   5.550 -0.1944  0.0276 -0.2413
 5645SOL    HW128571   0.580   1.659   5.457 -2.6759  0.4596  0.1884
 5645SOL    HW228572   0.517   1.714   5.574  0.9375  2.5619 -1.3059
 5646SOL     OW28573   2.699   1.126   4.319 -0.1037  0.0762  0.0343
 5646SOL    HW128574   2.690   1.066   4.245 -1.7264  0.7129 -0.2955
 5646SOL    HW228575   2.630   1.190   4.300  0.8751  1.0546 -0.1846
 5647SOL     OW28576   1.765   2.123   0.780 -0.1812 -0.1378  0.4633
 5647SOL    HW128577   1.684   2.073   0.790  0.6894 -2.0446 -1.9631
 5647SOL    HW228578   1.775   2.125   0.685 -0.5198  1.0419  0.4485
 5648SOL     OW28579   1.656   2.610  14.756 -0.3546 -0.8588  0.3240
 5648SOL    HW128580   1.736   2.651  14.788 -1.4304  1.8750 -0.4876
 5648SOL    HW228581   1.593   2.648  14.817 -1.0163  0.2613 -1.0452
 5649SOL     OW28582   0.373   4.094  17.361 -0.0923  0.1703  0.2526
 5649SOL    HW128583   0.344   4.183  17.376 -0.2559  0.2275 -0.3996
 5649SOL    HW228584   0.292   4.045  17.379  0.7042 -1.4820 -0.5970
 5650SOL     OW28585   0.911   4.214   4.523  0.3818 -0.4649  0.0885
 5650SOL    HW128586   0.930   4.120   4.512  0.2007 -0.4870 -0.0396
 5650SOL    HW228587   0.969   4.234   4.597 -0.9571 -0.0058  1.0055
 5651SOL     OW28588   4.650   1.226   7.201  0.0215 -0.1881  0.0922
 5651SOL    HW128589   4.609   1.142   7.182  0.2085 -0.2174 -0.1804
 5651SOL    HW228590   4.579   1.290   7.209  0.8884  0.5921  1.4562
 5652SOL     OW28591   3.091   2.581   1.514  0.0187  0.0775 -0.1607
 5652SOL    HW128592   3.182   2.610   1.510  0.6729 -1.6632  2.6322
 5652SOL    HW228593   3.040   2.648   1.469  1.4116  0.6599 -0.8909
 5653SOL     OW28594   4.310   1.256   5.293  0.1467 -0.3806 -0.4268
 5653SOL    HW128595   4.341   1.232   5.206  3.5787 -0.7740  0.9076
 5653SOL    HW228596   4.242   1.318   5.268  1.2572  1.0822  0.1916
 5654SOL     OW28597   2.930   4.095   4.356 -0.2278  0.4311 -0.3241
 5654SOL    HW128598   2.973   4.026   4.306 -1.6250 -1.5508  1.2149
 5654SOL    HW228599   2.841   4.088   4.322 -0.3956 -0.2275  0.2553
 5655SOL     OW28600   3.148   4.613  17.153 -0.2950 -0.8901  0.0838
 5655SOL    HW128601   3.166   4.640  17.063 -1.1409  1.7466  0.7073
 5655SOL    HW228602   3.180   4.523  17.153  0.2205 -0.7128 -0.5447
 5656SOL     OW28603   2.429   0.236   3.685 -0.3671 -0.2461 -0.0417
 5656SOL    HW128604   2.375   0.202   3.614 -2.3930 -2.9858  2.8016
 5656SOL    HW228605   2.379   0.207   3.762 -0.4717  1.8649  0.6688
 5657SOL     OW28606   4.377   1.704   1.108  0.4895  0.2401  0.3096
 5657SOL    HW128607   4.346   1.665   1.189  2.3677  0.1043  0.9654
 5657SOL    HW228608   4.469   1.680   1.117 -0.0360 -1.3247  1.4179
 5658SOL     OW28609   2.855   3.076   1.082  0.0809 -0.2448 -0.2473
 5658SOL    HW128610   2.829   3.027   1.004 -0.8361  0.9462 -0.6958
 5658SOL    HW228611   2.793   3.149   1.089 -0.2613 -0.6177  0.6127
 5659SOL     OW28612   2.825   1.085   3.154  0.3078 -0.2261  0.7244
 5659SOL    HW128613   2.885   1.059   3.084 -1.2567  2.6491 -1.7036
 5659SOL    HW228614   2.840   1.012   3.214  1.1528 -1.1429 -0.6096
 5660SOL     OW28615   4.508   0.134   6.150  0.3732  0.1051 -0.1178
 5660SOL    HW128616   4.480   0.046   6.126 -0.4504  0.4303 -0.3624
 5660SOL    HW228617   4.535   0.124   6.241  0.2668  1.0510  0.0202
 5661SOL     OW28618   2.001   0.745   6.784  0.6347  0.5246 -0.2444
 5661SOL    HW128619   1.955   0.676   6.832 -0.3797  2.0600  0.9479
 5661SOL    HW228620   1.955   0.820   6.820  1.0244  0.9565 -0.6357
 5662SOL     OW28621   0.785   1.383   2.277 -0.1996 -0.6359  0.3695
 5662SOL    HW128622   0.851   1.374   2.346  2.6526 -0.8968 -2.3963
 5662SOL    HW228623   0.773   1.290   2.255  0.7212 -0.1228 -2.2694
 5663SOL     OW28624   0.966   1.793   5.373  0.2113  0.4645  0.5583
 5663SOL    HW128625   1.038   1.856   5.369 -0.3691  1.1596  1.0509
 5663SOL    HW228626   0.952   1.793   5.468 -1.4831  0.5791  0.3092
 5664SOL     OW28627   3.070   0.971   9.522 -0.0265 -0.8679 -0.0659
 5664SOL    HW128628   3.136   0.964   9.592  1.4187  0.3566 -1.3031
 5664SOL    HW228629   3.031   0.884   9.510 -3.1783  0.4118  1.0241
 5665SOL     OW28630   0.304   1.182   4.221 -0.4000  0.2380  0.1285
 5665SOL    HW128631   0.318   1.167   4.127 -1.6596  1.9005 -0.3124
 5665SOL    HW228632   0.268   1.270   4.223  1.3011  0.8994  1.3300
 5666SOL     OW28633   3.044   0.414   6.092 -0.2025  0.4098  0.4108
 5666SOL    HW128634   3.063   0.508   6.085 -0.6986  0.4705 -0.1746
 5666SOL    HW228635   3.092   0.367   6.024  0.5160  2.2575 -0.3709
 5667SOL     OW28636   0.452   1.966   1.883  0.1654  0.3703 -0.0815
 5667SOL    HW128637   0.419   2.022   1.813 -0.1987  1.6251  1.0899
 5667SOL    HW228638   0.546   1.983   1.871 -0.1736  1.6058 -1.0595
 5668SOL     OW28639   2.036   4.266  11.814  0.3199 -0.0867  0.0661
 5668SOL    HW128640   1.986   4.290  11.736  1.0105 -0.0083 -0.3552
 5668SOL    HW228641   1.970   4.241  11.879 -1.1381 -0.1075 -1.4293
 5669SOL     OW28642   3.633   0.003   5.050  0.2456 -0.4348 -0.7157
 5669SOL    HW128643   3.663   0.002   4.959 -2.8407  1.1830 -1.7282
 5669SOL    HW228644   3.661   0.095   5.055 -0.1227 -0.5927  3.9847
 5670SOL     OW28645   1.566   0.229  13.562 -0.3883 -0.0081  0.3835
 5670SOL    HW128646   1.496   0.167  13.541  0.6366 -1.4907  1.3443
 5670SOL    HW228647   1.573   0.289  13.487  2.0757 -2.1141 -1.0822
 5671SOL     OW28648   2.248   1.587   6.109 -0.0648  0.3626  0.4698
 5671SOL    HW128649   2.192   1.637   6.050  0.6270  0.0618 -0.4315
 5671SOL    HW228650   2.329   1.574   6.061 -1.3331  0.1053 -1.5995
 5672SOL     OW28651   2.775   1.945   4.242  0.1800 -0.1052 -0.4078
 5672SOL    HW128652   2.690   1.925   4.280  0.6195 -2.3590 -0.6269
 5672SOL    HW228653   2.790   2.037   4.264  1.2973  0.7939 -4.9735
 5673SOL     OW28654   4.241   2.790  15.115  0.2477 -0.2203 -0.0512
 5673SOL    HW128655   4.274   2.809  15.203  3.5174 -3.1517 -0.6545
 5673SOL    HW228656   4.199   2.706  15.133 -0.1733 -0.2407 -1.1350
 5674SOL     OW28657   3.738   2.865   6.104 -0.2316 -0.5203  0.4786
 5674SOL    HW128658   3.686   2.845   6.182  2.4722 -2.6510  1.7378
 5674SOL    HW228659   3.820   2.818   6.122 -0.6626 -2.1958 -1.9333
 5675SOL     OW28660   4.134   0.948   6.485  0.0150  0.0526  0.3027
 5675SOL    HW128661   4.052   0.946   6.434  1.0013 -0.5528 -1.2553
 5675SOL    HW228662   4.193   0.901   6.426 -0.0749  0.6849 -0.2988
 5676SOL     OW28663   2.384   1.087   2.543  0.0577  0.0737 -0.0275
 5676SOL    HW128664   2.288   1.096   2.542 -0.0644 -1.4343 -1.3991
 5676SOL    HW228665   2.413   1.141   2.617  0.4713  0.3036 -0.3601
 5677SOL     OW28666   0.690   2.990   3.046 -0.4344  0.2066 -0.4565
 5677SOL    HW128667   0.606   3.010   3.089 -0.4326 -0.3218 -0.1996
 5677SOL    HW228668   0.747   2.965   3.119 -2.1195 -1.2244  0.3757
 5678SOL     OW28669   3.219   3.107   1.661 -0.3204  0.1564  0.1945
 5678SOL    HW128670   3.159   3.163   1.613  1.4085  1.7512 -0.1159
 5678SOL    HW228671   3.177   3.108   1.747 -0.7555 -0.3113 -0.0177
 5679SOL     OW28672   1.307   3.769   2.655 -0.2014 -0.1261  0.2486
 5679SOL    HW128673   1.364   3.837   2.618 -1.1413  0.6799  0.2903
 5679SOL    HW228674   1.352   3.686   2.642 -0.8085 -0.5792  1.0447
 5680SOL     OW28675   3.218   1.302  15.734 -0.0594 -0.7443  0.5541
 5680SOL    HW128676   3.187   1.370  15.675 -1.0206  0.6585  2.6722
 5680SOL    HW228677   3.259   1.245  15.669 -0.9648 -0.0021 -0.6652
 5681SOL     OW28678   1.445   2.691   1.539  0.2257 -0.0441 -0.4410
 5681SOL    HW128679   1.389   2.736   1.477 -1.5706  1.7140  2.4746
 5681SOL    HW228680   1.514   2.658   1.482 -0.2511  0.0768 -1.0802
 5682SOL     OW28681   0.363   1.680   8.303  0.1258 -0.1888 -0.2189
 5682SOL    HW128682   0.335   1.749   8.363  1.1164 -0.6205  0.7321
 5682SOL    HW228683   0.284   1.638   8.270  1.0603 -0.4825 -2.0681
 5683SOL     OW28684   1.921   3.509   2.200 -0.0680 -0.1964 -0.4430
 5683SOL    HW128685   1.941   3.597   2.168  2.7015 -1.4813 -2.2849
 5683SOL    HW228686   2.002   3.464   2.176 -0.1471  0.0388 -1.1769
 5684SOL     OW28687   0.406   2.897  16.495 -0.5383  0.4012 -0.2929
 5684SOL    HW128688   0.320   2.931  16.471 -0.3575  0.6029 -0.6519
 5684SOL    HW228689   0.465   2.936  16.431  1.1713  0.3439  1.2359
 5685SOL     OW28690   0.134   2.067   6.348 -0.4710  0.1344  0.0739
 5685SOL    HW128691   0.176   2.126   6.286  0.2292  0.9015  1.2732
 5685SOL    HW228692   0.042   2.091   6.334 -0.5146 -0.2407 -0.2653
 5686SOL     OW28693   0.229   2.496   8.122 -0.3379  0.5724  0.1719
 5686SOL    HW128694   0.172   2.537   8.056  1.1356 -0.1313 -1.5309
 5686SOL    HW228695   0.226   2.566   8.188  0.0850  0.8736 -0.1228
 5687SOL     OW28696   0.211   1.923  12.361  0.0200  0.1622  0.2464
 5687SOL    HW128697   0.249   1.894  12.278  1.4688  1.3812  0.4907
 5687SOL    HW228698   0.290   1.950  12.408 -1.1849  2.2808  1.0468
 5688SOL     OW28699   4.373   1.440  10.419 -0.0343 -0.0337 -0.0115
 5688SOL    HW128700   4.450   1.390  10.392  0.5223 -0.1302  1.7393
 5688SOL    HW228701   4.368   1.413  10.511  0.0134  2.9187  0.8614
 5689SOL     OW28702   4.227   1.331   0.469  0.2342 -0.5085  0.4140
 5689SOL    HW128703   4.252   1.418   0.501  1.2830 -0.6044 -0.1562
 5689SOL    HW228704   4.212   1.336   0.375 -3.4731  1.4885  1.1106
 5690SOL     OW28705   0.628   3.827  13.870  0.1250 -0.1749  0.3690
 5690SOL    HW128706   0.598   3.891  13.806  0.0581 -0.5914 -0.0165
 5690SOL    HW228707   0.562   3.831  13.939 -0.8826  0.1655 -0.6345
 5691SOL     OW28708   0.989   1.816   1.779 -0.3476 -0.8391 -0.2914
 5691SOL    HW128709   0.983   1.721   1.763 -0.7002 -1.1008  1.3540
 5691SOL    HW228710   1.076   1.825   1.818  0.3734  0.4165 -2.2559
 5692SOL     OW28711   2.491   0.113   4.469 -1.0413  0.2285  0.5712
 5692SOL    HW128712   2.409   0.161   4.455  0.3069  2.5141  0.3709
 5692SOL    HW228713   2.513   0.134   4.560  2.3308  1.5743 -0.5310
 5693SOL     OW28714   3.911   4.383   2.624  0.0465 -0.1638  0.0446
 5693SOL    HW128715   3.882   4.295   2.649  0.4969  0.5528  3.0778
 5693SOL    HW228716   3.943   4.362   2.537  2.0076 -0.1824  0.7674
 5694SOL     OW28717   2.227   2.537   0.224  0.3080 -0.4607  0.1099
 5694SOL    HW128718   2.296   2.600   0.205 -0.2772  0.4308  0.8871
 5694SOL    HW228719   2.237   2.477   0.151 -3.1476  0.1096 -0.8283
 5695SOL     OW28720   4.546   4.157  16.148 -0.2589 -0.0411  0.2147
 5695SOL    HW128721   4.513   4.067  16.148 -0.4167  0.0206 -2.4752
 5695SOL    HW228722   4.483   4.189  16.083  0.3892 -2.4771 -1.6470
 5696SOL     OW28723   0.124   1.246   9.198 -0.4283  0.3173 -0.0773
 5696SOL    HW128724   0.211   1.254   9.160  0.6193 -0.4493  2.1255
 5696SOL    HW228725   0.102   1.156   9.172 -3.5290  0.5429  1.7029
 5697SOL     OW28726   4.287   2.253   8.205 -0.8883  0.3157  0.0641
 5697SOL    HW128727   4.306   2.225   8.294  0.0758 -0.3627 -0.3494
 5697SOL    HW228728   4.197   2.220   8.198 -1.2248  1.5963 -1.7281
 5698SOL     OW28729   3.460   2.572   3.830 -0.0096  0.0916  0.1183
 5698SOL    HW128730   3.449   2.646   3.770  0.6682  1.9556  2.3011
 5698SOL    HW228731   3.389   2.589   3.892 -0.9516 -1.1924 -0.6193
 5699SOL     OW28732   0.838   1.171   6.515  0.1678  0.0333 -0.4366
 5699SOL    HW128733   0.792   1.099   6.471  0.7020  0.1573 -1.1901
 5699SOL    HW228734   0.779   1.242   6.491  0.0056  0.0971  0.1470
 5700SOL     OW28735   3.978   1.056   7.663  0.3806  0.0889 -0.1449
 5700SOL    HW128736   3.894   1.054   7.617  1.4022 -0.0455 -2.0082
 5700SOL    HW228737   3.948   1.093   7.746  1.9601 -0.1407  0.5348
 5701SOL     OW28738   1.868   0.043   7.025 -0.3762 -0.2574  0.2127
 5701SOL    HW128739   1.845   0.044   7.118  0.6363  0.9422  0.4457
 5701SOL    HW228740   1.954   0.001   7.031  0.3999  1.2415 -0.3840
 5702SOL     OW28741   2.441   2.040   7.258  0.0171 -0.4846 -0.0982
 5702SOL    HW128742   2.530   2.074   7.271  0.6438 -2.2561  0.3614
 5702SOL    HW228743   2.406   2.026   7.346  1.9452 -0.4720  0.6786
 5703SOL     OW28744   0.123   0.350  14.996 -0.2477  0.1423  0.1874
 5703SOL    HW128745   0.053   0.412  15.014  0.4043  0.7967  0.4378
 5703SOL    HW228746   0.200   0.406  14.991  1.1301 -1.8886 -1.6094
 5704SOL     OW28747   0.730   0.748   0.959 -0.3730 -0.4156 -0.0098
 5704SOL    HW128748   0.749   0.840   0.940  1.0896 -0.4962  1.0790
 5704SOL    HW228749   0.636   0.742   0.943 -0.4742  0.0240  0.4136
 5705SOL     OW28750   0.291   0.383  13.004 -0.0234 -0.5196 -0.0275
 5705SOL    HW128751   0.353   0.316  12.974 -0.6106 -1.0976  0.0445
 5705SOL    HW228752   0.237   0.332  13.065  0.4402  0.0626  0.8869
 5706SOL     OW28753   3.154   3.750   6.269  0.5395 -0.5339  0.1923
 5706SOL    HW128754   3.077   3.787   6.312 -0.6455 -1.1854 -1.3659
 5706SOL    HW228755   3.139   3.656   6.273  1.9183 -0.8842 -2.4372
 5707SOL     OW28756   2.105   1.138   9.631 -0.1365 -0.3104 -0.0509
 5707SOL    HW128757   2.183   1.192   9.617  0.8374 -2.1794 -2.0102
 5707SOL    HW228758   2.140   1.050   9.614  1.6772  0.0026  2.1153
 5708SOL     OW28759   2.816   2.151   4.763  0.6124 -0.1847 -0.4050
 5708SOL    HW128760   2.865   2.081   4.719 -0.8571 -2.8587  2.2062
 5708SOL    HW228761   2.801   2.099   4.842 -0.6777  1.2370  0.2955
 5709SOL     OW28762   0.005   3.511  11.069 -0.1285  0.0959 -0.0822
 5709SOL    HW128763   0.017   3.443  11.135 -1.2220 -0.0651 -0.0489
 5709SOL    HW228764   0.092   3.550  11.081  0.0116  0.0153 -0.8348
 5710SOL     OW28765   4.248   3.963   1.635  0.0952 -0.0586  0.0850
 5710SOL    HW128766   4.160   3.945   1.604 -0.3758 -0.6887  1.7682
 5710SOL    HW228767   4.238   4.000   1.723  0.2969 -2.4865  1.1242
 5711SOL     OW28768   2.728   4.247   5.481  0.4437  0.4984 -0.4003
 5711SOL    HW128769   2.707   4.154   5.486 -0.4415  0.7158 -0.0776
 5711SOL    HW228770   2.800   4.246   5.544 -0.0054 -2.6269  0.0701
 5712SOL     OW28771   1.414   0.440   5.942 -0.5340 -0.2997 -0.4719
 5712SOL    HW128772   1.433   0.348   5.957 -0.8899 -1.0305 -4.5497
 5712SOL    HW228773   1.500   0.480   5.956  0.5974 -2.5538 -0.9719
 5713SOL     OW28774   3.255   4.715   4.478 -0.0693 -0.8571 -0.0800
 5713SOL    HW128775   3.233   4.658   4.552  0.7782 -1.2161 -0.0977
 5713SOL    HW228776   3.350   4.703   4.486 -0.4094 -2.9473  0.8263
 5714SOL     OW28777   1.518   1.893   2.849 -0.3795  0.0719 -0.2661
 5714SOL    HW128778   1.518   1.866   2.941  0.3448  0.8336 -0.0482
 5714SOL    HW228779   1.609   1.914   2.828 -1.1911  1.0601 -2.7153
 5715SOL     OW28780   1.698   0.876   2.946  0.1156  0.4120  0.0763
 5715SOL    HW128781   1.604   0.868   2.964 -0.2286  1.3584 -1.3019
 5715SOL    HW228782   1.703   0.858   2.852  0.7634  0.3349  0.1281
 5716SOL     OW28783   0.737   4.579   2.382  0.2657  0.3337  0.3093
 5716SOL    HW128784   0.721   4.557   2.473  1.2749 -4.0475 -0.5815
 5716SOL    HW228785   0.793   4.505   2.362  0.8763  0.8065  0.2731
 5717SOL     OW28786   1.538   4.621   2.570 -0.0871  0.0285 -0.3162
 5717SOL    HW128787   1.502   4.684   2.632 -0.9504 -1.5359  0.7752
 5717SOL    HW228788   1.593   4.678   2.516  0.8865  0.5725  1.2640
 5718SOL     OW28789   4.044   1.783  11.272  0.7089  0.5517  0.1684
 5718SOL    HW128790   4.079   1.721  11.208 -3.6555 -1.7249  0.0369
 5718SOL    HW228791   3.968   1.740  11.311  1.1294 -0.2147  0.1352
 5719SOL     OW28792   2.340   4.052  11.124  0.3972  0.3230 -0.0416
 5719SOL    HW128793   2.264   4.043  11.067  0.8662  0.3968 -0.6810
 5719SOL    HW228794   2.419   4.034  11.072  0.8415  2.3619 -0.0702
 5720SOL     OW28795   0.766   1.975  15.748 -0.0055 -0.5136 -0.5929
 5720SOL    HW128796   0.801   1.999  15.662  0.1802  0.0406 -0.3587
 5720SOL    HW228797   0.787   1.882  15.758 -0.6190 -0.6659 -0.6835
 5721SOL     OW28798   4.085   3.498   3.418 -0.3477 -0.3109 -0.1980
 5721SOL    HW128799   4.050   3.585   3.399  0.3836 -0.4264 -2.0920
 5721SOL    HW228800   4.017   3.439   3.386 -0.2036 -1.7599  2.2137
 5722SOL     OW28801   1.359   0.731   7.190  0.0865  0.2547 -0.3410
 5722SOL    HW128802   1.375   0.782   7.270  1.8288 -1.1594  0.2011
 5722SOL    HW228803   1.313   0.795   7.135 -2.1999  0.0402  1.2985
 5723SOL     OW28804   0.635   1.327   9.325 -0.0231  0.6138 -0.1472
 5723SOL    HW128805   0.675   1.327   9.237 -1.1915 -1.6656 -0.6710
 5723SOL    HW228806   0.705   1.305   9.386 -0.7682 -0.9229  0.1597
 5724SOL     OW28807   2.792   3.630  15.429 -0.1099 -0.0378 -0.0402
 5724SOL    HW128808   2.711   3.678  15.446 -0.8739 -1.3017 -0.0906
 5724SOL    HW228809   2.828   3.629  15.518 -0.6204  1.4599  0.1784
 5725SOL     OW28810   2.138   4.056   7.652  0.2394 -0.3905  0.0598
 5725SOL    HW128811   2.120   4.004   7.731 -0.4057  0.1884  0.2994
 5725SOL    HW228812   2.060   4.039   7.600  0.4334 -0.3466 -0.2427
 5726SOL     OW28813   3.116   4.254   1.206  0.2973  0.0654 -0.5530
 5726SOL    HW128814   3.178   4.319   1.174  0.9010 -0.1216  0.2256
 5726SOL    HW228815   3.039   4.301   1.175  0.0349 -1.2768 -1.9681
 5727SOL     OW28816   1.531   3.780   3.964  0.1095  0.8928  0.3435
 5727SOL    HW128817   1.475   3.856   3.945 -1.8105 -0.6282 -0.1159
 5727SOL    HW228818   1.595   3.822   4.021 -0.9399 -0.3835  2.4810
 5728SOL     OW28819   4.072   1.428   6.601  0.0685 -0.4865  0.0195
 5728SOL    HW128820   4.112   1.342   6.585  1.9883  0.5960 -1.0749
 5728SOL    HW228821   4.027   1.436   6.517  0.9234  1.5607 -0.2370
 5729SOL     OW28822   2.175   3.828  15.506  0.2252  0.1874  0.3560
 5729SOL    HW128823   2.166   3.771  15.430  3.1344  1.7995 -1.1840
 5729SOL    HW228824   2.092   3.811  15.551 -0.2060  1.4098  0.0288
 5730SOL     OW28825   0.667   3.542   2.727 -0.5428  0.2430 -0.0742
 5730SOL    HW128826   0.723   3.494   2.666 -0.4356  0.0838  0.1467
 5730SOL    HW228827   0.585   3.492   2.720 -0.4118  0.1082 -0.6320
 5731SOL     OW28828   1.868   0.979   7.584  0.4425  0.3089  0.7235
 5731SOL    HW128829   1.780   0.959   7.551  1.2882 -1.0507 -0.7632
 5731SOL    HW228830   1.898   1.029   7.507  0.0882  0.8974  0.9692
 5732SOL     OW28831   2.170   0.814  10.346 -0.0084 -0.0101 -0.3055
 5732SOL    HW128832   2.169   0.766  10.428  0.0618  0.6249  0.0673
 5732SOL    HW228833   2.222   0.888  10.375 -0.9812  0.1055  1.1353
 5733SOL     OW28834   0.888   0.084   2.348 -0.2176  0.0047  0.3075
 5733SOL    HW128835   0.933   0.093   2.432 -0.8093  0.9467  0.5274
 5733SOL    HW228836   0.835   0.005   2.361 -0.0080 -0.5564 -2.1263
 5734SOL     OW28837   2.218   2.042   6.792  1.0141  0.0884  0.6773
 5734SOL    HW128838   2.227   2.079   6.880 -2.3343  0.1358  0.9916
 5734SOL    HW228839   2.282   1.972   6.805  0.9106  0.0483  0.9601
 5735SOL     OW28840   2.962   4.080   5.140  0.0975  0.1356 -0.0049
 5735SOL    HW128841   3.007   4.030   5.072  0.7117  0.0815  0.4408
 5735SOL    HW228842   3.032   4.143   5.155  0.1071  0.2897 -0.6848
 5736SOL     OW28843   3.543   0.199   7.374  0.6514  0.5493  0.1651
 5736SOL    HW128844   3.626   0.243   7.360  0.4961  0.3772 -1.3390
 5736SOL    HW228845   3.563   0.163   7.460 -0.9572 -1.5121 -0.3109
 5737SOL     OW28846   1.515   1.766   2.604 -0.3005  0.0767  0.2171
 5737SOL    HW128847   1.540   1.675   2.620  1.7222  0.6767  0.5040
 5737SOL    HW228848   1.494   1.797   2.693  0.1756 -0.2527  0.4468
 5738SOL     OW28849   4.401   3.385   8.345  0.0665  0.3513  0.0419
 5738SOL    HW128850   4.357   3.301   8.340 -1.0993  0.9734 -0.0515
 5738SOL    HW228851   4.465   3.374   8.274 -0.2062 -3.4858  0.4219
 5739SOL     OW28852   0.733   2.287   4.871  0.0370 -0.4056 -0.0253
 5739SOL    HW128853   0.739   2.376   4.905  1.5650 -0.6277  0.2934
 5739SOL    HW228854   0.679   2.290   4.793 -0.8836 -0.7079  0.5995
 5740SOL     OW28855   4.145   3.486   3.677  0.3905 -0.0225 -0.4536
 5740SOL    HW128856   4.137   3.485   3.581  2.1387  1.2721 -0.6292
 5740SOL    HW228857   4.065   3.534   3.699  1.1276  0.9117  0.2006
 5741SOL     OW28858   1.570   4.414   7.166 -0.1870  0.0118 -0.2742
 5741SOL    HW128859   1.492   4.454   7.203  0.5506  2.4036 -1.2640
 5741SOL    HW228860   1.557   4.443   7.075  2.6797  2.2932  0.0378
 5742SOL     OW28861   3.310   3.065   5.934  0.3487  0.7119  0.6666
 5742SOL    HW128862   3.341   2.998   5.995 -0.4558  1.3121  1.7348
 5742SOL    HW228863   3.357   3.144   5.960  1.4629 -0.7030  2.9566
 5743SOL     OW28864   3.170   0.134  17.298  0.2230 -0.0658  0.0578
 5743SOL    HW128865   3.192   0.055  17.250 -0.4121 -0.3620  0.2466
 5743SOL    HW228866   3.101   0.169  17.242 -0.3071  2.2809  2.1469
 5744SOL     OW28867   2.774   3.058   1.516 -0.9548  0.3492  0.2868
 5744SOL    HW128868   2.721   3.064   1.437  0.9215  0.0674 -0.9842
 5744SOL    HW228869   2.724   3.031   1.594  0.4259 -1.1575  0.6471
 5745SOL     OW28870   0.186   2.884   5.312 -0.2189  0.0121 -0.0467
 5745SOL    HW128871   0.240   2.816   5.353 -0.0090 -0.1689 -0.6134
 5745SOL    HW228872   0.232   2.964   5.336 -1.4355  0.1459  1.8228
 5746SOL     OW28873   2.529   1.994  16.871 -0.3625 -0.0398  0.4041
 5746SOL    HW128874   2.535   2.084  16.840 -0.3670  0.1832  1.0472
 5746SOL    HW228875   2.612   1.979  16.917  1.1815 -1.8189 -2.9167
 5747SOL     OW28876   0.417   0.903   7.490 -0.0993 -0.0629 -0.3400
 5747SOL    HW128877   0.356   0.957   7.440 -0.7348 -0.1391  0.3565
 5747SOL    HW228878   0.394   0.821   7.446  1.5230 -0.0739 -1.1692
 5748SOL     OW28879   1.832   4.233   3.585 -0.0343  0.2863  0.1039
 5748SOL    HW128880   1.787   4.153   3.558 -0.1968 -0.2453  1.9629
 5748SOL    HW228881   1.764   4.293   3.616  0.0472  0.2749  0.3088
 5749SOL     OW28882   4.459   2.992  12.225  0.3534  0.0240  0.0991
 5749SOL    HW128883   4.465   3.015  12.318  1.4413  1.7329 -0.4068
 5749SOL    HW228884   4.545   2.958  12.202  1.0952  1.5326  0.6673
 5750SOL     OW28885   4.441   3.183   1.158  0.2101 -0.3454 -0.5866
 5750SOL    HW128886   4.450   3.108   1.099  0.1604 -1.4536  0.8192
 5750SOL    HW228887   4.346   3.189   1.152 -0.0154 -2.7673  0.3422
 5751SOL     OW28888   1.460   0.490   7.493 -0.1907 -0.4125 -0.2788
 5751SOL    HW128889   1.524   0.555   7.522 -1.1066  0.9227 -1.3092
 5751SOL    HW228890   1.515   0.426   7.447 -0.1590  0.9605 -2.1072
 5752SOL     OW28891   2.102   1.992   4.403  0.3458  0.3234  0.6637
 5752SOL    HW128892   2.139   1.904   4.393  0.9122  0.5029  1.1422
 5752SOL    HW228893   2.012   1.970   4.426 -0.0547  2.6970  1.3621
 5753SOL     OW28894   4.279   3.942  10.758  0.3098 -0.2269 -0.3490
 5753SOL    HW128895   4.307   3.904  10.674 -2.9983  1.3887 -2.2039
 5753SOL    HW228896   4.336   4.018  10.768 -1.7461  1.3291 -0.2043
 5754SOL     OW28897   4.268   1.095  12.627  0.4334  0.0336 -0.3289
 5754SOL    HW128898   4.269   1.051  12.712 -1.2630 -0.9884 -0.8336
 5754SOL    HW228899   4.257   1.183  12.661  0.2339  0.1192 -0.6092
 5755SOL     OW28900   2.255   0.716  13.910  0.3460 -0.4269  0.3833
 5755SOL    HW128901   2.332   0.662  13.928  1.0514  0.0023 -1.3124
 5755SOL    HW228902   2.292   0.747  13.827  0.1767 -0.3175  0.3478
 5756SOL     OW28903   4.169   1.889   2.781 -0.0988 -0.2664  0.4285
 5756SOL    HW128904   4.196   1.947   2.711 -0.8444  0.1971  0.5216
 5756SOL    HW228905   4.104   1.943   2.826  0.5197 -0.3949  1.4730
 5757SOL     OW28906   4.470   3.817   5.427  0.7997  0.3193 -0.6284
 5757SOL    HW128907   4.389   3.807   5.476  0.1615  1.8168 -1.3933
 5757SOL    HW228908   4.460   3.753   5.356 -1.5803 -0.0314  0.0414
 5758SOL     OW28909   3.282   1.356   1.886  0.0276  0.2756 -0.0801
 5758SOL    HW128910   3.196   1.345   1.845 -0.2499 -0.0646  0.5804
 5758SOL    HW228911   3.298   1.447   1.860 -2.9522  0.9725  0.5005
 5759SOL     OW28912   1.649   0.283   3.979 -0.1645 -0.2157 -0.1459
 5759SOL    HW128913   1.564   0.313   4.010 -0.2368 -0.0233 -0.5366
 5759SOL    HW228914   1.708   0.342   4.026 -1.5879  0.1864  1.1048
 5760SOL     OW28915   0.288   2.211   0.236 -0.3536  0.5398 -0.3845
 5760SOL    HW128916   0.317   2.128   0.199  0.7090  0.3840  0.8108
 5760SOL    HW228917   0.204   2.214   0.190 -1.4216 -0.1856  1.5544
 5761SOL     OW28918   4.350   2.900   7.552 -0.6915  0.3140  0.5605
 5761SOL    HW128919   4.322   2.897   7.461 -0.2478 -1.5560  0.4906
 5761SOL    HW228920   4.426   2.958   7.556 -0.7478  0.5004 -1.1828
 5762SOL     OW28921   0.996   2.693   7.511 -0.3023 -0.3267 -0.0936
 5762SOL    HW128922   1.024   2.774   7.467 -0.7682 -0.0426  0.1315
 5762SOL    HW228923   1.083   2.660   7.534 -0.4209  0.0293  0.8539
 5763SOL     OW28924   4.594   4.591   5.416 -0.1571 -0.1042  0.0354
 5763SOL    HW128925   4.624   4.663   5.361 -0.8980  1.0140  1.0970
 5763SOL    HW228926   4.535   4.636   5.477 -1.0458  0.1097 -0.9792
 5764SOL     OW28927   3.048   2.352   0.734 -0.4606 -0.0384  0.1025
 5764SOL    HW128928   3.121   2.331   0.792 -1.0003 -0.7710  0.5156
 5764SOL    HW228929   3.028   2.264   0.702  0.8372  0.0522 -0.9702
 5765SOL     OW28930   1.629   0.438   9.726 -0.3966  0.2628  0.2618
 5765SOL    HW128931   1.672   0.523   9.725  0.7743 -0.3384 -0.3700
 5765SOL    HW228932   1.649   0.420   9.817  0.5145  1.5122  0.3065
 5766SOL     OW28933   2.918   0.607  10.073 -0.3408 -0.5086  0.0780
 5766SOL    HW128934   2.879   0.556  10.002  0.9683 -1.1824 -0.1536
 5766SOL    HW228935   2.888   0.695  10.050  0.1952 -0.8716 -2.0556
 5767SOL     OW28936   0.836   4.485   1.957 -0.3872 -0.1142  0.1027
 5767SOL    HW128937   0.875   4.400   1.937  0.1470  0.5748 -1.8140
 5767SOL    HW228938   0.742   4.469   1.956 -0.6384  1.6180 -2.6503
 5768SOL     OW28939   3.568   1.053   3.719 -0.8888 -0.2953 -0.3722
 5768SOL    HW128940   3.617   1.030   3.798 -3.0502 -1.1949  0.7181
 5768SOL    HW228941   3.574   0.978   3.660 -2.9434  1.8058 -3.2690
 5769SOL     OW28942   1.413   1.533   5.141  0.5771  0.0662 -0.3267
 5769SOL    HW128943   1.359   1.461   5.174  0.3049  0.7747  0.7670
 5769SOL    HW228944   1.426   1.500   5.052 -3.4421 -1.3346 -0.4089
 5770SOL     OW28945   3.726   2.409  11.686 -0.0704  0.1139  0.2154
 5770SOL    HW128946   3.692   2.499  11.678  0.4842  0.2644 -0.4771
 5770SOL    HW228947   3.762   2.399  11.597  4.3424  0.2000  2.0063
 5771SOL     OW28948   3.389   1.855   0.585  0.4519  0.1583  0.2236
 5771SOL    HW128949   3.409   1.941   0.624 -1.3293  0.1799  1.0913
 5771SOL    HW228950   3.413   1.799   0.659 -0.5625  0.6252  0.9117
 5772SOL     OW28951   3.896   0.452   9.545  0.1022  0.7827  0.5018
 5772SOL    HW128952   3.925   0.489   9.461  0.7059 -0.0899  0.3248
 5772SOL    HW228953   3.908   0.531   9.596  3.0188 -0.1046  1.1826
 5773SOL     OW28954   2.915   4.635   3.963 -0.0065  0.4500  0.7394
 5773SOL    HW128955   2.860   4.695   3.912  0.6628  1.1657  0.8453
 5773SOL    HW228956   2.991   4.629   3.905 -1.2403  0.0372 -0.8312
 5774SOL     OW28957   2.608   2.458   9.628  0.8518 -0.2020  0.1889
 5774SOL    HW128958   2.588   2.551   9.631  0.5112 -0.2820  0.3293
 5774SOL    HW228959   2.688   2.462   9.575  0.9341 -1.2647  0.2311
 5775SOL     OW28960   0.273   0.858   0.111 -0.0757 -0.0680  0.0267
 5775SOL    HW128961   0.304   0.775   0.147 -0.6324 -0.2618  0.0606
 5775SOL    HW228962   0.326   0.876   0.033 -0.9836  1.3606 -0.2646
 5776SOL     OW28963   1.708   4.615   7.445 -0.3552 -0.4523 -0.7134
 5776SOL    HW128964   1.777   4.682   7.445 -0.3787 -0.4343 -1.9448
 5776SOL    HW228965   1.738   4.545   7.388  0.0887 -0.3489 -0.6092
 5777SOL     OW28966   2.215   3.859  11.378  0.2879  0.2800  0.0709
 5777SOL    HW128967   2.303   3.824  11.362 -0.4003  0.2265 -3.4872
 5777SOL    HW228968   2.212   3.850  11.474  0.4752  1.2870  0.1735
 5778SOL     OW28969   1.341   1.320  10.636  0.0569 -0.2578 -0.0561
 5778SOL    HW128970   1.299   1.311  10.721 -1.7488  0.0027 -0.8992
 5778SOL    HW228971   1.424   1.275  10.648  0.3928 -0.0744 -1.6019
 5779SOL     OW28972   0.927   1.124   5.841 -0.2108  0.1042 -0.2350
 5779SOL    HW128973   0.937   1.219   5.840 -0.7696  0.1659 -0.3271
 5779SOL    HW228974   1.016   1.092   5.854 -1.6221 -3.0626  1.5667
 5780SOL     OW28975   0.139   3.622   2.145 -0.0823 -0.0232  0.6213
 5780SOL    HW128976   0.053   3.592   2.174  0.2243  0.0540  1.6288
 5780SOL    HW228977   0.157   3.564   2.071  1.4550  1.0283  0.1670
 5781SOL     OW28978   1.135   0.385   3.406  0.0495  0.5737  0.4514
 5781SOL    HW128979   1.161   0.428   3.488  0.1489  1.3413  0.0159
 5781SOL    HW228980   1.086   0.454   3.361  2.0993  0.6236 -1.6899
 5782SOL     OW28981   1.847   2.675   3.644 -0.7981  0.2893 -0.3992
 5782SOL    HW128982   1.784   2.736   3.683  0.4105  1.4523 -0.2473
 5782SOL    HW228983   1.908   2.730   3.594  3.1623 -5.1734 -1.5671
 5783SOL     OW28984   2.247   3.422   6.244  0.1321  0.0705  0.0215
 5783SOL    HW128985   2.242   3.334   6.281 -1.6003 -0.0490 -0.4896
 5783SOL    HW228986   2.196   3.415   6.163  1.0889 -0.7730 -0.5107
 5784SOL     OW28987   0.652   0.575   9.090  0.0676  0.2045  0.3375
 5784SOL    HW128988   0.593   0.524   9.146 -0.4367 -0.0526 -0.4388
 5784SOL    HW228989   0.707   0.612   9.160 -2.1131  0.1672  2.0687
 5785SOL     OW28990   2.500   0.055   7.312  0.0801  0.5229  0.3218
 5785SOL    HW128991   2.580   0.056   7.364 -0.7436 -1.8337  1.6402
 5785SOL    HW228992   2.470   0.145   7.320  0.0788  0.3600  2.0223
 5786SOL     OW28993   3.213   0.677   1.694  0.1162 -0.4877 -0.3896
 5786SOL    HW128994   3.222   0.761   1.739  1.3204 -1.7185  1.6601
 5786SOL    HW228995   3.133   0.646   1.738 -0.3413  2.3033  0.7796
 5787SOL     OW28996   2.117   0.215   7.195 -0.0147  0.2728 -0.2698
 5787SOL    HW128997   2.155   0.298   7.223 -0.9224  1.4678 -2.6719
 5787SOL    HW228998   2.154   0.148   7.253  0.1210  0.6824  0.1168
 5788SOL     OW28999   1.005   4.602   2.893  0.2926 -0.3283 -0.0166
 5788SOL    HW129000   0.999   4.508   2.876 -1.2272 -0.4403  1.1738
 5788SOL    HW229001   0.934   4.641   2.843  0.3481 -0.1904  0.0116
 5789SOL     OW29002   1.853   3.506   3.302  0.3003 -0.2421 -0.3398
 5789SOL    HW129003   1.803   3.430   3.273  0.7342 -1.0577  1.0971
 5789SOL    HW229004   1.932   3.487   3.251 -0.8953 -2.6766 -1.2709
 5790SOL     OW29005   1.285   0.232   2.971 -0.2542  0.2789  0.1117
 5790SOL    HW129006   1.361   0.229   3.029 -0.8780  2.1514  1.0419
 5790SOL    HW229007   1.223   0.286   3.021  0.6885 -0.0563  1.6426
 5791SOL     OW29008   3.909   3.183  11.883 -0.0669  0.6119  0.1078
 5791SOL    HW129009   3.919   3.196  11.977  1.6556  0.8490 -0.1024
 5791SOL    HW229010   3.994   3.218  11.857  0.0713 -1.3088 -2.0169
 5792SOL     OW29011   1.666   1.885   3.406  0.0683  0.0281  0.3387
 5792SOL    HW129012   1.697   1.879   3.497 -0.8653 -0.3916  0.6230
 5792SOL    HW229013   1.660   1.980   3.395  1.5968  0.2564  1.4132
 5793SOL     OW29014   2.996   0.630   4.224  0.5007 -0.2582 -0.5260
 5793SOL    HW129015   2.915   0.590   4.254 -0.2769  2.0168  0.3742
 5793SOL    HW229016   2.966   0.662   4.139 -1.3666  1.7972  0.9310
 5794SOL     OW29017   4.502   1.007  16.604  0.0779 -0.4607  0.3046
 5794SOL    HW129018   4.440   1.051  16.663 -1.5391 -1.3321 -0.7292
 5794SOL    HW229019   4.458   0.923  16.592  2.3377 -1.6125  0.0810
 5795SOL     OW29020   4.478   3.909   1.980  0.3945 -0.0205  0.2336
 5795SOL    HW129021   4.446   3.827   1.941 -0.1689 -0.3382  1.3545
 5795SOL    HW229022   4.415   3.931   2.049  0.2632 -1.7423  0.6860
 5796SOL     OW29023   1.898   2.205   6.177 -1.0218  0.0305  0.3023
 5796SOL    HW129024   1.955   2.262   6.230 -0.1387  0.5570 -1.2197
 5796SOL    HW229025   1.813   2.246   6.192 -1.4141 -0.6852  0.0239
 5797SOL     OW29026   2.180   2.477  16.896  0.3227 -0.7154  0.1296
 5797SOL    HW129027   2.162   2.554  16.950 -0.7739 -1.2459  0.5222
 5797SOL    HW229028   2.241   2.430  16.954 -1.0221  2.1186  3.8501
 5798SOL     OW29029   1.041   3.244  16.729 -0.3630 -0.2842 -0.2610
 5798SOL    HW129030   1.025   3.150  16.736  2.7793 -0.5131  3.7452
 5798SOL    HW229031   1.102   3.261  16.801 -0.7649 -2.3133  0.5658
 5799SOL     OW29032   1.413   4.466   4.665 -0.2519 -0.3611 -0.7953
 5799SOL    HW129033   1.417   4.552   4.623 -0.4043 -0.5128 -1.1172
 5799SOL    HW229034   1.375   4.484   4.751  2.9797  2.3135  0.0641
 5800SOL     OW29035   3.539   4.127   7.100 -0.1375 -0.2941 -0.0361
 5800SOL    HW129036   3.585   4.073   7.036 -0.2514 -1.6900  1.0549
 5800SOL    HW229037   3.550   4.080   7.183 -2.3506  0.5595  0.7378
 5801SOL     OW29038   0.009   1.050   3.195 -0.0830  0.6006 -0.1655
 5801SOL    HW129039   4.718   1.135   3.230  1.7332  0.2597  2.1829
 5801SOL    HW229040   4.663   1.023   3.159 -0.3664  2.5005 -0.9413
 5802SOL     OW29041   0.418   0.982   1.816 -0.0175 -0.3970  0.0754
 5802SOL    HW129042   0.404   0.954   1.725  1.6754 -0.1844 -0.2543
 5802SOL    HW229043   0.345   0.939   1.860  0.5643 -3.8409 -2.3226
 5803SOL     OW29044   4.084   1.911   7.715 -0.0045 -0.5250 -0.8989
 5803SOL    HW129045   4.034   1.955   7.646  0.3675  0.3505 -0.6033
 5803SOL    HW229046   4.020   1.885   7.782  0.7157  2.8305  1.0531
 5804SOL     OW29047   0.899   0.377   7.026 -0.8223  0.0882 -0.0150
 5804SOL    HW129048   0.884   0.456   6.974  0.2820 -0.4935 -1.1993
 5804SOL    HW229049   0.969   0.406   7.084 -0.3143  0.2558 -0.7125
 5805SOL     OW29050   2.611   2.091   7.689  0.1254  0.5819 -0.4391
 5805SOL    HW129051   2.572   2.161   7.637  1.4063  3.0008  1.8212
 5805SOL    HW229052   2.679   2.055   7.632  2.8237  0.9647  2.4628
 5806SOL     OW29053   0.685   4.031   7.404  0.0742  0.0106 -0.3582
 5806SOL    HW129054   0.699   3.973   7.329 -1.0467 -2.4057  1.3098
 5806SOL    HW229055   0.690   4.122   7.375 -0.3579  0.6666  1.6168
 5807SOL     OW29056   3.684   1.383   2.541 -0.2995 -0.1247 -0.0156
 5807SOL    HW129057   3.775   1.396   2.514 -0.7024  0.7625 -0.9364
 5807SOL    HW229058   3.690   1.374   2.637 -0.2724  2.1924  0.1965
 5808SOL     OW29059   0.027   2.023   1.753 -0.2332  0.3949  0.0162
 5808SOL    HW129060   4.685   2.049   1.708 -0.2979  2.8562  1.5252
 5808SOL    HW229061   0.002   2.023   1.846 -0.0815  1.2028  0.0618
 5809SOL     OW29062   2.910   0.523   6.514  0.8724  0.3359 -0.3803
 5809SOL    HW129063   2.860   0.567   6.584  0.7561  2.1367 -1.6082
 5809SOL    HW229064   2.965   0.600   6.501  0.7730  0.6625  1.0572
 5810SOL     OW29065   1.899   3.681   4.622  0.4288  0.6132  0.3152
 5810SOL    HW129066   1.973   3.738   4.602  1.5069 -0.6615  0.6631
 5810SOL    HW229067   1.947   3.609   4.663 -2.2242 -0.9957  0.5611
 5811SOL     OW29068   3.884   2.438   3.382  0.1428 -0.3243  0.4393
 5811SOL    HW129069   3.974   2.470   3.380  0.5958 -1.5666  1.0091
 5811SOL    HW229070   3.854   2.450   3.472  1.7948 -0.2513  0.9653
 5812SOL     OW29071   2.052   2.259   7.661  0.0125  0.0676  0.2018
 5812SOL    HW129072   2.015   2.298   7.740  0.6597 -0.7876  0.9230
 5812SOL    HW229073   2.127   2.213   7.698  0.5154  0.8221  0.1118
 5813SOL     OW29074   0.137   2.510  17.403  0.3387  0.5785  0.5399
 5813SOL    HW129075   0.155   2.577  17.338  1.0242  1.2113  1.3838
 5813SOL    HW229076   0.062   2.547  17.449 -1.2935 -1.6354 -0.3026
 5814SOL     OW29077   4.462   0.156   7.120 -0.0064 -0.1255 -0.2842
 5814SOL    HW129078   4.528   0.214   7.082 -0.3890  1.2575  1.1625
 5814SOL    HW229079   4.518   0.079   7.126  1.1131  0.8538  1.8413
 5815SOL     OW29080   0.064   2.962   5.594 -0.0763  0.6256 -0.6820
 5815SOL    HW129081   0.027   2.991   5.510  0.2180  0.7314 -0.7731
 5815SOL    HW229082   4.723   2.914   5.620 -0.5919  0.4452 -2.5150
 5816SOL     OW29083   0.030   0.815   2.395  0.3577 -0.5143 -0.1708
 5816SOL    HW129084   0.018   0.770   2.311 -0.1026 -1.4011  0.3550
 5816SOL    HW229085   0.088   0.887   2.374 -0.1919  0.4330  1.5478
 5817SOL     OW29086   0.361   3.792   8.159  0.6555  0.4057 -0.1826
 5817SOL    HW129087   0.314   3.780   8.077 -2.2073  1.0151  1.3628
 5817SOL    HW229088   0.395   3.703   8.173  1.2430  0.0611 -3.9400
 5818SOL     OW29089   2.841   1.357   2.067 -0.2185  0.2857  0.4278
 5818SOL    HW129090   2.816   1.304   2.142 -1.9154  1.8331  0.9418
 5818SOL    HW229091   2.795   1.306   1.999  2.0249 -0.7632 -0.3032
 5819SOL     OW29092   4.081   0.157   6.848  0.0672  0.5189 -0.4238
 5819SOL    HW129093   3.991   0.132   6.865  0.1766  1.1387  1.0843
 5819SOL    HW229094   4.120   0.121   6.928  1.4999 -2.0934 -2.3007
 5820SOL     OW29095   0.837   4.659   3.200  0.4750 -0.3451 -0.4666
 5820SOL    HW129096   0.811   4.685   3.112  1.0871  0.1311 -0.5035
 5820SOL    HW229097   0.891   4.737   3.212 -1.1242  0.2245  2.9398
 5821SOL     OW29098   3.500   3.957   3.050  0.5276 -0.2667  0.3385
 5821SOL    HW129099   3.567   3.896   3.021  0.8061  0.0324  0.3454
 5821SOL    HW229100   3.554   4.031   3.078 -0.5877  0.8199 -0.3447
 5822SOL     OW29101   1.775   1.202   7.447  0.1310 -0.0296  0.5506
 5822SOL    HW129102   1.807   1.292   7.455  1.9565 -0.8897  3.0864
 5822SOL    HW229103   1.692   1.198   7.495 -1.0760  0.0959 -1.5515
 5823SOL     OW29104   1.360   1.281   2.280  0.4515 -0.5162  0.1302
 5823SOL    HW129105   1.372   1.204   2.225 -0.2609 -2.0899  2.1617
 5823SOL    HW229106   1.447   1.281   2.321 -0.5529 -0.8357  2.2395
 5824SOL     OW29107   2.516   3.270  17.266  0.1484 -0.3196 -0.2173
 5824SOL    HW129108   2.585   3.312  17.317 -0.7518 -2.4879  2.7724
 5824SOL    HW229109   2.498   3.334  17.197 -0.2625  0.5023  0.6583
 5825SOL     OW29110   0.160   3.410   1.949 -0.1749 -0.1782  0.0520
 5825SOL    HW129111   0.209   3.336   1.913  1.4122  0.8895 -0.0225
 5825SOL    HW229112   0.078   3.414   1.900 -0.3871  2.1995  0.5671
 5826SOL     OW29113   1.619   0.054   5.153 -0.7925 -0.2871 -0.2711
 5826SOL    HW129114   1.583   4.731   5.089  1.3219  0.4414 -2.1931
 5826SOL    HW229115   1.706   0.017   5.172 -1.1081 -1.8139 -1.7917
 5827SOL     OW29116   0.973   3.753   9.193 -0.3097  0.1987  0.2741
 5827SOL    HW129117   0.927   3.829   9.228 -0.1461  1.0267 -1.3185
 5827SOL    HW229118   0.910   3.681   9.190 -0.1469  0.1383 -1.9815
 5828SOL     OW29119   3.383   0.568   5.725 -0.7314 -0.1837  0.0866
 5828SOL    HW129120   3.310   0.507   5.736 -1.2665  0.4348 -0.0694
 5828SOL    HW229121   3.455   0.506   5.706 -0.2852  0.4943 -0.4600
 5829SOL     OW29122   3.649   4.510   2.629  0.3811  0.0413  0.2818
 5829SOL    HW129123   3.741   4.508   2.658  0.8303 -1.0022 -1.1675
 5829SOL    HW229124   3.654   4.511   2.534 -1.7361 -1.7115  0.1544
 5830SOL     OW29125   0.347   1.405   6.713  0.8555  0.0329  0.1529
 5830SOL    HW129126   0.281   1.447   6.658 -0.7748 -0.2924  1.8453
 5830SOL    HW229127   0.360   1.318   6.676  1.1136  0.4278 -0.6697
 5831SOL     OW29128   1.345   2.493   4.130  0.2059  0.0951 -0.3187
 5831SOL    HW129129   1.362   2.549   4.206 -1.6244 -1.8565  1.5120
 5831SOL    HW229130   1.255   2.509   4.102 -0.4212  1.4441  2.4555
 5832SOL     OW29131   2.002   2.185   2.405 -0.3881  0.3521 -0.1464
 5832SOL    HW129132   1.934   2.175   2.339 -0.3636  1.0136 -0.2757
 5832SOL    HW229133   2.029   2.094   2.409 -0.0162  0.5019  0.8069
 5833SOL     OW29134   3.901   3.517   7.809 -0.0576  0.0484  0.0896
 5833SOL    HW129135   3.944   3.501   7.725 -0.3248 -1.0765  0.1639
 5833SOL    HW229136   3.941   3.451   7.865 -0.9733 -1.3972 -0.9575
 5834SOL     OW29137   1.683   1.883   1.125  0.2297 -0.1358  0.0106
 5834SOL    HW129138   1.716   1.972   1.133  1.0645 -0.3661 -0.7914
 5834SOL    HW229139   1.761   1.852   1.079 -0.2074 -0.2097 -0.6885
 5835SOL     OW29140   3.286   2.020   6.613 -0.5389  0.0525  0.0875
 5835SOL    HW129141   3.232   2.094   6.584  1.9421  2.9819  2.8748
 5835SOL    HW229142   3.237   1.993   6.691  1.1871 -0.1726  1.1035
 5836SOL     OW29143   2.391   1.028  17.343  0.5267  0.0688 -0.4124
 5836SOL    HW129144   2.437   1.054  17.263  1.7645  1.5363  0.7580
 5836SOL    HW229145   2.297   1.021  17.325  0.1767 -1.0269  1.8262
 5837SOL     OW29146   2.741   1.796  10.820  0.2700  0.2269  0.1679
 5837SOL    HW129147   2.670   1.731  10.823  1.8403 -1.4803  0.3332
 5837SOL    HW229148   2.699   1.882  10.825 -1.5888 -0.6196 -1.0202
 5838SOL     OW29149   3.873   3.719   7.984  0.4567 -0.5545  0.0334
 5838SOL    HW129150   3.950   3.718   8.041 -1.1535 -2.4417  2.1606
 5838SOL    HW229151   3.885   3.637   7.937 -0.6233 -0.5265 -0.2926
 5839SOL     OW29152   2.880   2.444  16.788  0.2921  0.4869  0.0805
 5839SOL    HW129153   2.871   2.530  16.829 -0.6904  0.2931  0.2853
 5839SOL    HW229154   2.832   2.462  16.707  1.2009  1.0617 -0.3191
 5840SOL     OW29155   2.469   0.613  14.045  0.4688  0.4785  0.5116
 5840SOL    HW129156   2.558   0.579  14.030 -0.2120 -0.0794 -2.2242
 5840SOL    HW229157   2.478   0.652  14.132 -1.6355  0.8620  0.5514
 5841SOL     OW29158   4.218   3.882  17.249  0.4999  0.5323  0.5113
 5841SOL    HW129159   4.253   3.927  17.172  0.5182 -0.5819 -0.1326
 5841SOL    HW229160   4.300   3.899  17.295  0.1431 -0.0902  1.3725
 5842SOL     OW29161   1.010   3.233   1.944  0.3001 -0.3837 -0.4127
 5842SOL    HW129162   0.976   3.303   2.001 -1.9907  0.0150 -2.2332
 5842SOL    HW229163   0.947   3.227   1.871  2.2680 -0.7280 -2.0777
 5843SOL     OW29164   1.711   1.438   6.624  0.0012  0.4101  0.0991
 5843SOL    HW129165   1.668   1.524   6.621 -0.7632  0.0358  0.2535
 5843SOL    HW229166   1.802   1.454   6.599 -0.7399  0.8633 -2.3326
 5844SOL     OW29167   2.516   0.500   1.793  0.4189  0.2006 -0.2113
 5844SOL    HW129168   2.559   0.585   1.785  0.3186  0.3706  1.1292
 5844SOL    HW229169   2.549   0.471   1.878  0.9477 -0.4907 -0.6568
 5845SOL     OW29170   4.667   3.768   7.961 -0.3477 -0.2231 -0.0459
 5845SOL    HW129171   4.596   3.795   7.902  0.9325  3.2241 -0.0106
 5845SOL    HW229172   4.679   3.675   7.940 -1.8154  0.1347 -2.5420
 5846SOL     OW29173   2.864   2.929   2.289  0.4477 -0.4598  0.6375
 5846SOL    HW129174   2.918   2.992   2.338  0.4400  0.1897 -0.1758
 5846SOL    HW229175   2.781   2.966   2.318 -0.0049 -1.2546  0.3360
 5847SOL     OW29176   0.166   0.730   4.927  0.3313  0.9003 -0.6037
 5847SOL    HW129177   0.204   0.710   5.012  1.2972  1.3322 -0.9336
 5847SOL    HW229178   0.231   0.696   4.865  0.1071 -1.1090  0.2564
 5848SOL     OW29179   1.895   0.139   2.211 -0.2459 -0.1967  0.1501
 5848SOL    HW129180   1.843   0.059   2.212 -1.8929  0.8551 -0.6073
 5848SOL    HW229181   1.983   0.112   2.184  0.4772  0.4122  1.9333
 5849SOL     OW29182   1.030   1.476  11.965  0.2326 -0.0146  0.5215
 5849SOL    HW129183   1.067   1.496  12.051 -1.2811  2.6161  0.5578
 5849SOL    HW229184   1.097   1.529  11.922 -0.4669  0.1178 -0.3903
 5850SOL     OW29185   0.228   3.633   9.363  0.2507  0.3037 -0.5433
 5850SOL    HW129186   0.255   3.541   9.354 -1.9398 -0.4310  0.3865
 5850SOL    HW229187   0.168   3.643   9.437 -0.6477 -1.7436 -0.9834
 5851SOL     OW29188   3.678   0.026  15.802  0.2250  0.0801  0.0673
 5851SOL    HW129189   3.697   4.677  15.766 -0.8357  1.2025 -3.1876
 5851SOL    HW229190   3.687   0.073  15.719 -0.7629 -0.6857 -0.4684
 5852SOL     OW29191   2.243   1.646   6.925 -0.5167 -0.1977 -0.1872
 5852SOL    HW129192   2.267   1.730   6.962 -2.0689  0.2159 -0.0881
 5852SOL    HW229193   2.269   1.590   6.998 -1.3763 -0.0133  0.2608
 5853SOL     OW29194   2.121   3.974   5.164  0.7683 -0.4455 -0.0460
 5853SOL    HW129195   2.168   4.027   5.100 -0.8034  1.6620  0.5238
 5853SOL    HW229196   2.198   3.967   5.220  0.9766  0.5823 -0.1926
 5854SOL     OW29197   1.702   2.600   5.458  0.1741  0.4905  0.2705
 5854SOL    HW129198   1.740   2.585   5.545 -0.3292 -0.8330  0.2607
 5854SOL    HW229199   1.744   2.525   5.416  1.7539  1.2910  0.4335
 5855SOL     OW29200   3.431   2.749   2.995 -0.4730  0.1081 -0.3400
 5855SOL    HW129201   3.467   2.687   2.932 -0.8213  2.9350 -3.3549
 5855SOL    HW229202   3.478   2.827   2.966 -0.8376  0.9284  1.2640
 5856SOL     OW29203   1.000   1.410   6.429 -0.4117 -0.1477  0.3963
 5856SOL    HW129204   0.986   1.331   6.481 -1.9692  0.0779  0.3306
 5856SOL    HW229205   0.929   1.416   6.366 -0.3887 -1.5988  0.2337
 5857SOL     OW29206   3.251   3.290  12.351 -0.1285 -1.1372  0.2715
 5857SOL    HW129207   3.237   3.196  12.360  2.1099 -1.7292 -2.2098
 5857SOL    HW229208   3.187   3.299  12.280 -1.2585 -0.0284  1.4422
 5858SOL     OW29209   2.885   4.130  16.154 -0.3176  0.4236 -0.0558
 5858SOL    HW129210   2.811   4.189  16.147  0.0947  1.2946  2.8349
 5858SOL    HW229211   2.958   4.191  16.154 -0.9086  1.1185 -1.8790
 5859SOL     OW29212   3.081   0.962   5.357  0.8963 -0.2069  0.8939
 5859SOL    HW129213   3.055   0.956   5.449 -1.2704  1.1584  0.3651
 5859SOL    HW229214   3.131   1.044   5.357 -0.4239  0.5903  0.2109
 5860SOL     OW29215   0.821   3.702  14.055 -0.0108  0.4568 -0.8671
 5860SOL    HW129216   0.731   3.731  14.042 -0.8322 -1.8150 -0.2681
 5860SOL    HW229217   0.866   3.785  14.070  2.3598 -0.9217 -0.3122
 5861SOL     OW29218   1.292   0.569  11.208 -0.2707  0.6690  0.2706
 5861SOL    HW129219   1.264   0.660  11.212 -1.8065  0.2545 -1.0437
 5861SOL    HW229220   1.315   0.539  11.296  0.7066 -1.3034 -0.6369
 5862SOL     OW29221   2.889   1.535   2.321 -0.0375  0.4018 -0.0484
 5862SOL    HW129222   2.966   1.494   2.360 -0.2427 -0.0836 -0.1522
 5862SOL    HW229223   2.894   1.502   2.232 -1.9111 -0.0481  0.0203
 5863SOL     OW29224   2.124   2.549  16.041 -0.0790  0.5112 -0.4385
 5863SOL    HW129225   2.132   2.637  16.003  1.3277  0.8698  0.7061
 5863SOL    HW229226   2.077   2.497  15.976  1.2495 -1.5292  0.2679
 5864SOL     OW29227   0.686   0.553   7.417 -0.0773  0.6473 -0.2356
 5864SOL    HW129228   0.636   0.487   7.463  0.5312  0.3201 -0.0470
 5864SOL    HW229229   0.689   0.522   7.326  0.5641 -0.3807  0.1329
 5865SOL     OW29230   2.513   0.963   1.630 -0.4378 -0.3544 -0.0314
 5865SOL    HW129231   2.514   1.052   1.595  2.6632  0.4329  2.0600
 5865SOL    HW229232   2.422   0.955   1.660 -0.0042 -0.5747  1.2257
 5866SOL     OW29233   1.979   0.418   4.812 -0.1464 -0.1682  0.5400
 5866SOL    HW129234   1.977   0.323   4.800 -0.7145 -0.0309 -0.4621
 5866SOL    HW229235   2.073   0.414   4.830 -0.2510 -0.2827  1.0627
 5867SOL     OW29236   0.356   2.046   8.871 -0.0068  0.1372  0.1858
 5867SOL    HW129237   0.371   2.082   8.784  1.4231  0.1418  0.4324
 5867SOL    HW229238   0.260   2.046   8.863 -0.2615  2.1032  3.1661
 5868SOL     OW29239   1.981   4.503   8.113  0.5088  0.0932  0.1557
 5868SOL    HW129240   2.064   4.459   8.133  0.3288 -0.4306 -0.2398
 5868SOL    HW229241   1.934   4.445   8.053  0.3456 -0.9898  1.3360
 5869SOL     OW29242   1.908   1.626   8.375 -0.0364  0.1929  0.1247
 5869SOL    HW129243   1.963   1.571   8.319 -2.4486  0.2661 -2.3160
 5869SOL    HW229244   1.958   1.706   8.393  0.5159  0.2689 -1.7081
 5870SOL     OW29245   4.302   0.694   2.388 -0.0798  0.1377  0.2457
 5870SOL    HW129246   4.310   0.615   2.441 -0.4012  1.6182  2.5164
 5870SOL    HW229247   4.360   0.670   2.316  0.8245 -2.5411  1.8754
 5871SOL     OW29248   3.232   0.471  15.543  0.2733  0.2340 -0.4657
 5871SOL    HW129249   3.193   0.474  15.456 -2.0779  0.0830  0.5967
 5871SOL    HW229250   3.288   0.395  15.557  0.6705  0.7977  1.0505
 5872SOL     OW29251   4.477   2.433   6.375  0.1687  0.2517  0.4275
 5872SOL    HW129252   4.401   2.440   6.317  0.7033  1.6898 -0.0896
 5872SOL    HW229253   4.475   2.343   6.406  1.8180 -0.8553 -2.7395
 5873SOL     OW29254   0.328   3.511   3.077 -0.8381  0.3181  0.0330
 5873SOL    HW129255   0.328   3.550   3.164  1.8915  1.2130 -0.3726
 5873SOL    HW229256   0.416   3.537   3.050  0.8715 -4.2824  1.2505
 5874SOL     OW29257   1.317   0.794  13.222  0.4438 -0.0054 -0.2182
 5874SOL    HW129258   1.372   0.775  13.298 -0.5242 -3.2046 -0.2918
 5874SOL    HW229259   1.379   0.811  13.151 -2.4462 -0.4305 -2.8702
 5875SOL     OW29260   3.371   3.533   1.919 -0.6093 -0.4778 -0.1689
 5875SOL    HW129261   3.359   3.627   1.927 -0.3666 -0.5833  1.4512
 5875SOL    HW229262   3.465   3.515   1.924 -0.8168 -1.7893 -0.9455
 5876SOL     OW29263   0.509   3.310  10.438 -0.2796  0.1237 -0.2893
 5876SOL    HW129264   0.438   3.273  10.491 -0.0716  1.1972  0.7300
 5876SOL    HW229265   0.585   3.305  10.496 -2.3740  0.2331  2.4674
 5877SOL     OW29266   4.315   4.612   0.601 -0.4260  0.0479  0.1426
 5877SOL    HW129267   4.220   4.624   0.606 -0.2104  1.0145  2.2388
 5877SOL    HW229268   4.349   4.690   0.646 -0.5773 -0.0315  0.3971
 5878SOL     OW29269   2.991   4.579   8.158  0.4686 -0.1881 -0.2674
 5878SOL    HW129270   2.945   4.594   8.241  0.2356 -2.0228 -0.0560
 5878SOL    HW229271   3.073   4.544   8.194  1.7211  0.8321 -2.1604
 5879SOL     OW29272   4.652   3.771   0.638  0.9190  0.5090  0.6217
 5879SOL    HW129273   4.679   3.822   0.561 -0.3460  0.2218 -0.0183
 5879SOL    HW229274   4.658   3.680   0.607 -0.6223  0.9590 -1.0239
 5880SOL     OW29275   4.140   4.554   2.065  0.1091 -0.1437  0.7440
 5880SOL    HW129276   4.219   4.568   2.117 -0.6685 -0.2186  1.9312
 5880SOL    HW229277   4.170   4.544   1.974 -1.4779 -2.3558  0.4805
 5881SOL     OW29278   2.278   2.593   5.158 -0.2650 -0.1205 -0.3901
 5881SOL    HW129279   2.234   2.671   5.125 -0.1550  0.2296  0.2814
 5881SOL    HW229280   2.370   2.618   5.163 -0.3776  0.4403 -1.1882
 5882SOL     OW29281   0.283   0.998   1.448  0.6943  0.1583 -0.2380
 5882SOL    HW129282   0.224   0.934   1.489  2.2421 -0.1482  1.4928
 5882SOL    HW229283   0.236   1.082   1.452  2.4808  1.0534  2.1763
 5883SOL     OW29284   3.077   0.348   4.826 -0.4542  0.2511  0.6754
 5883SOL    HW129285   3.144   0.325   4.891  0.9008 -1.4376 -1.3360
 5883SOL    HW229286   3.110   0.311   4.745 -1.7625  1.6443 -0.4825
 5884SOL     OW29287   4.628   1.334   8.241 -0.2560  0.0008 -0.0599
 5884SOL    HW129288   4.583   1.250   8.242  1.8911 -1.1460  2.1986
 5884SOL    HW229289   4.673   1.307   8.161 -1.7972 -2.3353 -0.1175
 5885SOL     OW29290   3.917   4.369   6.445 -0.4758 -0.0271  0.8436
 5885SOL    HW129291   3.930   4.318   6.366  0.3635  1.3540  0.0995
 5885SOL    HW229292   3.894   4.445   6.392  0.0355 -0.0805  0.5494
 5886SOL     OW29293   0.368   0.361   7.947  0.3637 -0.3945 -0.2349
 5886SOL    HW129294   0.451   0.395   7.980 -0.4012  0.5826  0.6711
 5886SOL    HW229295   0.366   0.274   7.988 -1.6309 -0.5013 -0.5486
 5887SOL     OW29296   0.419   4.215  13.953 -0.0746 -0.4275  0.0639
 5887SOL    HW129297   0.354   4.224  14.023  2.3748 -0.9940  2.3604
 5887SOL    HW229298   0.418   4.299  13.906 -3.4261 -1.8868 -2.4936
 5888SOL     OW29299   0.417   3.625   3.299  0.2107  0.3164  0.1625
 5888SOL    HW129300   0.470   3.574   3.361  0.3674  0.1473 -0.1076
 5888SOL    HW229301   0.486   3.674   3.254 -0.1927  1.8544  1.2284
 5889SOL     OW29302   3.216   2.143   7.423  0.0452 -0.6969 -0.0453
 5889SOL    HW129303   3.268   2.173   7.349  0.0609  0.1384  0.3073
 5889SOL    HW229304   3.288   2.118   7.481 -0.9200 -1.9514  0.6115
 5890SOL     OW29305   3.288   3.651   3.602 -0.5206 -0.1880  0.0735
 5890SOL    HW129306   3.326   3.574   3.559  1.4009  0.6278  0.3537
 5890SOL    HW229307   3.227   3.604   3.660 -1.0813  0.7208  0.2233
 5891SOL     OW29308   0.324   4.461   6.790  0.2246  0.6075  0.2236
 5891SOL    HW129309   0.325   4.535   6.730 -0.9874  1.6532  1.4722
 5891SOL    HW229310   0.350   4.401   6.721  0.7113 -0.5372  1.3999
 5892SOL     OW29311   3.740   2.074  12.357  0.0272 -0.4045  0.2345
 5892SOL    HW129312   3.743   2.156  12.405  0.2441  0.5289 -1.3715
 5892SOL    HW229313   3.748   2.108  12.268 -0.3145 -1.4781 -0.2085
 5893SOL     OW29314   4.684   2.760   5.423 -0.8442 -0.4558 -0.7572
 5893SOL    HW129315   4.735   2.796   5.350 -0.3186 -2.4135 -1.3629
 5893SOL    HW229316   4.730   2.681   5.450  1.8012  1.5716  0.7540
 5894SOL     OW29317   0.453   0.089   7.987  0.5286 -0.2652  0.1113
 5894SOL    HW129318   0.529   0.032   7.999  0.2029  0.0356  3.4420
 5894SOL    HW229319   0.382   0.042   8.030  0.6207  0.8212  1.4227
 5895SOL     OW29320   3.248   0.405  14.197 -0.0932 -0.3242 -0.3092
 5895SOL    HW129321   3.174   0.345  14.190 -1.2335  1.2940 -2.3327
 5895SOL    HW229322   3.287   0.360  14.272 -1.5734 -0.4593  0.3836
 5896SOL     OW29323   3.141   0.736   8.324  0.2380  0.6650  0.4770
 5896SOL    HW129324   3.191   0.772   8.397  1.1074  1.7681 -0.6522
 5896SOL    HW229325   3.057   0.727   8.368 -0.0274 -1.0651 -0.4063
 5897SOL     OW29326   2.803   0.147   6.523  0.5274 -0.3575  0.1295
 5897SOL    HW129327   2.893   0.178   6.522 -0.2038  1.7578 -0.6985
 5897SOL    HW229328   2.790   0.119   6.433 -0.2771 -2.0781  0.7764
 5898SOL     OW29329   0.191   2.013  16.311  0.4256 -0.0341  0.8552
 5898SOL    HW129330   0.277   1.973  16.321 -0.2622 -0.8395  3.4555
 5898SOL    HW229331   0.176   1.982  16.222 -5.1247 -0.3243  1.9046
 5899SOL     OW29332   1.517   3.331   3.729  0.2686  0.1086 -0.4194
 5899SOL    HW129333   1.449   3.335   3.797 -0.0740  1.2092 -0.8127
 5899SOL    HW229334   1.597   3.344   3.780 -0.7971 -1.2666  1.6266
 5900SOL     OW29335   0.095   3.707   7.569  0.1676 -0.5889  0.3463
 5900SOL    HW129336   0.119   3.781   7.624 -0.2505  1.6203 -2.4809
 5900SOL    HW229337   0.061   3.738   7.485  1.3349  0.2122  0.1775
 5901SOL     OW29338   1.350   0.590   6.883 -0.8908 -0.2123 -0.1882
 5901SOL    HW129339   1.282   0.644   6.925  2.7221  4.1558  0.0627
 5901SOL    HW229340   1.418   0.652   6.859 -0.3633 -1.5206 -2.0395
 5902SOL     OW29341   0.177   0.240   5.286 -0.1322 -0.2690 -0.1368
 5902SOL    HW129342   0.269   0.234   5.311 -0.3579 -0.6603  0.5947
 5902SOL    HW229343   0.173   0.287   5.202 -0.4207 -1.2678 -0.6751
 5903SOL     OW29344   4.369   2.607  11.852  0.4930 -0.8215 -0.5503
 5903SOL    HW129345   4.274   2.607  11.866  0.5162  1.1888 -0.4499
 5903SOL    HW229346   4.397   2.516  11.860  0.0062 -0.9253 -0.0359
 5904SOL     OW29347   1.053   3.516   8.511 -0.5980 -0.1548 -0.1709
 5904SOL    HW129348   1.112   3.562   8.451 -1.6705 -0.3578 -1.3652
 5904SOL    HW229349   0.995   3.590   8.530 -0.1854  0.1419 -0.0723
 5905SOL     OW29350   4.202   4.256  12.770 -0.0908 -0.4675  0.0625
 5905SOL    HW129351   4.293   4.265  12.798  0.6886  0.1177 -2.6129
 5905SOL    HW229352   4.201   4.161  12.778  0.0409 -0.4733  0.0214
 5906SOL     OW29353   0.828   2.767   8.261 -0.1971 -0.2929 -0.0130
 5906SOL    HW129354   0.739   2.736   8.275 -0.0597 -0.1121  1.2069
 5906SOL    HW229355   0.875   2.720   8.330 -0.0340 -1.2748 -0.7988
 5907SOL     OW29356   4.124   4.314  15.644  0.0274 -0.2906  0.1347
 5907SOL    HW129357   4.190   4.345  15.706  1.3478 -1.0160 -0.9000
 5907SOL    HW229358   4.166   4.236  15.607 -0.9630 -1.4218  1.3958
 5908SOL     OW29359   0.849   2.231   6.673  0.1415 -0.0164  0.2599
 5908SOL    HW129360   0.824   2.249   6.763  0.2965 -0.7200  0.4433
 5908SOL    HW229361   0.791   2.293   6.629 -1.1069 -0.7655  0.8380
 5909SOL     OW29362   0.564   4.490   4.241 -0.2269  0.4185  0.0592
 5909SOL    HW129363   0.529   4.469   4.328 -0.0839  0.5720  0.1545
 5909SOL    HW229364   0.604   4.405   4.224 -0.4615 -0.0667  1.9083
 5910SOL     OW29365   3.135   1.880   5.412  0.1165 -0.0604  0.2947
 5910SOL    HW129366   3.126   1.787   5.391 -1.4553 -0.0213  0.8066
 5910SOL    HW229367   3.218   1.895   5.366  0.3160 -0.9745  0.3582
 5911SOL     OW29368   1.297   0.764   6.561 -0.5977  0.0903 -0.0749
 5911SOL    HW129369   1.228   0.725   6.615  0.1373  0.2231  0.9735
 5911SOL    HW229370   1.279   0.719   6.479  1.5445  0.0949 -0.5221
 5912SOL     OW29371   0.303   1.540  15.682 -0.4468  0.4658  0.4169
 5912SOL    HW129372   0.281   1.549  15.589  0.1398 -0.3356  0.2005
 5912SOL    HW229373   0.398   1.527  15.675 -0.5663 -0.5824  0.6732
 5913SOL     OW29374   1.776   3.986   9.327  0.1352  0.2307 -0.3605
 5913SOL    HW129375   1.866   4.009   9.304  0.3607 -0.7869 -0.4866
 5913SOL    HW229376   1.770   4.042   9.404  0.0433  1.0676 -0.9779
 5914SOL     OW29377   2.118   3.021   7.623  0.0634 -0.1018  0.5582
 5914SOL    HW129378   2.124   2.980   7.536  2.1626  1.3544  0.0351
 5914SOL    HW229379   2.210   3.020   7.649  0.2087  1.0286  0.0900
 5915SOL     OW29380   0.885   0.927   6.036 -0.0833 -0.6061 -0.4436
 5915SOL    HW129381   0.829   0.959   6.108 -0.2900 -0.1307 -0.8147
 5915SOL    HW229382   0.874   1.001   5.977  2.3487 -0.7622 -1.0824
 5916SOL     OW29383   4.418   2.286   4.605 -0.2174 -0.5784 -0.0077
 5916SOL    HW129384   4.447   2.210   4.656 -2.8268  1.6769  4.7836
 5916SOL    HW229385   4.507   2.321   4.603 -0.4501  0.0196  0.0447
 5917SOL     OW29386   3.053   1.361   3.702  0.7113  0.1069  0.2798
 5917SOL    HW129387   3.140   1.400   3.709  0.4772  0.7134 -0.1140
 5917SOL    HW229388   3.067   1.274   3.666 -0.4828  0.1870 -0.3844
 5918SOL     OW29389   2.194   3.674   7.311 -0.0273 -0.1165 -0.0503
 5918SOL    HW129390   2.154   3.587   7.313 -0.6464  0.1977  1.6668
 5918SOL    HW229391   2.217   3.694   7.402  0.3427 -0.7180 -0.0081
 5919SOL     OW29392   0.239   1.677   2.295 -0.1609 -0.0868  0.0978
 5919SOL    HW129393   0.254   1.607   2.360  0.0802  1.5447  1.7957
 5919SOL    HW229394   0.149   1.663   2.267  0.0970  0.8714 -1.1732
 5920SOL     OW29395   3.232   0.612   3.886  0.0437  0.1025  0.1015
 5920SOL    HW129396   3.165   0.545   3.873  1.1100 -0.5923 -1.8298
 5920SOL    HW229397   3.260   0.575   3.969  0.8036  1.7815  0.6028
 5921SOL     OW29398   0.618   1.058  10.695  0.3845  0.7427  0.3982
 5921SOL    HW129399   0.692   1.095  10.645  0.4968 -0.5762 -0.3935
 5921SOL    HW229400   0.552   1.123  10.670  0.1868 -0.1908 -1.4632
 5922SOL     OW29401   3.964   2.473  13.760 -0.5822 -0.2149  0.4486
 5922SOL    HW129402   3.965   2.401  13.823  1.9563 -0.5407  0.0442
 5922SOL    HW229403   3.987   2.429  13.678  1.9673 -2.4497  2.3699
 5923SOL     OW29404   0.081   0.964   5.389  0.8696  0.2903 -0.2694
 5923SOL    HW129405   0.148   1.031   5.399  2.1313 -0.9691 -0.2615
 5923SOL    HW229406   0.014   1.026   5.360 -0.8591 -2.5191 -2.2380
 5924SOL     OW29407   3.440   0.533   2.960 -0.2116 -0.0849 -0.0761
 5924SOL    HW129408   3.474   0.556   2.873  0.4425 -0.6840  0.0227
 5924SOL    HW229409   3.499   0.460   2.976  1.2283  0.6256 -2.0193
 5925SOL     OW29410   2.057   4.264   4.196  0.4307 -0.1880  0.5338
 5925SOL    HW129411   2.033   4.325   4.127  4.0667  0.3786 -0.2279
 5925SOL    HW229412   2.064   4.313   4.278  1.3373  0.0540  0.3109
 5926SOL     OW29413   0.323   4.393   3.130  0.3153 -0.2823  0.3396
 5926SOL    HW129414   0.268   4.352   3.063  1.1725 -0.6944 -0.1069
 5926SOL    HW229415   0.332   4.479   3.088 -1.3906 -0.2480  0.0517
 5927SOL     OW29416   3.414   1.620   0.397 -0.3916 -0.3042  0.3489
 5927SOL    HW129417   3.405   1.690   0.461 -0.8963  0.8092 -0.9259
 5927SOL    HW229418   3.364   1.648   0.320  0.0622  1.4119  0.6922
 5928SOL     OW29419   1.449   3.643  13.743  0.5340 -0.3190 -0.6326
 5928SOL    HW129420   1.361   3.677  13.756  0.8628 -0.0250  0.7762
 5928SOL    HW229421   1.435   3.549  13.736 -1.6938  0.1375 -2.4905
 5929SOL     OW29422   0.430   1.901   5.166 -0.4914  0.5662  0.0628
 5929SOL    HW129423   0.517   1.862   5.157 -1.1768 -0.4073 -2.4346
 5929SOL    HW229424   0.386   1.874   5.085 -0.5492 -0.3987  0.4134
 5930SOL     OW29425   3.204   0.447   1.970 -0.0192 -0.8421  0.6815
 5930SOL    HW129426   3.124   0.439   2.022  0.0366  1.2255  1.1059
 5930SOL    HW229427   3.182   0.413   1.884 -0.7190 -1.6776  1.1921
 5931SOL     OW29428   1.778   1.320   4.570  0.1068 -0.0594  0.2917
 5931SOL    HW129429   1.686   1.308   4.548 -0.2069  2.0159  0.5468
 5931SOL    HW229430   1.777   1.411   4.598 -2.6998  0.1245 -0.4049
 5932SOL     OW29431   3.042   0.150   9.963 -0.5244 -0.2259  0.8536
 5932SOL    HW129432   3.096   0.074   9.941  3.9926  3.7794 -1.7717
 5932SOL    HW229433   2.983   0.119  10.031 -1.5135 -1.5892 -0.6285
 5933SOL     OW29434   0.502   1.415   1.849 -0.4290  0.1299 -0.3031
 5933SOL    HW129435   0.418   1.368   1.847  0.2939 -1.1401 -0.7722
 5933SOL    HW229436   0.561   1.339   1.850 -0.4618  0.1043 -0.2968
 5934SOL     OW29437   3.466   3.239   7.962  0.1461 -0.0463  0.7001
 5934SOL    HW129438   3.380   3.270   7.934  0.7954  0.2963 -0.9385
 5934SOL    HW229439   3.517   3.292   7.901 -1.1371  2.1716  1.5968
 5935SOL     OW29440   0.016   4.325  17.520 -0.2423 -0.4197  0.2814
 5935SOL    HW129441   0.019   4.342  17.615  3.2240  1.8866 -0.2500
 5935SOL    HW229442   0.088   4.264  17.509 -2.1596 -2.6824  0.3765
 5936SOL     OW29443   0.961   4.204   5.052 -0.5549  1.0625 -0.3636
 5936SOL    HW129444   1.014   4.278   5.023  1.5040 -0.1470  0.3415
 5936SOL    HW229445   0.921   4.241   5.131  1.2585  0.5983  0.7549
 5937SOL     OW29446   1.364   3.806   9.200 -0.2604  0.2195  0.1212
 5937SOL    HW129447   1.431   3.807   9.269 -0.2882 -0.4904  0.1588
 5937SOL    HW229448   1.293   3.757   9.241 -0.5001 -0.1492 -0.7416
 5938SOL     OW29449   3.820   0.583   6.922  0.6631  0.4045  0.5731
 5938SOL    HW129450   3.899   0.613   6.878 -0.3033  0.6622 -0.9714
 5938SOL    HW229451   3.777   0.561   6.840  0.4551  1.9685  0.2721
 5939SOL     OW29452   2.490   3.840   5.672  0.0356  0.0260 -0.9688
 5939SOL    HW129453   2.537   3.777   5.726  0.5647  1.0435 -0.2518
 5939SOL    HW229454   2.425   3.781   5.633 -0.7191 -0.3070  0.8177
 5940SOL     OW29455   2.059   4.486   9.359 -0.5664 -0.0294 -0.7050
 5940SOL    HW129456   2.017   4.463   9.442  0.0592  0.2528 -0.3098
 5940SOL    HW229457   2.044   4.406   9.308  1.3447  0.0048 -1.3200
 5941SOL     OW29458   4.411   1.600   8.623  0.0301 -0.0650 -0.4502
 5941SOL    HW129459   4.440   1.525   8.571 -0.0815 -0.5362  0.1690
 5941SOL    HW229460   4.495   1.644   8.640  1.8875 -3.6339 -0.4825
 5942SOL     OW29461   1.957   2.705   1.298 -0.5645  0.1899 -0.7454
 5942SOL    HW129462   1.958   2.776   1.234 -0.1570  0.2484 -0.6766
 5942SOL    HW229463   2.012   2.636   1.261  0.2074 -0.8752  2.4808
 5943SOL     OW29464   2.360   1.286   9.544  0.4245  0.3165 -0.0052
 5943SOL    HW129465   2.317   1.369   9.522  1.2152  1.0362  1.2107
 5943SOL    HW229466   2.447   1.297   9.505 -0.6529  0.3419 -2.3809
 5944SOL     OW29467   3.008   3.753  15.921  0.1034 -0.2534 -0.0641
 5944SOL    HW129468   2.913   3.748  15.925  0.1542 -2.4036 -1.3713
 5944SOL    HW229469   3.022   3.845  15.899 -0.7191 -0.2826 -0.7021
 5945SOL     OW29470   1.205   4.128  17.429  0.1364 -0.0425 -0.0929
 5945SOL    HW129471   1.297   4.152  17.439  0.1598  1.2142 -3.1555
 5945SOL    HW229472   1.220   4.058  17.366  0.5018  0.4736 -0.5803
 5946SOL     OW29473   2.517   2.879   2.535  1.0662  0.1233 -0.1921
 5946SOL    HW129474   2.553   2.967   2.533 -1.5170  1.1936  1.0168
 5946SOL    HW229475   2.599   2.835   2.560 -0.1318 -3.4665 -2.6468
 5947SOL     OW29476   0.323   1.804  16.549  0.1101 -0.1035  0.0347
 5947SOL    HW129477   0.385   1.829  16.481 -1.4361  1.9354 -0.6152
 5947SOL    HW229478   0.364   1.836  16.630 -1.9374  2.3705  0.0896
 5948SOL     OW29479   3.164   4.586   6.353  0.2289  0.0350 -0.2498
 5948SOL    HW129480   3.140   4.669   6.312  0.2242 -1.0963 -2.5365
 5948SOL    HW229481   3.098   4.577   6.422  2.9534 -0.1192  2.3394
 5949SOL     OW29482   3.617   0.779   9.880 -0.1077 -0.2072  1.2787
 5949SOL    HW129483   3.559   0.711   9.914  1.8210 -1.4405  2.0598
 5949SOL    HW229484   3.705   0.752   9.906  1.0305  0.7376 -1.6116
 5950SOL     OW29485   4.249   2.855  13.674 -0.4698 -0.4055  0.1508
 5950SOL    HW129486   4.170   2.853  13.618 -1.0474 -1.2273  0.9864
 5950SOL    HW229487   4.211   2.915  13.738  3.1712 -0.1206  1.9752
 5951SOL     OW29488   3.685   3.788   8.397 -0.3724 -0.2498 -0.3034
 5951SOL    HW129489   3.764   3.733   8.398 -1.8308 -2.3210  2.4419
 5951SOL    HW229490   3.654   3.781   8.307  0.2082  0.0132 -0.5227
 5952SOL     OW29491   1.775   3.913   8.960  0.1011  0.9694 -0.6219
 5952SOL    HW129492   1.682   3.905   8.940 -0.2697 -0.3679  1.6605
 5952SOL    HW229493   1.774   4.006   8.983  1.5407  0.9822 -0.6107
 5953SOL     OW29494   3.900   2.368   4.300  0.1962 -0.2577 -0.2033
 5953SOL    HW129495   3.881   2.277   4.279  1.0895 -0.8655  1.5839
 5953SOL    HW229496   3.828   2.402   4.353 -0.0501 -0.4712 -0.4039
 5954SOL     OW29497   1.154   0.413   3.114  0.2257  0.1777  0.3509
 5954SOL    HW129498   1.193   0.493   3.080 -1.5882  2.3100  3.2573
 5954SOL    HW229499   1.078   0.452   3.157 -0.8272 -2.3473  0.7819
 5955SOL     OW29500   1.833   2.551   5.993  0.2832  0.2831 -0.1523
 5955SOL    HW129501   1.922   2.517   5.993  0.9405  2.0006  1.8611
 5955SOL    HW229502   1.788   2.541   6.077 -1.1652 -1.6317 -1.1617
 5956SOL     OW29503   0.428   3.261   6.032  0.0713  0.2584  0.1173
 5956SOL    HW129504   0.493   3.191   6.033 -0.5928 -0.3505  0.9003
 5956SOL    HW229505   0.408   3.260   6.126 -1.6953 -0.0842 -0.2485
 5957SOL     OW29506   1.668   4.530   3.015  0.1262  0.0917  0.8913
 5957SOL    HW129507   1.747   4.583   3.007 -0.3121  0.7688  1.0551
 5957SOL    HW229508   1.637   4.549   3.103 -1.2745  0.4879  0.3142
 5958SOL     OW29509   3.600   0.127   7.656 -0.2301  0.2471 -0.2714
 5958SOL    HW129510   3.615   0.068   7.731 -1.4232 -0.9179 -0.9530
 5958SOL    HW229511   3.517   0.168   7.677 -0.0357  0.6638 -0.3204
 5959SOL     OW29512   0.177   1.966   2.436  0.1270 -0.5623 -0.3082
 5959SOL    HW129513   0.208   2.056   2.446 -1.3171 -0.1354  0.4466
 5959SOL    HW229514   0.107   1.981   2.373  0.7311 -0.2623 -0.9064
 5960SOL     OW29515   2.484   0.564  10.615  0.2724  0.1905 -0.6104
 5960SOL    HW129516   2.449   0.592  10.530  1.3916  2.1173 -0.4480
 5960SOL    HW229517   2.524   0.484  10.580 -2.4118 -1.1233 -0.6327
 5961SOL     OW29518   1.057   1.984   3.372 -0.5408  0.3023 -0.5043
 5961SOL    HW129519   1.078   1.947   3.458  1.8795  1.6047 -0.5255
 5961SOL    HW229520   1.145   1.975   3.335 -0.6058 -1.6061 -0.1927
 5962SOL     OW29521   3.916   4.317   3.940 -0.2377  0.0368  0.1019
 5962SOL    HW129522   3.880   4.338   4.026  0.3746  0.4066  0.2639
 5962SOL    HW229523   3.941   4.401   3.902 -0.9470  1.0400  1.8917
 5963SOL     OW29524   0.681   3.229   2.069 -0.4229  0.4987  0.6267
 5963SOL    HW129525   0.590   3.248   2.093 -0.7070  0.8780 -0.7932
 5963SOL    HW229526   0.674   3.149   2.017  2.5917  0.0083  0.9755
 5964SOL     OW29527   3.976   2.161   2.078 -0.5230  0.3660  0.5720
 5964SOL    HW129528   3.987   2.163   1.983  2.9109 -1.2068  0.9266
 5964SOL    HW229529   3.934   2.076   2.094 -1.4622  0.3840 -1.8486
 5965SOL     OW29530   4.062   1.072   1.913  0.2456  0.5297 -0.2644
 5965SOL    HW129531   4.036   1.013   1.843 -0.3911 -0.5153  0.8585
 5965SOL    HW229532   3.988   1.057   1.972 -0.0584 -1.9625 -1.2999
 5966SOL     OW29533   4.710   3.225   7.542  0.0062 -0.0188 -0.0395
 5966SOL    HW129534   0.026   3.232   7.620 -1.5001  1.9552  0.8285
 5966SOL    HW229535   0.024   3.158   7.497  0.0667  0.0349 -0.0505
 5967SOL     OW29536   3.886   3.654   4.958  0.3734 -0.2427 -0.2711
 5967SOL    HW129537   3.803   3.700   4.970  0.5146 -0.0785  0.0811
 5967SOL    HW229538   3.949   3.726   4.961  0.1608 -0.1569  2.7956
 5968SOL     OW29539   4.208   2.066  15.084  0.2582 -0.0315 -0.0179
 5968SOL    HW129540   4.114   2.085  15.081 -0.0257 -1.5159 -0.5449
 5968SOL    HW229541   4.247   2.141  15.041  3.3379 -1.8131 -0.3040
 5969SOL     OW29542   3.826   2.925  17.459 -0.3201 -0.8244 -0.1580
 5969SOL    HW129543   3.842   2.886  17.373  0.3552  1.4227 -1.0380
 5969SOL    HW229544   3.737   2.960  17.448 -0.4196 -1.8972 -2.8421
 5970SOL     OW29545   1.617   0.249   5.812  0.2588 -0.6495  0.4774
 5970SOL    HW129546   1.669   0.168   5.816  1.7009  0.2474 -0.2231
 5970SOL    HW229547   1.532   0.216   5.843 -1.5196  0.9090 -2.8183
 5971SOL     OW29548   4.114   3.104   3.542  0.0633 -0.8256  0.4503
 5971SOL    HW129549   4.177   3.174   3.524 -1.7390  0.2270 -1.8215
 5971SOL    HW229550   4.170   3.028   3.553  0.7498 -0.6838 -1.9827
 5972SOL     OW29551   0.334   0.943  13.565  0.3114  0.4984  0.7744
 5972SOL    HW129552   0.402   0.892  13.521 -0.2586  1.0253 -0.7417
 5972SOL    HW229553   0.374   0.986  13.640 -0.4430  1.8125  0.4347
 5973SOL     OW29554   4.462   4.030   2.817 -0.8453 -0.4620 -0.4702
 5973SOL    HW129555   4.520   3.989   2.882  1.5202  3.3357 -0.2032
 5973SOL    HW229556   4.428   3.950   2.776 -1.8488 -1.3972  2.1958
 5974SOL     OW29557   3.893   1.716   8.941 -0.1119  0.3733 -0.0753
 5974SOL    HW129558   3.807   1.687   8.969  0.1770  0.3542  0.7807
 5974SOL    HW229559   3.944   1.641   8.972 -1.1433 -0.9545 -1.6322
 5975SOL     OW29560   3.813   4.113   5.963  0.0865  0.2873  0.1446
 5975SOL    HW129561   3.740   4.077   5.913  0.2543  2.1736 -1.4886
 5975SOL    HW229562   3.874   4.040   5.975  0.1755  0.1814 -0.9014
 5976SOL     OW29563   3.833   3.777  16.771 -0.1738  0.4745  0.3757
 5976SOL    HW129564   3.905   3.811  16.824  0.5181 -0.5008  0.0601
 5976SOL    HW229565   3.793   3.708  16.825  0.5595  0.8116  1.3489
 5977SOL     OW29566   0.122   2.957   6.313 -0.2007 -0.3667 -0.2951
 5977SOL    HW129567   0.085   2.939   6.400  0.4781  1.3161  0.3402
 5977SOL    HW229568   0.083   3.043   6.299  0.6618 -0.0988 -1.0455
 5978SOL     OW29569   3.801   3.027   8.520  0.4099 -0.4677 -0.0004
 5978SOL    HW129570   3.799   2.978   8.438 -4.1315  1.6668 -1.1463
 5978SOL    HW229571   3.872   3.091   8.513  0.2180 -0.3646 -0.9589
 5979SOL     OW29572   4.697   2.501  17.051  0.4778  0.5235 -0.1137
 5979SOL    HW129573   0.030   2.557  17.082  0.7867  0.8049 -1.3058
 5979SOL    HW229574   4.678   2.546  16.968  1.0779  0.9345 -0.0342
 5980SOL     OW29575   2.952   1.688   2.890 -0.1018 -0.2691  0.5072
 5980SOL    HW129576   2.952   1.613   2.831  0.4029 -0.4194  0.7073
 5980SOL    HW229577   2.877   1.673   2.948 -0.9812  1.1219 -0.2833
 5981SOL     OW29578   4.659   3.161   6.301 -0.4342 -1.4744  0.4894
 5981SOL    HW129579   4.568   3.154   6.330 -0.1279 -0.6352  1.6226
 5981SOL    HW229580   4.658   3.115   6.217  1.0468 -0.8981  0.1531
 5982SOL     OW29581   2.101   3.294  17.624 -0.1480  0.0729  0.8704
 5982SOL    HW129582   2.137   3.206  17.620  1.2113  0.7961 -2.6884
 5982SOL    HW229583   2.160   3.343  17.567  1.3189 -1.0451  1.4313
 5983SOL     OW29584   3.555   1.301   8.614  0.0108  0.1005 -0.1592
 5983SOL    HW129585   3.581   1.273   8.526 -0.3274 -2.2394  0.4822
 5983SOL    HW229586   3.625   1.364   8.627  1.1254 -1.2040  0.0948
 5984SOL     OW29587   3.282   0.766   2.903 -0.0942 -0.3520  0.2888
 5984SOL    HW129588   3.341   0.696   2.931  0.2584 -1.0147 -2.1338
 5984SOL    HW229589   3.269   0.747   2.810  2.4125 -0.3423 -0.0484
 5985SOL     OW29590   2.778   2.213   6.517 -0.9696  0.3761 -1.0217
 5985SOL    HW129591   2.754   2.282   6.580  1.5044 -0.5864  0.9427
 5985SOL    HW229592   2.694   2.209   6.471 -1.8385 -1.4434  0.7060
 5986SOL     OW29593   4.640   1.593   1.092  0.1241 -0.6801  0.0033
 5986SOL    HW129594   4.643   1.500   1.071 -1.8870 -0.7861  0.2565
 5986SOL    HW229595   4.728   1.617   1.060  0.6426 -0.2970  1.7158
 5987SOL     OW29596   4.393   2.956   2.758 -0.0004  0.0571 -0.2539
 5987SOL    HW129597   4.468   2.898   2.748  0.2973  0.6300 -1.3370
 5987SOL    HW229598   4.364   2.963   2.667  1.3139 -1.3490 -0.7787
 5988SOL     OW29599   1.655   0.885   2.657  0.1182  0.4607  0.7921
 5988SOL    HW129600   1.682   0.972   2.629  0.0822  0.2227  0.0239
 5988SOL    HW229601   1.707   0.827   2.601 -1.1966 -1.1632  1.2351
 5989SOL     OW29602   2.334   2.021  16.574 -0.2130  0.2516 -0.0764
 5989SOL    HW129603   2.278   2.079  16.522  1.3519  0.8457 -1.1120
 5989SOL    HW229604   2.404   2.080  16.603 -0.5332  0.5420  0.1014
 5990SOL     OW29605   0.062   1.253  16.273  0.1217 -0.0698  0.8375
 5990SOL    HW129606   0.152   1.248  16.241  0.2615  1.4516  1.0054
 5990SOL    HW229607   0.048   1.346  16.254 -0.1906 -0.2912 -0.0020
 5991SOL     OW29608   3.186   0.169   8.257  0.3644  0.0176  0.5542
 5991SOL    HW129609   3.141   0.117   8.190  1.2818 -1.8528  1.3781
 5991SOL    HW229610   3.275   0.155   8.226 -0.9646  2.2797 -4.1569
 5992SOL     OW29611   2.124   4.457   8.442  0.2356  1.0941 -0.5177
 5992SOL    HW129612   2.179   4.531   8.417 -0.0398  1.0655 -1.1925
 5992SOL    HW229613   2.056   4.448   8.375 -0.4520  0.8254  0.2204
 5993SOL     OW29614   2.376   3.868   3.847 -0.3255  0.1224 -0.0455
 5993SOL    HW129615   2.355   3.797   3.786 -1.4845  0.9041 -0.5399
 5993SOL    HW229616   2.315   3.844   3.916 -0.9674  0.3650 -0.5381
 5994SOL     OW29617   2.608   1.297   3.852 -0.2502 -0.3883 -0.5965
 5994SOL    HW129618   2.663   1.227   3.819  0.4374 -0.2578  0.2752
 5994SOL    HW229619   2.651   1.299   3.938 -1.7212  1.0778  0.1203
 5995SOL     OW29620   1.323   3.039   5.496  0.4152 -0.1110  0.1356
 5995SOL    HW129621   1.246   3.081   5.535  0.1234 -0.5298  0.0060
 5995SOL    HW229622   1.290   2.962   5.450  3.2500 -1.2328  0.0079
 5996SOL     OW29623   1.314   2.253   1.404  0.0748  0.1410 -0.0455
 5996SOL    HW129624   1.220   2.237   1.399  0.3057 -1.9841  2.0724
 5996SOL    HW229625   1.326   2.287   1.493 -0.2196  0.9819 -0.3302
 5997SOL     OW29626   4.695   4.677   8.144 -0.4355  0.2955 -0.4107
 5997SOL    HW129627   0.038   4.726   8.158 -0.2049 -0.6304  1.5231
 5997SOL    HW229628   4.727   4.616   8.077  0.9911  0.3932  0.1702
 5998SOL     OW29629   4.443   4.504   4.280 -0.4275  0.0029  0.3215
 5998SOL    HW129630   4.536   4.483   4.276  0.1695  2.9719 -1.5524
 5998SOL    HW229631   4.437   4.582   4.335  1.9555 -0.0770  0.6890
 5999SOL     OW29632   1.394   0.391   4.051  0.0754 -0.1640 -0.7655
 5999SOL    HW129633   1.439   0.471   4.078 -0.5495 -0.9789  2.6381
 5999SOL    HW229634   1.377   0.357   4.138 -1.1341  0.4322 -0.7795
 6000SOL     OW29635   1.695   0.302   8.533 -0.3000  0.4357  0.4091
 6000SOL    HW129636   1.757   0.229   8.530 -0.0030  0.7112 -0.1402
 6000SOL    HW229637   1.756   0.376   8.531  0.0948  0.1258  0.8273
 6001SOL     OW29638   0.571   0.698   9.917  0.4600  0.0792  0.1746
 6001SOL    HW129639   0.662   0.723   9.901  0.8127 -1.8472 -0.9116
 6001SOL    HW229640   0.556   0.607   9.891 -1.5681  0.2268  0.8426
 6002SOL     OW29641   3.759   1.648   6.780  0.6795  0.0522 -0.3765
 6002SOL    HW129642   3.721   1.560   6.788  0.5674 -0.0723 -2.2496
 6002SOL    HW229643   3.840   1.631   6.827  1.3008  1.3935 -0.9691
 6003SOL     OW29644   4.653   1.249   5.046  0.6238 -0.2225 -0.0438
 6003SOL    HW129645   4.724   1.185   5.038  1.6728  0.8556  0.6062
 6003SOL    HW229646   4.692   1.331   5.015 -0.1644 -0.7467 -2.3913
 6004SOL     OW29647   4.223   3.801  10.237 -0.9524 -0.7530 -0.4644
 6004SOL    HW129648   4.168   3.863  10.284 -3.3927 -2.1227 -1.5074
 6004SOL    HW229649   4.278   3.759  10.303  1.4653 -0.3394 -2.2078
 6005SOL     OW29650   3.355   2.303   5.433  0.1162  0.1070 -0.1802
 6005SOL    HW129651   3.263   2.279   5.444 -0.2735  1.6888  0.0069
 6005SOL    HW229652   3.389   2.269   5.516 -1.4904 -0.2312  0.3505
 6006SOL     OW29653   2.257   2.457  11.197  0.4069 -0.1437  0.2460
 6006SOL    HW129654   2.166   2.428  11.192 -0.4040  1.9309  3.0764
 6006SOL    HW229655   2.301   2.372  11.194 -0.8673 -0.6985 -1.9245
 6007SOL     OW29656   1.032   0.269   9.794 -0.5797  0.8571  0.0746
 6007SOL    HW129657   1.032   0.191   9.849  2.0908  0.5967 -0.2819
 6007SOL    HW229658   1.072   0.227   9.718 -1.2862 -1.5163  1.0152
 6008SOL     OW29659   1.997   3.821  11.236 -0.6073  0.4294 -0.6015
 6008SOL    HW129660   1.987   3.737  11.282  1.9327  0.5395  0.1413
 6008SOL    HW229661   2.064   3.861  11.292  0.0507  0.6158 -1.5417
 6009SOL     OW29662   1.723   3.403   5.203 -0.3484  0.1780  0.1171
 6009SOL    HW129663   1.763   3.316   5.197 -1.8599 -0.3680 -1.9131
 6009SOL    HW229664   1.631   3.383   5.186  0.5323 -3.3224 -0.6125
 6010SOL     OW29665   3.481   2.847   1.938  0.4794 -0.4862  0.2959
 6010SOL    HW129666   3.531   2.868   1.859 -0.9325 -0.9026 -0.7082
 6010SOL    HW229667   3.524   2.891   2.011 -0.2663  1.5011 -0.4530
 6011SOL     OW29668   3.043   1.193   3.489 -0.3739  0.0839 -0.5069
 6011SOL    HW129669   3.083   1.115   3.526 -0.5683 -0.9476 -2.4803
 6011SOL    HW229670   3.088   1.185   3.405 -0.6984  0.4508 -0.7152
 6012SOL     OW29671   3.675   0.796   8.598 -0.8212  0.1173  0.6201
 6012SOL    HW129672   3.666   0.808   8.693  1.3237 -1.5508  1.0272
 6012SOL    HW229673   3.728   0.866   8.560  0.4871 -2.0145 -1.4467
 6013SOL     OW29674   2.772   1.437   8.244 -0.0026  0.1459  0.0356
 6013SOL    HW129675   2.684   1.472   8.243  1.0245  2.6884 -1.3578
 6013SOL    HW229676   2.759   1.346   8.217  0.8922 -0.3353  1.1987
 6014SOL     OW29677   0.937   4.062   3.019 -0.3510  0.7453  0.2746
 6014SOL    HW129678   0.977   3.986   3.061 -0.9861 -0.2534 -0.9326
 6014SOL    HW229679   0.904   4.121   3.087 -2.0075 -0.9689  0.9502
 6015SOL     OW29680   0.925   2.566   6.674 -0.2651 -0.0806  0.3576
 6015SOL    HW129681   0.932   2.658   6.701  2.1018 -0.0810 -0.2291
 6015SOL    HW229682   0.830   2.563   6.664 -0.3231 -0.6551  1.0825
 6016SOL     OW29683   2.424   1.794   8.339 -0.3749 -0.2351  0.6078
 6016SOL    HW129684   2.443   1.863   8.403  1.8943 -3.3233  3.2799
 6016SOL    HW229685   2.409   1.845   8.260 -0.3743  0.2555  0.9258
 6017SOL     OW29686   0.901   4.712  13.556  0.1591 -0.4203  0.4673
 6017SOL    HW129687   0.933   0.056  13.519 -0.0400  0.1905  1.6775
 6017SOL    HW229688   0.812   4.706  13.521  0.6683 -0.6619 -0.8038
 6018SOL     OW29689   4.586   0.121  14.093 -0.1920 -0.8279 -0.0732
 6018SOL    HW129690   4.599   0.162  14.178  1.7518 -1.4591 -0.0490
 6018SOL    HW229691   4.494   0.142  14.081  0.3755  0.9262 -1.2865
 6019SOL     OW29692   1.103   0.992  13.215 -0.0969 -0.4582  0.0819
 6019SOL    HW129693   1.176   0.945  13.174  2.1631  1.0920  2.2435
 6019SOL    HW229694   1.076   0.912  13.260  0.1644  0.4118  1.8046
 6020SOL     OW29695   1.831   2.572   6.833 -0.0390 -0.1952  0.3964
 6020SOL    HW129696   1.849   2.484   6.866  1.0952  1.3348  3.7355
 6020SOL    HW229697   1.793   2.544   6.749  0.4876 -1.0772  0.4531
 6021SOL     OW29698   2.783   0.841   5.231  0.2998 -0.4007  0.0089
 6021SOL    HW129699   2.710   0.850   5.293  1.9246 -0.0162  1.8537
 6021SOL    HW229700   2.852   0.852   5.297  0.1775 -2.4748  0.4866
 6022SOL     OW29701   0.492   0.948   5.572  0.3013 -0.2010 -0.2256
 6022SOL    HW129702   0.420   1.008   5.554  1.2175  1.2095  0.8703
 6022SOL    HW229703   0.548   0.995   5.634  0.3087 -0.1348 -0.2839
 6023SOL     OW29704   2.669   0.986  10.885 -0.2716  0.8376 -0.2271
 6023SOL    HW129705   2.667   1.020  10.796  1.0445  0.7671 -0.2890
 6023SOL    HW229706   2.590   1.034  10.907 -1.2364 -0.1220 -1.6243
 6024SOL     OW29707   2.732   2.121  17.599 -0.3484  0.3486  0.1717
 6024SOL    HW129708   2.763   2.034  17.624  2.8746  1.7821  1.1325
 6024SOL    HW229709   2.647   2.108  17.557 -0.1241 -0.1453 -0.1219
 6025SOL     OW29710   1.682   2.681   1.401  0.4813 -0.2258 -0.2505
 6025SOL    HW129711   1.696   2.772   1.429  0.0638 -0.5556  1.0333
 6025SOL    HW229712   1.699   2.691   1.307  1.4539  0.7607  0.0283
 6026SOL     OW29713   3.640   1.811   0.330  0.1147  0.1817  0.0891
 6026SOL    HW129714   3.556   1.766   0.318 -0.0762  0.8578 -1.1499
 6026SOL    HW229715   3.603   1.897   0.350  0.7460  0.6151 -0.5916
 6027SOL     OW29716   1.168   1.606   2.042 -0.0719  0.0746 -0.5835
 6027SOL    HW129717   1.178   1.697   2.014 -1.8831  0.0573 -1.2468
 6027SOL    HW229718   1.128   1.617   2.128 -2.3965 -0.2795 -1.6359
 6028SOL     OW29719   2.127   2.947  12.489 -0.3223  0.0708 -0.3413
 6028SOL    HW129720   2.199   3.007  12.473 -0.7461  0.4825 -0.7115
 6028SOL    HW229721   2.085   2.947  12.403 -2.4947  0.3625  0.7260
 6029SOL     OW29722   3.428   0.433   4.835  0.2545 -0.0561 -0.2556
 6029SOL    HW129723   3.402   0.383   4.913  0.8732 -3.1320 -2.0230
 6029SOL    HW229724   3.401   0.386   4.756  1.2642  2.4663 -2.1009
 6030SOL     OW29725   3.338   3.723   2.307 -0.1625 -0.2601 -0.0947
 6030SOL    HW129726   3.375   3.740   2.221 -2.4172 -1.9890 -1.4018
 6030SOL    HW229727   3.326   3.812   2.339 -0.0698  0.2489 -1.4963
 6031SOL     OW29728   3.464   1.834  12.965  0.0830  0.0043  0.5096
 6031SOL    HW129729   3.495   1.922  12.985 -1.7507  0.1708  2.5125
 6031SOL    HW229730   3.425   1.802  13.046  0.9685 -0.3015  0.8123
 6032SOL     OW29731   2.024   2.193   1.961 -0.1794  0.0083 -0.1765
 6032SOL    HW129732   2.029   2.286   1.939  1.3811  0.1227  0.6496
 6032SOL    HW229733   2.082   2.190   2.038  0.5494  0.6861 -0.7092
 6033SOL     OW29734   0.466   4.035  13.735  0.4419 -0.0758 -0.1820
 6033SOL    HW129735   0.513   4.118  13.728 -1.1859  0.8462 -0.1646
 6033SOL    HW229736   0.403   4.061  13.802 -0.2219  0.9366 -1.2075
 6034SOL     OW29737   0.213   1.775   0.081  0.1589 -0.4619  0.2922
 6034SOL    HW129738   0.269   1.852   0.074 -1.3099  0.4575 -1.2824
 6034SOL    HW229739   0.139   1.806   0.132 -0.5740  1.3231 -1.8782
 6035SOL     OW29740   2.361   4.564   6.552  0.3304  0.4889 -0.3544
 6035SOL    HW129741   2.399   4.476   6.542  0.8638  0.5694  0.9913
 6035SOL    HW229742   2.278   4.551   6.599  0.6973  0.1364  0.1947
 6036SOL     OW29743   4.490   0.980   7.683 -0.3237  0.2347  0.5231
 6036SOL    HW129744   4.526   0.936   7.606 -3.7771 -2.5491  0.4682
 6036SOL    HW229745   4.395   0.974   7.676 -0.1997  0.4659 -1.2821
 6037SOL     OW29746   0.985   2.350   8.526  0.4152 -0.3076  0.0278
 6037SOL    HW129747   0.948   2.438   8.514  0.8091 -0.1764 -0.2311
 6037SOL    HW229748   0.930   2.288   8.478 -1.1720  0.3502  0.9871
 6038SOL     OW29749   0.920   2.223  14.244 -0.1616  0.4981  0.3244
 6038SOL    HW129750   0.981   2.293  14.265 -0.3919  0.6629  0.4441
 6038SOL    HW229751   0.850   2.238  14.308 -0.6537 -3.9120  0.8349
 6039SOL     OW29752   2.730   3.930   1.612 -0.3680  0.0157  0.0320
 6039SOL    HW129753   2.706   3.857   1.669  3.8208 -1.4543 -0.1272
 6039SOL    HW229754   2.723   4.002   1.675  0.1878  0.3406 -0.2832
 6040SOL     OW29755   4.424   2.983   8.961 -0.1683 -0.2257 -0.5717
 6040SOL    HW129756   4.408   2.910   8.900 -1.4557 -0.3375 -0.0949
 6040SOL    HW229757   4.440   2.943   9.047 -0.3586 -0.6257 -0.7230
 6041SOL     OW29758   1.136   1.511   5.612 -0.6565  0.7137 -0.1378
 6041SOL    HW129759   1.209   1.541   5.667  0.1749 -0.7589 -0.4422
 6041SOL    HW229760   1.087   1.592   5.597  0.5448  1.1598 -1.6132
 6042SOL     OW29761   0.380   1.997  12.776 -0.7184 -0.0121  0.0700
 6042SOL    HW129762   0.434   2.002  12.697  0.5632  0.9438  1.0219
 6042SOL    HW229763   0.382   1.901  12.787 -0.1095 -0.0784 -0.5985
 6043SOL     OW29764   2.634   2.478  14.519 -0.1780  0.1642  0.2424
 6043SOL    HW129765   2.619   2.386  14.541 -1.9686  0.5624  0.7074
 6043SOL    HW229766   2.726   2.475  14.493 -0.1076 -2.7460  0.8384
 6044SOL     OW29767   3.362   0.510  16.470  0.2951 -0.1312 -1.2955
 6044SOL    HW129768   3.304   0.434  16.465 -1.2450  1.0542 -1.7365
 6044SOL    HW229769   3.440   0.488  16.420  0.9872  1.5477 -0.9666
 6045SOL     OW29770   0.748   1.124   2.186  0.1908  0.7101  0.2022
 6045SOL    HW129771   0.810   1.070   2.137 -0.4096 -1.1477  1.4833
 6045SOL    HW229772   0.668   1.090   2.146 -1.2584  1.6281  2.2766
 6046SOL     OW29773   2.186   2.349   0.436 -0.0304 -0.0597  0.0208
 6046SOL    HW129774   2.241   2.427   0.442 -0.6735  0.5941 -2.8413
 6046SOL    HW229775   2.171   2.353   0.342  0.0771  2.0026  0.0994
 6047SOL     OW29776   3.949   4.706   9.008 -0.6189  0.1605 -0.4529
 6047SOL    HW129777   3.915   4.738   9.092  2.4724  2.6657 -0.1174
 6047SOL    HW229778   4.023   0.028   8.999  2.0545 -2.3387  4.6724
 6048SOL     OW29779   1.259   2.454  14.723  0.2116  0.0281 -0.4701
 6048SOL    HW129780   1.346   2.420  14.699  0.0694 -0.5200 -0.2020
 6048SOL    HW229781   1.252   2.426  14.814 -1.2075 -0.3895 -0.7104
 6049SOL     OW29782   0.759   4.428  15.934  0.0794  0.0248  0.1995
 6049SOL    HW129783   0.741   4.375  16.012  0.4783  0.8341  0.8442
 6049SOL    HW229784   0.721   4.510  15.964 -1.2880 -1.8023  3.4711
 6050SOL     OW29785   0.529   1.716   2.085 -0.2359 -0.4947  0.1258
 6050SOL    HW129786   0.447   1.682   2.048  0.2294  2.0340 -3.2319
 6050SOL    HW229787   0.572   1.732   2.001  0.2272 -2.3168 -0.0012
 6051SOL     OW29788   4.092   0.267   5.168 -0.0942  0.3132 -0.0237
 6051SOL    HW129789   4.037   0.303   5.099  0.3949  0.4736 -0.3378
 6051SOL    HW229790   4.128   0.194   5.117 -0.8623 -0.2362  0.2208
 6052SOL     OW29791   2.159   3.472   3.314  0.3223 -0.2611  0.1793
 6052SOL    HW129792   2.239   3.525   3.309 -0.5077  1.0410  0.6310
 6052SOL    HW229793   2.168   3.433   3.227 -3.8160  2.4044 -1.4620
 6053SOL     OW29794   1.658   4.617   8.016 -0.0076  0.2463  0.0756
 6053SOL    HW129795   1.608   4.698   8.016  0.2365  0.3962  0.2055
 6053SOL    HW229796   1.740   4.656   8.048  0.9702  0.5311 -2.7895
 6054SOL     OW29797   2.177   3.354   2.168 -0.3532 -0.3739 -0.0983
 6054SOL    HW129798   2.224   3.327   2.089 -0.8700 -0.5970 -0.3309
 6054SOL    HW229799   2.223   3.425   2.213 -1.6379  1.0124 -0.9610
 6055SOL     OW29800   3.102   4.313  16.135  0.3504  0.4578 -0.0198
 6055SOL    HW129801   3.128   4.398  16.098  2.0489 -0.4858 -1.0139
 6055SOL    HW229802   3.191   4.285  16.157  0.0692  1.1017  1.8794
 6056SOL     OW29803   4.611   1.366   5.783  0.3356 -0.2508 -0.4677
 6056SOL    HW129804   4.555   1.291   5.801  1.4168 -0.7719  0.7495
 6056SOL    HW229805   4.637   1.353   5.692 -1.0799  3.2701 -1.3811
 6057SOL     OW29806   4.545   2.186   3.783 -0.2784 -0.2502  0.5921
 6057SOL    HW129807   4.490   2.126   3.732  0.4793 -0.7920  0.4216
 6057SOL    HW229808   4.630   2.144   3.774 -0.6495 -0.5458 -1.5862
 6058SOL     OW29809   4.291   4.051   5.754 -0.4819  0.3053 -0.3102
 6058SOL    HW129810   4.249   4.111   5.692 -0.5220 -0.4632 -1.0318
 6058SOL    HW229811   4.328   4.108   5.822  0.8135  1.3919 -1.9251
 6059SOL     OW29812   3.439   3.687   9.176  0.2855  0.2213 -0.8759
 6059SOL    HW129813   3.411   3.640   9.097 -1.3359  0.4932 -0.4516
 6059SOL    HW229814   3.513   3.731   9.133 -0.0837  1.5180 -0.1697
 6060SOL     OW29815   3.858   4.643   5.706 -0.4213 -0.4838 -0.5440
 6060SOL    HW129816   3.868   4.657   5.612 -0.4722  2.2287 -0.1483
 6060SOL    HW229817   3.902   4.559   5.718 -0.5296 -0.4859 -0.1479
 6061SOL     OW29818   0.444   1.406   1.398  0.6446  0.1745  0.2616
 6061SOL    HW129819   0.487   1.336   1.447  2.1881 -0.0772 -1.4653
 6061SOL    HW229820   0.504   1.471   1.435  1.3189 -0.9758  1.2171
 6062SOL     OW29821   2.914   4.429  10.328 -0.1259  0.1880 -0.1509
 6062SOL    HW129822   2.929   4.401  10.418  0.6418 -0.7937 -0.5920
 6062SOL    HW229823   2.962   4.377  10.263  1.6079  0.1738  1.1488
 6063SOL     OW29824   0.283   2.220  15.893  0.0509  0.0776  0.3297
 6063SOL    HW129825   0.373   2.238  15.867  1.3636 -3.1387  2.7169
 6063SOL    HW229826   0.281   2.236  15.987 -0.4579 -1.1450  0.5331
 6064SOL     OW29827   4.240   0.640   3.585 -0.2436  0.0292 -0.0403
 6064SOL    HW129828   4.155   0.619   3.546 -0.6251  0.4844  0.5390
 6064SOL    HW229829   4.279   0.553   3.583  0.4051  0.3078  0.4931
 6065SOL     OW29830   0.021   1.904  11.137 -0.4036  0.3433  0.5728
 6065SOL    HW129831   0.018   1.889  11.231 -0.6027 -0.7435  0.3927
 6065SOL    HW229832   4.669   1.885  11.111  0.4934 -3.8502  0.4675
 6066SOL     OW29833   3.799   3.124   6.450 -0.0753  0.0237 -0.0135
 6066SOL    HW129834   3.716   3.162   6.478  0.5070  2.1898 -1.2063
 6066SOL    HW229835   3.781   3.112   6.357  1.3532 -0.3158 -0.2386
 6067SOL     OW29836   0.459   1.894  16.771 -0.1196 -0.2839 -0.3270
 6067SOL    HW129837   0.549   1.862  16.765  0.2873  0.8038  0.0247
 6067SOL    HW229838   0.472   1.987  16.752  1.2949 -0.3490  0.3557
 6068SOL     OW29839   4.680   0.059   5.262 -0.2263 -0.0994  0.0914
 6068SOL    HW129840   0.010   0.124   5.281  2.3188 -2.4166 -1.0345
 6068SOL    HW229841   4.709   0.023   5.178 -0.3814  1.7134 -0.7589
 6069SOL     OW29842   0.819   0.601  10.515  0.3207  0.2286  0.9049
 6069SOL    HW129843   0.806   0.689  10.551 -0.3616  0.1597  0.8259
 6069SOL    HW229844   0.857   0.562  10.593  2.0986  1.4635  0.6755
 6070SOL     OW29845   4.397   2.722   3.064 -0.4776  0.1144 -0.0921
 6070SOL    HW129846   4.333   2.763   3.122  2.7742  1.3219  2.6473
 6070SOL    HW229847   4.481   2.745   3.104  0.7208 -0.3663 -2.3591
 6071SOL     OW29848   4.437   4.492   7.007 -0.0655  0.3275 -0.3240
 6071SOL    HW129849   4.443   4.569   6.951 -2.5505  2.5014  2.3973
 6071SOL    HW229850   4.449   4.538   7.090  0.5904 -1.4793  0.5716
 6072SOL     OW29851   0.632   3.092   6.415 -0.0383 -0.4363 -0.7350
 6072SOL    HW129852   0.557   3.064   6.363 -0.3227  1.6516 -1.4561
 6072SOL    HW229853   0.604   3.178   6.447  1.4945 -1.2360  2.8075
 6073SOL     OW29854   1.593   0.797   6.524  0.3598  0.1879  0.3484
 6073SOL    HW129855   1.499   0.779   6.519  0.3035  0.7828 -0.7506
 6073SOL    HW229856   1.627   0.732   6.462  0.9462  1.2121 -0.4104
 6074SOL     OW29857   2.669   4.359   4.507  0.2732  0.3245  0.3265
 6074SOL    HW129858   2.690   4.329   4.418  1.1617 -3.2202  1.7206
 6074SOL    HW229859   2.655   4.453   4.493 -1.0193  0.0995  0.1723
 6075SOL     OW29860   3.978   4.182  16.357  0.3189 -0.0265 -0.4263
 6075SOL    HW129861   3.970   4.098  16.403 -0.0408  0.4792  0.4329
 6075SOL    HW229862   4.001   4.238  16.431  0.2059 -3.4904  2.2399
 6076SOL     OW29863   0.193   2.237  12.713  0.0762 -0.0417  0.1301
 6076SOL    HW129864   0.284   2.206  12.718 -0.0413 -0.0588  2.1362
 6076SOL    HW229865   0.217   2.328  12.729  1.4813 -0.5737  1.0440
 6077SOL     OW29866   3.536   1.580   2.283  0.0764  0.4259 -0.1005
 6077SOL    HW129867   3.449   1.608   2.256  0.4549  1.6607 -0.0324
 6077SOL    HW229868   3.524   1.583   2.378  0.6839  1.4078 -0.0538
 6078SOL     OW29869   2.837   2.162  17.314 -0.3752 -0.4851 -0.2658
 6078SOL    HW129870   2.822   2.067  17.318 -0.8631 -0.2933  2.1924
 6078SOL    HW229871   2.792   2.190  17.393  1.1102  1.8429 -0.2349
 6079SOL     OW29872   0.546   0.570   2.887 -0.1052 -0.3374 -0.7074
 6079SOL    HW129873   0.488   0.624   2.834 -1.4328 -0.2157  0.8868
 6079SOL    HW229874   0.551   0.498   2.824 -0.4652 -1.5557  0.6542
 6080SOL     OW29875   2.856   1.777   5.978 -0.4102 -0.3144 -0.6060
 6080SOL    HW129876   2.832   1.712   5.913 -0.2403 -2.1891  1.1864
 6080SOL    HW229877   2.810   1.854   5.947  1.8958  1.8086  1.2478
 6081SOL     OW29878   2.792   1.318   4.053 -0.3126 -0.5118  0.3187
 6081SOL    HW129879   2.820   1.233   4.087  1.5245 -0.3158 -0.6902
 6081SOL    HW229880   2.736   1.337   4.128  0.2751 -0.2474  0.6938
 6082SOL     OW29881   2.894   1.130  13.816  0.3075  0.6145 -0.1500
 6082SOL    HW129882   2.905   1.171  13.902 -0.0389 -1.2938  0.8079
 6082SOL    HW229883   2.979   1.086  13.811  0.6426  1.1224  0.9891
 6083SOL     OW29884   3.271   4.715   9.518  0.1299  0.4020 -0.0114
 6083SOL    HW129885   3.186   4.737   9.478 -0.1372 -0.5257  0.0497
 6083SOL    HW229886   3.330   0.026   9.461  1.2786 -0.0712  0.7781
 6084SOL     OW29887   3.913   3.122  17.635  0.4336 -0.1393  0.2653
 6084SOL    HW129888   4.000   3.088  17.615  1.7177  3.0674  0.5053
 6084SOL    HW229889   3.868   3.074  17.565 -1.2139  2.8120 -0.6820
 6085SOL     OW29890   4.591   1.318   9.115 -0.4417  0.1840  0.5848
 6085SOL    HW129891   4.674   1.274   9.131  0.2558  1.0192 -0.7073
 6085SOL    HW229892   4.545   1.255   9.059  0.6830 -0.8233  0.7757
 6086SOL     OW29893   0.871   1.576   2.077  0.2769  0.0983  0.4426
 6086SOL    HW129894   0.959   1.552   2.047  0.3824  0.6362  0.3317
 6086SOL    HW229895   0.847   1.502   2.133 -0.2506 -0.2956 -0.3055
 6087SOL     OW29896   1.312   0.058   4.915  0.9297 -0.0267 -0.1455
 6087SOL    HW129897   1.223   0.023   4.913  0.7713  0.3739 -0.0215
 6087SOL    HW229898   1.322   0.082   5.007 -2.6651  1.0755 -0.0477
 6088SOL     OW29899   1.271   4.426   8.282 -0.1750 -0.2357 -0.1862
 6088SOL    HW129900   1.235   4.437   8.370 -1.1997  0.8247 -0.7443
 6088SOL    HW229901   1.274   4.511   8.239  0.1068 -0.3108 -0.3155
 6089SOL     OW29902   0.566   0.797  12.313  0.7822  0.0262 -0.4711
 6089SOL    HW129903   0.538   0.883  12.282  1.4273  0.8149  1.1571
 6089SOL    HW229904   0.526   0.738  12.249 -0.0835  0.9532 -0.7695
 6090SOL     OW29905   0.258   3.016   2.891  0.8390 -0.3000 -0.4648
 6090SOL    HW129906   0.198   2.999   2.964 -0.6124  1.7340 -1.1712
 6090SOL    HW229907   0.300   3.091   2.933  2.1405  0.2087 -2.6469
 6091SOL     OW29908   0.167   0.586  12.141 -0.9213  0.3775 -0.4554
 6091SOL    HW129909   0.239   0.585  12.077 -0.9184 -0.6464 -0.4229
 6091SOL    HW229910   0.162   0.681  12.151  0.0841  0.4271 -0.4362
 6092SOL     OW29911   0.375   2.423   5.068  0.1609  0.0393 -0.3450
 6092SOL    HW129912   0.292   2.413   5.022 -0.1407 -1.0538  0.4567
 6092SOL    HW229913   0.434   2.465   5.005  0.3247  0.6467  0.2149
 6093SOL     OW29914   1.733   1.535   5.713 -0.3417 -0.5906  0.1344
 6093SOL    HW129915   1.736   1.547   5.618  1.4126  0.1914  0.3019
 6093SOL    HW229916   1.758   1.443   5.712 -1.4995 -0.9210  0.9427
 6094SOL     OW29917   1.799   1.254   5.716 -0.0094  0.2485  0.4902
 6094SOL    HW129918   1.783   1.201   5.637  2.5803  0.8771 -0.4480
 6094SOL    HW229919   1.749   1.212   5.787  0.3359  0.6322  0.9554
 6095SOL     OW29920   2.084   2.356   1.631 -0.0310  0.1637  0.2630
 6095SOL    HW129921   2.011   2.412   1.607  0.2967  0.1163 -0.8462
 6095SOL    HW229922   2.086   2.301   1.552  1.7352  0.1690  0.3041
 6096SOL     OW29923   2.825   3.954   2.910 -0.4777  0.3857  0.4757
 6096SOL    HW129924   2.828   3.946   2.814  4.1185  1.3617  0.5629
 6096SOL    HW229925   2.732   3.934   2.915 -0.6699  0.9225 -0.9609
 6097SOL     OW29926   1.730   0.590  13.161 -0.2071 -0.5240  0.0946
 6097SOL    HW129927   1.785   0.525  13.206 -0.3831 -0.9353 -0.2857
 6097SOL    HW229928   1.732   0.549  13.074 -1.4439  2.8685 -1.5323
 6098SOL     OW29929   1.793   1.576   4.667  0.5858 -0.0659  0.2359
 6098SOL    HW129930   1.722   1.635   4.641  1.8144  1.0451 -0.5669
 6098SOL    HW229931   1.829   1.628   4.739  1.8448  1.3757 -1.4374
 6099SOL     OW29932   0.457   0.947  17.694  0.1267 -0.0548  0.1550
 6099SOL    HW129933   0.389   0.984  17.638 -0.0554  2.8875  2.2785
 6099SOL    HW229934   0.542   0.966  17.654  0.3062 -1.2079  0.0065
 6100SOL     OW29935   1.609   1.046   8.595 -0.0865 -0.9796  0.0809
 6100SOL    HW129936   1.588   0.961   8.555 -1.6223 -0.2990 -0.5337
 6100SOL    HW229937   1.699   1.032   8.627  0.4204  0.5906 -0.6864
 6101SOL     OW29938   0.874   4.683  17.319 -0.5339  0.3358 -0.3451
 6101SOL    HW129939   0.870   0.031  17.362 -0.2972  0.3576 -0.3682
 6101SOL    HW229940   0.797   4.646  17.364  0.6379  0.9967  2.2193
 6102SOL     OW29941   3.838   2.430   0.632  0.0901  0.1619 -0.5799
 6102SOL    HW129942   3.826   2.405   0.540 -2.9081 -2.3977  0.5245
 6102SOL    HW229943   3.750   2.407   0.662  0.1986 -3.3936 -2.9739
 6103SOL     OW29944   2.384   2.543   3.744 -0.4869  0.2203 -0.4502
 6103SOL    HW129945   2.416   2.609   3.806 -0.1951 -0.2733 -0.0791
 6103SOL    HW229946   2.294   2.566   3.767 -0.0094  0.4806  1.1233
 6104SOL     OW29947   4.448   3.915  10.969 -0.4591 -0.0443  0.0620
 6104SOL    HW129948   4.494   3.979  10.915 -0.1670  0.9359  1.4836
 6104SOL    HW229949   4.389   3.870  10.908  2.3470  0.1005 -2.7480
 6105SOL     OW29950   4.134   2.323   3.918  0.4720 -0.0174  0.9118
 6105SOL    HW129951   4.227   2.303   3.931  0.4023 -1.0400 -0.1980
 6105SOL    HW229952   4.101   2.360   4.001  0.6262  4.3128 -0.9632
 6106SOL     OW29953   4.063   4.027  13.098  0.3393 -0.1680  0.0098
 6106SOL    HW129954   4.008   4.106  13.093  1.5372  0.6751  0.3279
 6106SOL    HW229955   4.099   4.035  13.186  0.4817  1.0311 -0.1620
 6107SOL     OW29956   3.872   2.912   8.279  0.6418  0.3036 -0.1001
 6107SOL    HW129957   3.895   2.819   8.276 -1.4813 -0.2635  1.0595
 6107SOL    HW229958   3.958   2.942   8.249  0.7552 -0.5144 -0.5976
 6108SOL     OW29959   3.279   4.155   0.185 -0.1256 -0.1669  0.0412
 6108SOL    HW129960   3.330   4.139   0.264  0.9305 -1.1881 -0.8567
 6108SOL    HW229961   3.283   4.067   0.146  1.6953  0.4179 -1.0479
 6109SOL     OW29962   3.353   3.053   2.322  0.3184 -0.1886  0.5677
 6109SOL    HW129963   3.315   3.063   2.235  0.2694  0.5055  0.6736
 6109SOL    HW229964   3.328   2.961   2.336 -0.8961  0.1441  0.5433
 6110SOL     OW29965   1.899   3.580  13.179 -0.3925 -0.5031  0.1240
 6110SOL    HW129966   1.854   3.646  13.232 -0.0594 -0.5933  0.5208
 6110SOL    HW229967   1.994   3.589  13.190 -0.1622 -0.7207 -1.6359
 6111SOL     OW29968   2.048   1.540   1.986  0.2040  0.6515 -0.0704
 6111SOL    HW129969   2.051   1.632   1.960 -1.0408  0.4783 -0.8353
 6111SOL    HW229970   1.984   1.538   2.057  2.7194 -1.4807  2.1769
 6112SOL     OW29971   4.165   4.393   7.035  0.2545  0.1522  0.1496
 6112SOL    HW129972   4.125   4.324   6.981  0.0280  2.2932 -2.4219
 6112SOL    HW229973   4.174   4.471   6.979 -0.9311  1.1110  1.2943
 6113SOL     OW29974   0.278   1.888   8.446  0.0522 -0.7374  0.0268
 6113SOL    HW129975   0.231   1.940   8.380 -1.0516  0.3047  1.6271
 6113SOL    HW229976   0.292   1.955   8.513 -0.9338 -0.1704 -0.3248
 6114SOL     OW29977   0.623   3.802   6.439  0.4699 -0.5305  0.9020
 6114SOL    HW129978   0.610   3.886   6.395  2.7876 -0.1676  0.9122
 6114SOL    HW229979   0.622   3.736   6.369 -1.7959  2.4278 -1.8964
 6115SOL     OW29980   0.247   2.255   6.206 -0.0157  0.1584 -0.1864
 6115SOL    HW129981   0.180   2.278   6.141 -0.8418 -2.1391 -0.1634
 6115SOL    HW229982   0.303   2.332   6.211 -1.4153  1.0842  1.1971
 6116SOL     OW29983   1.676   4.558   4.011  0.0579  0.4131  0.2459
 6116SOL    HW129984   1.605   4.494   4.021  0.8820 -1.3108 -4.9968
 6116SOL    HW229985   1.633   4.644   4.012  1.0922  0.9092  0.9286
 6117SOL     OW29986   3.675   1.840   8.381  0.0960 -0.1093 -0.1761
 6117SOL    HW129987   3.697   1.896   8.456  1.5117 -0.0575 -0.6172
 6117SOL    HW229988   3.620   1.905   8.338 -0.9503  0.9358  2.7151
 6118SOL     OW29989   2.014   4.459   3.768 -0.1889  0.7643  0.1650
 6118SOL    HW129990   2.061   4.386   3.729  0.3622  0.7638  0.8243
 6118SOL    HW229991   2.018   4.446   3.863 -2.6241  1.6334  0.3961
 6119SOL     OW29992   2.549   3.153   0.610  0.0262  0.2311 -0.3971
 6119SOL    HW129993   2.576   3.214   0.541  0.0181  0.2769 -0.3596
 6119SOL    HW229994   2.543   3.068   0.565 -1.5603 -0.2843  0.7708
 6120SOL     OW29995   0.373   0.700   5.540  0.4621  1.2231  0.2384
 6120SOL    HW129996   0.281   0.722   5.554 -1.1129 -2.3286 -4.2696
 6120SOL    HW229997   0.416   0.785   5.545 -0.0688  1.5222 -0.1800
 6121SOL     OW29998   1.930   2.481   4.591  0.2423 -0.5121  0.2719
 6121SOL    HW129999   1.992   2.427   4.541 -0.7117 -2.5496  1.3068
 6121SOL    HW230000   1.850   2.430   4.580 -0.3416  0.1992  1.2490
 6122SOL     OW30001   4.171   0.395  16.595 -0.0546  0.3138  0.0824
 6122SOL    HW130002   4.248   0.415  16.540 -1.0379  0.0390 -1.3910
 6122SOL    HW230003   4.149   0.311  16.555  2.4248  0.3212 -1.3087
 6123SOL     OW30004   1.087   3.276   9.175  0.2341 -0.2653 -0.4229
 6123SOL    HW130005   1.034   3.324   9.239  0.2063 -1.2473  0.2861
 6123SOL    HW230006   1.166   3.331   9.174 -0.3601  0.5968 -0.6494
 6124SOL     OW30007   1.313   1.611   5.784  0.0362  0.1744 -0.8407
 6124SOL    HW130008   1.244   1.595   5.849 -0.5271  1.6041 -1.0969
 6124SOL    HW230009   1.373   1.546   5.820 -1.0802  0.0179  0.7173
 6125SOL     OW30010   1.947   2.098   8.951 -0.2400  0.4425  0.4481
 6125SOL    HW130011   1.980   2.100   8.861 -1.9231  1.1105 -0.1582
 6125SOL    HW230012   1.923   2.006   8.956 -0.1088  0.3089 -1.3433
 6126SOL     OW30013   4.149   2.193   8.819 -0.2610  0.0046  0.1036
 6126SOL    HW130014   4.063   2.151   8.824 -0.0309 -0.6303 -1.5476
 6126SOL    HW230015   4.122   2.284   8.834 -1.0341 -0.2166  0.0659
 6127SOL     OW30016   0.353   0.229   3.114 -0.2352  0.2209 -0.3234
 6127SOL    HW130017   0.440   0.269   3.104 -0.6742  0.4740 -3.3114
 6127SOL    HW230018   0.322   0.257   3.200 -1.1877 -0.9784 -0.2861
 6128SOL     OW30019   3.070   0.717  10.740  0.2369  0.2104 -0.2627
 6128SOL    HW130020   3.145   0.734  10.683  2.9667 -2.1541  2.5668
 6128SOL    HW230021   2.991   0.720  10.687 -0.2173  2.1519  0.5165
 6129SOL     OW30022   1.452   1.444   0.167  0.3311 -0.1825 -0.5820
 6129SOL    HW130023   1.400   1.450   0.247  2.3347  1.4662  0.5646
 6129SOL    HW230024   1.503   1.524   0.171 -0.0449 -0.0346  1.1787
 6130SOL     OW30025   2.364   0.592   9.505 -0.3308 -0.0271  0.0174
 6130SOL    HW130026   2.401   0.675   9.474 -2.0621  0.4883 -0.6603
 6130SOL    HW230027   2.448   0.570   9.546 -0.6764  1.8824  1.7473
 6131SOL     OW30028   0.967   1.585   8.613 -0.0775 -0.2449 -0.1079
 6131SOL    HW130029   1.016   1.538   8.545 -1.7785 -1.8742 -0.2006
 6131SOL    HW230030   1.029   1.589   8.685  1.5270 -3.2330 -1.3325
 6132SOL     OW30031   2.590   3.607  17.584 -0.2086 -0.4164 -0.0879
 6132SOL    HW130032   2.598   3.609  17.488 -3.4848  1.0652 -0.3501
 6132SOL    HW230033   2.665   3.661  17.607 -0.9054  1.0047 -1.1268
 6133SOL     OW30034   2.783   1.323   2.695 -0.0390  0.3642  0.5272
 6133SOL    HW130035   2.797   1.229   2.709 -1.6130 -0.1559 -1.3683
 6133SOL    HW230036   2.724   1.323   2.619  0.4663  0.1998  0.1360
 6134SOL     OW30037   0.343   2.578   1.341 -1.0749 -0.1547  0.1280
 6134SOL    HW130038   0.396   2.646   1.383  1.6254 -2.4139  0.3753
 6134SOL    HW230039   0.376   2.578   1.251 -1.5781  2.2386 -0.0438
 6135SOL     OW30040   3.698   3.350   9.151  0.1291  0.3514 -0.0967
 6135SOL    HW130041   3.768   3.394   9.103  0.1852  0.6183  0.2293
 6135SOL    HW230042   3.731   3.361   9.240 -0.8029  0.5826  0.2098
 6136SOL     OW30043   0.615   0.340   6.473 -0.2473 -0.2957  0.2383
 6136SOL    HW130044   0.641   0.365   6.384 -1.5103  1.2241  0.2900
 6136SOL    HW230045   0.670   0.262   6.480 -1.8557 -1.3804  0.6605
 6137SOL     OW30046   2.413   3.597  17.307  0.1304 -0.0871  0.3086
 6137SOL    HW130047   2.449   3.619  17.221  0.2742  1.5799  0.7942
 6137SOL    HW230048   2.343   3.661  17.317  0.5658  0.2965  0.8563
 6138SOL     OW30049   4.257   2.283   3.286 -0.2383  0.0670  0.5068
 6138SOL    HW130050   4.228   2.346   3.220  1.3756  1.4556  1.1310
 6138SOL    HW230051   4.350   2.305   3.294 -0.4488  0.4641  1.8108
 6139SOL     OW30052   2.601   1.618   9.651  0.5593  0.1999  0.3638
 6139SOL    HW130053   2.577   1.531   9.682 -0.8291  0.4745  0.0648
 6139SOL    HW230054   2.663   1.595   9.582  2.0730 -1.1158  2.1281
 6140SOL     OW30055   4.244   0.987   7.612 -0.3000 -0.3125 -0.6982
 6140SOL    HW130056   4.224   0.906   7.565 -1.7938  0.2024 -0.9558
 6140SOL    HW230057   4.158   1.014   7.645  0.7716  2.8349 -0.5032
 6141SOL     OW30058   4.151   2.351   4.715  0.3449 -0.2694 -0.1350
 6141SOL    HW130059   4.238   2.356   4.676  1.2387  0.4118  1.9770
 6141SOL    HW230060   4.125   2.259   4.721 -1.6657  0.4136  1.6180
 6142SOL     OW30061   0.246   1.090  11.963 -0.0804 -0.4367 -0.2743
 6142SOL    HW130062   0.226   1.075  12.056 -1.2294  0.7114 -0.3333
 6142SOL    HW230063   0.169   1.050  11.923 -1.4836  0.8871  1.0690
 6143SOL     OW30064   0.053   4.309  10.090  0.1092  0.0682 -0.5741
 6143SOL    HW130065   0.084   4.223  10.120  1.6424  0.8063 -0.0695
 6143SOL    HW230066   0.108   4.362  10.148  0.6303 -2.1875  1.0039
 6144SOL     OW30067   3.174   4.238  13.370  0.0819  0.2090 -0.2623
 6144SOL    HW130068   3.251   4.190  13.340 -0.5525 -0.3449 -1.0201
 6144SOL    HW230069   3.154   4.192  13.451 -2.1765 -1.5651 -1.8138
 6145SOL     OW30070   4.428   4.593  10.709 -0.3975  0.2220 -0.1910
 6145SOL    HW130071   4.385   4.555  10.786 -0.3340 -0.2291 -0.3796
 6145SOL    HW230072   4.367   4.563  10.642  1.3746 -3.4224 -0.1935
 6146SOL     OW30073   0.857   1.915   7.206 -0.1734 -0.5890  0.0434
 6146SOL    HW130074   0.818   1.830   7.224 -2.6279  0.1405 -1.8321
 6146SOL    HW230075   0.818   1.932   7.120 -2.2192  1.1525  1.3284
 6147SOL     OW30076   2.475   4.239   4.623 -0.4177 -0.1344  0.1420
 6147SOL    HW130077   2.557   4.277   4.593 -1.8093  2.3456 -0.4884
 6147SOL    HW230078   2.502   4.148   4.609 -1.6974 -0.5792  0.5834
 6148SOL     OW30079   0.879   3.153  14.994 -0.3308 -0.4789 -0.5807
 6148SOL    HW130080   0.812   3.179  14.930  1.1319  2.8792 -0.7291
 6148SOL    HW230081   0.931   3.232  15.007 -0.2930 -0.2729 -1.9912
 6149SOL     OW30082   1.859   2.805   6.425  0.3897 -0.1978  0.0584
 6149SOL    HW130083   1.947   2.790   6.391  0.7355  3.4680 -0.6404
 6149SOL    HW230084   1.880   2.876   6.486 -0.6056 -0.4885  0.7339
 6150SOL     OW30085   2.207   0.016   8.850  0.0889  0.3537 -0.0904
 6150SOL    HW130086   2.173   4.679   8.801 -1.8448  0.3571  1.2304
 6150SOL    HW230087   2.234   4.725   8.937 -0.5902  0.3072  0.1077
 6151SOL     OW30088   2.569   0.371   7.992  0.1546  0.3370 -0.1236
 6151SOL    HW130089   2.651   0.413   7.966  0.9329 -0.8087  0.5003
 6151SOL    HW230090   2.505   0.441   7.977  0.4133  0.7552  0.6897
 6152SOL     OW30091   2.022   2.851   8.016  0.5011 -0.3845  0.2181
 6152SOL    HW130092   2.105   2.807   7.995  0.7813  1.0164 -1.5590
 6152SOL    HW230093   1.981   2.850   7.930 -0.4964 -1.7180  0.7080
 6153SOL     OW30094   4.686   3.526   3.236 -0.3712  0.5223 -0.2913
 6153SOL    HW130095   4.628   3.569   3.299 -1.7361 -0.9535 -0.5237
 6153SOL    HW230096   4.728   3.598   3.190  0.1277 -0.5282 -1.4860
 6154SOL     OW30097   3.238   1.180  16.450 -0.0974  0.4005  0.2262
 6154SOL    HW130098   3.304   1.219  16.393  1.0780  0.8021  1.8558
 6154SOL    HW230099   3.214   1.254  16.506  2.3310  1.7691 -0.5352
 6155SOL     OW30100   0.857   0.661   6.129 -0.4344  0.2828  0.0252
 6155SOL    HW130101   0.797   0.616   6.070 -0.0144  1.1617 -1.0819
 6155SOL    HW230102   0.887   0.733   6.074 -1.2547  1.9051  1.7179
 6156SOL     OW30103   0.680   0.188  17.165 -0.2501  0.0762 -0.6172
 6156SOL    HW130104   0.685   0.109  17.111  1.2542 -0.5822  0.5006
 6156SOL    HW230105   0.588   0.173  17.186 -0.2801  0.4536 -0.4785
 6157SOL     OW30106   2.217   0.262   6.419 -0.7190 -0.3823 -0.5154
 6157SOL    HW130107   2.218   0.348   6.377  0.6140 -1.0973 -1.9840
 6157SOL    HW230108   2.134   0.256   6.465  0.4436 -3.2858  1.2152
 6158SOL     OW30109   3.853   3.689   3.694  0.4817 -0.1104  0.1203
 6158SOL    HW130110   3.900   3.708   3.775  1.4036  0.7454 -0.6163
 6158SOL    HW230111   3.827   3.599   3.714 -0.5301 -0.6831 -3.6504
 6159SOL     OW30112   3.309   1.131   3.842 -0.2773 -0.3937  0.2992
 6159SOL    HW130113   3.253   1.061   3.876 -0.3586 -0.7435 -0.5472
 6159SOL    HW230114   3.383   1.086   3.802  0.2815  1.2687 -0.5510
 6160SOL     OW30115   0.375   3.231  16.433  0.0379 -0.6537  0.0206
 6160SOL    HW130116   0.398   3.322  16.449 -1.4196 -0.1675 -0.6105
 6160SOL    HW230117   0.465   3.200  16.437  0.0030 -0.7065  0.3620
 6161SOL     OW30118   0.881   0.266   8.501  0.0028 -0.7583  0.5319
 6161SOL    HW130119   0.941   0.199   8.468  0.9002  1.3019 -2.0090
 6161SOL    HW230120   0.859   0.323   8.427 -0.7670  0.7936  1.9418
 6162SOL     OW30121   1.493   3.465  17.496  0.0360  0.1820 -0.1840
 6162SOL    HW130122   1.586   3.476  17.478  0.5927 -0.2618  2.4086
 6162SOL    HW230123   1.452   3.531  17.439 -0.1351 -0.3479 -0.6709
 6163SOL     OW30124   1.096   1.871   1.271 -0.3774 -0.6191  0.0098
 6163SOL    HW130125   1.054   1.897   1.353 -1.8571  0.5820 -1.1208
 6163SOL    HW230126   1.030   1.904   1.210  0.8042  1.5977 -0.0800
 6164SOL     OW30127   1.456   3.512   3.973  0.3319  0.5737  0.1270
 6164SOL    HW130128   1.399   3.527   4.049  2.3339  0.3555  1.6682
 6164SOL    HW230129   1.488   3.602   3.969 -1.5841  1.2265 -0.6331
 6165SOL     OW30130   4.718   1.728   7.828  0.2373 -0.6881  0.3014
 6165SOL    HW130131   4.625   1.714   7.812 -0.2905  2.3973  0.6097
 6165SOL    HW230132   0.002   1.637   7.849  2.4882 -0.0461  0.8066
 6166SOL     OW30133   1.665   2.179   3.335  0.4627 -0.1500 -0.3284
 6166SOL    HW130134   1.738   2.186   3.273  2.2602  1.7520  1.9766
 6166SOL    HW230135   1.626   2.267   3.334 -0.4456 -0.5773 -1.4363
 6167SOL     OW30136   4.291   0.047   1.742 -0.2667 -0.1435 -0.1844
 6167SOL    HW130137   4.289   4.690   1.753  0.2663  0.2511  3.1893
 6167SOL    HW230138   4.383   0.071   1.729 -0.1294 -0.2769  0.5782
 6168SOL     OW30139   1.083   4.589   2.309 -0.0865  0.5447 -0.1232
 6168SOL    HW130140   1.026   4.610   2.383 -1.3809 -2.2237 -0.3435
 6168SOL    HW230141   1.048   4.508   2.274  0.8308 -0.4932  1.3918
 6169SOL     OW30142   4.162   3.329   5.048 -0.5124  0.1744 -0.3093
 6169SOL    HW130143   4.211   3.343   5.129 -1.3198 -1.7819  0.5234
 6169SOL    HW230144   4.105   3.257   5.075  1.6169 -1.0212  1.0039
 6170SOL     OW30145   1.204   1.194  16.131 -0.4072 -0.0237  0.8083
 6170SOL    HW130146   1.246   1.114  16.099  1.1893  0.6136  1.3369
 6170SOL    HW230147   1.116   1.165  16.154 -1.5465  1.5966 -1.4064
 6171SOL     OW30148   0.319   0.349   7.674  0.1650 -0.3428  0.7032
 6171SOL    HW130149   0.315   0.359   7.769  2.8318 -0.5354  0.8281
 6171SOL    HW230150   0.229   0.319   7.658 -0.7693  1.9567  1.5685
 6172SOL     OW30151   1.334   0.820  15.834  0.1572 -0.6891  0.5743
 6172SOL    HW130152   1.407   0.842  15.776 -0.0757  1.2676  1.0380
 6172SOL    HW230153   1.326   0.725  15.827  2.3423 -0.8251 -0.1935
 6173SOL     OW30154   3.757   1.982   8.606  0.0095  0.2467  0.0948
 6173SOL    HW130155   3.801   2.010   8.686  0.2384 -1.5583  0.6151
 6173SOL    HW230156   3.777   1.888   8.614  0.7640  0.3556 -0.4826
 6174SOL     OW30157   3.311   1.011  13.419  0.6230 -0.2182  0.5984
 6174SOL    HW130158   3.217   1.019  13.400  0.8077  1.4501  0.3493
 6174SOL    HW230159   3.328   0.919  13.399 -1.0270 -0.1810 -0.9518
 6175SOL     OW30160   3.491   0.144   2.969  0.6810  0.0045  0.4525
 6175SOL    HW130161   3.486   0.056   3.007  1.2805 -0.2595 -0.0738
 6175SOL    HW230162   3.407   0.178   2.939 -0.1500 -2.1886  0.3479
 6176SOL     OW30163   4.036   0.631   2.499  0.1759 -0.0775 -0.2017
 6176SOL    HW130164   4.100   0.581   2.550 -0.9977  0.6679  1.9696
 6176SOL    HW230165   4.088   0.701   2.461  1.1206  0.6813  2.5245
 6177SOL     OW30166   2.316   3.848   1.224  0.1736 -0.8505 -0.1780
 6177SOL    HW130167   2.287   3.897   1.301 -2.5895 -0.6784 -1.3259
 6177SOL    HW230168   2.267   3.767   1.236  0.1695 -1.1213 -2.0769
 6178SOL     OW30169   4.165   3.140   1.256  0.3992  0.1490 -0.2327
 6178SOL    HW130170   4.093   3.178   1.308  1.1546 -0.7365  1.4668
 6178SOL    HW230171   4.230   3.133   1.326  2.4335 -0.5660 -2.2162
 6179SOL     OW30172   0.852   1.415  15.911 -0.3993  0.1787  1.1579
 6179SOL    HW130173   0.943   1.445  15.915 -0.0479 -0.5554 -1.4883
 6179SOL    HW230174   0.828   1.449  15.998  0.4011  1.5623  0.8425
 6180SOL     OW30175   4.502   2.486   9.631  0.8457  0.5613 -0.2992
 6180SOL    HW130176   4.585   2.516   9.594  0.1933  4.0078  1.0277
 6180SOL    HW230177   4.455   2.566   9.608  0.0838 -0.1962 -1.3860
 6181SOL     OW30178   4.403   0.242   4.460 -0.0567  0.6491 -0.1894
 6181SOL    HW130179   4.420   0.306   4.392 -0.0676 -0.6912 -1.4484
 6181SOL    HW230180   4.428   0.296   4.535  0.5016  1.4069 -0.9294
 6182SOL     OW30181   1.797   3.678   0.863  0.2883 -0.1331 -0.2516
 6182SOL    HW130182   1.883   3.720   0.858  0.8132 -1.0893  0.7866
 6182SOL    HW230183   1.748   3.758   0.881  0.1117 -0.5986  1.3632
 6183SOL     OW30184   3.010   3.373   2.554 -0.3249  0.2264 -0.2168
 6183SOL    HW130185   3.080   3.435   2.536 -0.0536  0.1022  0.3993
 6183SOL    HW230186   2.968   3.418   2.628  0.4312  2.1674 -0.9745
 6184SOL     OW30187   4.724   0.848   7.893  0.1643 -0.0623  0.2381
 6184SOL    HW130188   4.653   0.855   7.830 -0.3652  1.2955  0.9810
 6184SOL    HW230189   4.695   0.777   7.951  0.5207 -0.7879 -0.4661
 6185SOL     OW30190   0.038   0.798   0.309 -0.2821  0.6473 -0.1634
 6185SOL    HW130191   0.087   0.872   0.272  1.7821 -0.9241 -0.5903
 6185SOL    HW230192   4.703   0.845   0.348 -0.8688 -0.9100  0.6037
 6186SOL     OW30193   4.164   2.173   0.538  0.2611  0.1116 -0.2780
 6186SOL    HW130194   4.244   2.127   0.515  0.1717 -0.0634 -0.2329
 6186SOL    HW230195   4.105   2.154   0.466  0.5667 -0.5381 -0.3574
 6187SOL     OW30196   0.358   2.719   2.242 -0.2607  0.5405  0.0478
 6187SOL    HW130197   0.333   2.626   2.241  0.1934  0.4209 -3.2837
 6187SOL    HW230198   0.453   2.717   2.228 -0.1565 -0.0012  0.8400
 6188SOL     OW30199   0.393   1.099   5.895  0.2293 -0.7474  0.7119
 6188SOL    HW130200   0.348   1.059   5.969  1.4858 -1.0399  1.3115
 6188SOL    HW230201   0.484   1.099   5.926  0.6719  1.0924 -0.5584
 6189SOL     OW30202   4.211   1.420   7.533  0.1007 -0.1879 -0.0593
 6189SOL    HW130203   4.199   1.501   7.581  3.5113  0.5101 -0.3886
 6189SOL    HW230204   4.268   1.376   7.597  0.0944 -1.2248 -0.7732
 6190SOL     OW30205   0.931   3.045   4.783  0.0865 -0.0745 -0.3606
 6190SOL    HW130206   0.903   3.134   4.806  0.4213 -0.4851  1.6475
 6190SOL    HW230207   0.971   3.053   4.696 -0.2902  0.2164 -0.5056
 6191SOL     OW30208   3.087   1.630   9.520  0.7382 -0.4455 -0.2532
 6191SOL    HW130209   3.113   1.677   9.599 -1.9216  2.1735 -0.9063
 6191SOL    HW230210   3.173   1.603   9.488  0.2029 -1.2582 -1.0128
 6192SOL     OW30211   2.943   1.866  11.478  0.3617  0.4389 -0.5726
 6192SOL    HW130212   2.883   1.926  11.433  2.0044  2.7359  0.3203
 6192SOL    HW230213   2.988   1.937  11.524  0.3713 -0.6701  1.1296
 6193SOL     OW30214   3.140   3.920   4.698 -0.0696  0.2744 -0.7458
 6193SOL    HW130215   3.072   3.981   4.671  0.5211  0.9298 -0.7490
 6193SOL    HW230216   3.122   3.842   4.646  0.7688 -1.5644  1.7343
 6194SOL     OW30217   4.528   4.004   9.880 -0.2568 -0.0749  0.5843
 6194SOL    HW130218   4.470   3.928   9.876 -0.4018  0.1222 -1.3138
 6194SOL    HW230219   4.598   3.959   9.834  1.6167 -0.5757  3.9424
 6195SOL     OW30220   4.438   2.766  16.881  0.2970 -0.8669  0.1267
 6195SOL    HW130221   4.343   2.768  16.895  0.1469 -2.2983 -0.6130
 6195SOL    HW230222   4.453   2.688  16.827  2.6350  0.4100 -1.0362
 6196SOL     OW30223   0.041   3.748   3.124 -0.1317  0.7308  0.0155
 6196SOL    HW130224   0.007   3.702   3.047  4.2333 -3.1608  0.4138
 6196SOL    HW230225   0.126   3.775   3.089 -0.3433 -0.6834 -1.5983
 6197SOL     OW30226   3.078   0.307   7.203  0.1866 -0.2076 -0.3597
 6197SOL    HW130227   3.164   0.346   7.190 -0.7413  1.3224 -1.8243
 6197SOL    HW230228   3.085   0.214   7.180 -2.0595 -0.5740  0.4336
 6198SOL     OW30229   0.332   2.991   4.406  0.0396  0.2619 -0.4370
 6198SOL    HW130230   0.343   2.947   4.490 -1.8321  1.7205  0.5948
 6198SOL    HW230231   0.248   2.953   4.378 -1.0108  2.2575 -0.0106
 6199SOL     OW30232   2.523   1.273  16.444  0.0583  0.0821  0.0950
 6199SOL    HW130233   2.525   1.359  16.403  0.8572  0.2193  0.4175
 6199SOL    HW230234   2.586   1.224  16.390  1.0498 -0.0775  1.4131
 6200SOL     OW30235   2.596   0.083   1.568  0.5206 -0.7222  0.2941
 6200SOL    HW130236   2.553   0.056   1.486 -1.1293  1.0720  0.5615
 6200SOL    HW230237   2.646   0.158   1.536 -0.7298  0.3981  0.9691
 6201SOL     OW30238   2.821   2.872  16.704  0.0641 -0.6649 -0.4061
 6201SOL    HW130239   2.858   2.828  16.628  0.0210 -0.6145 -0.4564
 6201SOL    HW230240   2.880   2.946  16.717 -2.1112  0.9985  0.0972
 6202SOL     OW30241   0.092   2.549   7.582  0.5076 -0.1807 -0.2615
 6202SOL    HW130242   0.136   2.519   7.503 -0.5663 -0.4485 -0.7557
 6202SOL    HW230243   0.045   2.627   7.555 -1.0755 -0.3833  1.8874
 6203SOL     OW30244   4.016   2.518   4.114 -0.8838 -0.7064 -0.4120
 6203SOL    HW130245   3.998   2.481   4.200 -1.7139  3.9509  1.3800
 6203SOL    HW230246   3.935   2.565   4.095 -0.2312  0.2492 -0.8204
 6204SOL     OW30247   0.491   4.518   1.858  0.2228 -0.8057  0.5926
 6204SOL    HW130248   0.397   4.509   1.868  0.1662 -0.2186  0.6101
 6204SOL    HW230249   0.521   4.547   1.944 -0.5665 -0.0514  0.6122
 6205SOL     OW30250   3.683   0.185   4.176  0.3532 -0.1736  0.6146
 6205SOL    HW130251   3.769   0.152   4.149  0.4835  0.8537 -0.2144
 6205SOL    HW230252   3.701   0.274   4.147 -0.7716 -0.1993 -0.1505
 6206SOL     OW30253   2.255   4.226   5.882  0.0632  0.2141 -0.3177
 6206SOL    HW130254   2.305   4.163   5.933  0.9607  2.3347  1.3825
 6206SOL    HW230255   2.263   4.305   5.935 -0.7905  0.2713 -0.2709
 6207SOL     OW30256   0.461   4.170   2.430 -0.3230  0.1167 -0.3696
 6207SOL    HW130257   0.492   4.081   2.444 -0.5700  0.5846  3.1408
 6207SOL    HW230258   0.513   4.195   2.353  1.7056 -0.6100  0.7810
 6208SOL     OW30259   4.409   3.989  11.712  0.0168  0.3245  0.2122
 6208SOL    HW130260   4.347   3.997  11.640 -1.2879  0.7787  1.4081
 6208SOL    HW230261   4.374   4.067  11.754  0.7148 -0.0352  1.4707
 6209SOL     OW30262   0.163   4.271   3.655  0.3061  0.0873 -0.1116
 6209SOL    HW130263   0.080   4.319   3.656  1.0699  1.3705  1.2020
 6209SOL    HW230264   0.147   4.199   3.716 -1.7454 -0.9362 -1.8583
 6210SOL     OW30265   1.279   3.460   9.173 -0.2090  0.3098  0.0441
 6210SOL    HW130266   1.340   3.464   9.099 -1.3384  0.6392 -0.8705
 6210SOL    HW230267   1.347   3.489   9.234 -0.1997  1.0479 -0.3117
 6211SOL     OW30268   2.622   2.155   7.961 -0.3736  0.5940 -0.0447
 6211SOL    HW130269   2.527   2.153   7.966 -0.3015  0.5989  1.2370
 6211SOL    HW230270   2.637   2.142   7.867  0.4587 -1.4723  0.3743
 6212SOL     OW30271   1.020   4.427   0.292  0.6551 -0.5361  0.2273
 6212SOL    HW130272   0.925   4.417   0.303  0.4817 -1.8503 -2.4619
 6212SOL    HW230273   1.041   4.478   0.370  0.2219 -1.6181  1.0411
 6213SOL     OW30274   2.998   1.334   6.394 -0.1335 -0.1643 -0.0834
 6213SOL    HW130275   2.904   1.319   6.379  0.1822 -0.1852 -2.0502
 6213SOL    HW230276   3.012   1.273   6.466 -2.2747  0.6947  1.0640
 6214SOL     OW30277   0.973   2.907   2.672 -0.1346 -0.7698  0.2391
 6214SOL    HW130278   0.913   2.970   2.632  1.4360  1.5865  1.5597
 6214SOL    HW230279   0.927   2.861   2.743 -0.8807 -0.0312  0.2421
 6215SOL     OW30280   2.593   3.648   5.856  0.3992 -0.3100 -0.1418
 6215SOL    HW130281   2.677   3.640   5.811 -0.0793  1.5595 -1.3720
 6215SOL    HW230282   2.610   3.594   5.933 -0.2811 -0.1717  0.1092
 6216SOL     OW30283   4.264   3.715   8.865  0.5929  0.1501 -0.1100
 6216SOL    HW130284   4.182   3.674   8.893  0.6683  2.4462  3.4090
 6216SOL    HW230285   4.301   3.643   8.813  0.6301 -0.6586  1.0510
 6217SOL     OW30286   3.916   4.083   1.297  0.2890 -0.5321 -0.0905
 6217SOL    HW130287   3.830   4.041   1.301 -0.4129  0.8185 -0.9254
 6217SOL    HW230288   3.954   4.038   1.222 -0.3014  0.7683 -1.1634
 6218SOL     OW30289   2.434   3.474   0.214 -0.2080  0.4293  0.4115
 6218SOL    HW130290   2.341   3.462   0.232  0.0918 -1.3764  0.7441
 6218SOL    HW230291   2.439   3.438   0.125 -0.8364  3.2053 -0.7604
 6219SOL     OW30292   0.988   1.613   7.597  0.4437 -0.4236  0.8840
 6219SOL    HW130293   1.032   1.677   7.541  0.0243 -0.1985  0.8103
 6219SOL    HW230294   1.033   1.534   7.567 -0.9109 -0.5927 -0.7209
 6220SOL     OW30295   4.140   1.595   7.117 -0.3853 -0.1785 -0.1744
 6220SOL    HW130296   4.139   1.678   7.070  0.3231  1.4128  2.6391
 6220SOL    HW230297   4.080   1.607   7.190  1.9650  1.5079  1.4820
 6221SOL     OW30298   4.631   2.859   7.782 -0.4991 -0.1112  0.3495
 6221SOL    HW130299   4.592   2.776   7.752  1.7911 -1.2777  0.6228
 6221SOL    HW230300   4.721   2.835   7.760 -0.6507 -0.0927 -0.2819
 6222SOL     OW30301   1.323   1.698  15.517  0.0186 -0.7955 -0.1005
 6222SOL    HW130302   1.369   1.741  15.446 -0.5967  1.2696  0.7482
 6222SOL    HW230303   1.339   1.750  15.596  0.0731  0.0706 -0.6923
 6223SOL     OW30304   0.062   2.044  16.578 -0.6637 -0.3824  0.1764
 6223SOL    HW130305   0.129   2.021  16.514 -1.5118  2.9387 -1.9250
 6223SOL    HW230306   0.037   2.128  16.538  0.7817  0.4002  0.8924
 6224SOL     OW30307   4.515   4.423   3.889  0.6140 -0.4268  0.1862
 6224SOL    HW130308   4.501   4.374   3.807 -2.1384 -1.1653  1.1104
 6224SOL    HW230309   4.440   4.401   3.943 -0.8618 -0.4287 -1.8428
 6225SOL     OW30310   1.535   0.657  15.697  0.3264 -0.0952  0.1621
 6225SOL    HW130311   1.497   0.570  15.680  0.0087 -0.0158  0.4615
 6225SOL    HW230312   1.493   0.721  15.639 -0.6895 -0.5345  0.4086
 6226SOL     OW30313   0.785   1.725   3.225  0.1598 -0.3926  0.5392
 6226SOL    HW130314   0.745   1.669   3.292 -1.3348 -0.1294 -0.1289
 6226SOL    HW230315   0.744   1.688   3.147  1.3011  0.6191 -0.5336
 6227SOL     OW30316   2.204   2.190   2.202  0.1196  0.7093  0.1603
 6227SOL    HW130317   2.154   2.209   2.282  1.2501  0.4585  0.9293
 6227SOL    HW230318   2.243   2.277   2.199 -2.7177  1.7838 -4.2824
 6228SOL     OW30319   2.053   1.096   7.980  0.4556 -0.4103 -0.0961
 6228SOL    HW130320   2.092   1.182   7.965 -0.5271 -0.0087 -0.3702
 6228SOL    HW230321   1.961   1.121   7.979  0.8362  1.0521  1.6693
 6229SOL     OW30322   2.179   3.147   4.074 -0.1457  0.2566 -0.1080
 6229SOL    HW130323   2.103   3.203   4.059  0.3718  1.4931  2.0172
 6229SOL    HW230324   2.252   3.209   4.078 -0.8484  1.0806 -0.0347
 6230SOL     OW30325   1.055   1.757   0.263 -0.0843 -0.3682  0.1054
 6230SOL    HW130326   1.049   1.794   0.351  1.4573 -1.6581  0.7622
 6230SOL    HW230327   1.028   1.666   0.279  0.4210 -0.4417  0.5201
 6231SOL     OW30328   2.792   2.583  12.693  0.0840  0.1699 -0.3948
 6231SOL    HW130329   2.746   2.624  12.766 -0.5567  0.8447 -1.1834
 6231SOL    HW230330   2.741   2.503  12.677 -1.3909  1.1640 -0.6943
 6232SOL     OW30331   1.954   4.141   0.975 -0.3782 -0.2869 -0.0351
 6232SOL    HW130332   1.936   4.203   0.905  0.6266 -0.9643 -0.8927
 6232SOL    HW230333   2.038   4.168   1.012  0.2919 -2.9242  0.4014
 6233SOL     OW30334   2.025   1.374   4.771  0.1189  0.2259 -0.2734
 6233SOL    HW130335   2.042   1.443   4.836 -2.2026  1.0448 -0.5211
 6233SOL    HW230336   1.976   1.415   4.700  1.6457  0.5768 -1.1200
 6234SOL     OW30337   3.658   1.239   7.130 -0.5927 -0.2238  0.7504
 6234SOL    HW130338   3.573   1.282   7.123 -0.1754  0.1998 -1.8567
 6234SOL    HW230339   3.640   1.180   7.203  1.0909  0.3420  1.6182
 6235SOL     OW30340   2.940   4.032   3.175 -0.1139  0.5408 -0.2476
 6235SOL    HW130341   2.915   3.968   3.108  1.2534  0.2439 -0.4723
 6235SOL    HW230342   3.030   4.055   3.151 -0.0724  1.1557  0.5034
 6236SOL     OW30343   0.276   3.805   6.550 -0.1498  0.0108 -0.0398
 6236SOL    HW130344   0.325   3.790   6.470  1.8000 -0.6743  1.3005
 6236SOL    HW230345   0.262   3.899   6.539 -2.2196 -0.5039 -1.8236
 6237SOL     OW30346   0.336   0.008   9.024 -0.6549  0.3446  0.9367
 6237SOL    HW130347   0.400   0.075   9.002 -0.3336 -0.8092 -1.6748
 6237SOL    HW230348   0.379   4.671   8.985 -1.0484  0.4677  0.2630
 6238SOL     OW30349   0.232   3.124   8.875 -0.4896  0.0072  0.5692
 6238SOL    HW130350   0.300   3.057   8.878  0.4225  0.8237 -1.6979
 6238SOL    HW230351   0.241   3.148   8.782  2.4780  0.3179  0.9310
 6239SOL     OW30352   4.202   3.216  16.193  0.0177 -0.5594 -0.2263
 6239SOL    HW130353   4.279   3.169  16.160 -0.7077 -1.5580 -0.4725
 6239SOL    HW230354   4.230   3.308  16.189 -2.1665  0.0779 -0.8838
 6240SOL     OW30355   0.901   2.144   6.310 -0.6771  0.5497 -0.3864
 6240SOL    HW130356   0.882   2.238   6.315 -2.9604 -0.0087  1.2814
 6240SOL    HW230357   0.841   2.110   6.376 -0.9842 -0.9676 -1.4565
 6241SOL     OW30358   2.462   1.468  10.317 -0.1124 -0.2100  0.2333
 6241SOL    HW130359   2.551   1.457  10.352 -0.8864 -0.2037  2.2188
 6241SOL    HW230360   2.425   1.545  10.361  0.2673  0.1986 -0.1572
 6242SOL     OW30361   2.250   1.394   6.786 -0.1452 -0.0979 -1.0184
 6242SOL    HW130362   2.231   1.484   6.813  0.1394 -1.2682  3.0607
 6242SOL    HW230363   2.337   1.386   6.824  0.4290  1.0118 -2.0930
 6243SOL     OW30364   3.331   2.485   4.334 -0.6009  0.0390  0.1325
 6243SOL    HW130365   3.279   2.561   4.362  0.1577  0.2530  0.9780
 6243SOL    HW230366   3.387   2.469   4.410 -1.9099  0.9224  1.2980
 6244SOL     OW30367   2.917   2.440  14.403  0.0035  0.0279 -0.1111
 6244SOL    HW130368   2.935   2.481  14.318 -0.0056  1.9100  0.7888
 6244SOL    HW230369   2.991   2.458  14.461  0.1649  1.7569 -0.8388
 6245SOL     OW30370   1.012   0.891   2.313 -0.3550 -0.0984 -0.5211
 6245SOL    HW130371   0.990   0.876   2.221  0.9573 -1.1195 -0.6591
 6245SOL    HW230372   1.037   0.983   2.302 -1.6717  0.3764  0.4911
 6246SOL     OW30373   1.181   2.992   6.383  0.4929 -0.6546 -0.2757
 6246SOL    HW130374   1.266   3.026   6.411 -0.1478 -2.4501  3.7545
 6246SOL    HW230375   1.137   2.974   6.466 -1.1053  1.7816 -0.6041
 6247SOL     OW30376   3.258   2.904   2.088  0.4396  0.0226  0.1992
 6247SOL    HW130377   3.228   2.825   2.134  1.9368 -0.5682  0.1510
 6247SOL    HW230378   3.321   2.864   2.029  0.7719  2.6107 -1.1652
 6248SOL     OW30379   1.255   3.339  10.309  0.3767 -0.8010 -0.6000
 6248SOL    HW130380   1.326   3.307  10.365  0.1604  2.1724  1.3832
 6248SOL    HW230381   1.227   3.264  10.256 -0.4878 -0.3049 -0.8383
 6249SOL     OW30382   3.510   4.721   9.107  0.1097 -0.1410  0.1265
 6249SOL    HW130383   3.550   4.733   9.193  1.5540  2.1526 -0.8584
 6249SOL    HW230384   3.476   4.633   9.125  0.8515 -0.5018 -0.2268
 6250SOL     OW30385   2.265   1.792  13.822 -0.3407  0.2280 -0.3553
 6250SOL    HW130386   2.241   1.703  13.849 -0.5788  0.2320 -0.5588
 6250SOL    HW230387   2.274   1.820  13.913 -0.6487  1.4157 -0.7038
 6251SOL     OW30388   2.218   1.395   8.719 -0.8150  0.3386 -0.0751
 6251SOL    HW130389   2.245   1.305   8.732  0.4602  0.8168  0.5547
 6251SOL    HW230390   2.289   1.452   8.748 -2.5707  2.5766 -0.1449
 6252SOL     OW30391   3.509   0.535  13.242 -0.2196 -0.0137 -0.5555
 6252SOL    HW130392   3.570   0.509  13.311 -0.0476 -1.0531 -1.0974
 6252SOL    HW230393   3.554   0.498  13.166  0.8095  2.3533 -1.0922
 6253SOL     OW30394   2.376   4.630  13.614  0.2069 -0.2175  0.2944
 6253SOL    HW130395   2.396   4.552  13.666  1.3372 -0.5717 -0.6527
 6253SOL    HW230396   2.430   4.688  13.667  0.0277 -0.0055  0.2434
 6254SOL     OW30397   1.915   3.772   2.113  0.5260 -0.2558  0.3377
 6254SOL    HW130398   1.916   3.772   2.017 -2.2175 -1.0866  0.3164
 6254SOL    HW230399   1.834   3.814   2.140 -0.1553 -1.7118  0.5658
 6255SOL     OW30400   3.286   1.822  11.459 -0.2482 -0.0478  0.1052
 6255SOL    HW130401   3.337   1.878  11.518 -1.2287  1.5956 -0.6098
 6255SOL    HW230402   3.195   1.829  11.489 -0.0322  3.7663 -0.1473
 6256SOL     OW30403   2.469   1.708  17.057 -0.1543  0.6787  0.4899
 6256SOL    HW130404   2.554   1.666  17.066  0.0446  0.5859 -1.6865
 6256SOL    HW230405   2.491   1.794  17.021  0.6659  0.0442 -0.5216
 6257SOL     OW30406   3.276   3.924  10.854  0.3393 -0.3213  0.8472
 6257SOL    HW130407   3.356   3.953  10.812 -1.5336  2.2316 -0.9656
 6257SOL    HW230408   3.242   4.013  10.866 -3.1552 -1.1754 -2.4926
 6258SOL     OW30409   3.987   2.073   7.476  0.9283 -0.1718  0.1351
 6258SOL    HW130410   4.059   2.030   7.431  3.1260  5.0763 -1.3535
 6258SOL    HW230411   4.009   2.164   7.453 -2.5116  0.8966  1.0976
 6259SOL     OW30412   1.171   2.944   1.266  0.2448 -0.4317 -0.2398
 6259SOL    HW130413   1.232   2.983   1.329 -2.7211  2.6726  0.7465
 6259SOL    HW230414   1.173   3.009   1.196 -0.3477 -2.6545 -2.3507
 6260SOL     OW30415   0.692   0.411   3.481  0.0232  0.6077  0.7468
 6260SOL    HW130416   0.626   0.480   3.471  0.4828  1.2840  2.2436
 6260SOL    HW230417   0.642   0.348   3.533 -0.6142 -1.3110 -2.2429
 6261SOL     OW30418   3.242   2.087   2.215  0.6469  0.4182 -0.6813
 6261SOL    HW130419   3.252   2.161   2.275 -0.3658 -1.0027  1.2533
 6261SOL    HW230420   3.320   2.101   2.162  2.0979 -1.3438  0.9477
 6262SOL     OW30421   4.534   2.420  16.188 -0.4840 -0.5707 -0.0225
 6262SOL    HW130422   4.549   2.398  16.096 -2.2207 -0.8370 -0.2427
 6262SOL    HW230423   4.456   2.369  16.212 -0.2977 -0.4640  0.8070
 6263SOL     OW30424   3.028   0.119   5.326 -0.0666  0.5673 -0.5677
 6263SOL    HW130425   3.095   0.064   5.287  1.7568  1.2945  1.5220
 6263SOL    HW230426   3.026   0.060   5.402 -0.5477 -0.0436 -1.0515
 6264SOL     OW30427   0.627   2.089   7.008  0.2375  0.1830  0.1188
 6264SOL    HW130428   0.568   2.039   6.951  2.0207  0.6494 -2.1300
 6264SOL    HW230429   0.618   2.044   7.092 -2.4765 -0.6507 -0.5986
 6265SOL     OW30430   4.136   1.744   1.959 -0.5012 -0.8608  0.2803
 6265SOL    HW130431   4.069   1.807   1.932  0.5355  0.4955  0.8670
 6265SOL    HW230432   4.087   1.663   1.951 -0.8854 -0.4432 -1.6369
 6266SOL     OW30433   1.166   2.840   6.939 -0.4340  0.2605 -0.0246
 6266SOL    HW130434   1.163   2.935   6.947 -0.9571  0.3146 -0.8034
 6266SOL    HW230435   1.207   2.832   6.853 -1.9358  1.1399 -0.8246
 6267SOL     OW30436   0.930   4.699   8.690 -0.2411  0.0447  0.0914
 6267SOL    HW130437   0.956   4.723   8.601  0.9308 -1.3426  0.0692
 6267SOL    HW230438   0.863   0.027   8.707  1.4215  1.1845  2.2311
 6268SOL     OW30439   0.191   3.256  10.486 -0.1281 -0.2713 -0.1317
 6268SOL    HW130440   0.130   3.325  10.462  1.6458  0.3250 -2.9347
 6268SOL    HW230441   0.163   3.183  10.431  1.0314 -0.8737  0.0624
 6269SOL     OW30442   3.745   0.095   3.256 -0.5315  0.3362 -0.2418
 6269SOL    HW130443   3.660   0.106   3.300 -1.4925  0.1608 -2.0580
 6269SOL    HW230444   3.717   0.041   3.182  1.9364 -1.0917 -0.1392
 6270SOL     OW30445   3.023   0.893   4.735  0.6351 -0.4257 -0.8410
 6270SOL    HW130446   3.105   0.909   4.782 -0.2617  0.0682  0.5666
 6270SOL    HW230447   2.977   0.845   4.803 -0.4137  1.5442 -0.1406
 6271SOL     OW30448   0.865   1.258   0.980  0.1769 -0.2770  0.1399
 6271SOL    HW130449   0.826   1.224   0.900 -0.2202 -0.4338  0.4000
 6271SOL    HW230450   0.928   1.325   0.952  0.8438 -0.1399  1.9501
 6272SOL     OW30451   3.043   3.435  11.323 -0.0724 -0.2365 -0.3129
 6272SOL    HW130452   3.135   3.437  11.348 -0.4684  0.4739  1.0567
 6272SOL    HW230453   3.034   3.343  11.346 -0.2596 -0.0804  0.2460
 6273SOL     OW30454   3.679   4.290  16.589 -0.5021  0.3351 -0.1013
 6273SOL    HW130455   3.730   4.361  16.628 -2.4463  0.6037  1.9645
 6273SOL    HW230456   3.716   4.225  16.648 -0.0130  0.8411  0.1491
 6274SOL     OW30457   2.770   4.355  17.574  0.7357 -0.3729 -0.1536
 6274SOL    HW130458   2.745   4.368  17.666 -0.0315  2.2665 -0.7386
 6274SOL    HW230459   2.757   4.441  17.535  0.0642  0.5464  2.1241
 6275SOL     OW30460   1.311   3.024  11.524  0.0627  0.6500 -0.1792
 6275SOL    HW130461   1.235   3.019  11.582 -0.2976 -1.6082 -0.8878
 6275SOL    HW230462   1.367   3.073  11.585  0.8552  0.4531 -0.7481
 6276SOL     OW30463   2.869   0.650   2.442 -0.4372 -0.0073 -0.0297
 6276SOL    HW130464   2.865   0.672   2.535 -0.2437  2.0611 -0.4977
 6276SOL    HW230465   2.944   0.592   2.434  0.0367  0.6079 -0.0863
 6277SOL     OW30466   1.176   2.466   6.733  0.8887 -0.5520  0.1556
 6277SOL    HW130467   1.098   2.522   6.725  1.1711 -0.2755 -0.7459
 6277SOL    HW230468   1.137   2.392   6.779  2.5096 -1.5961 -0.1806
 6278SOL     OW30469   1.176   3.453   4.792 -0.7093  0.0339  0.0719
 6278SOL    HW130470   1.186   3.381   4.855 -0.0877 -1.2444 -1.4900
 6278SOL    HW230471   1.266   3.482   4.779 -1.0856  1.6357  0.9773
 6279SOL     OW30472   4.532   0.609   6.339 -0.0228  0.2070  0.6469
 6279SOL    HW130473   4.443   0.578   6.319  0.6155  1.0439 -3.3423
 6279SOL    HW230474   4.579   0.531   6.369 -1.8725 -1.7398 -1.5640
 6280SOL     OW30475   4.352   1.557   8.889  0.4276  0.7317 -0.2985
 6280SOL    HW130476   4.384   1.577   8.801  0.0529 -0.5762 -0.7213
 6280SOL    HW230477   4.266   1.518   8.880  0.5078  0.6974 -0.9170
 6281SOL     OW30478   4.650   1.382  10.759  0.4164 -0.1332  0.0884
 6281SOL    HW130479   4.652   1.376  10.664 -1.2045  1.2086 -0.0389
 6281SOL    HW230480   4.713   1.312  10.777 -0.7457 -1.9017 -2.8172
 6282SOL     OW30481   3.519   2.208   3.557 -0.1147 -0.0810 -0.0958
 6282SOL    HW130482   3.518   2.120   3.593 -1.6172 -0.3833 -0.8557
 6282SOL    HW230483   3.429   2.239   3.569 -0.0038  0.7012 -1.3034
 6283SOL     OW30484   2.258   4.075   4.204  0.0184  0.0748  0.3496
 6283SOL    HW130485   2.321   4.135   4.164 -0.2969  0.7389  0.8540
 6283SOL    HW230486   2.173   4.115   4.190 -0.0180 -0.4242 -0.8473
 6284SOL     OW30487   3.593   1.110   2.133  0.3373  0.0011 -0.2103
 6284SOL    HW130488   3.569   1.148   2.049 -1.2992  0.8154  0.6325
 6284SOL    HW230489   3.603   1.191   2.182  1.8508 -0.8152  0.8164
 6285SOL     OW30490   4.361   1.997   7.803  0.1112  0.0181  0.4146
 6285SOL    HW130491   4.373   2.090   7.820  1.3980  0.1023 -0.8791
 6285SOL    HW230492   4.268   1.990   7.783 -0.0032  2.8091 -0.0134
 6286SOL     OW30493   3.032   2.393   2.922  0.2010 -0.4943 -0.5771
 6286SOL    HW130494   3.097   2.461   2.936 -0.2499 -0.3736  1.0277
 6286SOL    HW230495   3.043   2.380   2.828 -1.5490 -0.5558 -0.7747
 6287SOL     OW30496   3.335   1.860   8.565 -0.2195 -0.0227 -0.0215
 6287SOL    HW130497   3.246   1.874   8.599 -0.1102 -0.5290  0.4684
 6287SOL    HW230498   3.389   1.848   8.644  1.1393 -1.7140 -1.2253
 6288SOL     OW30499   1.935   1.736  17.577  0.3089 -0.4512 -0.1710
 6288SOL    HW130500   2.026   1.750  17.552  0.4204 -1.3568 -0.2653
 6288SOL    HW230501   1.882   1.791  17.518  1.9939 -0.6236 -1.8607
 6289SOL     OW30502   4.143   1.450   2.910  0.4109  0.4213  0.5947
 6289SOL    HW130503   4.190   1.369   2.929 -0.4502 -0.3712 -0.6463
 6289SOL    HW230504   4.115   1.459   3.002 -0.6411  2.7347  0.0495
 6290SOL     OW30505   2.298   2.066   1.278 -0.3039 -0.1319 -0.3979
 6290SOL    HW130506   2.366   2.014   1.235  0.1375  0.8255 -0.8450
 6290SOL    HW230507   2.310   2.032   1.367  0.4489 -1.3232 -0.9514
 6291SOL     OW30508   0.383   1.371   3.992 -0.8646 -0.5667 -0.3959
 6291SOL    HW130509   0.388   1.354   3.898  1.1441  0.1904 -0.4152
 6291SOL    HW230510   0.333   1.452   4.001 -1.2564 -0.5301 -2.8184
 6292SOL     OW30511   3.333   3.849   5.093 -0.1708  0.9219  0.5250
 6292SOL    HW130512   3.263   3.910   5.068  0.8679  1.0110 -2.1630
 6292SOL    HW230513   3.345   3.793   5.016  0.3993  1.2301  0.3883
 6293SOL     OW30514   1.128   3.520   3.911 -0.3791 -0.5324  0.5192
 6293SOL    HW130515   1.218   3.498   3.885  0.1550  0.9352  1.0781
 6293SOL    HW230516   1.106   3.477   3.994 -2.1253 -0.9532 -0.1691
 6294SOL     OW30517   0.609   0.253   3.082  0.0594 -0.2301 -0.1303
 6294SOL    HW130518   0.663   0.328   3.106 -0.8464  0.2118  0.5585
 6294SOL    HW230519   0.668   0.196   3.034 -0.7252  0.4414 -1.9003
 6295SOL     OW30520   3.732   0.788   5.124  0.4836 -0.4656  0.2962
 6295SOL    HW130521   3.714   0.868   5.173  1.9929  0.6530 -0.9826
 6295SOL    HW230522   3.728   0.816   5.032 -0.4731  1.4652  0.9184
 6296SOL     OW30523   3.793   3.299   6.853  0.2791  0.1914  0.7071
 6296SOL    HW130524   3.847   3.230   6.813 -0.8107 -0.9060  1.1214
 6296SOL    HW230525   3.800   3.366   6.786 -1.4467 -0.9116 -0.5880
 6297SOL     OW30526   4.382   1.984   6.634 -0.1753 -0.2415 -0.2837
 6297SOL    HW130527   4.325   1.970   6.709  0.6562 -1.6474  0.0821
 6297SOL    HW230528   4.453   2.037   6.670 -0.5776 -0.0259  0.1837
 6298SOL     OW30529   2.375   0.305  14.675  0.2665  0.2498  0.2713
 6298SOL    HW130530   2.382   0.329  14.582 -0.8026  0.6852  0.2984
 6298SOL    HW230531   2.376   0.209  14.668 -0.9921  0.1796  1.0705
 6299SOL     OW30532   1.168   0.496   9.017  0.0419  0.0781 -0.5894
 6299SOL    HW130533   1.232   0.489   8.945  0.6140 -0.5112 -0.0302
 6299SOL    HW230534   1.154   0.590   9.017  0.6319  0.1650 -0.4134
 6300SOL     OW30535   3.817   0.940   5.861  0.1780 -0.2436  0.2625
 6300SOL    HW130536   3.822   1.002   5.789 -0.8496 -0.9115 -0.3802
 6300SOL    HW230537   3.830   1.000   5.934 -2.5030  0.1442  0.4247
 6301SOL     OW30538   3.228   0.282   7.549  0.3294  0.2661  0.2253
 6301SOL    HW130539   3.157   0.259   7.488  2.0842 -1.2270 -1.2573
 6301SOL    HW230540   3.255   0.198   7.584  0.4105 -0.9218 -2.6531
 6302SOL     OW30541   1.878   2.522   1.551 -0.0142 -0.1442  0.2598
 6302SOL    HW130542   1.856   2.590   1.487 -0.1034 -2.0692 -1.7666
 6302SOL    HW230543   1.796   2.523   1.601  0.9486  1.5635  1.8181
 6303SOL     OW30544   2.872   1.071   4.093  0.0455  0.2316 -0.6740
 6303SOL    HW130545   2.962   1.052   4.067 -0.2064 -0.8343 -0.7571
 6303SOL    HW230546   2.842   0.980   4.099  1.8421 -0.4751 -2.2185
 6304SOL     OW30547   3.866   0.080   9.306 -0.0738 -0.4844 -0.0284
 6304SOL    HW130548   3.818   0.153   9.346  0.9427  0.3429 -0.3282
 6304SOL    HW230549   3.958   0.096   9.328 -0.3163  0.6931  0.1216
 6305SOL     OW30550   0.888   1.634   2.476  0.1580 -0.2410 -0.6023
 6305SOL    HW130551   0.807   1.625   2.426 -1.4727 -3.0644  2.5791
 6305SOL    HW230552   0.872   1.717   2.520 -1.7599 -0.8253 -0.1655
 6306SOL     OW30553   2.393   1.692   7.445 -0.1706  0.5766 -0.6709
 6306SOL    HW130554   2.334   1.758   7.409  0.1824  2.1876  1.6983
 6306SOL    HW230555   2.328   1.625   7.467 -0.2499  0.3788 -1.5406
 6307SOL     OW30556   3.268   0.455   9.221 -0.3205 -0.3585 -0.2367
 6307SOL    HW130557   3.238   0.544   9.205 -0.0873  0.1424  2.0299
 6307SOL    HW230558   3.355   0.471   9.258 -0.4475 -3.1452  1.2953
 6308SOL     OW30559   2.257   2.020  16.890 -0.0029 -0.4065 -0.1115
 6308SOL    HW130560   2.263   2.111  16.860 -0.5163  0.5027  2.5618
 6308SOL    HW230561   2.350   1.996  16.886  0.6540  1.7444  2.2331
 6309SOL     OW30562   3.362   3.072   7.572 -0.5818  0.1372  0.0191
 6309SOL    HW130563   3.417   3.004   7.609  0.3898  0.7969 -0.2088
 6309SOL    HW230564   3.431   3.137   7.558  1.5007 -2.0714  0.1703
 6310SOL     OW30565   0.003   3.377   1.325 -0.1865  0.4753  0.2686
 6310SOL    HW130566   4.719   3.441   1.393 -0.6066  1.1003 -0.4679
 6310SOL    HW230567   4.713   3.299   1.372 -0.1729  0.9182  1.0164
 6311SOL     OW30568   3.188   3.431   8.723 -0.1529 -0.2496 -0.3504
 6311SOL    HW130569   3.218   3.489   8.654 -1.0155  0.7472  0.1172
 6311SOL    HW230570   3.256   3.366   8.739 -1.4496 -1.4215  0.4447
 6312SOL     OW30571   1.240   0.326   6.284 -0.9039 -0.0936  0.3957
 6312SOL    HW130572   1.267   0.290   6.368 -1.5800 -1.0600  0.2039
 6312SOL    HW230573   1.324   0.322   6.238 -0.6725 -0.6514  0.8604
 6313SOL     OW30574   0.663   2.371   8.380  0.2909 -0.6295 -0.0224
 6313SOL    HW130575   0.716   2.292   8.385 -0.5905 -1.1234  1.6814
 6313SOL    HW230576   0.605   2.346   8.308  0.4823 -0.4983 -0.2200
 6314SOL     OW30577   2.314   4.500   1.697 -0.0783  0.7331  0.6278
 6314SOL    HW130578   2.256   4.427   1.718 -0.1454  0.7457  0.4838
 6314SOL    HW230579   2.282   4.561   1.763  2.6656  2.7012  0.1347
 6315SOL     OW30580   1.909   2.745  17.613  0.4386  0.0001 -0.2328
 6315SOL    HW130581   1.910   2.714  17.523 -1.5805 -0.8054  0.0181
 6315SOL    HW230582   1.926   2.839  17.602  0.5291  0.2287  1.8241
 6316SOL     OW30583   0.838   2.573   8.479  0.3474  0.0364 -0.5148
 6316SOL    HW130584   0.783   2.615   8.546  0.7381  1.9243 -1.3768
 6316SOL    HW230585   0.776   2.508   8.446 -1.2303  2.0793 -1.6556
 6317SOL     OW30586   4.724   4.508   3.608  0.3518  0.1124  0.6404
 6317SOL    HW130587   0.015   4.536   3.695  1.3249 -2.9582  1.3024
 6317SOL    HW230588   0.069   4.527   3.564 -0.4082 -0.8526 -1.1983
 6318SOL     OW30589   4.356   3.325   5.275  0.7795 -0.8920 -0.4604
 6318SOL    HW130590   4.361   3.236   5.311 -0.4759 -0.7285  0.1195
 6318SOL    HW230591   4.311   3.368   5.348  1.5654  0.3865 -0.7241
 6319SOL     OW30592   0.135   2.390   6.011 -0.3195  0.0852 -0.4803
 6319SOL    HW130593   0.211   2.399   5.953  0.6775 -0.7372  0.7056
 6319SOL    HW230594   0.131   2.471   6.062 -0.7678  0.5925 -1.3159
 6320SOL     OW30595   0.166   1.526  15.435 -0.5948  0.1687  0.4848
 6320SOL    HW130596   0.155   1.452  15.377  0.1577 -0.0260  0.5908
 6320SOL    HW230597   0.154   1.592  15.367  0.4717 -0.0853  0.0542
 6321SOL     OW30598   0.915   3.480  15.295  0.0523 -0.6549  0.4177
 6321SOL    HW130599   0.850   3.528  15.346 -0.4321 -2.3460  1.3789
 6321SOL    HW230600   0.995   3.529  15.317  0.6398 -0.8338 -1.3084
 6322SOL     OW30601   1.377   1.576  12.868  0.1740  0.0123  0.0282
 6322SOL    HW130602   1.386   1.655  12.814 -2.1937  0.1961 -0.1142
 6322SOL    HW230603   1.330   1.610  12.944  0.1968  1.2012 -0.4888
 6323SOL     OW30604   2.324   2.965   3.728 -0.5064 -0.3882 -0.1541
 6323SOL    HW130605   2.307   3.038   3.669 -0.5171  1.3043  1.9318
 6323SOL    HW230606   2.243   2.969   3.778  0.3398  0.1271  1.1681
 6324SOL     OW30607   2.561   2.933   7.418 -0.2579 -0.0105  0.4405
 6324SOL    HW130608   2.638   2.965   7.372  1.5096  0.1513  3.5433
 6324SOL    HW230609   2.616   2.860   7.445  0.7203  1.2135  1.7037
 6325SOL     OW30610   3.444   3.026   5.523 -0.6712  0.3102  0.3447
 6325SOL    HW130611   3.501   2.980   5.462 -1.9230 -0.7739 -0.0075
 6325SOL    HW230612   3.505   3.096   5.545  0.0971  0.0665 -0.9960
 6326SOL     OW30613   0.564   2.100   8.462 -0.0358  0.1095  0.0737
 6326SOL    HW130614   0.620   2.039   8.510  0.2984 -0.0210 -0.4802
 6326SOL    HW230615   0.580   2.089   8.368  1.7464 -2.4670  0.6899
 6327SOL     OW30616   4.557   2.584   7.786 -0.2413  0.4352 -0.1404
 6327SOL    HW130617   4.464   2.584   7.762  0.2609  0.6044 -2.0477
 6327SOL    HW230618   4.596   2.522   7.725  0.9326  0.0592  0.9846
 6328SOL     OW30619   4.071   4.272   9.462  0.0348  0.1322  0.8718
 6328SOL    HW130620   3.983   4.238   9.476  0.3851 -1.5541 -1.0540
 6328SOL    HW230621   4.069   4.323   9.382  0.1486  0.1591  0.8855
 6329SOL     OW30622   2.100   3.450  10.444 -0.1512 -0.5541  0.6604
 6329SOL    HW130623   2.013   3.467  10.478 -0.1500 -2.3195  1.5551
 6329SOL    HW230624   2.096   3.389  10.371  3.4329  0.3388 -0.3009
 6330SOL     OW30625   4.431   1.794   7.245 -0.5372 -0.3483 -0.2347
 6330SOL    HW130626   4.494   1.827   7.309  1.7420 -3.2414 -1.0190
 6330SOL    HW230627   4.430   1.703   7.275 -1.3191 -0.1700  0.2901
 6331SOL     OW30628   1.609   2.201   1.518 -0.6058 -0.0050  0.6214
 6331SOL    HW130629   1.663   2.168   1.447 -1.2911 -0.2536  0.2141
 6331SOL    HW230630   1.521   2.230   1.494 -0.5839 -0.9900 -0.6682
 6332SOL     OW30631   2.624   4.243  13.478  0.1445  0.2537  0.3743
 6332SOL    HW130632   2.701   4.235  13.422 -0.1711  0.4653 -0.0979
 6332SOL    HW230633   2.657   4.317  13.528  1.0976  0.0144  0.0982
 6333SOL     OW30634   4.206   0.917   0.384 -0.1226 -0.4419 -0.0337
 6333SOL    HW130635   4.271   0.946   0.320 -1.3099 -0.2696 -1.1718
 6333SOL    HW230636   4.131   0.909   0.325 -0.3720  0.8371  0.1095
 6334SOL     OW30637   0.769   0.911   5.490 -0.0793  0.6319  0.2825
 6334SOL    HW130638   0.675   0.906   5.505  0.2144 -2.2679  1.2851
 6334SOL    HW230639   0.792   0.829   5.534 -1.5884 -0.7740 -1.5501
 6335SOL     OW30640   4.191   2.404   0.730 -0.2502  0.3125  0.0982
 6335SOL    HW130641   4.272   2.373   0.772  0.0303 -1.2231 -1.5821
 6335SOL    HW230642   4.188   2.334   0.664  1.1933 -0.4942  0.8799
 6336SOL     OW30643   1.695   0.443  10.000  0.0084  0.0177 -0.4456
 6336SOL    HW130644   1.706   0.523  10.051 -0.9317  1.3032 -2.2707
 6336SOL    HW230645   1.763   0.381  10.025  0.7863  1.3448  0.7386
 6337SOL     OW30646   3.944   1.755  10.971  0.4186  0.6017  0.0327
 6337SOL    HW130647   4.023   1.703  10.981 -1.4342 -1.7701  2.5307
 6337SOL    HW230648   3.974   1.838  11.008  0.4784  0.5835  0.0238
 6338SOL     OW30649   3.815   1.438  15.009 -0.3581  0.1184 -0.0398
 6338SOL    HW130650   3.773   1.386  14.941 -0.7348  1.9357 -1.2078
 6338SOL    HW230651   3.858   1.512  14.966 -0.5423  1.4247  2.0029
 6339SOL     OW30652   2.763   1.114   6.846  0.0207 -0.0266 -0.0433
 6339SOL    HW130653   2.845   1.144   6.887 -0.2332  0.7765 -0.1275
 6339SOL    HW230654   2.702   1.153   6.909  0.6435 -0.4767  0.8427
 6340SOL     OW30655   0.314   3.078   5.592 -0.1642 -0.2380  0.1874
 6340SOL    HW130656   0.334   3.068   5.499 -0.3943  0.1657  0.0920
 6340SOL    HW230657   0.235   3.025   5.600  0.9630 -1.8478  0.7890
 6341SOL     OW30658   3.232   2.809   3.283 -0.1232  0.5570  0.2721
 6341SOL    HW130659   3.257   2.756   3.359 -0.2539  0.0732 -0.0183
 6341SOL    HW230660   3.241   2.739   3.217  0.4803  0.0225  0.9287
 6342SOL     OW30661   0.529   2.406   4.110 -0.2173  0.2511  0.1994
 6342SOL    HW130662   0.467   2.360   4.166  0.3823 -3.3085 -2.0134
 6342SOL    HW230663   0.487   2.492   4.105  0.3017  0.4291 -1.1379
 6343SOL     OW30664   2.299   0.015   7.848  0.8230 -0.7415  0.3779
 6343SOL    HW130665   2.296   4.679   7.909  0.7046 -2.7532 -2.0557
 6343SOL    HW230666   2.274   0.086   7.907 -2.0946 -1.1191 -0.4333
 6344SOL     OW30667   0.047   1.205   6.286  0.3832  0.5513 -0.6376
 6344SOL    HW130668   0.027   1.220   6.194  2.5204  1.3217 -0.9919
 6344SOL    HW230669   4.735   1.267   6.338  0.7571  0.1522  0.2083
 6345SOL     OW30670   2.428   1.490   2.916 -0.4312 -0.1405  0.3282
 6345SOL    HW130671   2.392   1.465   3.002  0.6109 -0.1002  0.7786
 6345SOL    HW230672   2.375   1.568   2.899 -1.2059 -0.4250  1.4181
 6346SOL     OW30673   4.107   3.998   1.928 -0.1367 -0.0713 -0.5327
 6346SOL    HW130674   4.127   3.987   2.021 -2.2153 -1.5688 -0.2665
 6346SOL    HW230675   4.027   4.050   1.934  2.2307  3.7898 -2.7406
 6347SOL     OW30676   3.478   1.131   6.016 -0.3113 -0.3181 -0.0879
 6347SOL    HW130677   3.392   1.172   6.005  0.3300  1.6448  2.2523
 6347SOL    HW230678   3.518   1.163   5.935  0.3040 -2.6949 -0.7163
 6348SOL     OW30679   0.673   4.019   6.659  0.1337 -0.5143 -0.4670
 6348SOL    HW130680   0.645   3.932   6.688 -0.1721 -0.4384 -0.5323
 6348SOL    HW230681   0.597   4.070   6.689  0.8251 -0.4279  1.1240
 6349SOL     OW30682   0.265   0.749   4.368  0.0666 -0.5090 -0.5804
 6349SOL    HW130683   0.355   0.763   4.340  0.1683  1.0778  0.5281
 6349SOL    HW230684   0.273   0.663   4.410 -0.6071 -1.0346 -1.5135
 6350SOL     OW30685   1.735   3.193   4.055 -0.0139 -0.1144  0.2958
 6350SOL    HW130686   1.757   3.108   4.093  0.4589  0.5066  1.4215
 6350SOL    HW230687   1.801   3.248   4.097 -0.6390 -0.6403  1.9881
 6351SOL     OW30688   3.582   0.157   6.253  0.0415 -0.2093 -0.7948
 6351SOL    HW130689   3.556   0.071   6.285  0.3569 -0.0339 -0.0678
 6351SOL    HW230690   3.574   0.207   6.334  3.7390  0.0292 -0.5890
 6352SOL     OW30691   4.228   3.256  11.822 -0.0411 -0.0772 -0.2165
 6352SOL    HW130692   4.241   3.348  11.845 -1.2047 -0.0609  0.3444
 6352SOL    HW230693   4.280   3.202  11.882  0.5996  0.6183 -0.1473
 6353SOL     OW30694   0.399   2.165   6.854  0.1187  0.0741 -0.7656
 6353SOL    HW130695   0.365   2.250   6.826  2.4534  0.9157 -1.0221
 6353SOL    HW230696   0.473   2.204   6.901  0.3471  0.0995 -1.1519
 6354SOL     OW30697   4.078   4.113   2.639  0.1331 -0.0823  0.3547
 6354SOL    HW130698   3.986   4.115   2.666  0.7518  0.1080  2.4253
 6354SOL    HW230699   4.067   4.052   2.566  2.2494  2.0704 -1.7553
 6355SOL     OW30700   3.500   0.908  14.946  0.0764  0.4337  0.3496
 6355SOL    HW130701   3.593   0.932  14.942  0.7203 -1.8561  1.6485
 6355SOL    HW230702   3.480   0.867  14.861  0.5101  1.6213 -0.3228
 6356SOL     OW30703   0.597   3.028  13.214  0.1140 -0.3272  0.5990
 6356SOL    HW130704   0.692   3.018  13.206 -0.0827 -0.8989 -1.0410
 6356SOL    HW230705   0.580   3.078  13.294 -0.5232  3.0782 -1.6481
 6357SOL     OW30706   0.861   2.292   1.679 -0.6510  0.3460 -0.1518
 6357SOL    HW130707   0.887   2.286   1.771 -1.7562 -2.8181 -0.0736
 6357SOL    HW230708   0.768   2.272   1.684 -0.5901  0.2288  0.4927
 6358SOL     OW30709   3.663   2.615   2.946  0.0188  0.4592 -0.0654
 6358SOL    HW130710   3.745   2.632   2.993 -0.4127  2.7924 -0.1491
 6358SOL    HW230711   3.671   2.520   2.932 -0.2638  0.7465 -2.1688
 6359SOL     OW30712   1.401   4.365   6.516  0.2311  0.0243  0.1749
 6359SOL    HW130713   1.385   4.309   6.592 -1.2934 -0.5548 -0.5745
 6359SOL    HW230714   1.391   4.308   6.440  1.0403  1.4252 -0.9815
 6360SOL     OW30715   3.637   3.987   0.253  0.2930 -0.0692 -0.5905
 6360SOL    HW130716   3.666   3.896   0.256  1.6366  0.3805  0.1163
 6360SOL    HW230717   3.705   4.028   0.199  0.8740  0.5630  0.6000
 6361SOL     OW30718   2.571   3.837  15.462 -0.2471  0.2427  0.0912
 6361SOL    HW130719   2.580   3.847  15.367 -0.6832 -3.1321 -0.2926
 6361SOL    HW230720   2.481   3.861  15.483 -0.6851 -0.7713 -0.5841
 6362SOL     OW30721   1.930   0.197  17.611 -0.1513 -0.1524 -0.8718
 6362SOL    HW130722   2.022   0.176  17.593  0.1673  1.4615 -1.1031
 6362SOL    HW230723   1.888   0.183  17.526  0.5516  2.0850 -1.5901
 6363SOL     OW30724   1.920   3.439  11.813  0.5320  0.4208 -0.7910
 6363SOL    HW130725   1.951   3.357  11.850  1.3303  1.3643  0.6305
 6363SOL    HW230726   1.870   3.477  11.886  1.3208 -0.8408  0.4037
 6364SOL     OW30727   2.106   0.852  11.252 -0.0258 -0.1613 -0.5518
 6364SOL    HW130728   2.112   0.940  11.288 -0.5718  0.0345 -0.9257
 6364SOL    HW230729   2.183   0.813  11.293  0.5198  0.3499 -1.0693
 6365SOL     OW30730   3.870   0.227   2.850  0.1660  0.1245  0.2696
 6365SOL    HW130731   3.872   0.278   2.769 -0.0465 -1.2826 -0.6236
 6365SOL    HW230732   3.827   0.147   2.818  3.1678 -2.1797  2.0284
 6366SOL     OW30733   0.613   4.169  10.770  0.0548  0.4104  0.1626
 6366SOL    HW130734   0.706   4.150  10.760 -0.1904  0.3367 -2.0678
 6366SOL    HW230735   0.579   4.084  10.742 -2.0826  2.0892 -2.2753
 6367SOL     OW30736   0.180   1.632   6.255  0.5916  0.0824 -0.3105
 6367SOL    HW130737   0.173   1.585   6.338  1.8406 -1.8352 -1.2810
 6367SOL    HW230738   0.200   1.554   6.202 -1.2534 -1.8568  1.8893
 6368SOL     OW30739   2.511   0.894  14.519 -0.2937  0.7059 -0.4520
 6368SOL    HW130740   2.510   0.799  14.509  1.1630  0.6797 -0.3471
 6368SOL    HW230741   2.462   0.901  14.600  1.1510  0.4400  0.4493
 6369SOL     OW30742   3.991   0.065   8.251  0.0257  0.0247 -0.0062
 6369SOL    HW130743   3.915   0.066   8.194  0.0842  0.3537 -0.0826
 6369SOL    HW230744   3.941   0.052   8.331 -2.7305  0.9533 -1.5952
 6370SOL     OW30745   2.428   0.802   4.144 -0.4116 -0.6236  0.7391
 6370SOL    HW130746   2.393   0.774   4.228  1.0625  0.3003  1.6642
 6370SOL    HW230747   2.504   0.844   4.185  0.4899 -2.0943  0.5737
 6371SOL     OW30748   0.356   0.650  11.381  0.0850  0.1258 -0.2203
 6371SOL    HW130749   0.419   0.698  11.435 -1.7288  0.7103  1.3657
 6371SOL    HW230750   0.385   0.653  11.290  0.2691  2.0549 -0.1021
 6372SOL     OW30751   3.295   4.520   5.000  0.0731 -0.5821  0.1956
 6372SOL    HW130752   3.281   4.584   4.930  2.6487  0.7601  0.9142
 6372SOL    HW230753   3.388   4.502   4.992  0.3116  0.2069  1.1569
 6373SOL     OW30754   1.596   1.540   6.978 -0.4640  0.0899  0.2459
 6373SOL    HW130755   1.509   1.520   6.943 -0.9397  0.2075  1.3491
 6373SOL    HW230756   1.596   1.636   6.977 -2.2219  0.1005  0.0655
 6374SOL     OW30757   3.738   1.263   5.350  0.1714  0.0355  0.4256
 6374SOL    HW130758   3.742   1.311   5.433 -2.1840  0.0760  0.4968
 6374SOL    HW230759   3.734   1.324   5.277  1.6210 -1.7939 -1.1638
 6375SOL     OW30760   3.821   3.604   4.050 -0.3274  0.4516  0.0354
 6375SOL    HW130761   3.864   3.519   4.041  0.4739  1.0051 -1.3604
 6375SOL    HW230762   3.882   3.649   3.991 -0.7084 -1.2656 -1.6526
 6376SOL     OW30763   3.618   2.721   8.097 -0.5110 -0.3308 -0.0519
 6376SOL    HW130764   3.665   2.689   8.174 -0.2767 -0.1128 -0.1033
 6376SOL    HW230765   3.620   2.817   8.105  0.1857 -0.1205 -2.8546
 6377SOL     OW30766   2.006   4.237   4.842 -0.6560  0.1669  0.4239
 6377SOL    HW130767   2.059   4.182   4.899  1.0043  1.0458 -0.3001
 6377SOL    HW230768   2.054   4.239   4.760 -2.7888  0.3826 -0.8380
 6378SOL     OW30769   0.783   3.836   5.577 -0.7240  0.3685 -0.0253
 6378SOL    HW130770   0.744   3.757   5.614 -0.3480 -1.0896 -2.7614
 6378SOL    HW230771   0.873   3.830   5.610 -0.2593  0.4375 -1.2925
 6379SOL     OW30772   3.748   4.523  15.677 -0.3671 -0.0780  0.1027
 6379SOL    HW130773   3.824   4.498  15.626  0.8452 -0.6990  2.2127
 6379SOL    HW230774   3.734   4.438  15.719 -0.1612  0.7670  1.8987
 6380SOL     OW30775   1.193   2.431   3.733  0.6011 -0.1100 -0.0539
 6380SOL    HW130776   1.173   2.342   3.760 -0.8041  0.6779  1.5487
 6380SOL    HW230777   1.127   2.450   3.666  1.3918 -0.9521 -1.0617
 6381SOL     OW30778   0.524   0.953   1.519  0.1462 -0.0524 -0.2618
 6381SOL    HW130779   0.436   0.974   1.488  0.1477  0.1751 -0.1108
 6381SOL    HW230780   0.541   0.879   1.461 -0.7824 -1.6287  1.4742
 6382SOL     OW30781   1.429   2.551   7.572 -0.7426 -0.3850 -0.5399
 6382SOL    HW130782   1.370   2.591   7.507  0.2566  0.7617 -0.7507
 6382SOL    HW230783   1.365   2.552   7.643 -1.4054  1.0103 -1.1436
 6383SOL     OW30784   1.967   0.670   4.716 -0.4977 -0.9086 -0.1268
 6383SOL    HW130785   2.059   0.690   4.697 -0.4621 -1.5120 -0.5979
 6383SOL    HW230786   1.967   0.590   4.769  3.6122 -0.5926  0.3682
 6384SOL     OW30787   1.728   3.775   8.422  0.4160  0.0020  0.1365
 6384SOL    HW130788   1.734   3.687   8.386 -0.4542  0.2759 -0.6900
 6384SOL    HW230789   1.752   3.763   8.514  1.2860  1.2538  0.0732
 6385SOL     OW30790   4.641   4.034   4.043 -0.6856  0.2444 -0.1821
 6385SOL    HW130791   4.705   4.092   4.084 -1.5959  0.0542  1.5193
 6385SOL    HW230792   4.560   4.071   4.079 -0.2075  1.4957 -0.3902
 6386SOL     OW30793   1.097   0.155   9.553 -0.3775  0.4155  0.4764
 6386SOL    HW130794   1.120   0.062   9.552  1.4931  0.8770 -0.5929
 6386SOL    HW230795   1.155   0.192   9.486 -1.2766  2.1408  0.6613
 6387SOL     OW30796   0.861   3.884   1.957 -0.1369  0.2291  0.3552
 6387SOL    HW130797   0.914   3.859   2.032 -0.3545 -2.4566 -0.4032
 6387SOL    HW230798   0.835   3.797   1.929  0.3573  0.5862 -1.2052
 6388SOL     OW30799   4.325   3.273   3.459 -0.0292  0.0126  0.2594
 6388SOL    HW130800   4.299   3.363   3.443  1.2058  0.1200 -1.1521
 6388SOL    HW230801   4.362   3.240   3.377  0.2332 -0.0850  0.4175
 6389SOL     OW30802   0.620   2.930   2.201  0.2989  0.1685  0.3316
 6389SOL    HW130803   0.686   2.897   2.261 -1.2584 -3.0300  0.2564
 6389SOL    HW230804   0.673   2.942   2.122  2.4927  0.1168  1.7959
 6390SOL     OW30805   0.484   3.186   3.939 -0.2940  0.0976  0.4153
 6390SOL    HW130806   0.419   3.184   3.868  0.8509  1.3751 -0.6590
 6390SOL    HW230807   0.427   3.173   4.015 -0.2454  0.4107  0.5025
 6391SOL     OW30808   1.412   3.832   5.161 -0.4039  0.3809  0.6463
 6391SOL    HW130809   1.483   3.863   5.217 -0.8680 -0.4300  1.6800
 6391SOL    HW230810   1.410   3.900   5.094  0.3446  1.1195  1.3787
 6392SOL     OW30811   0.259   3.614   8.794 -0.2272  0.6002  0.5199
 6392SOL    HW130812   0.247   3.629   8.888 -0.0730 -0.3146  0.6817
 6392SOL    HW230813   0.234   3.699   8.758  3.2429  1.3900 -0.0342
 6393SOL     OW30814   2.356   0.514   6.933  0.3781 -0.0402  0.1962
 6393SOL    HW130815   2.425   0.456   6.902  1.8187  0.9809  1.4937
 6393SOL    HW230816   2.400   0.554   7.008  1.1438 -0.0101 -0.2727
 6394SOL     OW30817   1.056   1.301   0.555 -0.0096 -1.1459 -0.3254
 6394SOL    HW130818   1.008   1.248   0.618 -0.4241  0.7606  0.9689
 6394SOL    HW230819   1.048   1.388   0.596  0.0458 -0.5780 -1.5279
 6395SOL     OW30820   3.143   3.525   3.811  0.0254  0.4847  0.4397
 6395SOL    HW130821   3.193   3.445   3.795 -3.2133 -1.3585 -0.5875
 6395SOL    HW230822   3.070   3.517   3.749  0.1150 -0.1367  0.4119
 6396SOL     OW30823   3.286   4.476  12.380  0.5770  0.2769 -0.0468
 6396SOL    HW130824   3.270   4.520  12.296 -0.4393 -0.6493 -0.3427
 6396SOL    HW230825   3.200   4.434  12.378  0.2788  0.9337 -1.1143
 6397SOL     OW30826   0.104   4.702   3.264  0.9655  0.0703 -0.1068
 6397SOL    HW130827   0.146   0.049   3.282 -1.5329  0.9679  1.5183
 6397SOL    HW230828   0.132   4.664   3.346  0.3183  2.3026  1.1643
 6398SOL     OW30829   2.252   2.347  13.514  0.1324  0.4422  0.2347
 6398SOL    HW130830   2.173   2.339  13.568  1.0909 -3.6492  1.0446
 6398SOL    HW230831   2.215   2.367  13.428 -0.8566  0.4708  0.6707
 6399SOL     OW30832   4.670   1.517   6.974  0.2712 -0.1485  0.2660
 6399SOL    HW130833   4.711   1.432   6.959  2.5154  0.9126  0.3318
 6399SOL    HW230834   4.579   1.492   6.984  0.7991 -1.5318  1.5347
 6400SOL     OW30835   0.560   0.915   5.270 -0.0377  0.3449  0.5915
 6400SOL    HW130836   0.544   0.970   5.194  1.0420 -0.6664 -0.3705
 6400SOL    HW230837   0.562   0.831   5.225 -2.3803  0.3047  0.5535
 6401SOL     OW30838   2.526   2.826   4.364 -0.0942  0.5011 -1.0111
 6401SOL    HW130839   2.530   2.889   4.436 -0.5347  0.2471 -0.7619
 6401SOL    HW230840   2.461   2.763   4.394  1.1497  0.6009  1.8323
 6402SOL     OW30841   0.877   3.735   3.265 -0.1814 -0.3933  0.2749
 6402SOL    HW130842   0.936   3.683   3.211 -1.6086  0.0551 -1.7441
 6402SOL    HW230843   0.846   3.673   3.330  0.8600 -1.2515 -0.0521
 6403SOL     OW30844   2.886   2.474   7.211  0.2280  0.4262  0.2387
 6403SOL    HW130845   2.854   2.537   7.275 -2.0838 -0.4411 -0.0680
 6403SOL    HW230846   2.903   2.399   7.267  2.0148  2.3068  2.1941
 6404SOL     OW30847   2.678   1.566  17.154 -0.0876  0.0514 -0.1015
 6404SOL    HW130848   2.771   1.592  17.152  0.7487 -3.4799 -5.2943
 6404SOL    HW230849   2.652   1.562  17.246  0.7945 -0.0354  0.1472
 6405SOL     OW30850   0.943   0.966   0.885 -0.3701  0.2473 -0.0283
 6405SOL    HW130851   0.874   1.032   0.885 -1.1799 -0.6038  0.1861
 6405SOL    HW230852   1.001   1.006   0.949 -2.7878  1.6366  1.2654
 6406SOL     OW30853   2.018   2.035   3.460 -0.2749 -0.3824  0.1981
 6406SOL    HW130854   2.070   1.963   3.495 -0.5862 -0.9937 -0.5980
 6406SOL    HW230855   2.026   2.104   3.526 -3.1370 -0.6013  0.7611
 6407SOL     OW30856   4.520   0.984   4.230 -0.4367  0.1357 -0.6038
 6407SOL    HW130857   4.515   0.970   4.325  1.0971 -3.7885 -1.1204
 6407SOL    HW230858   4.572   1.065   4.234  0.6861 -0.7490  3.1394
 6408SOL     OW30859   1.123   1.841   3.642  0.2945 -0.0852 -0.4139
 6408SOL    HW130860   1.044   1.889   3.666  0.3496 -1.1217  1.8369
 6408SOL    HW230861   1.187   1.900   3.682 -1.9833  1.0426  1.5874
 6409SOL     OW30862   1.911   1.845  15.957  0.6226  0.1209 -0.2335
 6409SOL    HW130863   1.961   1.775  15.917 -0.8327  0.5254 -2.7919
 6409SOL    HW230864   1.839   1.855  15.895 -1.1023 -0.1280  1.7424
 6410SOL     OW30865   3.340   0.184   8.930 -0.3778  0.6659 -0.0842
 6410SOL    HW130866   3.348   0.279   8.935 -2.1149  0.8417 -0.5820
 6410SOL    HW230867   3.400   0.145   8.993  0.6216  1.2545 -0.6712
 6411SOL     OW30868   3.205   1.588  10.726  0.8659  0.1811  0.7578
 6411SOL    HW130869   3.113   1.612  10.733  0.3870 -1.4454  0.0199
 6411SOL    HW230870   3.204   1.494  10.739  2.5312  0.1502  0.7476
 6412SOL     OW30871   0.259   1.490   9.593 -0.3063  0.0263 -0.5449
 6412SOL    HW130872   0.297   1.477   9.506 -0.1484  0.4987 -0.5426
 6412SOL    HW230873   0.300   1.419   9.642 -1.0886  1.0631  1.5924
 6413SOL     OW30874   3.047   0.225   9.085  0.5726 -0.3906 -0.3154
 6413SOL    HW130875   3.001   0.149   9.050  0.8925 -0.5557 -0.3729
 6413SOL    HW230876   3.141   0.212   9.071  0.9323  1.5945  0.2475
 6414SOL     OW30877   0.184   4.374   5.827  0.0974 -0.5521  0.1305
 6414SOL    HW130878   0.215   4.463   5.814  0.8082 -1.0130 -1.3541
 6414SOL    HW230879   0.263   4.351   5.875  0.6691  1.3244  0.0864
 6415SOL     OW30880   3.152   1.387   7.774  0.1084 -0.5753  0.4249
 6415SOL    HW130881   3.189   1.301   7.796 -0.8878 -0.6607  1.7615
 6415SOL    HW230882   3.084   1.398   7.841  1.9478  0.0258  2.1974
 6416SOL     OW30883   1.053   2.310  14.622  0.0654 -0.2703  0.1205
 6416SOL    HW130884   1.120   2.375  14.644 -2.0496  0.3747  4.7164
 6416SOL    HW230885   0.967   2.341  14.652 -0.0815  1.6810 -2.3015
 6417SOL     OW30886   0.492   0.522  13.118  0.5183  0.3328 -0.0735
 6417SOL    HW130887   0.513   0.448  13.175 -3.1755  0.0371  0.9180
 6417SOL    HW230888   0.411   0.492  13.077  1.0758 -0.4474 -0.5999
 6418SOL     OW30889   3.827   1.657   0.422  0.2202  0.0837 -0.7260
 6418SOL    HW130890   3.844   1.677   0.514 -0.2972  1.1576 -0.8592
 6418SOL    HW230891   3.755   1.717   0.405 -2.7094 -2.6986  1.8406
 6419SOL     OW30892   2.473   0.942  12.681  0.0419  0.1993  0.4380
 6419SOL    HW130893   2.454   1.035  12.694  0.1571  0.0960  1.3490
 6419SOL    HW230894   2.568   0.936  12.688 -0.2562 -1.5171  2.8643
 6420SOL     OW30895   4.356   0.093   3.599  0.6028 -1.0211 -0.0269
 6420SOL    HW130896   4.276   0.053   3.635  0.4815  0.8438  1.8085
 6420SOL    HW230897   4.323   0.134   3.520  3.0434 -1.6293 -1.3410
 6421SOL     OW30898   0.239   0.761  13.241  0.2596  1.0068 -0.6822
 6421SOL    HW130899   0.228   0.855  13.250  0.0814  0.4472  4.5650
 6421SOL    HW230900   0.298   0.735  13.311  1.0185  0.2684 -1.6033
 6422SOL     OW30901   3.585   0.213   2.303 -0.1089 -0.7080  0.0733
 6422SOL    HW130902   3.534   0.169   2.234  0.5310 -1.6961  0.2369
 6422SOL    HW230903   3.540   0.297   2.305  1.4773  0.1508 -0.7267
 6423SOL     OW30904   2.486   4.682   7.022 -0.1904  0.5637  0.3199
 6423SOL    HW130905   2.415   0.000   6.992 -1.9962 -1.6066  0.5267
 6423SOL    HW230906   2.497   4.721   7.109  2.7610  0.3634  0.0377
 6424SOL     OW30907   2.132   4.009  12.591 -0.2854  0.5453  0.0263
 6424SOL    HW130908   2.150   3.919  12.616 -0.5282  0.1976 -1.0485
 6424SOL    HW230909   2.037   4.001  12.596 -0.0654 -1.2839  1.1348
 6425SOL     OW30910   3.395   2.475   7.695 -0.3421 -0.0092  0.1766
 6425SOL    HW130911   3.465   2.492   7.757 -1.0742 -2.1396  1.5967
 6425SOL    HW230912   3.321   2.486   7.754 -3.1999 -3.3179 -2.8082
 6426SOL     OW30913   1.474   1.126   0.877 -0.2383  0.0514  0.1177
 6426SOL    HW130914   1.410   1.197   0.878 -0.1875  0.0948  0.2272
 6426SOL    HW230915   1.422   1.062   0.828  1.2363 -1.9297  1.1036
 6427SOL     OW30916   0.085   2.157   3.978 -0.0142  0.5506 -0.0931
 6427SOL    HW130917   0.130   2.241   3.965 -0.9768  1.1343  0.3290
 6427SOL    HW230918   0.093   2.123   3.889  2.9235 -0.3050  0.5019
 6428SOL     OW30919   0.749   1.620  14.045 -0.0861  0.0558  0.4827
 6428SOL    HW130920   0.668   1.649  14.002 -0.4655 -1.2109  0.3483
 6428SOL    HW230921   0.762   1.684  14.115 -1.8027  0.8633  0.0793
 6429SOL     OW30922   4.684   1.796   8.967 -0.0387  0.2760  0.6032
 6429SOL    HW130923   0.019   1.839   9.010 -0.3665 -0.0393  1.4604
 6429SOL    HW230924   4.697   1.706   8.997  1.3013 -0.5505 -2.4476
 6430SOL     OW30925   0.710   2.855   0.408 -0.2922 -0.5146 -0.6426
 6430SOL    HW130926   0.749   2.880   0.324 -0.6479 -0.7177 -0.8686
 6430SOL    HW230927   0.755   2.914   0.468 -2.0095  1.4514 -1.2569
 6431SOL     OW30928   3.973   2.605   9.222  0.3663  0.1933  0.5577
 6431SOL    HW130929   3.905   2.543   9.248 -1.1771  2.0207  0.8133
 6431SOL    HW230930   4.009   2.559   9.146 -0.8459  1.2540 -0.6512
 6432SOL     OW30931   1.560   2.866   4.805  0.8373  0.3508 -0.0593
 6432SOL    HW130932   1.634   2.875   4.745 -0.5927  0.0488 -1.8609
 6432SOL    HW230933   1.602   2.866   4.891  0.0727  0.6098  0.3069
 6433SOL     OW30934   1.921   4.166   8.228 -0.3479 -0.0430  0.0615
 6433SOL    HW130935   2.007   4.126   8.214  0.3002  0.4312  2.6135
 6433SOL    HW230936   1.868   4.139   8.153  0.2233 -1.3332  0.1237
 6434SOL     OW30937   4.293   2.969   4.996 -0.4680  0.1815 -0.5834
 6434SOL    HW130938   4.319   2.937   5.082 -0.1279 -1.3514 -1.2673
 6434SOL    HW230939   4.217   3.023   5.017  1.6323  2.1700  1.9300
 6435SOL     OW30940   1.172   3.623  16.698 -0.2104  0.4754  0.1112
 6435SOL    HW130941   1.194   3.701  16.750 -1.9473  0.8017  0.3670
 6435SOL    HW230942   1.087   3.609  16.740 -0.1281 -3.1667 -0.9834
 6436SOL     OW30943   3.100   1.132  11.498 -0.1624  0.1845  0.3223
 6436SOL    HW130944   3.132   1.047  11.530 -0.2654 -0.2571 -0.7498
 6436SOL    HW230945   3.018   1.145  11.547  0.8371  0.6222  1.8891
 6437SOL     OW30946   4.703   1.482   7.913 -0.0899  0.1447  0.5946
 6437SOL    HW130947   4.698   1.412   7.848  1.9795 -1.8016  2.5063
 6437SOL    HW230948   4.613   1.488   7.944 -0.4540  0.5539 -0.5776
 6438SOL     OW30949   2.093   2.791   6.061 -0.3416 -0.0214  0.0143
 6438SOL    HW130950   2.004   2.801   6.028 -0.7017  3.8228  2.1594
 6438SOL    HW230951   2.093   2.864   6.122  3.3721 -0.3756  0.4668
 6439SOL     OW30952   0.838   3.242   5.743 -0.2232  0.0980  0.4533
 6439SOL    HW130953   0.880   3.314   5.694  0.0402  0.2424  0.8893
 6439SOL    HW230954   0.744   3.258   5.740  0.0421  1.2195 -1.9650
 6440SOL     OW30955   1.305   2.864  16.751 -0.0903 -0.1381 -0.3301
 6440SOL    HW130956   1.334   2.773  16.752 -0.9979 -0.4526 -2.0608
 6440SOL    HW230957   1.366   2.911  16.808 -2.3238 -1.6830  3.3415
 6441SOL     OW30958   1.662   4.264   6.295 -0.4312  0.1787  0.3965
 6441SOL    HW130959   1.701   4.308   6.219  0.3091  0.2511  0.8188
 6441SOL    HW230960   1.603   4.209   6.243  1.0369  0.2720 -1.3595
 6442SOL     OW30961   4.296   3.759   3.958 -0.3631 -0.2313  0.5434
 6442SOL    HW130962   4.279   3.814   4.035  0.4047 -0.2905  0.7595
 6442SOL    HW230963   4.336   3.690   4.010  2.1352  1.0903  0.4047
 6443SOL     OW30964   0.543   4.251  10.133  0.2808 -0.3876 -0.1965
 6443SOL    HW130965   0.627   4.281  10.099 -0.6765  2.0991 -0.3767
 6443SOL    HW230966   0.519   4.190  10.063 -0.3816 -0.7419  0.3386
 6444SOL     OW30967   1.950   2.031   6.910  0.1055  0.5535  0.1745
 6444SOL    HW130968   1.964   2.008   7.002  1.3752 -0.1818 -0.2137
 6444SOL    HW230969   2.037   2.002   6.885  0.3931  0.6850  1.0190
 6445SOL     OW30970   3.127   3.797   8.083  0.4422 -0.2791 -0.3025
 6445SOL    HW130971   3.060   3.840   8.032  0.8885  0.1241 -0.5489
 6445SOL    HW230972   3.169   3.879   8.110 -0.6201  0.6379 -1.4803
 6446SOL     OW30973   0.686   3.456  10.292  0.8879 -0.0144  0.0691
 6446SOL    HW130974   0.680   3.437  10.199 -0.7409 -1.2223  0.4192
 6446SOL    HW230975   0.625   3.391  10.327  1.3264 -1.0637 -1.1228
 6447SOL     OW30976   3.207   4.350   9.860  0.0981 -0.0407 -0.0325
 6447SOL    HW130977   3.268   4.350   9.934 -0.1399 -0.2943  0.1628
 6447SOL    HW230978   3.230   4.268   9.818 -2.3033 -0.7578  0.0876
 6448SOL     OW30979   2.818   3.167   8.200 -0.1897  0.0501  0.0403
 6448SOL    HW130980   2.900   3.128   8.172 -1.3937 -0.4151 -2.8872
 6448SOL    HW230981   2.851   3.244   8.245 -0.5044 -0.1682  0.6435
 6449SOL     OW30982   3.678   3.705   5.217 -0.1870  0.0147 -0.4504
 6449SOL    HW130983   3.713   3.787   5.253  0.9005 -0.4592 -0.4152
 6449SOL    HW230984   3.648   3.722   5.128  0.4430  0.2633 -0.6136
 6450SOL     OW30985   0.390   1.365   2.749  0.2033 -0.3492 -0.2861
 6450SOL    HW130986   0.410   1.457   2.767 -1.6581  0.1368 -0.6468
 6450SOL    HW230987   0.478   1.331   2.733  0.2389 -0.6258  0.5403
 6451SOL     OW30988   2.481   3.794   2.171  0.3043 -0.0522  0.9509
 6451SOL    HW130989   2.536   3.827   2.241 -0.1732  0.7142  0.9719
 6451SOL    HW230990   2.505   3.856   2.101 -0.0563 -0.4261  0.4961
 6452SOL     OW30991   1.350   4.436   9.639  0.6315  0.6515 -0.0192
 6452SOL    HW130992   1.293   4.447   9.715  0.1567  0.2011 -0.3126
 6452SOL    HW230993   1.433   4.405   9.676 -1.4692 -0.9632  3.2625
 6453SOL     OW30994   1.373   0.575   9.490  0.1427 -0.1450  0.3774
 6453SOL    HW130995   1.437   0.615   9.548 -0.0749 -1.3024  1.4175
 6453SOL    HW230996   1.343   0.499   9.539 -1.0910 -1.6034 -2.6234
 6454SOL     OW30997   3.483   2.018   9.317  0.0619 -0.1162  0.1545
 6454SOL    HW130998   3.424   1.997   9.390 -1.3429  2.8105 -0.1450
 6454SOL    HW230999   3.476   1.935   9.271 -1.9193 -0.5433  1.2623
 6455SOL     OW31000   4.091   2.535  13.298  0.2526  0.4675 -0.7350
 6455SOL    HW131001   4.053   2.527  13.211 -1.5211 -2.6261  0.3446
 6455SOL    HW231002   4.052   2.618  13.326  0.6056  0.1782  0.6390
 6456SOL     OW31003   0.757   1.810  14.239 -0.3784  0.3760  0.3130
 6456SOL    HW131004   0.821   1.880  14.226  0.2959  0.3321  3.2812
 6456SOL    HW231005   0.784   1.795  14.330  3.7024  2.8233 -0.5096
 6457SOL     OW31006   1.922   3.351   8.165  0.2044 -0.2358  0.0800
 6457SOL    HW131007   1.933   3.296   8.087  0.6429 -1.7177  1.1799
 6457SOL    HW231008   2.008   3.341   8.207 -1.0153 -2.5733  2.0341
 6458SOL     OW31009   0.266   1.743   4.495  0.1398 -0.2880 -0.1992
 6458SOL    HW131010   0.317   1.814   4.535 -1.3689  0.4781  0.3946
 6458SOL    HW231011   0.314   1.736   4.413  0.4005 -0.2559 -0.0488
 6459SOL     OW31012   1.493   3.901   8.962  0.5232  0.1043 -0.4937
 6459SOL    HW131013   1.445   3.852   9.029  0.5222  1.6564  0.6296
 6459SOL    HW231014   1.509   3.986   9.002 -2.2969 -1.1547  3.3842
 6460SOL     OW31015   1.323   4.706   1.631 -0.2842 -0.4034  0.1451
 6460SOL    HW131016   1.397   4.714   1.571 -1.3621 -0.4731 -1.2013
 6460SOL    HW231017   1.259   0.027   1.591  0.1634  1.0281  1.5369
 6461SOL     OW31018   0.044   1.515   5.124 -0.2276  0.1588 -0.1565
 6461SOL    HW131019   4.715   1.521   5.056 -3.4688 -1.1447  2.9087
 6461SOL    HW231020   0.117   1.548   5.073  0.5623  1.2081  1.6377
 6462SOL     OW31021   2.496   1.965  17.698  0.0687 -0.4477  0.2401
 6462SOL    HW131022   2.494   1.873  17.726 -0.7455 -0.9984 -1.6579
 6462SOL    HW231023   2.495   1.958  17.603  0.1076  1.2953  0.1148
 6463SOL     OW31024   3.110   0.888   7.249  0.2827  0.2392 -0.0486
 6463SOL    HW131025   3.200   0.856   7.253  0.0158 -0.3904  0.8312
 6463SOL    HW231026   3.115   0.980   7.275  0.1327  1.0651 -2.8733
 6464SOL     OW31027   3.727   3.966   6.960  0.1817 -0.4023 -0.0051
 6464SOL    HW131028   3.726   3.927   6.873 -0.3133 -1.6108  0.5341
 6464SOL    HW231029   3.762   3.886   7.001  2.0182  0.2635 -0.2847
 6465SOL     OW31030   4.047   4.234  16.631  0.3825 -0.3384 -0.3316
 6465SOL    HW131031   3.991   4.166  16.668  2.3096  0.3620  3.8133
 6465SOL    HW231032   3.992   4.307  16.660  2.2704  0.1631  1.9380
 6466SOL     OW31033   4.611   1.632   5.868  0.0935  0.5712  0.4262
 6466SOL    HW131034   4.587   1.540   5.855 -1.6620  0.9426  1.1158
 6466SOL    HW231035   4.654   1.665   5.789  2.7105 -1.9320  0.7756
 6467SOL     OW31036   2.661   1.612   6.172 -0.4376 -0.5172 -0.0704
 6467SOL    HW131037   2.602   1.686   6.179  0.8639  0.5323 -0.2984
 6467SOL    HW231038   2.648   1.583   6.082 -1.0798  0.1219 -0.1827
 6468SOL     OW31039   0.329   0.249   9.404 -0.6764 -0.1157 -0.5421
 6468SOL    HW131040   0.308   0.167   9.359 -1.3574 -0.3032  0.1179
 6468SOL    HW231041   0.363   0.222   9.489  0.0880 -2.2790 -1.5247
 6469SOL     OW31042   0.778   3.218   9.855 -0.0935 -0.7901  0.1587
 6469SOL    HW131043   0.845   3.285   9.842 -0.8245 -0.1164 -0.0874
 6469SOL    HW231044   0.716   3.228   9.783  1.5495  0.2297 -1.1084
 6470SOL     OW31045   2.007   0.146   4.354  0.4399  0.4933 -0.3001
 6470SOL    HW131046   2.027   0.055   4.329 -1.9910  0.2168 -1.2146
 6470SOL    HW231047   1.965   0.172   4.272  0.5612  1.8487  0.0670
 6471SOL     OW31048   4.153   3.148  14.559 -0.6185 -0.0492 -0.1428
 6471SOL    HW131049   4.212   3.127  14.631 -0.2161 -1.2743 -0.8177
 6471SOL    HW231050   4.065   3.118  14.582 -0.3109 -0.4191  0.5423
 6472SOL     OW31051   1.492   0.259  13.077 -0.3698  0.4990 -0.2460
 6472SOL    HW131052   1.539   0.192  13.027  0.7406  0.9634  0.1947
 6472SOL    HW231053   1.408   0.260  13.030 -1.7423  0.0736  2.2279
 6473SOL     OW31054   4.630   3.394   1.077  0.7689 -0.2952 -0.3268
 6473SOL    HW131055   4.604   3.322   1.134 -0.6980  1.8847  1.7309
 6473SOL    HW231056   4.692   3.433   1.139  1.2001 -2.0850  0.3903
 6474SOL     OW31057   4.694   3.134   8.838  0.4831  0.3652  0.5715
 6474SOL    HW131058   0.037   3.155   8.790 -0.5624  1.3634 -0.7668
 6474SOL    HW231059   4.732   3.074   8.903  0.6221  1.7309  1.7363
 6475SOL     OW31060   3.575   2.531   4.824  0.5906  0.2675 -0.6728
 6475SOL    HW131061   3.664   2.517   4.790  1.3432 -1.4443  2.0411
 6475SOL    HW231062   3.590   2.568   4.911  1.5587  0.5647 -0.9573
 6476SOL     OW31063   2.193   3.634  13.257 -0.5951  0.0936  0.5073
 6476SOL    HW131064   2.236   3.687  13.324  0.1726 -0.0984  0.1665
 6476SOL    HW231065   2.267   3.608  13.203 -0.4079 -0.0422  0.8330
 6477SOL     OW31066   1.229   4.618   2.622  0.3322 -0.1219  0.0707
 6477SOL    HW131067   1.248   4.524   2.624 -0.4689 -0.3094 -2.0769
 6477SOL    HW231068   1.269   4.649   2.704  0.4350 -1.3246  0.4863
 6478SOL     OW31069   0.916   0.370   5.565  0.2771  0.6854 -0.0660
 6478SOL    HW131070   0.919   0.408   5.653 -1.4367 -3.0115  1.5944
 6478SOL    HW231071   0.822   0.355   5.554  0.2175  1.3240 -0.3883
 6479SOL     OW31072   4.305   2.451   8.823 -0.5444 -0.0952  0.3766
 6479SOL    HW131073   4.291   2.448   8.728 -0.6676 -2.3492  0.4744
 6479SOL    HW231074   4.319   2.359   8.845  0.4097  0.0191  0.2606
 6480SOL     OW31075   1.028   1.095   4.147 -0.5724 -0.2586 -0.1497
 6480SOL    HW131076   1.020   1.046   4.230 -2.7954  0.5091  0.0759
 6480SOL    HW231077   0.935   1.091   4.125 -1.1593 -0.1722  2.2877
 6481SOL     OW31078   4.630   0.223  13.636 -0.3612  0.0907 -0.8530
 6481SOL    HW131079   4.686   0.283  13.587  0.5634 -0.3901 -0.3782
 6481SOL    HW231080   4.632   0.234  13.731 -0.6237 -0.8457 -0.7374
 6482SOL     OW31081   4.691   4.093   3.251 -0.3643  0.3711  0.3050
 6482SOL    HW131082   4.705   4.187   3.251  1.3591  0.1256  0.1314
 6482SOL    HW231083   4.604   4.086   3.289 -0.5243 -1.7017 -0.3819
 6483SOL     OW31084   0.963   4.252   6.076  0.8323  0.3374 -0.0430
 6483SOL    HW131085   0.941   4.198   6.000  0.3440  1.4182 -0.6703
 6483SOL    HW231086   0.874   4.263   6.108  0.5703  2.0351 -1.3099
 6484SOL     OW31087   4.116   1.369   4.495  0.1907 -0.2074  0.8844
 6484SOL    HW131088   4.129   1.300   4.430  0.0081  1.0565 -0.5132
 6484SOL    HW231089   4.069   1.433   4.441 -0.9865 -0.1110  2.0222
 6485SOL     OW31090   1.018   3.398   9.877 -0.2727 -0.1333 -0.0700
 6485SOL    HW131091   1.025   3.371   9.968 -0.5471 -0.4465 -0.1408
 6485SOL    HW231092   1.068   3.330   9.832 -0.7808 -0.7632  0.3118
 6486SOL     OW31093   0.435   1.212   2.471  0.3730 -0.3224 -0.1589
 6486SOL    HW131094   0.390   1.212   2.387  0.8144  2.6275 -0.3686
 6486SOL    HW231095   0.432   1.303   2.498 -1.1461 -1.0988  2.3068
 6487SOL     OW31096   3.711   4.407  11.569 -0.0674  0.2461  0.0828
 6487SOL    HW131097   3.798   4.437  11.596  0.5727 -1.6610  0.1738
 6487SOL    HW231098   3.738   4.357  11.491  2.5662  1.4871  0.2117
 6488SOL     OW31099   2.321   1.086  17.016  0.0146  0.3162  0.5228
 6488SOL    HW131100   2.244   1.029  17.013 -0.1258  0.5879 -1.0534
 6488SOL    HW231101   2.302   1.131  17.098  0.0259  2.4727 -0.6583
 6489SOL     OW31102   1.706   2.931   2.731  0.7037  0.3287 -0.0894
 6489SOL    HW131103   1.674   3.019   2.747 -1.5312 -0.9239  2.3141
 6489SOL    HW231104   1.627   2.896   2.688  1.8694  0.8866 -2.6941
 6490SOL     OW31105   4.657   0.760   2.122  0.7697  0.1944 -0.2682
 6490SOL    HW131106   4.574   0.716   2.142  1.8996 -0.7387  2.3540
 6490SOL    HW231107   4.640   0.846   2.084 -0.4621 -0.6415 -1.6298
 6491SOL     OW31108   1.966   0.567   5.484 -0.2159  0.4621  0.2877
 6491SOL    HW131109   1.884   0.519   5.496 -0.0701  0.3643  0.9419
 6491SOL    HW231110   1.943   0.619   5.407 -4.7861  1.2046  2.1871
 6492SOL     OW31111   3.624   3.226   5.567  0.4874  0.2452 -0.0360
 6492SOL    HW131112   3.703   3.174   5.584  0.6043  0.3212 -0.3404
 6492SOL    HW231113   3.660   3.295   5.511  1.8473  0.1698  0.7390
 6493SOL     OW31114   1.993   1.926   5.190 -0.9549 -0.2774 -0.1902
 6493SOL    HW131115   1.974   1.904   5.281 -1.2800 -2.1104 -0.6819
 6493SOL    HW231116   2.064   1.986   5.209  1.6447 -2.1068 -4.0983
 6494SOL     OW31117   1.066   1.994   8.289  0.4210 -0.5775 -0.1951
 6494SOL    HW131118   1.111   1.952   8.216 -0.8840  0.1903 -1.4417
 6494SOL    HW231119   1.011   1.922   8.318 -0.3340  0.7059  1.5446
 6495SOL     OW31120   4.565   2.835  16.291 -0.2806 -0.1485 -0.0711
 6495SOL    HW131121   4.607   2.874  16.214 -0.0555  0.2513  0.2617
 6495SOL    HW231122   4.629   2.843  16.361 -2.1258  3.0193  1.2532
 6496SOL     OW31123   0.820   2.470  10.868  0.5924 -0.0415  0.0019
 6496SOL    HW131124   0.797   2.547  10.921 -1.0419 -0.4244 -0.1332
 6496SOL    HW231125   0.738   2.420  10.871 -0.2757  1.2865 -2.3545
 6497SOL     OW31126   3.068   3.340   3.091  0.5136 -0.6436  0.2703
 6497SOL    HW131127   3.049   3.296   3.174 -0.0034 -0.5034  0.2266
 6497SOL    HW231128   3.092   3.264   3.039 -0.9771 -1.0126  0.1248
 6498SOL     OW31129   1.792   0.065   3.534 -0.4183 -0.4274 -0.3659
 6498SOL    HW131130   1.771   0.082   3.625  1.0831 -0.0146 -0.1007
 6498SOL    HW231131   1.839   4.720   3.538  0.0782 -0.1074  0.3370
 6499SOL     OW31132   3.870   0.289   2.333 -0.4320  0.0237  0.2518
 6499SOL    HW131133   3.777   0.278   2.313 -0.7233 -0.2154  1.7563
 6499SOL    HW231134   3.903   0.212   2.287  2.7965  0.6931  1.5119
 6500SOL     OW31135   2.828   0.329   9.407 -0.8097  0.0170  0.4350
 6500SOL    HW131136   2.846   0.404   9.351  1.5470 -0.7312  0.1752
 6500SOL    HW231137   2.806   0.265   9.339  2.8451 -1.3663  0.5157
 6501SOL     OW31138   2.770   1.525   7.541  0.2473  0.1753 -0.3883
 6501SOL    HW131139   2.714   1.453   7.567  0.0335 -0.1644 -1.7809
 6501SOL    HW231140   2.817   1.554   7.619  0.5233  1.9692 -1.2065
 6502SOL     OW31141   1.016   3.331   7.706 -0.2852  0.1568  0.8273
 6502SOL    HW131142   0.952   3.299   7.769 -0.4100 -0.2692  0.4778
 6502SOL    HW231143   0.994   3.278   7.630 -0.3487  1.2595  0.0774
 6503SOL     OW31144   2.471   1.904   1.166 -0.1457 -0.5232  0.1226
 6503SOL    HW131145   2.487   1.852   1.088 -0.3124  2.4113 -1.8530
 6503SOL    HW231146   2.540   1.875   1.226 -1.2296 -0.6536  1.3192
 6504SOL     OW31147   1.301   0.237   7.492  0.4314 -0.2073  0.0484
 6504SOL    HW131148   1.318   0.324   7.456 -0.2563 -0.8223 -1.7781
 6504SOL    HW231149   1.214   0.253   7.529  0.8484 -0.8579  1.3276
 6505SOL     OW31150   0.635   0.917   7.672  0.4618 -0.3084  0.1429
 6505SOL    HW131151   0.592   0.989   7.718 -0.0750 -1.6597  1.7523
 6505SOL    HW231152   0.571   0.906   7.601  2.7746 -2.2887 -1.6523
 6506SOL     OW31153   0.514   3.781   9.650 -0.3913  0.4873  0.2001
 6506SOL    HW131154   0.517   3.769   9.555 -0.5130 -0.1171  0.2712
 6506SOL    HW231155   0.490   3.872   9.669  2.3497  1.1493  0.4607
 6507SOL     OW31156   2.110   1.303  10.254  0.5963  0.0919 -0.0538
 6507SOL    HW131157   2.068   1.225  10.291 -0.2890  0.9442  0.7190
 6507SOL    HW231158   2.152   1.334  10.333  0.9919  1.0084 -0.6297
 6508SOL     OW31159   4.268   4.634   2.829  0.0782  0.5876  0.0497
 6508SOL    HW131160   4.277   4.656   2.921  0.2275  1.4543 -0.1759
 6508SOL    HW231161   4.334   4.564   2.828  0.0608  0.5681  0.7330
 6509SOL     OW31162   4.045   3.445   1.724  0.3156 -0.2402 -0.0092
 6509SOL    HW131163   4.092   3.373   1.767 -1.2224 -2.6538 -2.3403
 6509SOL    HW231164   4.091   3.455   1.640 -0.0628 -0.3009 -0.2224
 6510SOL     OW31165   2.917   2.108   1.124  0.1870 -0.0327 -0.1915
 6510SOL    HW131166   2.983   2.049   1.088 -0.6629  0.5047 -2.6812
 6510SOL    HW231167   2.965   2.190   1.120  0.5668 -0.3184 -1.4083
 6511SOL     OW31168   3.263   4.589   7.836  0.4616 -0.1403  0.1753
 6511SOL    HW131169   3.324   4.531   7.881  0.0421 -0.7392 -0.0297
 6511SOL    HW231170   3.185   4.587   7.893  1.9090  1.3959  2.2026
 6512SOL     OW31171   1.322   0.614   5.734  0.2825 -0.2140 -1.0224
 6512SOL    HW131172   1.329   0.550   5.805 -0.1553 -0.3879 -1.1371
 6512SOL    HW231173   1.318   0.693   5.788 -1.0386 -0.5945 -0.5742
 6513SOL     OW31174   1.812   4.444   6.462 -0.3166  0.1035  0.2036
 6513SOL    HW131175   1.767   4.374   6.414  0.5122  0.9329 -1.7878
 6513SOL    HW231176   1.874   4.384   6.503  1.5674 -0.1135 -2.9182
 6514SOL     OW31177   0.431   1.794   6.989  0.2090 -0.1144 -0.2587
 6514SOL    HW131178   0.393   1.710   7.015  0.5860  0.3510  1.7865
 6514SOL    HW231179   0.524   1.774   6.987  0.5571  1.4738  0.1409
 6515SOL     OW31180   0.338   4.571  13.423 -0.2652  0.2847  0.3857
 6515SOL    HW131181   0.335   4.477  13.441  0.3617  0.1412 -0.2473
 6515SOL    HW231182   0.245   4.589  13.436 -0.1730  2.0750 -1.3648
 6516SOL     OW31183   4.121   2.446   0.051  0.4081 -0.4689  0.1202
 6516SOL    HW131184   4.138   2.531   0.012 -1.8006  0.3081  0.8070
 6516SOL    HW231185   4.203   2.398   0.038  0.7812  0.2140 -0.0319
 6517SOL     OW31186   2.250   0.931   7.478 -0.1622  0.4136 -0.5945
 6517SOL    HW131187   2.332   0.967   7.510 -0.9132  0.9342  0.7276
 6517SOL    HW231188   2.209   0.877   7.545 -0.8558  0.8949 -0.6303
 6518SOL     OW31189   2.336   3.058   3.409  0.3434  0.0676  0.1533
 6518SOL    HW131190   2.407   3.122   3.417 -0.8963  1.3641  0.7789
 6518SOL    HW231191   2.369   3.017   3.329  2.7641  0.3002  1.0499
 6519SOL     OW31192   2.357   1.407   0.484 -0.1252  0.0118 -0.6768
 6519SOL    HW131193   2.306   1.351   0.543 -2.0030 -0.3747 -2.6784
 6519SOL    HW231194   2.288   1.429   0.421 -0.5136  1.2837  0.1826
 6520SOL     OW31195   0.696   2.149   7.662 -0.0338  0.2021 -0.2556
 6520SOL    HW131196   0.712   2.057   7.640 -1.6286 -0.6113  2.0439
 6520SOL    HW231197   0.770   2.199   7.627 -1.0814  2.0556  0.1759
 6521SOL     OW31198   3.083   3.573  11.691  0.2368  0.1631 -0.0267
 6521SOL    HW131199   3.037   3.642  11.739 -1.7050 -1.4792  0.4955
 6521SOL    HW231200   3.079   3.593  11.597  3.2697  1.1233  0.0533
 6522SOL     OW31201   3.596   3.713   5.968  0.2438  0.2415 -0.4160
 6522SOL    HW131202   3.637   3.792   6.004 -0.7289  1.3412 -1.7085
 6522SOL    HW231203   3.512   3.712   6.015 -0.0253  0.0655 -0.9056
 6523SOL     OW31204   3.903   2.493   8.492  0.3410 -0.0272  0.2660
 6523SOL    HW131205   3.978   2.538   8.453 -0.2795 -0.9984 -2.0734
 6523SOL    HW231206   3.948   2.408   8.501  1.7681  0.5522 -1.4666
 6524SOL     OW31207   3.571   4.594   7.229  0.0734  0.4370  0.5033
 6524SOL    HW131208   3.503   4.654   7.199 -1.6038  0.1800  3.7768
 6524SOL    HW231209   3.523   4.512   7.229  1.7162 -0.5096  2.0504
 6525SOL     OW31210   4.409   3.333   1.376 -0.9180  0.1768 -0.0720
 6525SOL    HW131211   4.429   3.303   1.287  2.9533 -0.7300  1.1021
 6525SOL    HW231212   4.330   3.386   1.370 -0.2828  1.1366  0.1834
 6526SOL     OW31213   3.705   2.195   1.609 -0.6976  0.3189  0.3246
 6526SOL    HW131214   3.691   2.100   1.603 -1.2280  0.3794  0.6691
 6526SOL    HW231215   3.630   2.225   1.660 -0.5577 -0.1552  0.8154
 6527SOL     OW31216   0.964   4.331   7.395 -0.4113  0.0884 -0.2888
 6527SOL    HW131217   1.054   4.364   7.398 -0.5192  0.1526  1.7185
 6527SOL    HW231218   0.909   4.403   7.425 -0.9088 -0.6391  0.5252
 6528SOL     OW31219   2.329   4.304   2.783  0.7059  0.1877 -0.3718
 6528SOL    HW131220   2.256   4.335   2.730  2.0677  1.1815 -1.6441
 6528SOL    HW231221   2.410   4.337   2.744  1.6534 -0.5703  0.9389
 6529SOL     OW31222   3.108   4.074   5.399 -0.1440  0.2440 -0.6083
 6529SOL    HW131223   3.117   4.152   5.345 -1.2561 -0.5462 -1.9159
 6529SOL    HW231224   3.013   4.065   5.406  0.0021 -0.8194  0.2024
 6530SOL     OW31225   3.257   2.153   8.149 -0.2929 -0.2947  0.3157
 6530SOL    HW131226   3.243   2.226   8.209 -0.8825 -1.1676  1.2434
 6530SOL    HW231227   3.180   2.176   8.097  0.5911  0.2809 -0.7303
 6531SOL     OW31228   0.431   2.156   0.450  0.6824  1.0517 -0.3964
 6531SOL    HW131229   0.506   2.214   0.467  1.2279  0.9706 -2.4834
 6531SOL    HW231230   0.410   2.187   0.362  1.4013  1.6674 -0.3575
 6532SOL     OW31231   0.894   3.063   9.230  0.3810 -0.0918 -0.0089
 6532SOL    HW131232   0.982   3.101   9.221 -1.1320  3.1424 -1.3227
 6532SOL    HW231233   0.847   3.143   9.256 -0.2022 -0.5782  0.4057
 6533SOL     OW31234   3.561   0.743  15.693  0.3222  0.3611 -0.4054
 6533SOL    HW131235   3.618   0.800  15.643  0.8815 -0.4884 -0.7278
 6533SOL    HW231236   3.504   0.717  15.621  1.5552 -1.1501 -0.8214
 6534SOL     OW31237   0.662   3.478  11.234 -0.1889 -0.5226  0.5906
 6534SOL    HW131238   0.683   3.385  11.234  0.7434 -0.3095  0.3768
 6534SOL    HW231239   0.657   3.495  11.328  0.0371  0.2150  0.4706
 6535SOL     OW31240   2.653   3.993   4.378 -0.1808  0.1232 -0.0889
 6535SOL    HW131241   2.600   3.970   4.454 -0.1357  3.9826  1.1467
 6535SOL    HW231242   2.601   4.068   4.350  0.2945  0.8459  0.9607
 6536SOL     OW31243   0.582   1.084   6.906  0.1604  0.0684 -0.4527
 6536SOL    HW131244   0.615   1.174   6.913  1.8749 -0.5606 -0.4064
 6536SOL    HW231245   0.525   1.093   6.830 -0.4106 -1.6458 -0.2346
 6537SOL     OW31246   2.706   2.841   4.602  0.0243 -0.0682 -0.4565
 6537SOL    HW131247   2.632   2.795   4.641 -0.6180 -0.6179 -2.3121
 6537SOL    HW231248   2.737   2.888   4.679 -1.0978  2.3499 -1.4551
 6538SOL     OW31249   4.671   2.788  16.998 -0.0780 -0.4974  0.4813
 6538SOL    HW131250   4.589   2.784  16.950  1.0353  0.9646 -1.5008
 6538SOL    HW231251   4.654   2.862  17.056  2.2083 -0.2677  0.8605
 6539SOL     OW31252   4.272   0.223   5.361  0.1591 -0.1546 -0.6512
 6539SOL    HW131253   4.256   0.149   5.420  0.1623 -0.9711 -1.6729
 6539SOL    HW231254   4.200   0.206   5.300  1.0479 -3.1148 -0.8529
 6540SOL     OW31255   0.965   0.326   8.748 -0.2866 -0.4633  0.1118
 6540SOL    HW131256   0.893   0.389   8.738  1.5576  1.6760  0.3334
 6540SOL    HW231257   0.967   0.306   8.654 -3.2768  0.4537 -0.1761
 6541SOL     OW31258   0.047   2.167   3.165  0.4741  0.4328 -1.0020
 6541SOL    HW131259   0.069   2.209   3.248 -0.6269  0.7829 -0.8875
 6541SOL    HW231260   0.123   2.108   3.158  0.7448  0.5932  0.4744
 6542SOL     OW31261   2.321   3.124   7.930  0.3204  0.0440  0.6118
 6542SOL    HW131262   2.329   3.030   7.944  0.0401 -0.2246 -0.9772
 6542SOL    HW231263   2.385   3.132   7.859 -1.1940  0.2505 -0.7531
 6543SOL     OW31264   1.953   1.929   2.099  0.3113  0.2209 -0.7660
 6543SOL    HW131265   1.949   2.024   2.106  1.3498  0.2288 -0.3629
 6543SOL    HW231266   1.861   1.906   2.083  0.7392 -1.6024 -0.6817
 6544SOL     OW31267   3.879   1.737   3.472  0.1540 -0.3487 -0.0157
 6544SOL    HW131268   3.918   1.740   3.559 -2.0711  0.3642  0.9531
 6544SOL    HW231269   3.844   1.648   3.472 -0.0281 -0.2658  1.4626
 6545SOL     OW31270   2.223   0.111   5.581 -0.0539  0.6943 -0.2819
 6545SOL    HW131271   2.268   0.100   5.497  1.1270  1.4585  0.2337
 6545SOL    HW231272   2.212   0.022   5.614 -0.3799 -0.5912 -3.8078
 6546SOL     OW31273   0.247   3.702   1.641  0.2900  0.0722  0.7656
 6546SOL    HW131274   0.214   3.733   1.726  0.0735 -0.5498  0.9130
 6546SOL    HW231275   0.338   3.729   1.642 -0.0733  1.2448  3.0102
 6547SOL     OW31276   4.386   4.730   6.830  0.2867 -0.1027 -0.3348
 6547SOL    HW131277   4.300   4.689   6.830  0.5583 -0.6674 -0.7868
 6547SOL    HW231278   4.387   4.737   6.735 -0.2844 -0.7744 -0.3929
 6548SOL     OW31279   2.482   2.343   3.336  0.3582  0.4250  0.2330
 6548SOL    HW131280   2.555   2.389   3.377  0.1300  0.6817  0.3538
 6548SOL    HW231281   2.519   2.257   3.353 -0.4717 -0.0879 -0.6022
 6549SOL     OW31282   0.402   0.242   6.317  0.0857 -0.2011 -0.0920
 6549SOL    HW131283   0.394   0.329   6.279 -1.4799 -0.3212 -0.0497
 6549SOL    HW231284   0.485   0.244   6.365  1.3997 -1.3329 -2.2923
 6550SOL     OW31285   0.260   4.610   9.958  0.1960  0.2559 -0.2653
 6550SOL    HW131286   0.281   4.535   9.903 -2.4992 -1.4048  0.9742
 6550SOL    HW231287   0.269   4.574  10.046 -0.0151  0.2928 -0.2272
 6551SOL     OW31288   0.966   1.097   7.446 -0.5844  0.2609 -0.1804
 6551SOL    HW131289   1.042   1.072   7.498  0.1733 -1.1585 -1.9592
 6551SOL    HW231290   0.907   1.140   7.508 -1.0436 -1.2815  0.4469
 6552SOL     OW31291   0.962   4.061   7.572 -0.5313  0.2444  0.0144
 6552SOL    HW131292   0.929   4.074   7.661 -0.7034 -1.8802  0.2558
 6552SOL    HW231293   0.964   4.149   7.534 -0.4888  0.1014 -0.3129
 6553SOL     OW31294   2.898   3.858   5.362  0.5707 -0.1379 -0.2939
 6553SOL    HW131295   2.882   3.908   5.282  0.5822  1.1330  0.4990
 6553SOL    HW231296   2.990   3.836   5.347 -0.2862 -2.5775 -1.8256
 6554SOL     OW31297   3.690   1.486   4.205 -0.4359  0.1594  0.9918
 6554SOL    HW131298   3.689   1.581   4.200  0.8419  0.0853 -0.8133
 6554SOL    HW231299   3.711   1.464   4.114  0.3911  0.7669  1.0407
 6555SOL     OW31300   1.111   3.172   7.989  0.0279  0.1277 -0.6238
 6555SOL    HW131301   1.166   3.125   8.052  0.3609 -0.9546 -1.7136
 6555SOL    HW231302   1.102   3.099   7.928  0.7425 -1.5177  1.2180
 6556SOL     OW31303   1.867   0.978   3.135 -0.3290 -0.7369 -0.0652
 6556SOL    HW131304   1.877   0.886   3.160  0.8956 -0.1697  1.5187
 6556SOL    HW231305   1.801   0.964   3.067 -0.7222 -1.1792  0.4069
 6557SOL     OW31306   1.025   2.289  11.895 -0.4620  0.1533 -0.5447
 6557SOL    HW131307   1.035   2.198  11.866 -3.4911 -1.0423  2.1374
 6557SOL    HW231308   1.042   2.334  11.812  1.3141 -0.5598 -0.5666
 6558SOL     OW31309   2.832   4.229  17.327 -0.1561  0.1158 -0.0716
 6558SOL    HW131310   2.784   4.265  17.401  0.1712 -0.2117  0.2974
 6558SOL    HW231311   2.918   4.208  17.363 -0.2969  0.2896  0.3687
 6559SOL     OW31312   0.920   3.031  13.807 -0.3543 -0.1543  0.1862
 6559SOL    HW131313   0.866   3.046  13.730 -0.3710 -1.0935  0.0158
 6559SOL    HW231314   0.899   3.108  13.861 -0.8845  0.6850 -1.2085
 6560SOL     OW31315   1.732   1.976   1.588 -0.2392 -0.0148  0.1078
 6560SOL    HW131316   1.805   1.962   1.649 -1.3269 -0.7999  1.2146
 6560SOL    HW231317   1.710   2.068   1.607 -0.8693  0.2408 -1.8909
 6561SOL     OW31318   4.180   1.271   8.583 -0.0466 -0.0937 -0.0394
 6561SOL    HW131319   4.189   1.178   8.604 -0.1979  0.4131  2.2634
 6561SOL    HW231320   4.274   1.291   8.587 -0.0310  0.5027 -4.1306
 6562SOL     OW31321   2.731   0.835   6.925 -0.2322 -0.1475 -0.9771
 6562SOL    HW131322   2.773   0.914   6.889 -1.8689  0.5132 -1.4182
 6562SOL    HW231323   2.789   0.826   7.000 -1.6262  0.5547  0.1619
 6563SOL     OW31324   4.010   2.500   3.747 -0.2630  0.2310 -0.2196
 6563SOL    HW131325   4.077   2.556   3.709  0.3374 -0.4420 -0.1470
 6563SOL    HW231326   4.059   2.435   3.797 -2.1153  0.8045  2.3597
 6564SOL     OW31327   2.255   0.573   1.757  0.4705  0.4688  0.2860
 6564SOL    HW131328   2.345   0.556   1.788  0.0313 -2.5885 -0.0636
 6564SOL    HW231329   2.252   0.660   1.796  0.6200  0.6035 -0.0120
 6565SOL     OW31330   1.482   3.536   8.459  0.1408  0.6895 -0.6085
 6565SOL    HW131331   1.483   3.576   8.546 -2.6030 -1.7271  0.5615
 6565SOL    HW231332   1.575   3.526   8.441 -0.5080  0.1630 -3.6518
 6566SOL     OW31333   2.470   1.299   0.026  0.4254  0.3187 -0.0777
 6566SOL    HW131334   2.555   1.328   0.060  0.2133  0.4069  0.3817
 6566SOL    HW231335   2.500   1.291  17.686 -3.7044  0.2296 -1.4102
 6567SOL     OW31336   2.356   4.252  13.416  0.5222 -0.4140 -0.2696
 6567SOL    HW131337   2.316   4.299  13.343  1.0767 -0.2791 -0.4917
 6567SOL    HW231338   2.450   4.266  13.404  0.5888  1.9174  3.3560
 6568SOL     OW31339   0.802   1.301   9.122 -0.3878  0.2720  0.1817
 6568SOL    HW131340   0.884   1.256   9.104 -0.0491  1.6257 -1.6252
 6568SOL    HW231341   0.797   1.375   9.062  1.5030 -0.3429 -0.7061
 6569SOL     OW31342   0.803   2.191   1.924 -0.4750 -0.0442 -1.2824
 6569SOL    HW131343   0.828   2.121   1.984 -0.3942  0.2993 -0.9148
 6569SOL    HW231344   0.742   2.143   1.867 -0.6881 -0.0425 -1.0545
 6570SOL     OW31345   3.632   3.001   9.196 -0.3195 -0.3207 -0.2489
 6570SOL    HW131346   3.585   3.038   9.271  2.2843  0.6781  0.8783
 6570SOL    HW231347   3.596   3.055   9.125  2.0992  1.8652  0.1893
 6571SOL     OW31348   4.248   0.349   6.911  0.6206 -0.0674  0.1107
 6571SOL    HW131349   4.220   0.430   6.869  0.2670  0.3943  1.2401
 6571SOL    HW231350   4.178   0.286   6.894  0.2188 -0.1879  2.1706
 6572SOL     OW31351   0.557   2.228   6.209  0.3897 -0.2607  0.0278
 6572SOL    HW131352   0.571   2.241   6.115 -0.1256  0.0004 -0.0101
 6572SOL    HW231353   0.627   2.167   6.232  0.5657 -0.1672 -0.2510
 6573SOL     OW31354   3.055   2.222   4.508 -0.5458 -0.2578  0.2203
 6573SOL    HW131355   3.070   2.312   4.539  0.4683 -0.5187  0.5124
 6573SOL    HW231356   3.091   2.222   4.419  0.2988 -3.0431  0.5673
 6574SOL     OW31357   2.467   3.034   6.567  0.2758  0.2341 -0.1158
 6574SOL    HW131358   2.439   2.973   6.636 -1.6846 -0.1621 -1.2646
 6574SOL    HW231359   2.538   2.987   6.523  0.2806  2.6840 -2.6813
 6575SOL     OW31360   4.415   3.205   2.524 -0.1021 -0.5593  0.4651
 6575SOL    HW131361   4.339   3.147   2.534 -0.1356 -0.2290  1.9997
 6575SOL    HW231362   4.442   3.188   2.434  0.4585 -0.8306  0.6851
 6576SOL     OW31363   4.460   3.855  15.127 -0.1930 -0.4439  0.1777
 6576SOL    HW131364   4.479   3.792  15.196 -0.6284  2.0768  2.6386
 6576SOL    HW231365   4.367   3.841  15.109 -0.5186  1.8347  0.0918
 6577SOL     OW31366   1.013   2.794   5.074 -0.0640  0.7360 -0.4857
 6577SOL    HW131367   1.083   2.853   5.103 -0.2412  0.5769  0.2892
 6577SOL    HW231368   0.951   2.861   5.046 -0.4134  1.0863  1.0738
 6578SOL     OW31369   0.914   0.694   7.507 -0.3545  0.7431 -0.3767
 6578SOL    HW131370   0.906   0.747   7.428 -0.2953  2.6040  0.8622
 6578SOL    HW231371   0.836   0.639   7.495  0.1203  0.0852 -0.4248
 6579SOL     OW31372   4.057   3.641  13.438  0.2574 -0.4040  0.6655
 6579SOL    HW131373   4.010   3.694  13.501  1.4205  2.6325 -1.0040
 6579SOL    HW231374   4.032   3.691  13.360 -0.2771  0.5245  1.4277
 6580SOL     OW31375   0.202   4.499   5.110 -0.1120 -0.0117 -0.7886
 6580SOL    HW131376   0.205   4.564   5.181  2.3940 -0.8490 -0.1220
 6580SOL    HW231377   0.151   4.428   5.149  0.6476  0.6105  1.3582
 6581SOL     OW31378   0.793   3.066   2.562  0.2307 -0.0959  0.3491
 6581SOL    HW131379   0.703   3.041   2.584 -0.2654 -0.6769 -2.3358
 6581SOL    HW231380   0.785   3.108   2.476  0.3649 -0.2166  0.2766
 6582SOL     OW31381   0.620   1.554  11.733  0.0380 -0.0409  0.3441
 6582SOL    HW131382   0.549   1.491  11.723  0.4654 -0.2731 -1.2185
 6582SOL    HW231383   0.656   1.535  11.820 -0.7613 -1.2234  0.4088
 6583SOL     OW31384   0.234   1.204   8.425  0.0477  0.3623 -0.1645
 6583SOL    HW131385   0.179   1.232   8.498 -0.1481 -1.2336  0.3220
 6583SOL    HW231386   0.318   1.244   8.446 -0.0324  2.2533 -3.5330
 6584SOL     OW31387   3.738   4.526   8.074 -0.2308 -0.1287 -0.4249
 6584SOL    HW131388   3.814   4.530   8.016 -0.1236  2.7448 -0.0965
 6584SOL    HW231389   3.771   4.512   8.162 -0.5731 -0.6053 -0.3741
 6585SOL     OW31390   0.612   4.550   2.139  0.6676  0.0543  0.3777
 6585SOL    HW131391   0.623   4.599   2.221  0.7002 -0.4033  0.6471
 6585SOL    HW231392   0.617   4.457   2.163  1.5870 -0.5161 -1.9947
 6586SOL     OW31393   0.200   0.266   8.232 -0.1020 -0.2817  0.4699
 6586SOL    HW131394   0.216   0.192   8.174  2.3559  0.4926  0.1545
 6586SOL    HW231395   0.125   0.305   8.188 -0.3057 -1.1415  0.0619
 6587SOL     OW31396   2.341   1.374   3.724  0.6608  0.2227  0.5280
 6587SOL    HW131397   2.422   1.342   3.764  1.1386  0.9968  0.1955
 6587SOL    HW231398   2.308   1.432   3.793  1.1552  0.4830  0.5474
 6588SOL     OW31399   4.033   1.225   8.060  0.5059  0.8954 -0.4441
 6588SOL    HW131400   3.969   1.196   7.996 -0.4507 -0.5178  1.1382
 6588SOL    HW231401   3.981   1.297   8.097  3.0576  0.5460  3.7994
 6589SOL     OW31402   0.554   3.193   6.940  0.0330 -0.2810  0.1526
 6589SOL    HW131403   0.528   3.284   6.952  2.3001  0.2799  0.6588
 6589SOL    HW231404   0.649   3.198   6.943  0.0173 -0.2150  0.5500
 6590SOL     OW31405   4.331   2.836   4.295 -0.3882  0.2324  0.7289
 6590SOL    HW131406   4.277   2.865   4.222 -0.2184 -2.8458 -0.6261
 6590SOL    HW231407   4.323   2.741   4.288 -0.5452  0.1945  1.3442
 6591SOL     OW31408   3.108   2.384   8.268 -0.2984  0.4596 -0.1732
 6591SOL    HW131409   3.026   2.359   8.311 -0.6664 -0.1128 -1.2141
 6591SOL    HW231410   3.089   2.475   8.247  1.0324  0.3175 -1.9383
 6592SOL     OW31411   4.182   4.241   6.208  0.0107  0.5005  0.2210
 6592SOL    HW131412   4.113   4.198   6.258  1.5278 -1.8665  0.2618
 6592SOL    HW231413   4.235   4.166   6.183  1.8362  1.8568  0.0338
 6593SOL     OW31414   2.531   2.118   4.439  0.1291  0.3010  0.0499
 6593SOL    HW131415   2.605   2.163   4.398  0.8602 -1.3427 -0.4276
 6593SOL    HW231416   2.464   2.114   4.371  1.3898 -1.6996 -1.0794
 6594SOL     OW31417   2.166   0.939   6.879  0.3433  0.4664 -0.6665
 6594SOL    HW131418   2.088   0.995   6.875 -0.7588 -1.0766 -1.0878
 6594SOL    HW231419   2.134   0.858   6.839  0.6312 -2.1968  4.5292
 6595SOL     OW31420   0.477   0.731   6.620 -0.0880  0.0792  0.3349
 6595SOL    HW131421   0.556   0.717   6.568  0.4979  1.2461  0.8803
 6595SOL    HW231422   0.460   0.643   6.654 -0.6916  0.2740  0.5350
 6596SOL     OW31423   1.761   1.628  14.203 -0.6798 -0.0733 -0.4399
 6596SOL    HW131424   1.668   1.609  14.197 -1.2103  2.2581  0.4272
 6596SOL    HW231425   1.794   1.571  14.133  3.0837 -0.0942  1.3310
 6597SOL     OW31426   4.042   0.523  11.925  0.2308  0.3299  1.3163
 6597SOL    HW131427   4.052   0.434  11.890 -0.8703  0.9988 -0.7455
 6597SOL    HW231428   4.071   0.576  11.850  0.7748  0.4783  1.6285
 6598SOL     OW31429   2.878   0.379   2.026  0.4559 -0.2891  0.3553
 6598SOL    HW131430   2.871   0.362   2.119 -1.4318 -0.0044  0.2676
 6598SOL    HW231431   2.783   0.369   2.014  0.1918  0.3009  2.0327
 6599SOL     OW31432   0.662   2.533   7.228  0.0222  0.2012 -0.3833
 6599SOL    HW131433   0.579   2.498   7.197  0.4362  0.1230 -1.4057
 6599SOL    HW231434   0.680   2.487   7.310 -0.0741  2.0559  0.6903
 6600SOL     OW31435   4.544   1.957  15.291 -0.0395 -0.3726  0.0659
 6600SOL    HW131436   4.540   1.867  15.324 -2.3172 -0.7028 -1.1478
 6600SOL    HW231437   4.537   2.003  15.375 -1.7372 -0.8586  0.1857
 6601SOL     OW31438   1.064   2.798   8.100 -0.1154  0.4712  0.1970
 6601SOL    HW131439   1.121   2.867   8.133 -0.6358  1.1978 -0.4122
 6601SOL    HW231440   0.985   2.805   8.154  0.6978  0.3869  1.3736
 6602SOL     OW31441   0.520   2.740   1.671  0.5713 -0.1413  0.1786
 6602SOL    HW131442   0.605   2.725   1.629 -0.2830 -0.7589 -1.3704
 6602SOL    HW231443   0.470   2.755   1.591  0.5102  0.1516  0.2743
 6603SOL     OW31444   3.383   3.019   4.989  0.1912 -0.0824  0.0514
 6603SOL    HW131445   3.320   2.964   4.942  0.2218 -0.3215  0.2901
 6603SOL    HW231446   3.430   3.075   4.927 -1.2631  0.2768 -0.7193
 6604SOL     OW31447   1.651   1.635   4.369 -0.1815 -0.3658  0.3909
 6604SOL    HW131448   1.582   1.694   4.339 -1.0428 -2.3843 -1.5842
 6604SOL    HW231449   1.706   1.642   4.290 -0.3778  0.6687  0.3400
 6605SOL     OW31450   0.539   3.220   9.047  0.3872 -0.5269  0.2792
 6605SOL    HW131451   0.606   3.247   8.984 -1.3518  0.6850 -1.0761
 6605SOL    HW231452   0.524   3.307   9.085  1.3202 -0.4558  0.4734
 6606SOL     OW31453   1.070   2.128  12.769 -0.2232  0.4336  0.3471
 6606SOL    HW131454   1.138   2.191  12.748 -1.4365  1.0918 -1.5971
 6606SOL    HW231455   1.006   2.139  12.699 -1.1238 -0.4177  1.0460
 6607SOL     OW31456   2.483   2.180   6.681  0.3719  0.0516 -0.3030
 6607SOL    HW131457   2.436   2.106   6.721  2.8028 -0.9696  0.6270
 6607SOL    HW231458   2.463   2.170   6.588 -3.0896 -0.2292  0.4746
 6608SOL     OW31459   0.330   3.260   4.796  0.2863 -0.3284  0.0795
 6608SOL    HW131460   0.394   3.214   4.850  0.4024  0.4612  0.6104
 6608SOL    HW231461   0.378   3.250   4.713  1.9462 -0.2344  1.0276
 6609SOL     OW31462   0.077   1.892  16.091 -0.1324  0.3153 -0.3278
 6609SOL    HW131463   0.108   1.834  16.022 -0.2184  2.2895 -2.0139
 6609SOL    HW231464   0.037   1.957  16.033 -0.7000 -0.6396 -1.0133
 6610SOL     OW31465   2.389   3.978   8.159 -0.5116 -0.2003 -0.6961
 6610SOL    HW131466   2.314   4.034   8.181 -0.0150 -0.2024  0.9887
 6610SOL    HW231467   2.465   4.036   8.153 -0.4646 -0.2318 -0.3963
 6611SOL     OW31468   1.640   2.307  14.438 -0.5322 -0.1183  0.2551
 6611SOL    HW131469   1.625   2.214  14.422 -3.3866  0.2992  0.5810
 6611SOL    HW231470   1.734   2.326  14.435 -0.5498  0.2303  1.7643
 6612SOL     OW31471   2.582   2.884  16.524 -0.0478 -0.3600  0.3230
 6612SOL    HW131472   2.667   2.846  16.545  0.7073 -1.0452 -3.8883
 6612SOL    HW231473   2.543   2.808  16.480  0.3643 -0.3765 -0.0103
 6613SOL     OW31474   0.401   4.385   5.996  0.8636 -0.6279  0.0365
 6613SOL    HW131475   0.483   4.340   6.016  2.0049  2.2193  1.7961
 6613SOL    HW231476   0.408   4.465   6.048  0.3464 -1.1382  0.8902
 6614SOL     OW31477   4.218   3.338  13.067 -0.3432  0.0005 -0.2773
 6614SOL    HW131478   4.245   3.261  13.017  1.1918  1.4246 -1.6178
 6614SOL    HW231479   4.285   3.406  13.060 -0.4260  0.0208 -0.8718
 6615SOL     OW31480   2.957   3.402   6.668  0.1194 -0.3675 -0.2750
 6615SOL    HW131481   2.980   3.312   6.646  1.5812 -0.6234  2.2851
 6615SOL    HW231482   2.868   3.407   6.633 -0.0516  0.9156  0.3410
 6616SOL     OW31483   1.565   0.055   8.855 -0.0911  0.3526 -0.6049
 6616SOL    HW131484   1.470   0.061   8.869 -0.1033  1.6067 -1.1658
 6616SOL    HW231485   1.562   0.092   8.767 -1.2974  0.0245 -0.7020
 6617SOL     OW31486   3.328   1.928   5.797  0.2597 -0.3997 -0.5712
 6617SOL    HW131487   3.253   1.882   5.834 -0.4907  1.2809 -0.0160
 6617SOL    HW231488   3.394   1.906   5.863 -1.2518 -0.3257  0.9588
 6618SOL     OW31489   2.242   4.361   8.122  0.4066  0.4434 -0.3028
 6618SOL    HW131490   2.253   4.311   8.203  0.9069  2.2847  0.7656
 6618SOL    HW231491   2.325   4.409   8.115  0.8493 -0.0013  1.6744
 6619SOL     OW31492   2.725   4.361   6.104  0.2373  0.0091  0.8320
 6619SOL    HW131493   2.782   4.425   6.148 -1.4641  2.6087 -0.6947
 6619SOL    HW231494   2.717   4.307   6.182 -0.7843 -0.0835  0.6637
 6620SOL     OW31495   3.385   0.126   2.647  0.2426 -0.4841  0.2587
 6620SOL    HW131496   3.423   0.213   2.663  2.2722 -1.6743  1.9530
 6620SOL    HW231497   3.436   0.099   2.571 -0.2406  0.2020 -0.3101
 6621SOL     OW31498   1.703   1.650   8.016 -0.2295  0.1762  0.4062
 6621SOL    HW131499   1.622   1.699   8.027  0.4140  1.8314 -2.3320
 6621SOL    HW231500   1.705   1.607   8.102  1.9292 -1.3740 -0.4262
 6622SOL     OW31501   3.405   0.734  13.432 -0.2133  0.5038 -0.7355
 6622SOL    HW131502   3.382   0.661  13.490 -1.1367  1.7490  0.4503
 6622SOL    HW231503   3.466   0.691  13.371  0.2469  2.3651 -1.5693
 6623SOL     OW31504   4.671   3.893   4.595  0.1218  0.6325  0.5988
 6623SOL    HW131505   4.682   3.827   4.526 -1.1767 -1.2250  2.1933
 6623SOL    HW231506   4.706   3.972   4.555 -0.6641  0.4664 -0.4205
 6624SOL     OW31507   3.688   2.355   0.370  0.1360  0.2836 -0.2040
 6624SOL    HW131508   3.772   2.350   0.325  0.6133 -2.4412  0.9542
 6624SOL    HW231509   3.637   2.305   0.306  0.4628  0.2013 -0.3987
 6625SOL     OW31510   0.142   1.499   8.809 -0.4935 -0.0677 -0.1675
 6625SOL    HW131511   0.172   1.584   8.775 -0.1028  0.5253  1.6419
 6625SOL    HW231512   0.071   1.524   8.869 -0.2387  0.9804 -0.2995
 6626SOL     OW31513   1.217   2.757   3.496  0.8895  0.0055 -0.2853
 6626SOL    HW131514   1.291   2.798   3.452  1.5471 -1.4814 -0.5761
 6626SOL    HW231515   1.255   2.697   3.561 -1.1114  1.2156  2.0118
 6627SOL     OW31516   3.776   1.974   2.496 -0.0060 -0.0197 -0.4662
 6627SOL    HW131517   3.837   2.040   2.529  1.0391 -0.1279 -2.1308
 6627SOL    HW231518   3.692   2.011   2.520 -0.1480 -0.7608  0.1847
 6628SOL     OW31519   0.876   4.189   5.666 -0.5251 -0.0625 -0.3383
 6628SOL    HW131520   0.848   4.281   5.669  0.9997  0.4093 -0.6855
 6628SOL    HW231521   0.878   4.164   5.574  0.2346  1.1605 -0.6585
 6629SOL     OW31522   0.707   3.904  15.497 -0.0730  0.2979  0.2117
 6629SOL    HW131523   0.719   3.930  15.406 -1.0792 -3.9842 -1.1665
 6629SOL    HW231524   0.731   3.986  15.539  0.8223  0.2402 -0.1990
 6630SOL     OW31525   2.764   4.164   8.633  0.1585 -0.0259 -0.0138
 6630SOL    HW131526   2.801   4.220   8.701 -2.3788  0.2617  1.1381
 6630SOL    HW231527   2.813   4.083   8.640 -1.2095 -0.8284  0.3059
 6631SOL     OW31528   1.254   1.252  12.047  0.0605 -0.3211  0.0092
 6631SOL    HW131529   1.278   1.262  12.139  1.9031 -1.1897 -0.3710
 6631SOL    HW231530   1.304   1.326  12.012  0.6506 -0.2570  0.9835
 6632SOL     OW31531   0.032   2.303   2.638  0.4082  0.0477  0.0315
 6632SOL    HW131532   0.111   2.265   2.600  0.3986 -0.7873  0.8456
 6632SOL    HW231533   0.031   2.276   2.730  0.3813  1.1554  0.3492
 6633SOL     OW31534   3.512   3.078   2.545 -0.0840  0.3810 -1.1952
 6633SOL    HW131535   3.461   3.071   2.464 -1.4680  2.2691 -0.4684
 6633SOL    HW231536   3.562   3.158   2.530 -0.3517  0.2893 -2.5858
 6634SOL     OW31537   4.234   2.636   4.492  0.2980  0.3820 -0.7005
 6634SOL    HW131538   4.147   2.674   4.503 -0.5425 -1.5031 -0.8492
 6634SOL    HW231539   4.243   2.637   4.397  2.8948 -0.1639 -0.4650
 6635SOL     OW31540   4.187   3.557   8.394  0.2656  0.4518  0.4477
 6635SOL    HW131541   4.255   3.519   8.338 -0.7423  0.1145 -0.5640
 6635SOL    HW231542   4.184   3.493   8.465  2.4829 -1.0920 -0.8346
 6636SOL     OW31543   2.104   2.887   7.066  0.0390 -0.1755 -0.5575
 6636SOL    HW131544   2.198   2.902   7.077 -0.6476  3.0848  0.8531
 6636SOL    HW231545   2.092   2.793   7.052  2.9915 -0.8754  1.5430
 6637SOL     OW31546   0.040   4.237   4.146  0.3223  0.0599 -0.2939
 6637SOL    HW131547   0.108   4.233   4.214 -1.2859  0.8823  1.3500
 6637SOL    HW231548   0.007   4.326   4.157 -1.3486 -0.7627  1.2498
 6638SOL     OW31549   2.931   3.074   0.512  0.7255  0.4727  0.1618
 6638SOL    HW131550   2.922   3.163   0.477  0.2106  0.1234 -0.5777
 6638SOL    HW231551   2.967   3.088   0.600  1.5478 -1.2636  0.1094
 6639SOL     OW31552   1.732   4.394  11.032  0.1923  0.3211  0.4400
 6639SOL    HW131553   1.683   4.450  11.092  0.2327  1.7177 -0.8144
 6639SOL    HW231554   1.702   4.304  11.047 -3.7958  1.6016  0.2277
 6640SOL     OW31555   3.017   2.137   7.730 -0.1810  0.4087  0.0660
 6640SOL    HW131556   3.094   2.095   7.693 -0.1663 -0.7772  1.4071
 6640SOL    HW231557   2.938   2.098   7.692  0.1001  0.9926 -1.1049
 6641SOL     OW31558   2.238   2.916   5.598 -0.3372  0.3258  0.3970
 6641SOL    HW131559   2.248   2.925   5.693  0.5058  1.0936  0.2334
 6641SOL    HW231560   2.149   2.880   5.601 -0.1819 -0.1214 -0.4319
 6642SOL     OW31561   4.081   0.930   5.045 -0.2317 -0.9040 -0.2244
 6642SOL    HW131562   4.082   0.866   5.116  5.0946 -0.2383  0.3555
 6642SOL    HW231563   4.176   0.930   5.028 -0.0192 -2.5820  0.9423
 6643SOL     OW31564   0.215   3.207   2.459 -0.1323  0.2649 -0.2844
 6643SOL    HW131565   0.184   3.154   2.531 -0.8107  0.2409 -0.5925
 6643SOL    HW231566   0.180   3.165   2.380 -0.0391  0.9745 -0.7127
 6644SOL     OW31567   4.376   4.143   2.206 -0.1324 -0.4650 -0.4585
 6644SOL    HW131568   4.286   4.115   2.221 -0.3096  0.3758  0.0408
 6644SOL    HW231569   4.432   4.084   2.256  0.5110  1.6497  1.3214
 6645SOL     OW31570   1.270   3.014   8.162 -0.2931 -0.1794 -0.1980
 6645SOL    HW131571   1.293   3.018   8.254 -1.2974 -0.0785  0.0456
 6645SOL    HW231572   1.349   2.977   8.122  1.1550  1.1483  1.4853
 6646SOL     OW31573   4.306   2.576   4.207  0.8467  0.3861 -0.4352
 6646SOL    HW131574   4.289   2.596   4.115  1.7005  1.0789 -0.4444
 6646SOL    HW231575   4.302   2.481   4.201  0.4719  0.5332 -2.6133
 6647SOL     OW31576   4.607   3.548   8.209 -0.0599 -0.1801 -0.4841
 6647SOL    HW131577   4.588   3.641   8.192  1.3758  0.2005  0.0188
 6647SOL    HW231578   4.623   3.536   8.303  0.7151 -1.2325 -0.7575
 6648SOL     OW31579   3.689   4.275  16.878 -0.0220  0.1182  0.0705
 6648SOL    HW131580   3.600   4.310  16.875 -0.1002 -0.0384  0.4719
 6648SOL    HW231581   3.734   4.356  16.901 -1.1252  0.9382 -0.6627
 6649SOL     OW31582   0.106   0.897  15.655  0.8489  0.3237 -0.1129
 6649SOL    HW131583   0.060   0.937  15.729  0.0037  0.1992 -0.5797
 6649SOL    HW231584   0.068   0.936  15.577  0.7278  0.9414  0.2577
 6650SOL     OW31585   3.285   3.925   7.360  0.1709  0.6401  0.3503
 6650SOL    HW131586   3.294   3.863   7.432 -0.3184 -0.2116 -0.3200
 6650SOL    HW231587   3.353   3.987   7.388  1.7052 -1.7084  1.8320
 6651SOL     OW31588   2.741   3.409   9.011  0.1005  0.6208  0.2852
 6651SOL    HW131589   2.707   3.383   9.097 -1.4416 -0.2594 -0.5855
 6651SOL    HW231590   2.779   3.327   8.980  1.7148  1.8007 -0.8342
 6652SOL     OW31591   1.605   0.865   1.910  0.4966 -0.1870 -0.5942
 6652SOL    HW131592   1.541   0.934   1.896 -1.9975 -2.0505  1.7185
 6652SOL    HW231593   1.577   0.836   1.997  2.1935 -0.9558 -0.2919
 6653SOL     OW31594   3.533   0.825   3.927  0.5938  0.5963 -0.3045
 6653SOL    HW131595   3.482   0.812   4.007  1.0797 -0.5797 -0.1965
 6653SOL    HW231596   3.593   0.751   3.922  1.2371  1.1477 -0.6833
 6654SOL     OW31597   2.944   4.625   8.624 -0.1803  0.6813  0.7488
 6654SOL    HW131598   2.993   4.702   8.653 -0.7958  1.6959 -0.9331
 6654SOL    HW231599   2.896   4.604   8.704 -0.6114  0.7242  0.5032
 6655SOL     OW31600   1.796   0.766  16.699  0.1350  0.2902 -0.0384
 6655SOL    HW131601   1.775   0.844  16.647  0.7997  0.1196 -0.5670
 6655SOL    HW231602   1.885   0.751  16.665 -0.1198 -0.6210 -0.3025
 6656SOL     OW31603   3.640   2.451   4.374  0.2078 -0.1702  0.0376
 6656SOL    HW131604   3.586   2.401   4.312 -2.1678  0.7414  1.3727
 6656SOL    HW231605   3.610   2.415   4.457 -1.1798 -1.4425 -1.0128
 6657SOL     OW31606   4.699   0.406   0.121 -0.1953  0.6243 -0.1842
 6657SOL    HW131607   0.001   0.320   0.119  1.1508  1.2250  0.7148
 6657SOL    HW231608   0.034   0.454   0.161  0.8989 -1.6771  0.5715
 6658SOL     OW31609   2.336   0.716  11.335  0.3899 -0.1653 -0.0218
 6658SOL    HW131610   2.360   0.660  11.409 -0.0029 -1.1192 -0.6141
 6658SOL    HW231611   2.411   0.775  11.329 -0.4213  0.4819 -3.3996
 6659SOL     OW31612   3.870   2.972   3.157 -0.1987 -0.0612  0.0883
 6659SOL    HW131613   3.939   3.038   3.152  0.4960 -0.5594  3.4971
 6659SOL    HW231614   3.923   2.906   3.201 -0.3516 -0.3686 -0.1829
 6660SOL     OW31615   2.508   2.213  16.618  0.3219  0.1370 -0.2348
 6660SOL    HW131616   2.575   2.254  16.673  0.9532 -1.6714  0.3594
 6660SOL    HW231617   2.561   2.203  16.539  0.1125  0.1734 -0.3772
 6661SOL     OW31618   1.283   4.538   3.813  0.8941 -0.0056  0.2693
 6661SOL    HW131619   1.331   4.603   3.761  0.9480  0.2897  0.6856
 6661SOL    HW231620   1.248   4.480   3.746 -0.4010 -1.1884  1.9480
 6662SOL     OW31621   1.752   1.939   7.300 -0.5800  0.5774  0.5802
 6662SOL    HW131622   1.771   1.845   7.307 -0.4262  0.4966 -1.0549
 6662SOL    HW231623   1.696   1.953   7.377 -1.6474 -0.0589 -0.0857
 6663SOL     OW31624   0.589   3.297  15.402 -0.2550  0.2497  0.1354
 6663SOL    HW131625   0.557   3.232  15.464  0.2331 -0.5349 -0.4325
 6663SOL    HW231626   0.651   3.240  15.358  0.4539  2.9597 -2.3810
 6664SOL     OW31627   2.085   2.948   3.847  0.5079 -0.1765  0.4064
 6664SOL    HW131628   2.090   3.018   3.912 -0.4205  1.4485 -1.3088
 6664SOL    HW231629   2.025   2.981   3.781  0.3250  0.5594  0.9513
 6665SOL     OW31630   3.473   1.628  11.137  0.7429  0.6953  0.0567
 6665SOL    HW131631   3.464   1.723  11.145 -1.5158  0.3336  1.6258
 6665SOL    HW231632   3.565   1.617  11.114  0.1237 -1.3494 -1.4626
 6666SOL     OW31633   4.334   0.977   2.346  0.1239 -0.2760 -0.2081
 6666SOL    HW131634   4.411   0.983   2.401  0.6131 -0.9672 -0.8129
 6666SOL    HW231635   4.296   0.893   2.374 -0.6488  0.4314  0.8561
 6667SOL     OW31636   4.483   2.804   1.241  0.4951  0.7411 -0.2926
 6667SOL    HW131637   4.450   2.730   1.189  2.0071  1.2669 -1.9631
 6667SOL    HW231638   4.545   2.841   1.179  3.1041 -0.1996  1.7793
 6668SOL     OW31639   2.125   2.541   8.542  0.4968  0.3283  0.5483
 6668SOL    HW131640   2.060   2.554   8.611  2.1223  2.3452  1.7002
 6668SOL    HW231641   2.067   2.516   8.470  0.4838  1.8313  0.0135
 6669SOL     OW31642   3.987   1.423   6.249  0.1995  0.0878  0.1010
 6669SOL    HW131643   3.909   1.370   6.267 -0.6679  1.2883 -0.0967
 6669SOL    HW231644   3.963   1.496   6.306 -1.4166  0.8197 -1.5103
 6670SOL     OW31645   2.173   4.184  10.263 -0.2621  0.7287 -0.0070
 6670SOL    HW131646   2.118   4.245  10.215  0.0700 -0.3237 -1.7216
 6670SOL    HW231647   2.127   4.104  10.239  0.7149  0.3587 -0.6170
 6671SOL     OW31648   3.904   3.754   7.433  0.5547  0.4021 -0.9921
 6671SOL    HW131649   3.985   3.713   7.462  0.9765  0.6311 -1.8413
 6671SOL    HW231650   3.914   3.831   7.488  1.2632  0.6512 -1.4610
 6672SOL     OW31651   3.910   1.101   5.668  0.5734  0.7019  0.5040
 6672SOL    HW131652   3.869   1.171   5.720 -0.5706 -0.0399  0.6068
 6672SOL    HW231653   3.910   1.140   5.581 -1.3112  0.8237  0.5499
 6673SOL     OW31654   2.434   4.382   5.049 -0.3182  0.0628  0.1772
 6673SOL    HW131655   2.368   4.423   5.106 -0.9698 -1.5132  0.5423
 6673SOL    HW231656   2.404   4.424   4.969 -1.6687 -1.1563  0.0345
 6674SOL     OW31657   3.077   0.637   5.892 -0.1282 -0.0874 -0.4166
 6674SOL    HW131658   3.071   0.604   5.803  1.3806  1.4958 -1.0973
 6674SOL    HW231659   2.984   0.653   5.904 -0.1777 -0.8210  0.2346
 6675SOL     OW31660   2.323   4.190  11.350  0.0537  0.9554 -0.6018
 6675SOL    HW131661   2.282   4.129  11.411 -0.9641  0.0785 -2.1963
 6675SOL    HW231662   2.319   4.135  11.272  1.0828  1.2828 -0.8860
 6676SOL     OW31663   1.331   4.167   1.778 -0.2748 -0.3224 -0.8595
 6676SOL    HW131664   1.396   4.215   1.830 -2.2618  2.0113 -0.5360
 6676SOL    HW231665   1.380   4.114   1.715 -0.1294 -2.4773  1.0268
 6677SOL     OW31666   3.653   1.682   5.494 -0.3357 -0.8777  0.5771
 6677SOL    HW131667   3.560   1.695   5.514 -0.6034 -0.2902 -1.0939
 6677SOL    HW231668   3.698   1.753   5.539  1.5896 -1.6100 -0.1960
 6678SOL     OW31669   2.747   3.588   6.856 -0.6624  0.6339 -0.1775
 6678SOL    HW131670   2.655   3.565   6.842 -1.1115  2.2673  0.0632
 6678SOL    HW231671   2.794   3.521   6.807  0.7647  1.0519  0.6147
 6679SOL     OW31672   1.387   0.732   3.662  0.1677 -0.3080  1.0245
 6679SOL    HW131673   1.337   0.778   3.729 -0.8336  0.7424 -0.4467
 6679SOL    HW231674   1.349   0.644   3.660  2.0012 -1.0587 -0.8495
 6680SOL     OW31675   1.707   2.589   1.121  0.1027 -0.1091  0.0833
 6680SOL    HW131676   1.626   2.545   1.096  0.9340 -1.5174 -0.0801
 6680SOL    HW231677   1.764   2.534   1.069 -0.3814  2.0040 -2.7137
 6681SOL     OW31678   4.494   3.174   5.880 -0.1353  0.8585 -0.4520
 6681SOL    HW131679   4.507   3.264   5.910  1.2510  0.8476 -1.0196
 6681SOL    HW231680   4.480   3.191   5.787  0.2540  0.4269 -0.5898
 6682SOL     OW31681   1.410   3.599   2.355  0.0156 -0.3503 -0.2383
 6682SOL    HW131682   1.497   3.563   2.342 -0.2137 -0.3364 -1.7690
 6682SOL    HW231683   1.420   3.628   2.446  0.3185  2.2495 -1.0872
 6683SOL     OW31684   4.733   1.871   3.526 -0.2902  0.6003 -0.4013
 6683SOL    HW131685   4.686   1.935   3.473 -0.6585  0.7656  0.1260
 6683SOL    HW231686   0.010   1.806   3.457 -0.2901  2.0857 -1.7875
 6684SOL     OW31687   1.721   1.437   6.326  0.1380  0.5500  0.8851
 6684SOL    HW131688   1.630   1.419   6.305  0.6076 -0.4039 -0.3015
 6684SOL    HW231689   1.750   1.441   6.235 -0.9929  0.0823  0.5134
 6685SOL     OW31690   2.924   0.835  10.977  0.8616 -0.5065  0.2161
 6685SOL    HW131691   2.872   0.904  10.935  1.2526 -0.9376 -0.9714
 6685SOL    HW231692   2.998   0.828  10.916  0.8877  1.6486  0.0060
 6686SOL     OW31693   2.860   4.030   3.421 -0.2292  0.1329  0.0679
 6686SOL    HW131694   2.779   3.986   3.396  0.0282  0.0241 -0.5994
 6686SOL    HW231695   2.903   4.034   3.335  1.2286  0.3284  0.7979
 6687SOL     OW31696   0.002   0.266   9.671 -0.0241  0.1729 -0.0470
 6687SOL    HW131697   0.035   0.326   9.604  0.2991 -1.9875 -1.7905
 6687SOL    HW231698   4.646   0.282   9.668  0.1211  1.0644 -0.1253
 6688SOL     OW31699   1.354   3.913  12.566  0.0315 -0.2311 -0.1187
 6688SOL    HW131700   1.375   3.887  12.655 -2.8405  0.0358  0.6410
 6688SOL    HW231701   1.281   3.971  12.589 -1.3611 -1.4181 -1.6091
 6689SOL     OW31702   3.354   2.925   3.996 -0.0083 -0.5119 -0.1696
 6689SOL    HW131703   3.377   2.989   4.064 -1.8718 -0.5770  0.5246
 6689SOL    HW231704   3.276   2.968   3.961 -0.6621 -0.4801  1.2916
 6690SOL     OW31705   0.301   2.738  15.453  0.8413  0.0142 -0.4570
 6690SOL    HW131706   0.267   2.719  15.540  0.1427  0.1941 -0.6943
 6690SOL    HW231707   0.233   2.800  15.427 -0.3317 -1.1143 -0.0494
 6691SOL     OW31708   0.720   3.471   7.439  0.5512 -0.0321  0.1834
 6691SOL    HW131709   0.785   3.452   7.507  1.4006 -0.1106 -0.6471
 6691SOL    HW231710   0.777   3.534   7.394 -0.4909  1.3414  0.7744
 6692SOL     OW31711   4.616   4.608  10.270 -0.6626  0.4059 -1.3555
 6692SOL    HW131712   4.640   4.647  10.186 -1.2191  1.5809 -0.9651
 6692SOL    HW231713   4.547   4.550  10.238  0.0582 -0.0844 -2.0349
 6693SOL     OW31714   2.456   2.851   1.247 -0.6942 -0.5160 -0.4252
 6693SOL    HW131715   2.534   2.907   1.248 -1.2122  0.1619  3.2204
 6693SOL    HW231716   2.453   2.823   1.339 -0.3497  1.3660  0.1806
 6694SOL     OW31717   4.120   2.582   7.311 -0.0196 -0.1522 -0.3720
 6694SOL    HW131718   4.062   2.657   7.325  1.4666  1.0064 -0.3878
 6694SOL    HW231719   4.113   2.565   7.217  1.2030  0.4087 -0.5712
 6695SOL     OW31720   1.805   1.231   0.608  0.0978 -0.5427 -0.1069
 6695SOL    HW131721   1.849   1.237   0.523 -0.2145 -0.3606 -0.2564
 6695SOL    HW231722   1.853   1.285   0.671 -1.3776  0.7383 -0.0688
 6696SOL     OW31723   4.546   1.684  11.141  0.5918 -0.2280 -0.6983
 6696SOL    HW131724   4.611   1.705  11.074  0.3355 -1.5773 -1.3669
 6696SOL    HW231725   4.552   1.591  11.161  0.8462  0.3182  1.7732
 6697SOL     OW31726   2.075   0.982  17.576 -0.3617  0.0108  0.0642
 6697SOL    HW131727   2.088   0.922  17.503 -1.3991 -2.2661  1.7394
 6697SOL    HW231728   2.146   1.044  17.564 -1.2434  0.8046 -1.0994
 6698SOL     OW31729   4.153   4.211   7.855 -0.5662 -0.1547 -0.2856
 6698SOL    HW131730   4.187   4.124   7.833  2.7432  1.3567 -1.0995
 6698SOL    HW231731   4.220   4.243   7.917 -0.5385 -0.8383  0.0412
 6699SOL     OW31732   0.014   4.662   8.514 -1.2184  0.3448  0.1012
 6699SOL    HW131733   0.083   4.718   8.550 -2.1695  0.4321  1.7629
 6699SOL    HW231734   0.070   4.612   8.454 -0.9798 -1.8570  2.1624
 6700SOL     OW31735   2.870   2.124   7.412 -0.0623  0.3140  0.2170
 6700SOL    HW131736   2.960   2.152   7.424  0.5615 -1.3611 -0.5707
 6700SOL    HW231737   2.834   2.179   7.481 -0.6386  0.5352 -0.2536
 6701SOL     OW31738   1.069   1.255   5.487  0.6135  0.3647 -0.1680
 6701SOL    HW131739   1.058   1.207   5.569  0.8542 -0.8128 -0.8308
 6701SOL    HW231740   1.097   1.340   5.524  1.5847  0.5984 -1.4534
 6702SOL     OW31741   2.317   2.045   6.166 -0.7948 -0.0649  0.1526
 6702SOL    HW131742   2.238   2.030   6.115 -1.4590  2.1065  0.5603
 6702SOL    HW231743   2.364   2.110   6.114 -1.9378 -0.7815 -1.7612
 6703SOL     OW31744   0.250   3.475   1.283 -0.3713  0.4283  0.3108
 6703SOL    HW131745   0.165   3.432   1.291 -0.4788  0.8771  1.5774
 6703SOL    HW231746   0.305   3.400   1.308  0.0827  0.4235 -0.6820
 6704SOL     OW31747   4.245   2.666   4.761  0.4854 -0.9898 -0.6354
 6704SOL    HW131748   4.250   2.645   4.668 -3.0499 -2.2889 -0.5390
 6704SOL    HW231749   4.323   2.621   4.793 -0.5010 -2.0519  0.2817
 6705SOL     OW31750   1.711   1.585   2.113  0.3199 -0.3781  0.4515
 6705SOL    HW131751   1.715   1.655   2.048  1.0057  0.2412  1.1498
 6705SOL    HW231752   1.619   1.562   2.107  0.8486 -2.0378 -1.1109
 6706SOL     OW31753   2.382   2.898   2.286  0.0833 -0.5428  0.2720
 6706SOL    HW131754   2.439   2.903   2.364  0.6735  3.8461 -0.4000
 6706SOL    HW231755   2.429   2.954   2.224 -1.3170  1.4238  0.9736
 6707SOL     OW31756   0.291   3.667   9.805 -0.2145 -0.2950 -0.4802
 6707SOL    HW131757   0.365   3.688   9.748 -0.4293 -3.5515 -1.9216
 6707SOL    HW231758   0.346   3.618   9.867 -0.5033 -0.2305 -0.1748
 6708SOL     OW31759   1.375   2.311   4.871 -0.0672 -0.1364  0.5484
 6708SOL    HW131760   1.360   2.256   4.794 -0.3254  0.3155  0.2793
 6708SOL    HW231761   1.460   2.275   4.897 -0.3665 -0.1906  1.4707
 6709SOL     OW31762   4.209   0.103   4.985 -0.8938  0.1950 -0.1820
 6709SOL    HW131763   4.251   0.180   4.947 -1.1544  0.7227  0.5786
 6709SOL    HW231764   4.280   0.042   5.003 -1.4437 -0.0592  1.1468
 6710SOL     OW31765   1.474   2.948  16.227  0.0938 -0.4690  0.1594
 6710SOL    HW131766   1.518   2.990  16.153  0.3085 -0.1481  0.4644
 6710SOL    HW231767   1.399   3.008  16.232  0.0345 -0.5208 -0.1314
 6711SOL     OW31768   2.093   0.774  10.834  0.0424 -0.0457 -0.2629
 6711SOL    HW131769   2.184   0.765  10.805 -0.0318  0.9501 -0.8399
 6711SOL    HW231770   2.090   0.711  10.906  0.6268  0.8057  0.5171
 6712SOL     OW31771   4.004   4.394   3.415  0.2502 -0.4565  0.2173
 6712SOL    HW131772   3.941   4.364   3.481 -0.5260 -0.6532 -0.6262
 6712SOL    HW231773   3.977   4.481   3.388  0.9779 -0.5090 -0.6756
 6713SOL     OW31774   4.645   0.978  12.389  0.5403 -1.2912 -0.2902
 6713SOL    HW131775   4.611   0.953  12.303  0.2016  1.2331 -0.9034
 6713SOL    HW231776   4.678   0.895  12.422  1.8310 -0.2008  1.1751
 6714SOL     OW31777   2.820   0.701   5.939 -0.6212  0.8138 -0.5216
 6714SOL    HW131778   2.772   0.692   5.856 -1.3137  1.6684 -0.2082
 6714SOL    HW231779   2.766   0.652   6.001  2.4319 -2.0321 -0.0691
 6715SOL     OW31780   4.365   2.935   5.640 -0.2389  0.2110  0.4408
 6715SOL    HW131781   4.286   2.900   5.683  1.3759 -1.4650  2.0245
 6715SOL    HW231782   4.437   2.912   5.698 -1.2409 -1.9297  0.8333
 6716SOL     OW31783   4.033   4.545   3.826  0.1164 -0.3046  0.0969
 6716SOL    HW131784   4.107   4.506   3.779  1.2619 -1.2845  2.7547
 6716SOL    HW231785   4.006   4.609   3.760 -1.3757 -3.6852 -2.5962
 6717SOL     OW31786   0.364   2.819   3.507  0.3271 -0.1537  0.6037
 6717SOL    HW131787   0.334   2.889   3.449  0.1156 -0.6455  0.1091
 6717SOL    HW231788   0.424   2.873   3.558 -0.6193 -1.3662  3.0195
 6718SOL     OW31789   2.320   4.057  15.502  0.5719 -0.2026 -0.2243
 6718SOL    HW131790   2.245   4.086  15.450 -0.8725  0.5691  2.2850
 6718SOL    HW231791   2.293   3.968  15.524  0.6664  0.0815  1.0477
 6719SOL     OW31792   2.618   0.332   8.868 -0.3919 -0.3852 -0.1830
 6719SOL    HW131793   2.577   0.324   8.781 -0.1336  2.6698 -0.5944
 6719SOL    HW231794   2.709   0.342   8.843 -0.3530 -1.0494 -0.3072
 6720SOL     OW31795   0.483   4.164  15.283 -0.4452  0.3208 -0.1508
 6720SOL    HW131796   0.532   4.093  15.243  0.3903 -0.0701  1.5563
 6720SOL    HW231797   0.403   4.120  15.313 -1.1218  1.8630  0.3451
 6721SOL     OW31798   0.341   0.065   4.708  0.4715  0.4593  0.3816
 6721SOL    HW131799   0.350   0.061   4.613  0.8275  0.6148  0.4110
 6721SOL    HW231800   0.333   0.159   4.723  2.5303  0.8425 -0.9559
 6722SOL     OW31801   3.430   4.470   9.157 -0.2046 -0.4193 -0.6499
 6722SOL    HW131802   3.360   4.405   9.156  0.7899 -1.4756 -1.8099
 6722SOL    HW231803   3.506   4.413   9.145  1.3722  0.9772  2.7570
 6723SOL     OW31804   0.355   1.053  15.068 -0.2232  0.9017  0.2280
 6723SOL    HW131805   0.358   1.021  14.977  2.1297  0.4413  0.4657
 6723SOL    HW231806   0.414   1.128  15.068  0.7347  0.1438  1.3131
 6724SOL     OW31807   1.828   1.599   2.700  0.2237 -0.6082 -0.2060
 6724SOL    HW131808   1.864   1.648   2.774 -1.1874  1.5395 -0.9511
 6724SOL    HW231809   1.828   1.669   2.635 -0.4981 -0.8197 -0.4407
 6725SOL     OW31810   1.296   4.107   6.351 -0.4896  0.6915  0.0648
 6725SOL    HW131811   1.305   4.142   6.263 -2.8868 -0.1526 -0.5123
 6725SOL    HW231812   1.200   4.111   6.355 -0.5413  0.6878 -1.1551
 6726SOL     OW31813   4.388   3.498   9.955 -0.2543  0.2479 -0.2879
 6726SOL    HW131814   4.306   3.519  10.001  0.6717  0.3031  1.3418
 6726SOL    HW231815   4.427   3.433  10.013  4.8038  0.8508 -2.9697
 6727SOL     OW31816   3.926   3.230   1.379 -0.4929  0.0235 -0.1757
 6727SOL    HW131817   3.922   3.173   1.456 -1.9315 -1.4459 -1.3543
 6727SOL    HW231818   3.891   3.170   1.313 -0.8288  0.0555 -0.0266
 6728SOL     OW31819   2.654   1.874  11.968 -0.0588  0.0989 -0.7191
 6728SOL    HW131820   2.699   1.797  12.003 -0.6463  0.3467  0.5657
 6728SOL    HW231821   2.579   1.880  12.027  0.0705 -3.1079 -0.1821
 6729SOL     OW31822   3.032   2.738   2.270  0.5107 -0.2240 -0.0150
 6729SOL    HW131823   2.969   2.810   2.272  2.4234  1.4442 -0.2319
 6729SOL    HW231824   2.972   2.664   2.278  1.7274 -1.1432  0.6579
 6730SOL     OW31825   0.302   3.517   5.373 -0.2957 -0.1670  0.2257
 6730SOL    HW131826   0.262   3.587   5.322  1.8138  2.3014  1.9490
 6730SOL    HW231827   0.388   3.556   5.392 -1.2138  1.4199  1.0790
 6731SOL     OW31828   2.601   4.129   7.111  0.0192 -0.4039 -0.1910
 6731SOL    HW131829   2.558   4.173   7.184  1.0649  0.3366 -0.0203
 6731SOL    HW231830   2.680   4.087   7.145 -2.2742 -3.8257  0.8064
 6732SOL     OW31831   1.388   3.885   6.090 -0.1344  0.0492  0.3409
 6732SOL    HW131832   1.400   3.929   6.005  1.0910 -2.0485 -0.5531
 6732SOL    HW231833   1.319   3.949   6.111 -1.7483 -1.9920  1.1825
 6733SOL     OW31834   1.707   1.865   8.585 -0.0145 -0.3890  0.0913
 6733SOL    HW131835   1.618   1.831   8.574  0.4597 -1.2038 -1.2698
 6733SOL    HW231836   1.765   1.793   8.608 -0.4236 -1.1851 -1.3735
 6734SOL     OW31837   4.199   1.727  14.368  0.2541  0.0975 -0.3616
 6734SOL    HW131838   4.238   1.814  14.356 -1.1761  0.6071 -1.4265
 6734SOL    HW231839   4.241   1.698  14.448  1.4680  0.3738 -0.9042
 6735SOL     OW31840   1.018   3.931   4.021  0.0401  0.2116  0.3198
 6735SOL    HW131841   1.063   3.864   4.071 -2.2857 -0.4553  1.5347
 6735SOL    HW231842   0.949   3.955   4.084 -0.1087  0.0994  0.2007
 6736SOL     OW31843   2.231   3.981  13.535  0.2962  0.6176  0.0563
 6736SOL    HW131844   2.304   4.021  13.582 -0.7364  2.2854  0.2402
 6736SOL    HW231845   2.224   4.016  13.446  0.1936 -0.6503 -0.4385
 6737SOL     OW31846   3.077   0.588   6.928  0.6792  0.5648 -0.3955
 6737SOL    HW131847   3.038   0.675   6.925 -0.0270  0.2701  0.4208
 6737SOL    HW231848   3.083   0.585   7.023 -0.1630 -0.3985 -0.3737
 6738SOL     OW31849   3.876   3.891   1.103 -0.3350 -0.2595 -0.8415
 6738SOL    HW131850   3.956   3.926   1.064  0.2722 -1.4237 -0.6490
 6738SOL    HW231851   3.848   3.823   1.041  0.4690 -0.1882 -1.2857
 6739SOL     OW31852   3.560   2.215   5.046  0.2273  0.2591  0.1579
 6739SOL    HW131853   3.572   2.251   5.134  0.2928  0.8487 -0.0904
 6739SOL    HW231854   3.486   2.268   5.016 -0.6326 -0.5688  0.8011
 6740SOL     OW31855   3.400   3.422   7.501  0.4963  0.1110  0.4819
 6740SOL    HW131856   3.488   3.393   7.527  0.0800 -1.6062 -0.0002
 6740SOL    HW231857   3.367   3.458   7.584 -0.5964 -1.1128  0.5784
 6741SOL     OW31858   2.116   1.998   9.236  0.0666 -0.1678  1.0816
 6741SOL    HW131859   2.105   1.930   9.302  2.2634 -1.1511  0.4253
 6741SOL    HW231860   2.124   1.955   9.151 -1.5364  0.4648  0.6156
 6742SOL     OW31861   3.361   0.725   0.187 -0.0983 -0.5752  0.3627
 6742SOL    HW131862   3.328   0.744   0.099  1.5770 -0.9423 -0.3434
 6742SOL    HW231863   3.288   0.666   0.205 -0.1747 -0.8935 -0.9856
 6743SOL     OW31864   4.636   1.097   4.453  0.2762 -0.0942  0.3197
 6743SOL    HW131865   4.636   1.167   4.388 -0.4213 -0.8145 -0.4449
 6743SOL    HW231866   4.674   1.020   4.412 -2.8733 -1.0043 -0.8881
 6744SOL     OW31867   1.894   1.219   6.325  0.2919  0.4197 -0.6663
 6744SOL    HW131868   1.835   1.294   6.313  0.6736  0.8971  0.4738
 6744SOL    HW231869   1.833   1.149   6.350  1.5286 -0.8652 -1.2490
 6745SOL     OW31870   2.373   2.656  17.449 -0.1791  0.4015 -0.4212
 6745SOL    HW131871   2.394   2.668  17.356 -0.3040  0.2109 -0.4741
 6745SOL    HW231872   2.330   2.571  17.453  1.0647 -0.3758 -3.0763
 6746SOL     OW31873   0.058   2.098   8.305 -0.0263  0.2864 -0.2467
 6746SOL    HW131874   4.728   2.046   8.261 -0.9455 -1.9195  3.6904
 6746SOL    HW231875   0.038   2.068   8.394 -0.2856  1.2308  0.0143
 6747SOL     OW31876   1.039   4.415  16.401  0.0745 -0.0141  0.1172
 6747SOL    HW131877   1.007   4.482  16.339  1.1857  0.7144  0.3357
 6747SOL    HW231878   1.011   4.335  16.356  0.6773  1.6698 -3.3216
 6748SOL     OW31879   3.333   1.072   6.540  0.0450 -0.2079 -0.1245
 6748SOL    HW131880   3.378   1.094   6.459 -0.8808 -0.2425 -0.6459
 6748SOL    HW231881   3.408   1.041   6.590  0.5293 -0.3726 -0.9598
 6749SOL     OW31882   1.981   2.321  13.585 -0.0065 -0.0039  0.1748
 6749SOL    HW131883   1.919   2.296  13.517  1.3124 -1.9044 -0.3388
 6749SOL    HW231884   1.937   2.393  13.630  1.6415 -0.1903  2.0887
 6750SOL     OW31885   3.880   0.653   1.290 -0.7750 -0.3406  0.2278
 6750SOL    HW131886   3.794   0.693   1.277 -0.8517 -0.5837 -0.0150
 6750SOL    HW231887   3.863   0.560   1.275 -1.7323 -0.5006  2.3739
 6751SOL     OW31888   0.171   3.249   8.651 -0.8113  0.1264 -0.4859
 6751SOL    HW131889   0.138   3.336   8.672 -1.4187 -1.1387  3.7555
 6751SOL    HW231890   0.207   3.267   8.564  0.6875  1.4482  0.4087
 6752SOL     OW31891   0.449   2.170   5.357 -0.3555 -0.0427 -0.1233
 6752SOL    HW131892   0.525   2.224   5.338 -0.8297  0.7786  0.2997
 6752SOL    HW231893   0.456   2.094   5.299 -1.7272 -1.4433  1.5417
 6753SOL     OW31894   4.642   4.495   2.983 -0.4928 -0.3309 -0.2941
 6753SOL    HW131895   4.614   4.472   2.894 -0.4164 -1.3258 -0.0531
 6753SOL    HW231896   4.550   4.496   3.009 -0.2083  0.0212  0.6889
 6754SOL     OW31897   2.245   2.052  10.797  0.0945 -0.0747 -0.6275
 6754SOL    HW131898   2.188   2.031  10.871 -0.6561 -3.0509 -2.0594
 6754SOL    HW231899   2.247   2.147  10.781 -0.5960 -0.1190 -0.9525
 6755SOL     OW31900   2.044   1.049   5.198  0.3519  0.3590 -0.2630
 6755SOL    HW131901   2.132   1.021   5.222 -0.3562 -1.1633  0.5612
 6755SOL    HW231902   2.039   1.144   5.207  0.0680  0.1906  1.4015
 6756SOL     OW31903   4.031   4.522   8.019  0.1613 -0.2449 -0.3425
 6756SOL    HW131904   4.123   4.542   8.005  0.7209 -2.1300  0.5742
 6756SOL    HW231905   4.038   4.458   8.089  2.3906 -1.1110 -1.3666
 6757SOL     OW31906   3.546   4.053   9.364  0.2094  0.6396  0.0644
 6757SOL    HW131907   3.543   3.969   9.410 -1.9235  0.1631 -0.9333
 6757SOL    HW231908   3.468   4.095   9.399  0.6661  0.8639  0.8204
 6758SOL     OW31909   3.045   3.385  12.764 -0.1046 -0.1933  0.2843
 6758SOL    HW131910   3.097   3.347  12.836  0.3874  1.3003  0.7243
 6758SOL    HW231911   3.071   3.314  12.706 -2.4875 -0.5082 -0.3854
 6759SOL     OW31912   0.411   1.547   8.604  0.2547 -0.0509 -0.5071
 6759SOL    HW131913   0.370   1.465   8.630  0.7930 -0.0719  0.2975
 6759SOL    HW231914   0.501   1.527   8.577 -0.0499  0.1796 -1.6650
 6760SOL     OW31915   1.224   0.706   2.786 -0.3620  0.1028  0.2537
 6760SOL    HW131916   1.216   0.760   2.708  0.9740  2.7114  1.9203
 6760SOL    HW231917   1.229   0.620   2.744  1.2794  1.0050 -1.3888
 6761SOL     OW31918   2.394   3.003   7.673  0.3831  0.1821  0.5190
 6761SOL    HW131919   2.436   2.961   7.598 -1.7241  3.1696 -2.3350
 6761SOL    HW231920   2.389   3.082   7.618  0.2479  0.6768  1.2320
 6762SOL     OW31921   4.478   0.068   8.034  0.1644 -0.3222  0.2442
 6762SOL    HW131922   4.413   0.102   8.096 -0.9356 -0.7976 -0.6638
 6762SOL    HW231923   4.543   0.031   8.094  0.8992 -0.2887 -0.5312
 6763SOL     OW31924   4.178   2.063   5.253  0.2623 -0.2668 -0.4397
 6763SOL    HW131925   4.108   2.127   5.251 -0.2334 -0.8095 -0.6453
 6763SOL    HW231926   4.232   2.095   5.325 -1.5967  1.8185 -0.0059
 6764SOL     OW31927   3.800   3.692   9.100  0.5794  0.5387  0.3540
 6764SOL    HW131928   3.843   3.770   9.065  0.5763  1.1345  1.7030
 6764SOL    HW231929   3.803   3.694   9.195  1.0229 -0.6124  0.3662
 6765SOL     OW31930   4.019   3.748   5.530  0.5284  0.4337 -0.2095
 6765SOL    HW131931   4.023   3.779   5.439 -1.0987  0.4730 -0.2691
 6765SOL    HW231932   4.111   3.745   5.556 -0.1173  1.0411  2.1400
 6766SOL     OW31933   1.159   4.033   1.967  0.3666 -0.1671 -0.0492
 6766SOL    HW131934   1.209   4.075   1.897  3.4171 -2.0471  0.9995
 6766SOL    HW231935   1.208   3.955   1.992 -0.4771 -1.4917 -2.6232
 6767SOL     OW31936   4.216   2.835   3.912  0.4472  0.2739  0.2562
 6767SOL    HW131937   4.177   2.814   3.997 -0.2432  0.0529 -0.1098
 6767SOL    HW231938   4.276   2.908   3.928 -0.2954  1.5744 -3.0376
 6768SOL     OW31939   3.241   3.613   8.546 -0.1180  0.5852 -0.1765
 6768SOL    HW131940   3.329   3.633   8.514 -0.0385  0.4650 -0.0341
 6768SOL    HW231941   3.202   3.674   8.483 -1.4950 -0.7304 -0.5795
 6769SOL     OW31942   4.565   2.772   6.154  0.2979  0.6094  0.3052
 6769SOL    HW131943   4.600   2.856   6.125 -1.9594  0.3322 -3.3030
 6769SOL    HW231944   4.608   2.720   6.087  0.2693 -0.5525  1.1887
 6770SOL     OW31945   3.319   3.619   4.555 -0.1852 -0.1208 -0.0987
 6770SOL    HW131946   3.302   3.553   4.488 -0.4589 -0.2322  0.0815
 6770SOL    HW231947   3.404   3.652   4.524  0.3752  0.2228  1.7997
 6771SOL     OW31948   2.532   4.240  15.514  0.2198 -0.0062  0.6744
 6771SOL    HW131949   2.451   4.189  15.522  0.4128 -0.1311  1.8886
 6771SOL    HW231950   2.553   4.212  15.425 -1.5892  1.3853 -0.1984
 6772SOL     OW31951   3.438   2.434   6.723  0.2169  0.4343 -0.2658
 6772SOL    HW131952   3.426   2.339   6.727 -0.2041  0.4044 -2.2237
 6772SOL    HW231953   3.413   2.471   6.807 -0.2413 -2.7948  1.0048
 6773SOL     OW31954   3.434   0.384  15.292  0.5414  0.3091  0.2578
 6773SOL    HW131955   3.416   0.414  15.203 -0.1328 -3.0406 -0.7654
 6773SOL    HW231956   3.388   0.301  15.277 -0.9643  0.9301  1.4352
 6774SOL     OW31957   0.604   0.451   4.153  0.3391  0.5609  0.2949
 6774SOL    HW131958   0.519   0.441   4.111  0.5227  0.7614 -0.1247
 6774SOL    HW231959   0.643   0.364   4.146 -0.6410  0.1843 -0.6108
 6775SOL     OW31960   4.344   3.261  17.707  0.9875  0.2180 -0.3415
 6775SOL    HW131961   4.275   3.315  17.670  0.0364 -0.5462  0.3275
 6775SOL    HW231962   4.342   3.191  17.642 -0.6869  2.6849 -2.9157
 6776SOL     OW31963   3.528   1.382   6.419  0.1099  0.5943  0.3469
 6776SOL    HW131964   3.459   1.434   6.377 -0.4724  0.6521  1.3756
 6776SOL    HW231965   3.589   1.454   6.435 -0.4623  0.6444  2.2779
 6777SOL     OW31966   3.143   4.141   6.720  0.4124 -0.4283  0.2968
 6777SOL    HW131967   3.171   4.230   6.699 -1.2838  0.5000  1.9716
 6777SOL    HW231968   3.223   4.104   6.759  1.5500  1.5689 -0.1347
 6778SOL     OW31969   1.038   4.425   4.334 -0.4997 -0.0209  0.5221
 6778SOL    HW131970   1.029   4.355   4.270 -2.2434  0.3932  0.3120
 6778SOL    HW231971   0.990   4.396   4.412  0.9265  0.0865  1.4292
 6779SOL     OW31972   2.036   3.351   4.452  0.1289  0.2823  0.6779
 6779SOL    HW131973   2.013   3.353   4.545 -0.9850  0.3398  0.4056
 6779SOL    HW231974   2.062   3.437   4.421 -1.9945 -0.1526 -2.3611
 6780SOL     OW31975   0.793   3.420   1.795 -0.0115 -0.1246 -0.1600
 6780SOL    HW131976   0.721   3.406   1.856  0.9931 -0.4286  0.9483
 6780SOL    HW231977   0.862   3.467   1.842 -0.7378  1.5019 -0.7043
 6781SOL     OW31978   0.653   2.063   4.230  0.5599 -0.2956  0.5046
 6781SOL    HW131979   0.676   2.002   4.161 -3.8637 -1.3790 -0.0175
 6781SOL    HW231980   0.673   2.148   4.190 -1.6524 -1.3733 -2.8189
 6782SOL     OW31981   3.960   1.155   5.073 -0.1887  0.7487 -0.3221
 6782SOL    HW131982   4.026   1.088   5.053  1.0055  1.7323  0.3183
 6782SOL    HW231983   3.890   1.117   5.126  0.7125 -1.1194 -0.4880
 6783SOL     OW31984   2.594   2.115   0.175 -0.1148 -0.2337 -0.3801
 6783SOL    HW131985   2.528   2.076   0.233  2.1631 -2.5878  0.6502
 6783SOL    HW231986   2.566   2.072   0.095  0.4380  0.0647 -0.7341
 6784SOL     OW31987   1.605   2.761   5.788  0.1644 -0.6781 -0.0709
 6784SOL    HW131988   1.529   2.770   5.729 -0.4477 -4.1528  0.2060
 6784SOL    HW231989   1.632   2.852   5.773  1.4058 -1.3472 -1.8609
 6785SOL     OW31990   4.202   4.397   7.650 -0.0780  0.7336 -0.0378
 6785SOL    HW131991   4.177   4.316   7.605 -0.8143 -0.2087  2.0307
 6785SOL    HW231992   4.184   4.368   7.740 -2.1671  1.9506 -0.0583
 6786SOL     OW31993   2.313   0.376   2.733  0.4219 -0.3421  0.0838
 6786SOL    HW131994   2.281   0.376   2.823 -0.9938  0.8974 -0.4282
 6786SOL    HW231995   2.311   0.283   2.711  0.7901 -0.5358  0.8691
 6787SOL     OW31996   1.813   2.916  13.836 -0.2443 -0.0319  0.0638
 6787SOL    HW131997   1.889   2.934  13.780 -0.1176  1.3833  0.6944
 6787SOL    HW231998   1.743   2.930  13.772  1.3412  2.7502 -1.0609
 6788SOL     OW31999   2.802   2.257  11.565 -0.2023  0.0392  0.4724
 6788SOL    HW132000   2.763   2.318  11.628  0.6997  0.4828  0.5983
 6788SOL    HW232001   2.825   2.186  11.624  0.2803  0.6695  1.0493
 6789SOL     OW32002   2.233   0.076  15.587 -0.9357  0.2896  0.3646
 6789SOL    HW132003   2.283   4.734  15.602 -0.4433  0.5137 -0.0748
 6789SOL    HW232004   2.162   0.046  15.530  0.1245  0.6712 -1.1759
 6790SOL     OW32005   4.108   2.353   2.890 -0.0926 -0.0178  0.0964
 6790SOL    HW132006   4.042   2.333   2.957 -1.1410  0.2967 -0.8523
 6790SOL    HW232007   4.158   2.413   2.946  0.1656 -0.7223  0.6196
 6791SOL     OW32008   4.509   3.840   2.320  0.6145 -0.0600  0.1438
 6791SOL    HW132009   4.498   3.775   2.251 -1.7549  0.6028 -0.0894
 6791SOL    HW232010   4.524   3.922   2.273  1.1954 -0.5859 -0.5763
 6792SOL     OW32011   3.009   0.707   9.471 -0.8650  0.5884  0.2159
 6792SOL    HW132012   3.005   0.616   9.497  1.1772 -0.1181 -1.9231
 6792SOL    HW232013   3.076   0.706   9.403  0.0693 -0.0017  1.1578
 6793SOL     OW32014   3.985   0.615  16.193  0.6243 -0.2379  0.4398
 6793SOL    HW132015   3.984   0.537  16.137 -3.1742  0.4676 -0.4734
 6793SOL    HW232016   4.062   0.659  16.156  0.9471 -1.2646 -0.1215
 6794SOL     OW32017   3.934   4.524  13.182 -0.2057  0.2801 -0.5993
 6794SOL    HW132018   3.848   4.558  13.206 -0.0596  1.3631 -1.6093
 6794SOL    HW232019   3.990   4.526  13.259 -1.4813 -0.5250  0.3430
 6795SOL     OW32020   1.822   2.377   3.032 -0.1010  0.1019 -0.3167
 6795SOL    HW132021   1.873   2.357   2.953  0.8450  3.0433 -0.4145
 6795SOL    HW232022   1.841   2.293   3.074  0.0283  0.6028  0.6121
 6796SOL     OW32023   3.563   2.662   3.280 -0.1032  0.1810  0.2127
 6796SOL    HW132024   3.594   2.579   3.245 -1.0658 -0.1528  0.1465
 6796SOL    HW232025   3.541   2.705   3.197  2.6452  1.3414  0.0826
 6797SOL     OW32026   3.500   4.577   6.069  0.0890  0.2500  0.2860
 6797SOL    HW132027   3.531   4.573   6.160 -0.8774  1.3245  0.6532
 6797SOL    HW232028   3.405   4.578   6.074  0.1681 -1.4109  2.2335
 6798SOL     OW32029   4.612   0.114   6.429 -0.5080 -0.5887  0.5411
 6798SOL    HW132030   4.650   0.083   6.511 -0.6797 -3.1313 -0.3444
 6798SOL    HW232031   4.646   0.203   6.423  1.4332 -1.3388  0.5265
 6799SOL     OW32032   0.238   2.942   8.632 -0.4642 -0.0145 -0.0327
 6799SOL    HW132033   0.301   3.014   8.627  1.1405 -1.3373  1.0573
 6799SOL    HW232034   0.161   2.977   8.588 -0.2294 -0.6175 -0.9101
 6800SOL     OW32035   1.119   2.533   8.187 -0.3288  0.0465  0.2998
 6800SOL    HW132036   1.081   2.620   8.183 -0.6141 -0.1331 -1.2149
 6800SOL    HW232037   1.213   2.538   8.208 -0.4376 -1.4364  1.1828
 6801SOL     OW32038   1.213   1.280   2.865  0.4459 -0.0105  0.3447
 6801SOL    HW132039   1.140   1.225   2.895  0.6518  0.6308  2.0166
 6801SOL    HW232040   1.167   1.364   2.868  1.5207  0.5954 -0.4579
 6802SOL     OW32041   3.892   3.464   4.392 -0.0428  0.1050 -0.0032
 6802SOL    HW132042   3.823   3.508   4.441  0.3614 -2.1644  2.6056
 6802SOL    HW232043   3.869   3.372   4.405 -0.5662 -0.0417 -1.9823
 6803SOL     OW32044   0.121   0.147   7.372  0.1698  0.1748 -0.0527
 6803SOL    HW132045   0.073   0.210   7.319  2.3161  2.0043  0.2085
 6803SOL    HW232046   0.212   0.162   7.345 -0.5181  0.3189 -2.2897
 6804SOL     OW32047   2.753   2.981   4.818 -0.8695  0.6906  0.2711
 6804SOL    HW132048   2.743   3.068   4.779 -4.3160  0.4009  0.5092
 6804SOL    HW232049   2.824   3.009   4.875  0.0285  1.2204 -1.1097
 6805SOL     OW32050   1.532   4.504   6.928  0.3019  0.5707  0.0593
 6805SOL    HW132051   1.536   4.486   6.834 -0.3226 -0.8003  0.2974
 6805SOL    HW232052   1.451   4.555   6.935  1.0957  1.8686 -0.1190
 6806SOL     OW32053   0.682   2.989   4.036  0.7931  0.3150 -0.2577
 6806SOL    HW132054   0.765   2.999   3.988  1.5099 -2.8169  0.3436
 6806SOL    HW232055   0.647   3.078   4.030 -1.5257 -0.3913  2.6769
 6807SOL     OW32056   1.547   4.341   3.206 -0.1155  0.0713  0.8740
 6807SOL    HW132057   1.607   4.337   3.131 -0.0316  1.0430  0.8951
 6807SOL    HW232058   1.556   4.432   3.233 -0.7245  0.4359 -0.1496
 6808SOL     OW32059   0.712   4.522   9.508 -0.2206  0.3688  0.3078
 6808SOL    HW132060   0.728   4.616   9.503  2.5523 -0.1523 -0.8908
 6808SOL    HW232061   0.790   4.502   9.561  0.1615 -1.3393 -0.8787
 6809SOL     OW32062   2.753   1.142   1.913 -0.1767 -0.0577 -0.3742
 6809SOL    HW132063   2.699   1.063   1.917 -0.1244 -0.0891 -0.2829
 6809SOL    HW232064   2.704   1.185   1.843  2.5721  0.6213 -1.8671
 6810SOL     OW32065   2.830   1.515  13.243 -0.0265  0.6567 -0.8149
 6810SOL    HW132066   2.869   1.433  13.273  1.7238  1.9786  0.5204
 6810SOL    HW232067   2.780   1.538  13.322  0.9326 -1.2139  0.3458
 6811SOL     OW32068   3.914   2.072  15.204  0.0879  0.6829 -0.5793
 6811SOL    HW132069   3.833   2.081  15.152 -0.0744 -0.4793 -0.5149
 6811SOL    HW232070   3.919   1.980  15.226  0.0809  0.6205 -0.8360
 6812SOL     OW32071   3.897   0.567   8.158  0.4192  0.4339  0.3620
 6812SOL    HW132072   3.952   0.495   8.189  1.3023  2.3215  3.2177
 6812SOL    HW232073   3.940   0.637   8.207  0.6167 -0.2164  1.1266
 6813SOL     OW32074   0.757   2.774   6.759  0.1413 -0.5983 -0.1941
 6813SOL    HW132075   0.703   2.758   6.836 -0.5534 -0.5106 -0.6664
 6813SOL    HW232076   0.680   2.791   6.705  0.5172  0.4274 -0.4105
 6814SOL     OW32077   3.038   4.552   6.585 -0.4904  0.1397 -0.3202
 6814SOL    HW132078   2.969   4.511   6.637  0.4422  0.4334  1.1641
 6814SOL    HW232079   3.100   4.479   6.596 -0.0099  0.6241  0.1746
 6815SOL     OW32080   0.149   3.217   4.546 -0.5471 -0.1211  0.4723
 6815SOL    HW132081   0.077   3.160   4.573 -1.4228 -0.0750 -1.7683
 6815SOL    HW232082   0.197   3.222   4.629 -1.1490  2.3270  0.6592
 6816SOL     OW32083   0.281   1.321   1.203  0.5705 -0.5358 -0.2260
 6816SOL    HW132084   0.357   1.333   1.260 -0.7358 -0.3968  1.4798
 6816SOL    HW232085   0.210   1.319   1.267 -0.0846  1.5684 -0.9061
 6817SOL     OW32086   1.397   2.944   6.802  0.5114  0.1212 -0.1487
 6817SOL    HW132087   1.414   2.886   6.728 -2.3315  0.4496 -1.0536
 6817SOL    HW232088   1.351   3.012   6.753  0.8186 -0.0306 -0.6398
 6818SOL     OW32089   1.195   2.085  13.597 -0.5625  0.2243  0.4052
 6818SOL    HW132090   1.237   2.086  13.683  0.0303  0.4897  0.1129
 6818SOL    HW232091   1.137   2.009  13.604  1.3254 -1.2682 -0.0757
 6819SOL     OW32092   0.407   3.362   3.492  0.0053 -0.6371  0.3006
 6819SOL    HW132093   0.414   3.428   3.561 -1.3741 -0.6752  0.4823
 6819SOL    HW232094   0.494   3.340   3.459  0.1773  0.3765  0.0750
 6820SOL     OW32095   2.653   1.622   1.343  0.1192 -0.2794  0.5694
 6820SOL    HW132096   2.604   1.632   1.424  0.1514  2.4724  0.2544
 6820SOL    HW232097   2.669   1.528   1.341 -0.2189 -0.3308  0.2566
 6821SOL     OW32098   1.461   3.322   1.658 -0.3873  0.0317  0.2505
 6821SOL    HW132099   1.543   3.278   1.636 -1.3545 -0.9679 -1.3452
 6821SOL    HW232100   1.399   3.251   1.671 -0.3695 -0.1171 -0.5006
 6822SOL     OW32101   4.210   1.791   3.859  0.0657 -0.4035 -0.3482
 6822SOL    HW132102   4.182   1.740   3.783  0.1253 -0.4517 -0.3382
 6822SOL    HW232103   4.228   1.869   3.807 -0.0296  0.3227  0.7114
 6823SOL     OW32104   3.699   4.329  11.136 -0.2764 -0.2923 -0.3621
 6823SOL    HW132105   3.615   4.366  11.161 -0.1253 -1.1059  1.3265
 6823SOL    HW232106   3.724   4.285  11.218  1.2325 -1.6932 -1.5536
 6824SOL     OW32107   3.683   2.543   8.331 -0.2382 -0.2725  0.0365
 6824SOL    HW132108   3.747   2.526   8.400 -0.5076 -0.0279  0.3449
 6824SOL    HW232109   3.673   2.457   8.291 -0.9750 -0.2684  0.2024
 6825SOL     OW32110   3.740   0.903   5.466  0.0052 -0.8844 -0.4304
 6825SOL    HW132111   3.687   0.970   5.510  2.1365 -0.4880  1.5224
 6825SOL    HW232112   3.724   0.925   5.375  1.5327  0.4197 -0.3753
 6826SOL     OW32113   2.144   3.478   3.611 -0.3198 -0.4636 -0.0895
 6826SOL    HW132114   2.056   3.510   3.590  0.0379  1.1559  0.8066
 6826SOL    HW232115   2.165   3.430   3.531 -0.6847 -0.7683  0.0002
 6827SOL     OW32116   2.584   3.797   1.843 -0.0725 -0.2535 -0.6004
 6827SOL    HW132117   2.600   3.706   1.818 -0.1409  0.3062 -2.6407
 6827SOL    HW232118   2.489   3.802   1.840 -0.1830 -0.7308  1.8909
 6828SOL     OW32119   0.094   4.418   8.665  0.4781  0.2662 -0.3767
 6828SOL    HW132120   0.077   4.354   8.734  0.0644 -2.2373 -2.8043
 6828SOL    HW232121   0.058   4.500   8.701 -1.1590 -0.5471 -0.1758
 6829SOL     OW32122   3.045   0.826   6.147 -0.0947 -0.0934 -0.1167
 6829SOL    HW132123   3.095   0.886   6.092 -0.0717  0.1207  0.1389
 6829SOL    HW232124   2.980   0.793   6.085 -1.8959  2.7812  0.2537
 6830SOL     OW32125   2.117   3.732   2.771  0.1681 -0.4289 -0.0727
 6830SOL    HW132126   2.033   3.767   2.800  0.5778  0.2600  0.2640
 6830SOL    HW232127   2.162   3.767   2.847  0.4400 -5.1744  1.9691
 6831SOL     OW32128   0.863   2.133   5.052  0.3270 -0.0322  0.3432
 6831SOL    HW132129   0.838   2.170   4.967  0.9980 -2.9487 -1.1254
 6831SOL    HW232130   0.957   2.136   5.035  0.6028  2.2424  2.2773
 6832SOL     OW32131   2.388   2.299  12.869 -0.2363 -0.9393 -0.1561
 6832SOL    HW132132   2.329   2.327  12.939  3.3033  0.3363  2.2732
 6832SOL    HW232133   2.462   2.271  12.923  0.7215 -1.1192 -1.5674
 6833SOL     OW32134   4.294   2.770  14.516 -0.2888 -0.4602 -0.4746
 6833SOL    HW132135   4.386   2.774  14.542 -0.6777 -0.0513  0.7980
 6833SOL    HW232136   4.253   2.729  14.592 -2.8436  0.8335 -1.1559
 6834SOL     OW32137   2.963   1.503   4.823 -0.1611  0.1553  0.1178
 6834SOL    HW132138   2.959   1.437   4.754 -0.3279  2.3956 -2.0438
 6834SOL    HW232139   2.892   1.563   4.801  1.0806  1.0379 -1.5251
 6835SOL     OW32140   1.154   2.630   9.548 -0.0028 -0.0179 -0.5000
 6835SOL    HW132141   1.213   2.582   9.489  1.0214  1.3025 -0.5462
 6835SOL    HW232142   1.125   2.560   9.607  1.0234  1.0769  1.3242
 6836SOL     OW32143   2.917   0.815   5.561 -0.0632 -0.3549 -0.4725
 6836SOL    HW132144   2.858   0.751   5.601 -2.0740  1.2263 -0.9261
 6836SOL    HW232145   2.998   0.764   5.563  0.7497  0.9153 -1.1695
 6837SOL     OW32146   1.554   0.781   6.811 -0.4540  0.0748  0.0335
 6837SOL    HW132147   1.517   0.865   6.837  2.4393  2.1359 -2.5093
 6837SOL    HW232148   1.588   0.806   6.725 -1.0869  1.7038  0.2663
 6838SOL     OW32149   0.280   2.996   6.653  0.2471  0.4289  0.2380
 6838SOL    HW132150   0.255   3.089   6.653 -0.5460  0.2191  0.0126
 6838SOL    HW232151   0.197   2.949   6.649 -0.4220  1.6922 -0.9179
 6839SOL     OW32152   0.208   3.845  10.023  0.2657 -0.7207 -0.1606
 6839SOL    HW132153   0.248   3.763   9.994  0.5087 -0.2086 -1.2942
 6839SOL    HW232154   0.122   3.813  10.048 -0.5674  1.8445  0.2904
 6840SOL     OW32155   2.761   1.780   4.004 -0.3156 -0.0934 -0.3688
 6840SOL    HW132156   2.707   1.821   3.937  1.0551  0.0075 -1.4155
 6840SOL    HW232157   2.770   1.855   4.064 -2.4467  0.1980 -0.4296
 6841SOL     OW32158   3.131   0.978   3.980 -0.2748 -0.5265  0.2490
 6841SOL    HW132159   3.126   0.954   4.072 -0.2891  1.7352  0.8327
 6841SOL    HW232160   3.154   0.897   3.933  0.3911 -0.8559  1.1541
 6842SOL     OW32161   4.371   4.687   9.691 -0.1189 -0.4273 -0.4623
 6842SOL    HW132162   4.448   4.672   9.745  0.5518  0.0060 -1.2863
 6842SOL    HW232163   4.374   4.604   9.643 -0.7090  0.2537 -1.6801
 6843SOL     OW32164   0.693   4.536  17.453  0.5146 -0.5647 -0.0374
 6843SOL    HW132165   0.718   4.455  17.407 -0.4851 -0.1410 -1.3350
 6843SOL    HW232166   0.664   4.503  17.538  1.2372 -0.8093  0.1193
 6844SOL     OW32167   2.364   0.232   1.686  0.2336 -0.3311  0.3881
 6844SOL    HW132168   2.372   0.305   1.625  0.0579  1.2036  2.1866
 6844SOL    HW232169   2.423   0.173   1.640  1.6187  1.6780 -0.4026
 6845SOL     OW32170   1.504   0.881   6.048 -0.5045 -0.8787 -0.5161
 6845SOL    HW132171   1.487   0.927   6.130 -0.1539  1.2580 -1.6344
 6845SOL    HW232172   1.489   0.794   6.083 -2.7694 -0.7524 -1.1597
 6846SOL     OW32173   2.492   4.277   1.802 -0.0544 -0.4189  0.0665
 6846SOL    HW132174   2.449   4.268   1.887  1.7799 -4.4442  0.5650
 6846SOL    HW232175   2.448   4.360   1.783  0.0123 -0.2065  0.8487
 6847SOL     OW32176   0.942   0.382   9.487  0.6330  0.5621  0.1935
 6847SOL    HW132177   0.992   0.304   9.509  0.5161  0.5774  0.5157
 6847SOL    HW232178   0.968   0.395   9.396 -1.0810  0.2224 -0.3456
 6848SOL     OW32179   3.559   0.936   3.330 -0.5347  1.0027  0.1239
 6848SOL    HW132180   3.510   0.860   3.301 -2.8104  1.6197  2.3510
 6848SOL    HW232181   3.642   0.925   3.283 -0.8101 -1.1230  0.1529
 6849SOL     OW32182   4.463   1.626  14.464  0.2880  0.0279 -0.0568
 6849SOL    HW132183   4.459   1.589  14.552  0.0678  0.0326 -0.0630
 6849SOL    HW232184   4.498   1.710  14.494 -1.2979 -0.0788  2.0921
 6850SOL     OW32185   3.783   2.758   2.174 -0.6548 -0.2723 -0.2152
 6850SOL    HW132186   3.863   2.755   2.121 -0.3494 -1.5979  0.3225
 6850SOL    HW232187   3.798   2.710   2.255  1.3496  1.8057  0.6493
 6851SOL     OW32188   1.112   4.567   4.600  0.6695 -0.3776 -0.3331
 6851SOL    HW132189   1.173   4.638   4.581  1.0485 -0.3189  1.0710
 6851SOL    HW232190   1.026   4.594   4.568  0.8871 -0.5578 -1.0826
 6852SOL     OW32191   0.307   1.629   3.970 -0.4819 -0.1920 -0.1276
 6852SOL    HW132192   0.349   1.634   3.883  1.0952 -1.2060  0.5680
 6852SOL    HW232193   0.230   1.685   3.964 -0.6173 -0.3164  0.5797
 6853SOL     OW32194   2.119   0.227   0.590 -0.0607  0.4141 -0.3170
 6853SOL    HW132195   2.045   0.185   0.634  0.9298 -2.6428 -1.5456
 6853SOL    HW232196   2.086   0.314   0.568  2.3737  1.6307  0.7367
 6854SOL     OW32197   3.213   0.120   2.861 -0.4614 -0.0015 -0.3643
 6854SOL    HW132198   3.156   0.046   2.879  1.9629 -2.0460 -1.0241
 6854SOL    HW232199   3.252   0.104   2.774 -1.2130  0.0604 -0.7080
 6855SOL     OW32200   3.271   3.398  16.950 -0.8385 -0.1668 -0.5220
 6855SOL    HW132201   3.242   3.411  16.859  2.9831 -1.6865 -1.9559
 6855SOL    HW232202   3.203   3.449  16.994 -1.1351 -0.4737 -0.6253
 6856SOL     OW32203   1.127   1.644   2.320 -0.3253 -0.8083  0.2483
 6856SOL    HW132204   1.174   1.584   2.378 -1.1118 -1.1785  0.4908
 6856SOL    HW232205   1.042   1.659   2.361  0.0975  2.8157 -0.1977
 6857SOL     OW32206   2.825   2.904  17.102 -0.2082  0.2143  0.2191
 6857SOL    HW132207   2.733   2.924  17.117  0.0439  1.7826 -0.2540
 6857SOL    HW232208   2.834   2.811  17.125 -2.4861 -0.2590 -0.8384
 6858SOL     OW32209   2.099   0.642   7.079  0.1132  0.1271 -0.4088
 6858SOL    HW132210   2.163   0.704   7.114 -1.1195  0.7654  0.7650
 6858SOL    HW232211   2.153   0.593   7.018 -0.1037 -0.4922 -0.1064
 6859SOL     OW32212   1.534   3.411   1.090  0.3546  0.1227 -0.4780
 6859SOL    HW132213   1.543   3.499   1.127  0.6468  0.1374 -0.5880
 6859SOL    HW232214   1.447   3.421   1.051  0.9293  0.6574 -1.6130
 6860SOL     OW32215   4.460   4.033   8.123 -0.0737  0.3798 -0.0277
 6860SOL    HW132216   4.396   4.098   8.095 -0.7007  0.0380  0.6208
 6860SOL    HW232217   4.541   4.082   8.109 -0.8743  1.3846 -1.1056
 6861SOL     OW32218   3.989   2.749   7.681  0.0513 -0.5098  0.1288
 6861SOL    HW132219   3.937   2.740   7.601 -0.5649 -0.1533  0.4885
 6861SOL    HW232220   3.974   2.658   7.710  0.2197 -0.7587 -0.5766
 6862SOL     OW32221   1.172   2.878   8.467  0.2440 -0.9949  0.0748
 6862SOL    HW132222   1.103   2.858   8.530  0.7238  0.0613  0.9251
 6862SOL    HW232223   1.155   2.966   8.432 -0.6952 -0.2740  2.3730
 6863SOL     OW32224   2.371   2.282   3.605  0.1631  0.8274  0.0035
 6863SOL    HW132225   2.383   2.373   3.633 -1.6065  0.9528  0.3307
 6863SOL    HW232226   2.385   2.288   3.511  1.0349  3.0773  0.2790
 6864SOL     OW32227   2.650   2.692  12.231 -0.3565 -0.2960 -0.5714
 6864SOL    HW132228   2.629   2.784  12.216  1.0101  0.3319  1.4180
 6864SOL    HW232229   2.689   2.693  12.318 -1.8648 -0.1938  0.1041
 6865SOL     OW32230   3.360   2.541  12.618  0.2524  0.3073  0.6262
 6865SOL    HW132231   3.385   2.564  12.529  1.2354 -0.2385  0.7640
 6865SOL    HW232232   3.383   2.626  12.656  2.3675  1.5282 -3.4685
 6866SOL     OW32233   1.863   3.449   2.616 -0.1184 -0.0459 -0.2141
 6866SOL    HW132234   1.809   3.401   2.679  2.7153 -2.4793  0.3263
 6866SOL    HW232235   1.856   3.394   2.537  0.9812  0.3542 -0.5754
 6867SOL     OW32236   4.550   1.727   5.169 -0.0114  0.0591  0.3106
 6867SOL    HW132237   4.618   1.661   5.161  1.0233  1.4169 -2.0471
 6867SOL    HW232238   4.497   1.721   5.089  2.2249  1.3024 -1.2511
 6868SOL     OW32239   3.633   3.605   1.705  0.7876  0.1290 -0.0957
 6868SOL    HW132240   3.593   3.527   1.668 -0.8701  0.4496  1.0465
 6868SOL    HW232241   3.654   3.565   1.789  0.3613  2.2327  1.0249
 6869SOL     OW32242   0.778   0.309   8.990  0.6250 -0.8037  0.0258
 6869SOL    HW132243   0.870   0.320   8.964  0.5066 -0.3613 -0.2019
 6869SOL    HW232244   0.749   0.393   9.023 -2.4557 -1.4756 -1.0190
 6870SOL     OW32245   1.906   1.860   5.482 -0.0843  0.1272 -0.0332
 6870SOL    HW132246   1.910   1.927   5.550 -0.8248  2.3080 -2.1256
 6870SOL    HW232247   1.810   1.861   5.474 -0.2140  1.0601  1.7237
 6871SOL     OW32248   1.456   1.496  14.225 -0.8006  0.6904  0.1878
 6871SOL    HW132249   1.474   1.467  14.136 -0.3202  2.8253 -0.4090
 6871SOL    HW232250   1.420   1.581  14.199  0.2641  0.7039 -1.2211
 6872SOL     OW32251   2.574   4.656   6.677 -0.1031 -0.2876 -0.2214
 6872SOL    HW132252   2.502   4.629   6.620 -0.1487 -0.1440 -0.2323
 6872SOL    HW232253   2.583   4.568   6.714 -2.2383  0.2413  1.5876
 6873SOL     OW32254   2.104   0.121  14.575 -0.0106 -0.2056 -0.3870
 6873SOL    HW132255   2.178   0.080  14.621  2.4957  2.0561 -2.3892
 6873SOL    HW232256   2.154   0.170  14.509  0.0748  0.7221  0.3708
 6874SOL     OW32257   0.248   3.354   7.264  0.4984 -0.0769  0.3864
 6874SOL    HW132258   0.323   3.372   7.321  0.6594 -0.4319  0.2889
 6874SOL    HW232259   0.191   3.431   7.264 -0.9002 -1.1028 -0.7954
 6875SOL     OW32260   3.283   2.159  12.591  0.0683 -0.1302 -0.0705
 6875SOL    HW132261   3.240   2.094  12.646  1.1753 -0.9931 -0.2112
 6875SOL    HW232262   3.342   2.209  12.648  0.6207  0.2402 -0.9579
 6876SOL     OW32263   2.651   1.052  10.606  0.1329 -0.2812 -0.0323
 6876SOL    HW132264   2.592   0.997  10.554 -0.8249  0.1550  0.5947
 6876SOL    HW232265   2.607   1.137  10.614 -0.6552 -0.4537 -2.6743
 6877SOL     OW32266   2.149   0.902  17.278 -0.4594 -0.5227  0.2498
 6877SOL    HW132267   2.199   0.822  17.293 -0.1092 -0.3679 -0.0893
 6877SOL    HW232268   2.115   0.894  17.189 -0.2009  0.1039  0.0929
 6878SOL     OW32269   0.125   0.551   0.261 -0.2571  0.1494  0.4934
 6878SOL    HW132270   0.068   0.628   0.253 -0.7003 -0.2150  0.1505
 6878SOL    HW232271   0.210   0.594   0.254 -0.0395 -0.7721 -2.8076
 6879SOL     OW32272   0.767   2.490   3.896 -0.5811  0.0441 -0.5230
 6879SOL    HW132273   0.757   2.585   3.882 -1.3576  0.2061  1.0775
 6879SOL    HW232274   0.738   2.457   3.811 -1.2896 -1.3668  0.2721
 6880SOL     OW32275   4.315   2.249   5.952  0.8203  0.0067  0.6096
 6880SOL    HW132276   4.341   2.203   5.872 -1.8846  0.4875 -0.5228
 6880SOL    HW232277   4.261   2.180   5.991 -0.2115  0.8177  0.6166
 6881SOL     OW32278   3.726   2.446   6.010  0.0556  0.2823  0.4269
 6881SOL    HW132279   3.690   2.523   5.966  0.1453  1.3249  2.1566
 6881SOL    HW232280   3.814   2.436   5.975 -0.5349 -1.5943 -0.5367
 6882SOL     OW32281   0.172   3.038  16.388 -0.6175  0.0658 -0.2520
 6882SOL    HW132282   0.219   3.120  16.402 -0.1408  0.2666 -3.1578
 6882SOL    HW232283   0.153   3.046  16.295 -0.5384  0.0897 -0.2663
 6883SOL     OW32284   0.059   4.394   6.174  0.3514 -0.1765  0.0334
 6883SOL    HW132285   0.066   4.455   6.100  0.7159 -1.6706 -1.1682
 6883SOL    HW232286   4.722   4.432   6.219 -1.1915  1.5275 -4.0005
 6884SOL     OW32287   4.183   0.767   3.899  0.2634  0.6088  0.5099
 6884SOL    HW132288   4.177   0.780   3.804 -1.2104  0.8408  0.6394
 6884SOL    HW232289   4.103   0.802   3.938 -0.5445  0.1793 -0.7361
 6885SOL     OW32290   4.106   2.994   1.004  0.2488 -0.4197  0.2970
 6885SOL    HW132291   4.059   2.918   1.038 -0.7248  0.4812  1.0002
 6885SOL    HW232292   4.121   3.041   1.087  2.5235 -0.0825 -0.3057
 6886SOL     OW32293   3.116   1.157   6.216 -0.2041 -0.8247  0.1466
 6886SOL    HW132294   3.169   1.120   6.287 -1.3838  1.4730  2.2227
 6886SOL    HW232295   3.105   1.241   6.260  0.3151 -1.3044  1.1877
 6887SOL     OW32296   4.006   2.010   4.496  0.4251  0.1557  0.8423
 6887SOL    HW132297   3.940   2.033   4.431  1.2069 -0.2363 -0.0936
 6887SOL    HW232298   4.082   2.016   4.439  0.8892 -0.0786  1.4303
 6888SOL     OW32299   1.717   0.860   5.873  0.2152  0.2228  0.4392
 6888SOL    HW132300   1.717   0.769   5.843  0.7871  0.5683 -0.6351
 6888SOL    HW232301   1.653   0.855   5.943 -0.3665 -0.6086 -0.1464
 6889SOL     OW32302   3.984   3.318  12.105 -0.2991 -0.1200 -0.6987
 6889SOL    HW132303   4.075   3.286  12.107  0.1213  1.1099 -0.3361
 6889SOL    HW232304   3.992   3.410  12.082  0.4411  0.6591  2.7497
 6890SOL     OW32305   3.422   2.969   1.558  0.1592  0.1723  0.0726
 6890SOL    HW132306   3.341   3.005   1.595 -1.5097  0.4272 -3.7612
 6890SOL    HW232307   3.473   2.955   1.638 -0.9809 -0.1404  0.7453
 6891SOL     OW32308   4.144   3.182   6.573 -0.4716 -0.1700  0.5510
 6891SOL    HW132309   4.126   3.124   6.499 -1.3214 -2.3933  2.4666
 6891SOL    HW232310   4.071   3.174   6.634 -0.4584 -1.3975  0.4121
 6892SOL     OW32311   0.768   2.635  14.027  0.4568  0.0662 -0.3031
 6892SOL    HW132312   0.698   2.618  14.089 -1.0641  0.4853 -1.9128
 6892SOL    HW232313   0.770   2.731  14.024  0.1765  0.0339 -1.4370
 6893SOL     OW32314   0.126   4.651   4.776  0.3311  0.0574  0.2557
 6893SOL    HW132315   0.218   4.677   4.765  0.9888 -2.9059 -1.3037
 6893SOL    HW232316   0.136   4.559   4.800  2.3638  0.1534 -0.2114
 6894SOL     OW32317   1.418   2.598   8.118 -0.3234 -0.3250 -0.1554
 6894SOL    HW132318   1.396   2.606   8.211 -1.2311  0.4369 -0.4361
 6894SOL    HW232319   1.494   2.657   8.113 -1.8546  1.3982 -3.1779
 6895SOL     OW32320   0.505   2.672   7.628  0.5988 -0.0163  0.1126
 6895SOL    HW132321   0.496   2.705   7.718 -0.0232 -2.3857  0.9170
 6895SOL    HW232322   0.591   2.632   7.638  0.2689 -0.9621 -0.9231
 6896SOL     OW32323   3.970   4.527  15.500  0.2466 -0.2550 -0.7086
 6896SOL    HW132324   4.028   4.458  15.531  1.0390  0.1840 -1.2134
 6896SOL    HW232325   4.004   4.602  15.549  0.2331  0.5894 -1.9804
 6897SOL     OW32326   0.397   0.448   9.862  0.1698  0.0209  0.1240
 6897SOL    HW132327   0.319   0.464   9.916 -0.9393 -0.7067 -1.2673
 6897SOL    HW232328   0.411   0.355   9.883 -2.8078 -0.2614  0.8181
 6898SOL     OW32329   0.370   2.979   3.225 -0.5009  0.0241  0.1208
 6898SOL    HW132330   0.293   3.034   3.212 -0.3517  0.7741  2.3636
 6898SOL    HW232331   0.436   3.049   3.233  0.4443 -0.6649 -1.5581
 6899SOL     OW32332   0.921   1.755   8.360  1.0472 -0.8317 -0.6304
 6899SOL    HW132333   0.831   1.735   8.334  0.1071  2.3836  0.0756
 6899SOL    HW232334   0.932   1.719   8.448 -0.3827 -0.3121 -0.2288
 6900SOL     OW32335   2.963   1.972   4.615  0.0604  0.0314  0.0377
 6900SOL    HW132336   3.007   2.041   4.566  1.8129 -2.1216 -1.4360
 6900SOL    HW232337   2.980   1.897   4.558  1.2806  2.1673 -2.3986
 6901SOL     OW32338   0.716   2.715  11.287 -0.7124  0.1181  0.1649
 6901SOL    HW132339   0.779   2.782  11.263  0.3655 -1.5006 -1.5005
 6901SOL    HW232340   0.631   2.751  11.260 -0.0607  1.3394 -0.2318
 6902SOL     OW32341   1.944   1.106  15.982 -0.7179 -0.1245 -0.5974
 6902SOL    HW132342   1.983   1.047  15.917 -0.4005  1.4106 -1.8036
 6902SOL    HW232343   2.018   1.159  16.009 -1.5195  0.3661  0.6604
 6903SOL     OW32344   1.705   3.746   3.340 -0.5285  0.1718  0.3208
 6903SOL    HW132345   1.746   3.665   3.310  0.6593  0.6063  0.7576
 6903SOL    HW232346   1.777   3.809   3.330 -0.5605  0.6142  2.9751
 6904SOL     OW32347   4.665   0.895   8.773 -0.2058 -0.2441  0.0245
 6904SOL    HW132348   4.624   0.906   8.859 -2.0681 -1.8550 -0.6329
 6904SOL    HW232349   0.009   0.847   8.784 -0.0904 -0.0309  0.0941
 6905SOL     OW32350   4.081   2.710   8.371  0.5623 -0.1175  0.3590
 6905SOL    HW132351   4.169   2.741   8.392  1.7080 -3.3211  0.2545
 6905SOL    HW232352   4.099   2.648   8.299 -1.2914 -1.7233  1.2846
 6906SOL     OW32353   1.483   0.899  13.041 -0.1540  0.1786 -0.1372
 6906SOL    HW132354   1.434   0.981  13.039 -0.1683  0.1983  1.4330
 6906SOL    HW232355   1.518   0.898  12.952 -0.8730 -0.7766 -0.4108
 6907SOL     OW32356   1.027   0.574  13.163 -0.1592 -0.1139  0.0105
 6907SOL    HW132357   1.107   0.521  13.162  0.1012  0.2581  1.0349
 6907SOL    HW232358   1.056   0.626  13.088  2.5342 -1.8512 -0.1802
 6908SOL     OW32359   3.020   2.331   2.466 -0.2889  0.3397  0.2953
 6908SOL    HW132360   2.932   2.295   2.468 -0.1647  0.0018 -0.3422
 6908SOL    HW232361   3.047   2.324   2.375  1.0965  1.6856  0.5863
 6909SOL     OW32362   3.232   4.381   6.646 -0.7129 -0.0009  0.3056
 6909SOL    HW132363   3.262   4.446   6.709 -1.6761  0.9724 -0.2535
 6909SOL    HW232364   3.310   4.364   6.592 -1.3457 -2.0394  0.0048
 6910SOL     OW32365   0.721   1.874   4.735  0.1089  0.3934  0.0748
 6910SOL    HW132366   0.798   1.897   4.683  0.3165 -1.4643 -0.4195
 6910SOL    HW232367   0.717   1.783   4.708  1.7397 -0.2010  1.7672
 6911SOL     OW32368   3.222   3.657   0.070 -0.3620 -0.2749 -0.0160
 6911SOL    HW132369   3.283   3.590   0.037 -0.1699 -1.3773  2.5602
 6911SOL    HW232370   3.273   3.735   0.049  1.8025 -2.1825 -1.8391
 6912SOL     OW32371   3.126   0.624   5.573 -0.5892  0.7936 -0.1975
 6912SOL    HW132372   3.201   0.678   5.593  0.5308 -0.6551 -0.4561
 6912SOL    HW232373   3.164   0.538   5.555 -3.1235 -0.7811  1.9684
 6913SOL     OW32374   3.850   3.979   8.486 -0.2953 -0.5560 -0.4975
 6913SOL    HW132375   3.910   3.906   8.471 -0.2650 -0.3797 -1.2544
 6913SOL    HW232376   3.770   3.927   8.479 -1.8327  1.2910  3.0237
 6914SOL     OW32377   3.692   1.036   4.081  0.2606 -0.5558 -0.0324
 6914SOL    HW132378   3.646   1.120   4.072 -0.0212 -0.8941 -1.6115
 6914SOL    HW232379   3.745   1.059   4.157  1.7468  0.1228 -1.2907
 6915SOL     OW32380   3.004   1.254   9.591  0.5121 -0.2517 -0.3950
 6915SOL    HW132381   3.070   1.277   9.656  1.0287 -1.6742 -0.4358
 6915SOL    HW232382   3.043   1.172   9.562  2.7347  1.1760 -1.4338
 6916SOL     OW32383   3.170   4.445   5.426 -0.5681 -0.4540 -0.2676
 6916SOL    HW132384   3.165   4.523   5.369 -0.0963 -0.4692 -0.3296
 6916SOL    HW232385   3.102   4.462   5.491 -1.9480  3.0020 -2.5876
 6917SOL     OW32386   3.237   0.787   8.612  0.0412 -0.2855  0.4746
 6917SOL    HW132387   3.213   0.734   8.688 -0.7260 -1.8586 -0.8524
 6917SOL    HW232388   3.233   0.875   8.650  1.1141  0.2029 -0.5543
 6918SOL     OW32389   2.188   1.762   0.208 -0.2237  0.1691  0.3269
 6918SOL    HW132390   2.211   1.697   0.274 -0.8340 -0.5088 -0.1406
 6918SOL    HW232391   2.188   1.698   0.137  0.9763  0.3762  0.1377
 6919SOL     OW32392   1.421   0.067   6.319  1.3783 -0.0048 -0.5229
 6919SOL    HW132393   1.488   0.100   6.380 -0.2106  1.7140  0.2850
 6919SOL    HW232394   1.346   0.064   6.377  2.5181 -2.0646  0.8287
 6920SOL     OW32395   3.517   2.309  12.438 -0.0299  0.1135 -0.1894
 6920SOL    HW132396   3.451   2.343  12.377 -3.6871 -1.6729  2.7324
 6920SOL    HW232397   3.466   2.305  12.519 -1.6089 -1.3972 -1.2594
 6921SOL     OW32398   3.721   3.548   7.433 -0.4202  0.0678  0.3355
 6921SOL    HW132399   3.761   3.505   7.358 -0.3159  0.1940  0.3195
 6921SOL    HW232400   3.763   3.634   7.434 -0.2211 -0.0126 -0.7896
 6922SOL     OW32401   1.032   2.680   2.488 -0.1867 -0.0627 -0.0992
 6922SOL    HW132402   1.029   2.764   2.533  0.4969 -1.1717  2.0210
 6922SOL    HW232403   0.992   2.621   2.552  2.4940 -2.9548 -1.0644
 6923SOL     OW32404   1.710   1.014   6.417 -0.2793  0.3678  0.5687
 6923SOL    HW132405   1.705   0.950   6.487  0.4302 -0.6523 -0.3143
 6923SOL    HW232406   1.619   1.016   6.390  1.0797 -0.6276 -4.0373
 6924SOL     OW32407   3.484   0.571   6.213 -0.5552  0.0280  0.4736
 6924SOL    HW132408   3.463   0.633   6.143  0.0663  0.2215  0.4624
 6924SOL    HW232409   3.473   0.486   6.170  0.9644  1.4155 -2.6487
 6925SOL     OW32410   1.772   2.766   0.289 -0.0957 -0.0601 -0.3270
 6925SOL    HW132411   1.855   2.740   0.247 -0.5275  0.9364 -1.7914
 6925SOL    HW232412   1.804   2.761   0.379 -2.5283 -1.5569  0.4575
 6926SOL     OW32413   0.152   1.743   4.750 -0.1164 -0.1259  0.1169
 6926SOL    HW132414   0.126   1.830   4.721  1.4113 -0.1526 -1.3465
 6926SOL    HW232415   0.147   1.691   4.669  0.3963 -1.0478  0.6715
 6927SOL     OW32416   2.339   1.458   7.716 -0.1553 -0.1922  0.1980
 6927SOL    HW132417   2.273   1.411   7.665  0.2698  0.9048 -1.3748
 6927SOL    HW232418   2.299   1.469   7.802  1.0249 -1.1518  0.8585
 6928SOL     OW32419   4.681   0.595   7.615 -0.5720 -0.6019 -1.1742
 6928SOL    HW132420   0.038   0.604   7.620 -0.7290  2.0442 -2.7860
 6928SOL    HW232421   4.662   0.688   7.611  1.2215 -0.1757  0.0599
 6929SOL     OW32422   3.924   2.272   0.860 -0.6467  0.6466 -0.6394
 6929SOL    HW132423   3.985   2.200   0.875 -2.0313 -1.5021 -5.3859
 6929SOL    HW232424   3.929   2.285   0.765 -1.4803  0.5872 -0.6878
 6930SOL     OW32425   2.199   2.059   6.428  0.4918 -0.0648 -0.5021
 6930SOL    HW132426   2.230   2.072   6.339  0.2807 -1.0490 -0.7120
 6930SOL    HW232427   2.256   1.994   6.468 -0.4576  0.7394  2.2445
 6931SOL     OW32428   0.971   1.234   3.000 -0.1489  0.0518  0.0055
 6931SOL    HW132429   0.957   1.268   3.088  0.9491  1.3714 -0.3396
 6931SOL    HW232430   0.879   1.216   2.980  0.1439 -0.2406 -1.0905
 6932SOL     OW32431   0.859   3.081  11.784 -0.1546  0.6220  0.4603
 6932SOL    HW132432   0.785   3.141  11.772 -0.6720 -0.4422 -1.9410
 6932SOL    HW232433   0.831   2.994  11.754  0.3402  0.3515  0.7914
 6933SOL     OW32434   1.707   0.557   2.109  0.1930 -0.7500  0.1476
 6933SOL    HW132435   1.675   0.646   2.127 -1.0457 -1.8291  3.3619
 6933SOL    HW232436   1.673   0.524   2.026  0.5362  0.7837 -0.6160
 6934SOL     OW32437   4.310   4.263   5.050 -0.3425 -0.2147 -0.6716
 6934SOL    HW132438   4.305   4.308   5.135  2.7397 -0.1338 -0.5414
 6934SOL    HW232439   4.361   4.333   5.009  0.6671 -0.5108  0.0853
 6935SOL     OW32440   4.689   4.471   6.675 -0.7903 -0.2890  0.2407
 6935SOL    HW132441   0.010   4.498   6.604 -1.1367  0.1688  0.1277
 6935SOL    HW232442   4.620   4.533   6.651 -1.1602 -0.4692  0.8459
 6936SOL     OW32443   3.625   1.887   7.567  0.5865 -1.2727 -0.6094
 6936SOL    HW132444   3.565   1.812   7.565  0.1098 -0.8055 -3.5481
 6936SOL    HW232445   3.689   1.857   7.503  0.9030  0.9893 -1.3297
 6937SOL     OW32446   3.953   3.317   7.987  0.1333  0.2079 -0.5816
 6937SOL    HW132447   4.023   3.376   8.015  1.6799 -2.3785  1.0189
 6937SOL    HW232448   3.917   3.282   8.069  0.4015 -0.3080 -0.6850
 6938SOL     OW32449   1.524   4.081   2.996  0.4742 -0.5714 -0.6139
 6938SOL    HW132450   1.478   4.022   2.935  0.4598  0.0664 -1.2156
 6938SOL    HW232451   1.462   4.152   3.012 -1.6184 -2.1404 -1.6983
 6939SOL     OW32452   2.662   0.654   4.818  0.5303  0.8448 -0.2877
 6939SOL    HW132453   2.749   0.619   4.840  0.0235 -0.3137 -0.1225
 6939SOL    HW232454   2.608   0.578   4.797 -0.0120  0.6579  1.7566
 6940SOL     OW32455   2.286   2.469   7.726 -0.5178  0.0038  0.0288
 6940SOL    HW132456   2.205   2.494   7.772  0.5209  2.0367  0.7560
 6940SOL    HW232457   2.255   2.411   7.656  1.4823 -0.4527 -0.4832
 6941SOL     OW32458   3.878   2.874   6.783 -0.1182  0.3704 -0.0538
 6941SOL    HW132459   3.808   2.856   6.845  0.5251  0.4945  0.7111
 6941SOL    HW232460   3.892   2.793   6.734 -2.3045  0.9733 -1.6858
 6942SOL     OW32461   2.202   4.193   4.644  0.2687 -0.1151 -0.0598
 6942SOL    HW132462   2.287   4.235   4.657  0.9142 -1.0522 -1.2791
 6942SOL    HW232463   2.228   4.130   4.577  0.9632  0.3033 -0.1894
 6943SOL     OW32464   1.234   0.890   3.852  0.7196  0.2410 -0.5691
 6943SOL    HW132465   1.253   0.908   3.944  1.8952  1.0182 -0.9740
 6943SOL    HW232466   1.139   0.898   3.852  0.6935 -0.0880 -2.3053
 6944SOL     OW32467   2.355   2.318   5.911  0.1002  0.1058 -0.7003
 6944SOL    HW132468   2.448   2.296   5.919 -0.0337 -0.7740 -1.6017
 6944SOL    HW232469   2.338   2.319   6.006 -0.5021 -2.6173 -0.7818
 6945SOL     OW32470   1.700   0.345  12.685 -0.3979 -0.1156 -0.0537
 6945SOL    HW132471   1.681   0.252  12.673  0.7333 -0.2557 -0.7233
 6945SOL    HW232472   1.787   0.349  12.645 -1.4701 -3.1283 -2.7448
 6946SOL     OW32473   0.777   1.701   7.918  0.3892 -0.0971  0.5522
 6946SOL    HW132474   0.717   1.651   7.974 -2.9772  2.4281 -0.7944
 6946SOL    HW232475   0.773   1.791   7.952  0.6026 -0.7403  2.2838
 6947SOL     OW32476   3.172   0.625   2.370  0.6287  0.2688  0.2831
 6947SOL    HW132477   3.166   0.710   2.413 -1.0768  2.1052 -3.5940
 6947SOL    HW232478   3.132   0.646   2.286 -2.0652  0.8221  1.6958
 6948SOL     OW32479   1.098   2.615   4.453 -0.8999 -0.5133 -0.1889
 6948SOL    HW132480   1.093   2.593   4.546  2.9681  0.2992  0.2183
 6948SOL    HW232481   1.122   2.533   4.411 -1.1418 -1.0524  0.7212
 6949SOL     OW32482   2.808   3.212   1.838 -0.0024 -0.9526  0.2555
 6949SOL    HW132483   2.894   3.234   1.802 -0.3081 -1.1561 -0.6155
 6949SOL    HW232484   2.804   3.121   1.810 -0.6809 -0.3348 -1.7168
 6950SOL     OW32485   1.290   4.275  16.704 -0.0152  0.2115  0.1698
 6950SOL    HW132486   1.206   4.227  16.700  0.2290 -0.1227 -1.0724
 6950SOL    HW232487   1.291   4.304  16.795 -0.3199  1.3541 -0.1929
 6951SOL     OW32488   0.049   1.655   5.386  0.7437 -0.1627 -0.4485
 6951SOL    HW132489   0.115   1.590   5.411 -1.5196 -1.8144  1.3058
 6951SOL    HW232490   0.037   1.629   5.295  0.8946  2.1151 -1.1168
 6952SOL     OW32491   2.989   1.197   7.009 -0.1827  0.0688 -0.0735
 6952SOL    HW132492   3.056   1.152   7.060  1.2816  2.0425 -0.2752
 6952SOL    HW232493   3.009   1.289   7.028  1.7927 -0.4455  0.3314
 6953SOL     OW32494   2.748   1.021  12.734 -0.0580  0.4053 -0.1240
 6953SOL    HW132495   2.815   1.037  12.800  2.3563 -1.9407 -1.9929
 6953SOL    HW232496   2.786   1.041  12.648 -0.0158  0.2260 -0.1473
 6954SOL     OW32497   4.710   3.021   0.407  0.3103  0.0003  0.4660
 6954SOL    HW132498   4.697   3.075   0.484  1.3024 -0.6246  1.0667
 6954SOL    HW232499   0.060   2.988   0.426 -0.0518 -1.5503 -0.4798
 6955SOL     OW32500   0.902   1.148   4.620  0.3203  0.2188 -0.4694
 6955SOL    HW132501   0.994   1.133   4.599 -0.7440 -1.7083 -3.7353
 6955SOL    HW232502   0.911   1.198   4.701 -0.6038  3.4012 -2.2975
 6956SOL     OW32503   2.147   4.296   8.834 -0.0275  0.3262 -0.7105
 6956SOL    HW132504   2.114   4.385   8.821  0.7894  0.7320 -0.0680
 6956SOL    HW232505   2.243   4.295   8.825  0.2049  1.8136  1.4290
 6957SOL     OW32506   4.419   1.561   7.363 -0.2334 -0.8627  0.6744
 6957SOL    HW132507   4.340   1.515   7.391 -1.4634  1.0493  0.3439
 6957SOL    HW232508   4.475   1.492   7.399  1.4888  0.6774  0.9558
 6958SOL     OW32509   2.559   3.217   3.423  0.4487  0.2610  0.0094
 6958SOL    HW132510   2.610   3.287   3.382  0.7493 -0.6417 -1.1253
 6958SOL    HW232511   2.590   3.234   3.512  0.6089 -1.2021  0.2362
 6959SOL     OW32512   1.552   4.704   4.569  0.6795  0.3798 -0.1653
 6959SOL    HW132513   1.610   4.733   4.641  0.2997  0.1987  0.2139
 6959SOL    HW232514   1.608   4.709   4.492  0.1226 -0.3703 -0.6087
 6960SOL     OW32515   1.600   3.682   9.680  0.3906 -0.3702 -0.3958
 6960SOL    HW132516   1.659   3.615   9.715 -1.5337 -0.4501  2.6741
 6960SOL    HW232517   1.552   3.692   9.762  0.5526 -1.5570 -0.1586
 6961SOL     OW32518   2.205   2.422   8.217  0.0048  0.4597 -0.2936
 6961SOL    HW132519   2.114   2.446   8.236 -0.4719 -0.2294 -1.6578
 6961SOL    HW232520   2.213   2.345   8.274  0.7652  0.1405 -0.8333
 6962SOL     OW32521   3.106   3.354   0.918  0.1817  0.1803  0.1330
 6962SOL    HW132522   3.151   3.299   0.983 -0.2588  0.5425  0.7404
 6962SOL    HW232523   3.175   3.418   0.902 -1.8281  2.4703  0.6624
 6963SOL     OW32524   3.577   1.571   3.713 -0.1251 -0.0825 -0.2970
 6963SOL    HW132525   3.591   1.490   3.663 -1.5481 -0.5825  0.1188
 6963SOL    HW232526   3.527   1.532   3.784 -0.2667  1.5451  0.5010
 6964SOL     OW32527   3.900   3.996   6.475  0.0897  0.3406  0.0148
 6964SOL    HW132528   3.868   3.959   6.392 -0.3707  1.0932 -0.1419
 6964SOL    HW232529   3.814   3.994   6.517 -1.0105  2.8574 -2.1527
 6965SOL     OW32530   2.004   0.269   6.630 -0.2881  0.3402  0.1875
 6965SOL    HW132531   2.009   0.174   6.636  0.5344  0.3603 -0.1145
 6965SOL    HW232532   1.912   0.292   6.639 -0.3431 -0.5417  1.8286
 6966SOL     OW32533   3.407   2.505   6.998 -0.1153  0.9398  0.2631
 6966SOL    HW132534   3.333   2.460   7.038 -0.8858  2.3340  0.4073
 6966SOL    HW232535   3.403   2.591   7.039  3.6998 -0.0953  2.8346
 6967SOL     OW32536   4.272   0.131   8.228 -0.3201  0.5115 -0.0855
 6967SOL    HW132537   4.184   0.101   8.206 -0.5308  0.2653  1.0926
 6967SOL    HW232538   4.271   0.108   8.321  2.8692 -0.8634 -0.3910
 6968SOL     OW32539   2.308   1.543   7.171 -0.3925  0.7894 -0.2846
 6968SOL    HW132540   2.248   1.546   7.245  0.9430  3.2183  0.7304
 6968SOL    HW232541   2.384   1.490   7.195  0.2676  1.2487 -1.3601
 6969SOL     OW32542   0.087   4.514   0.914 -0.3622  0.1530  0.4370
 6969SOL    HW132543   0.014   4.460   0.945 -1.4097  2.3361  1.7522
 6969SOL    HW232544   0.047   4.594   0.881  0.5580  0.5409  0.2543
 6970SOL     OW32545   4.305   2.253  16.260  0.3147 -0.3208  0.2017
 6970SOL    HW132546   4.281   2.196  16.333  1.7026 -0.6006  0.4361
 6970SOL    HW232547   4.325   2.192  16.189  2.4104  0.3916  0.1912
 6971SOL     OW32548   3.516   2.169   1.010 -0.2361  0.3920 -0.2661
 6971SOL    HW132549   3.592   2.220   1.038  1.8177 -1.9319 -1.6295
 6971SOL    HW232550   3.498   2.123   1.092 -0.3883 -1.8192 -1.5487
 6972SOL     OW32551   4.524   2.465   6.670 -0.9337 -0.4138 -0.7981
 6972SOL    HW132552   4.493   2.487   6.582  1.1871 -0.9043 -1.6786
 6972SOL    HW232553   4.550   2.549   6.709  1.4630 -1.4301 -0.2350
 6973SOL     OW32554   4.016   0.079  16.945 -0.1098 -0.3057  0.0225
 6973SOL    HW132555   3.995   0.046  17.032  2.5586  0.4939  0.9431
 6973SOL    HW232556   4.100   0.038  16.927  0.6529  0.6161  1.4847
 6974SOL     OW32557   4.632   0.016   4.204 -0.2070  0.6851 -0.4631
 6974SOL    HW132558   4.557   0.066   4.171 -1.9496  0.2135  2.7123
 6974SOL    HW232559   4.636   4.679   4.145 -1.8411 -0.9164  1.4483
 6975SOL     OW32560   3.538   2.629  14.613  0.0950 -0.0632  0.1679
 6975SOL    HW132561   3.499   2.711  14.583 -1.9653 -0.2385  2.2823
 6975SOL    HW232562   3.620   2.666  14.645  0.7363 -0.0365 -1.5475
 6976SOL     OW32563   2.308   2.034   3.345  0.1293 -0.0428  0.3977
 6976SOL    HW132564   2.232   2.087   3.371 -0.3087  0.3066 -1.5791
 6976SOL    HW232565   2.301   2.020   3.251  1.4073  0.2658  0.2588
 6977SOL     OW32566   3.780   1.434  17.501  0.1320 -0.1847 -0.2034
 6977SOL    HW132567   3.774   1.450  17.407  3.1550  2.2696  0.0108
 6977SOL    HW232568   3.855   1.490  17.520 -0.0683  1.0257 -3.0354
 6978SOL     OW32569   4.659   0.391   6.464  0.4182  0.2241  0.2568
 6978SOL    HW132570   4.623   0.412   6.550 -0.4370 -2.0541  0.4483
 6978SOL    HW232571   0.015   0.376   6.477 -0.1664 -3.2477  0.4488
 6979SOL     OW32572   0.664   4.369   6.118  0.0620  0.0864  0.2295
 6979SOL    HW132573   0.671   4.395   6.210 -0.1453 -0.4991  0.4077
 6979SOL    HW232574   0.702   4.449   6.082 -1.6793  1.4593  1.4655
 6980SOL     OW32575   0.752   0.878   4.884 -0.3580 -0.0630  0.0732
 6980SOL    HW132576   0.783   0.936   4.953 -0.4097  1.3530 -1.0863
 6980SOL    HW232577   0.664   0.915   4.870 -0.7902 -0.8110  0.8304
 6981SOL     OW32578   4.175   0.167   2.642  0.1616  0.1617  0.5841
 6981SOL    HW132579   4.191   0.113   2.565  1.0329  1.5613 -0.2277
 6981SOL    HW232580   4.112   0.112   2.688  0.6952 -1.0478 -0.1280
 6982SOL     OW32581   0.283   3.777   3.661  0.4989  0.2696  0.4514
 6982SOL    HW132582   0.344   3.831   3.611  1.1622 -1.2056 -0.3286
 6982SOL    HW232583   0.211   3.770   3.598  0.5051 -1.9458  0.6734
 6983SOL     OW32584   3.776   0.620   7.878 -0.5490  0.1149 -0.3339
 6983SOL    HW132585   3.800   0.588   7.965 -0.5954  2.9858  0.7379
 6983SOL    HW232586   3.860   0.611   7.834 -0.0708  0.0865  0.5783
 6984SOL     OW32587   2.707   1.939  17.089 -0.1734 -0.4486  0.0438
 6984SOL    HW132588   2.723   1.861  17.143 -0.6314 -1.2343 -0.9606
 6984SOL    HW232589   2.795   1.967  17.065  0.5966 -1.7642  1.2952
 6985SOL     OW32590   3.452   3.251   1.224  0.3011 -0.8138 -0.3175
 6985SOL    HW132591   3.416   3.308   1.292  0.2947  0.1840 -1.1535
 6985SOL    HW232592   3.505   3.318   1.180 -1.1184  0.1233 -0.6186
 6986SOL     OW32593   1.285   1.313  17.605 -0.0366 -0.1007  0.5644
 6986SOL    HW132594   1.297   1.244  17.540 -1.0242 -0.7648  1.0916
 6986SOL    HW232595   1.341   1.287  17.678  0.6895 -3.8533 -1.3643
 6987SOL     OW32596   3.378   4.423   7.290 -0.4776 -0.0838 -0.1343
 6987SOL    HW132597   3.301   4.454   7.338 -0.3729 -0.1813  0.0973
 6987SOL    HW232598   3.398   4.355   7.353  1.5230  1.1792  0.5766
 6988SOL     OW32599   0.485   0.775   9.639  0.8748 -0.1054  0.3422
 6988SOL    HW132600   0.476   0.685   9.606  2.1408 -0.2799  0.4889
 6988SOL    HW232601   0.517   0.758   9.727 -1.7124  0.1087  1.3392
 6989SOL     OW32602   2.820   3.803   4.629 -0.2509  0.1642 -0.8011
 6989SOL    HW132603   2.858   3.891   4.635 -4.0857  1.7927 -0.7949
 6989SOL    HW232604   2.897   3.755   4.600 -0.1238 -0.2570  0.2431
 6990SOL     OW32605   4.366   2.123   1.380  0.2740  0.2571  0.0495
 6990SOL    HW132606   4.389   2.123   1.287  2.3671  1.8721  0.5832
 6990SOL    HW232607   4.444   2.075   1.408  0.8690 -0.1600 -2.2989
 6991SOL     OW32608   3.397   1.917   6.393  0.0478  0.0197  0.4775
 6991SOL    HW132609   3.345   1.852   6.348 -1.9504  1.6564  0.4120
 6991SOL    HW232610   3.345   1.949   6.467  0.8971 -1.4468  1.7007
 6992SOL     OW32611   0.995   3.041   1.524  0.0745 -0.3504  0.1413
 6992SOL    HW132612   0.977   3.116   1.581  0.9462 -1.0755  1.3470
 6992SOL    HW232613   1.009   3.093   1.445  1.1974 -1.5907 -0.4720
 6993SOL     OW32614   2.618   4.382   3.503  0.2523  0.3655 -0.3346
 6993SOL    HW132615   2.700   4.383   3.552  2.5654 -2.0939 -4.1124
 6993SOL    HW232616   2.590   4.290   3.508 -2.2870  1.1033 -0.6030
 6994SOL     OW32617   3.612   1.911  11.751 -0.4460 -0.1913  0.6313
 6994SOL    HW132618   3.692   1.879  11.709 -0.1477 -0.7619  1.6630
 6994SOL    HW232619   3.611   1.854  11.827 -0.4864 -1.4319 -0.3088
 6995SOL     OW32620   0.617   3.921   8.951  0.2072  0.6751  0.0739
 6995SOL    HW132621   0.616   3.950   8.859  1.9282 -1.8685 -0.7421
 6995SOL    HW232622   0.561   3.844   8.950  2.3299 -0.8627  0.8193
 6996SOL     OW32623   2.199   1.813   2.576 -0.2223  0.3162  0.6832
 6996SOL    HW132624   2.278   1.781   2.532 -2.7236 -2.0486 -2.0398
 6996SOL    HW232625   2.143   1.857   2.512  0.0635  0.2741  0.4025
 6997SOL     OW32626   4.341   1.035   1.847 -0.2355  0.3633  0.1696
 6997SOL    HW132627   4.247   1.041   1.835 -0.4481  0.7207  1.9476
 6997SOL    HW232628   4.337   0.978   1.924 -0.4009  3.1722  2.2341
 6998SOL     OW32629   0.602   2.562   1.842  0.3563  0.0149 -0.0765
 6998SOL    HW132630   0.694   2.560   1.815  0.6251 -0.9920  0.9020
 6998SOL    HW232631   0.569   2.629   1.783 -0.8025  0.8495  1.5237
 6999SOL     OW32632   1.739   0.079   9.047  0.5380 -0.6023 -0.8391
 6999SOL    HW132633   1.812   0.094   8.987  1.5038 -1.2318  0.1790
 6999SOL    HW232634   1.671   0.062   8.982  1.5245  0.7035 -2.2055
 7000SOL     OW32635   1.668   2.490  17.008 -0.2085 -0.1817  0.2486
 7000SOL    HW132636   1.734   2.557  16.995  0.5741 -1.1043 -0.5473
 7000SOL    HW232637   1.715   2.412  16.979  0.7772  0.7262 -0.5959
 7001SOL     OW32638   0.491   4.087   7.626  0.0860 -0.5730 -0.2294
 7001SOL    HW132639   0.540   4.041   7.558  0.0254 -2.0129  0.7036
 7001SOL    HW232640   0.483   4.019   7.693 -1.3605  0.8933  1.0556
 7002SOL     OW32641   4.254   3.178   8.860  0.1421  0.1872 -0.1492
 7002SOL    HW132642   4.271   3.169   8.954 -0.7751 -1.4467 -0.1360
 7002SOL    HW232643   4.323   3.129   8.815 -0.7367  1.0581 -2.4785
 7003SOL     OW32644   2.922   3.146  17.153 -0.2877  0.8655  0.0120
 7003SOL    HW132645   2.994   3.146  17.216 -0.8618 -1.8271  0.6966
 7003SOL    HW232646   2.909   3.053  17.133 -0.2617  1.5832 -3.3365
 7004SOL     OW32647   2.927   4.236   5.731 -0.0316 -0.3715 -0.4146
 7004SOL    HW132648   2.844   4.246   5.778 -1.3990 -1.4871 -2.5713
 7004SOL    HW232649   2.967   4.165   5.781 -0.1649  0.0096  0.2264
 7005SOL     OW32650   4.730   1.606   3.207  0.1547  0.2271  0.0026
 7005SOL    HW132651   0.009   1.550   3.131 -0.0598 -0.2327  0.2945
 7005SOL    HW232652   4.636   1.624   3.202  0.0950  0.0952  0.6726
 7006SOL     OW32653   3.500   0.924   4.647  0.4023  0.0296  0.4817
 7006SOL    HW132654   3.549   0.920   4.729  2.7836  0.7238 -0.9164
 7006SOL    HW232655   3.477   0.832   4.632  1.4548  0.0045 -1.0194
 7007SOL     OW32656   2.231   1.531  10.200  0.5871  0.2450  0.1599
 7007SOL    HW132657   2.316   1.508  10.238  1.3206 -0.7717 -2.0581
 7007SOL    HW232658   2.186   1.448  10.209  0.4240  0.3053 -0.0813
 7008SOL     OW32659   3.884   1.068   2.134  0.1331 -0.4065  0.5625
 7008SOL    HW132660   3.790   1.073   2.118  0.3833  1.8108 -0.1798
 7008SOL    HW232661   3.896   0.973   2.128  2.1076 -0.1280  0.1036
 7009SOL     OW32662   0.347   0.380   1.911 -0.4939  0.2021 -0.4443
 7009SOL    HW132663   0.292   0.304   1.931 -1.0357  0.4952 -0.8131
 7009SOL    HW232664   0.386   0.394   1.997 -3.4992  0.8275  0.8236
 7010SOL     OW32665   4.151   0.300   0.143 -0.4408  0.2824 -0.2348
 7010SOL    HW132666   4.122   0.390   0.160 -0.5333  0.3286 -0.6524
 7010SOL    HW232667   4.196   0.281   0.226  0.4171  3.0907 -0.0703
 7011SOL     OW32668   3.239   1.176   2.970  0.3433 -0.2802  0.6109
 7011SOL    HW132669   3.276   1.202   3.055  0.1272 -0.6525  0.8204
 7011SOL    HW232670   3.190   1.252   2.941  0.1135 -0.0370  1.6272
 7012SOL     OW32671   3.956   3.043   1.558  0.2499  0.3048  0.2400
 7012SOL    HW132672   3.867   3.008   1.562 -0.0208  1.0519  0.6881
 7012SOL    HW232673   3.994   2.970   1.509 -1.7932 -0.8143  0.3346
 7013SOL     OW32674   0.351   1.255  12.644 -0.3026  0.0560 -0.0243
 7013SOL    HW132675   0.405   1.186  12.684 -1.6120 -0.1582  1.3889
 7013SOL    HW232676   0.271   1.206  12.628  0.0708 -1.2015  1.9760
 7014SOL     OW32677   1.407   0.363   3.579  0.7199 -0.1977 -0.1830
 7014SOL    HW132678   1.381   0.280   3.539  0.5631 -1.8303  3.3050
 7014SOL    HW232679   1.381   0.350   3.671 -0.9025  2.0574 -0.3077
 7015SOL     OW32680   0.852   2.988  13.166  0.0392  0.0629  0.1727
 7015SOL    HW132681   0.906   3.062  13.137  0.2468 -0.0716  0.2239
 7015SOL    HW232682   0.868   2.927  13.094 -2.8140 -1.4254  0.8184
 7016SOL     OW32683   3.010   2.963   3.289  0.6942  0.4884 -0.2121
 7016SOL    HW132684   2.962   2.881   3.299 -0.7236  1.5002  1.1463
 7016SOL    HW232685   3.104   2.942   3.293  0.6364  0.7887  2.8587
 7017SOL     OW32686   1.419   2.979   6.037  0.2480 -0.0716 -0.3182
 7017SOL    HW132687   1.457   2.897   6.070  3.3681  0.4234 -2.6010
 7017SOL    HW232688   1.349   2.994   6.099  1.1315 -1.0455  0.9263
 7018SOL     OW32689   4.409   0.449  17.685 -0.3531  0.8863  0.8609
 7018SOL    HW132690   4.439   0.455  17.594 -1.2505 -0.6657  0.4550
 7018SOL    HW232691   4.338   0.513  17.682 -1.2214 -0.0207  1.8075
 7019SOL     OW32692   1.124   2.973  11.713 -0.4578  0.2105  0.0112
 7019SOL    HW132693   1.039   2.976  11.668 -0.2170  1.2930 -0.3642
 7019SOL    HW232694   1.110   2.962  11.807  0.5285 -0.8387  0.0242
 7020SOL     OW32695   4.268   0.385   8.572  0.4462  0.0893 -0.1736
 7020SOL    HW132696   4.349   0.427   8.543  0.8899 -1.1492 -0.7567
 7020SOL    HW232697   4.287   0.291   8.563  0.5413  0.2929 -1.9902
 7021SOL     OW32698   4.038   4.704   4.858 -0.2547  0.2181  0.3145
 7021SOL    HW132699   4.074   4.637   4.916  1.1645  0.9344  0.2637
 7021SOL    HW232700   4.096   0.037   4.884 -1.0111  0.3098  1.7652
 7022SOL     OW32701   3.901   0.227   9.718  0.1128 -0.4029 -0.3809
 7022SOL    HW132702   3.894   0.297   9.653 -0.3869 -1.2661 -1.2640
 7022SOL    HW232703   3.962   0.255   9.786 -1.5084 -2.3154  1.8695
 7023SOL     OW32704   0.880   1.784  12.298  0.8291  0.0364 -0.5382
 7023SOL    HW132705   0.874   1.701  12.345 -0.8575  0.2321 -0.4035
 7023SOL    HW232706   0.796   1.821  12.325  1.4173  0.3696  0.8610
 7024SOL     OW32707   2.079   4.721  13.179  0.0650 -0.7390 -0.0216
 7024SOL    HW132708   2.124   0.037  13.244 -1.5616 -0.4294  0.8353
 7024SOL    HW232709   1.986   4.726  13.201  0.5709  0.8738  1.6872
 7025SOL     OW32710   3.590   1.938   5.856 -0.1599 -0.0973 -0.3584
 7025SOL    HW132711   3.649   1.964   5.785  1.9820  0.9767  1.8192
 7025SOL    HW232712   3.638   1.970   5.933  0.4874 -1.4696 -0.1984
 7026SOL     OW32713   3.161   2.444  14.544  0.0363  0.3837 -0.0653
 7026SOL    HW132714   3.227   2.466  14.478  0.9520 -0.7592  0.4863
 7026SOL    HW232715   3.150   2.352  14.520 -1.1170 -0.2024  2.6881
 7027SOL     OW32716   3.132   1.160   7.948 -0.4232  0.0473 -0.3370
 7027SOL    HW132717   3.188   1.082   7.945  0.6469  0.7929  0.5783
 7027SOL    HW232718   3.051   1.120   7.980  0.3721  0.1383  1.7619
 7028SOL     OW32719   0.596   1.388  10.926  0.1512 -0.6574  0.4084
 7028SOL    HW132720   0.609   1.419  11.016  0.5465  1.6744 -0.4504
 7028SOL    HW232721   0.665   1.442  10.888 -0.3007 -1.0162 -0.9170
 7029SOL     OW32722   2.453   2.276   1.078  0.0595 -0.1272 -0.1967
 7029SOL    HW132723   2.386   2.221   1.117 -1.7393  1.8678 -0.4911
 7029SOL    HW232724   2.536   2.245   1.113 -0.5851  0.4748  1.8900
 7030SOL     OW32725   1.581   2.361   8.801  0.0488  0.6549 -0.4172
 7030SOL    HW132726   1.551   2.271   8.784 -1.0262  1.2230 -1.5057
 7030SOL    HW232727   1.494   2.400   8.814 -0.1881  0.1022 -0.3252
 7031SOL     OW32728   2.043   1.423  14.610 -0.0690 -0.3060  0.0925
 7031SOL    HW132729   1.965   1.456  14.565  0.7921 -0.5787 -1.5866
 7031SOL    HW232730   2.071   1.351  14.553 -1.0190  0.4737 -1.3443
 7032SOL     OW32731   4.649   4.025   5.228 -0.2153 -0.7298  0.3218
 7032SOL    HW132732   4.652   3.972   5.148 -1.9012  0.7248 -0.6928
 7032SOL    HW232733   4.616   3.964   5.294 -0.4331  0.5826  1.4047
 7033SOL     OW32734   2.140   3.322  16.483 -0.3637 -0.1631 -0.3366
 7033SOL    HW132735   2.119   3.246  16.536  0.3770  0.5503  0.9692
 7033SOL    HW232736   2.234   3.327  16.498 -0.3201 -1.2018 -0.3237
 7034SOL     OW32737   3.900   1.492  11.246 -0.0809 -0.4485 -0.4314
 7034SOL    HW132738   3.919   1.406  11.282  1.6412 -0.0824 -0.5043
 7034SOL    HW232739   3.862   1.540  11.320 -1.9829  1.5211 -2.6814
 7035SOL     OW32740   0.379   1.448   9.329 -0.6009 -0.3371  0.0063
 7035SOL    HW132741   0.316   1.394   9.281  1.5621 -1.5403 -1.4369
 7035SOL    HW232742   0.466   1.410   9.316 -0.3176 -0.1680  1.3427
 7036SOL     OW32743   0.468   0.328   4.405 -0.6474  0.0374  0.0636
 7036SOL    HW132744   0.557   0.313   4.439 -0.1499  0.1772 -1.1928
 7036SOL    HW232745   0.477   0.362   4.317 -1.3798  2.9918  1.1459
 7037SOL     OW32746   4.606   1.528   4.937 -0.3104 -0.2904  0.0642
 7037SOL    HW132747   4.526   1.580   4.933 -0.7636 -0.8114  2.1643
 7037SOL    HW232748   4.586   1.472   4.863  1.3015 -2.0888  0.9780
 7038SOL     OW32749   2.062   0.620   3.384 -0.0535  0.1007  0.2585
 7038SOL    HW132750   2.132   0.612   3.449 -0.2783  2.0379  0.7111
 7038SOL    HW232751   2.039   0.712   3.392 -0.7559  0.1500 -2.2212
 7039SOL     OW32752   1.543   1.824   6.910  0.0039  0.2580  0.2094
 7039SOL    HW132753   1.595   1.849   6.833 -0.1269  1.2294  0.4441
 7039SOL    HW232754   1.457   1.816   6.869 -0.9203 -0.6258  2.3335
 7040SOL     OW32755   0.648   1.227  12.437  0.0404  0.1459 -0.0806
 7040SOL    HW132756   0.628   1.210  12.345  0.3439 -0.7542  0.0259
 7040SOL    HW232757   0.673   1.143  12.475 -1.4656 -0.5684 -0.6973
 7041SOL     OW32758   4.426   1.740   7.791 -0.0109 -0.6913  0.5781
 7041SOL    HW132759   4.415   1.835   7.800 -0.7977 -0.7456  0.1745
 7041SOL    HW232760   4.425   1.729   7.886  0.4311 -1.9400  0.4289
 7042SOL     OW32761   4.629   3.731   6.797  0.4968 -0.2302 -0.6912
 7042SOL    HW132762   4.654   3.772   6.714  2.3410 -0.1229 -0.0742
 7042SOL    HW232763   4.580   3.806   6.829  0.2895 -0.3472 -0.7305
 7043SOL     OW32764   2.787   0.787   8.679 -0.1995  0.6550  0.0000
 7043SOL    HW132765   2.848   0.773   8.751  1.6624  0.6299 -1.5616
 7043SOL    HW232766   2.821   0.724   8.616 -0.1030  0.1761  0.5334
 7044SOL     OW32767   3.051   0.074   0.059  0.4377 -0.3557 -0.0798
 7044SOL    HW132768   3.080   0.079  17.718  0.0972 -1.2394 -0.2362
 7044SOL    HW232769   2.991   0.000   0.054  0.2851 -0.2470  0.1662
 7045SOL     OW32770   0.692   1.635   2.969 -0.2220  0.7004  0.5121
 7045SOL    HW132771   0.599   1.622   2.987 -0.3056  0.9000  0.2150
 7045SOL    HW232772   0.732   1.553   2.939 -2.4369 -0.4468  0.6936
 7046SOL     OW32773   3.683   0.208   7.101  0.4339 -0.1484 -0.3072
 7046SOL    HW132774   3.689   0.287   7.155  1.3470 -0.5565  0.1976
 7046SOL    HW232775   3.610   0.166   7.147  0.2929  1.0850  0.5873
 7047SOL     OW32776   3.469   1.653   1.959 -0.4653 -0.2269  0.2435
 7047SOL    HW132777   3.429   1.629   1.876 -0.7969 -1.6250  0.8038
 7047SOL    HW232778   3.390   1.672   2.009 -0.6358 -0.5996  0.1172
 7048SOL     OW32779   4.233   1.933   7.399 -0.1260 -0.5626 -0.0557
 7048SOL    HW132780   4.300   1.905   7.336  0.5419  0.3521  0.2480
 7048SOL    HW232781   4.275   1.923   7.485  1.5281  1.0936 -0.6600
 7049SOL     OW32782   2.283   3.559  10.633 -0.2657 -0.4425  0.1398
 7049SOL    HW132783   2.224   3.506  10.580 -0.7094 -0.1126  0.3013
 7049SOL    HW232784   2.355   3.496  10.626 -0.9637 -1.0861 -1.2211
 7050SOL     OW32785   4.120   1.401   4.769 -0.7320  0.0624  0.3959
 7050SOL    HW132786   4.132   1.405   4.674  2.1749 -0.7687  0.7249
 7050SOL    HW232787   4.111   1.307   4.784 -1.0522 -0.1600 -1.1650
 7051SOL     OW32788   2.116   2.130  12.475  0.1613  0.3223 -0.1186
 7051SOL    HW132789   2.178   2.151  12.545 -1.0174 -0.0546  1.0226
 7051SOL    HW232790   2.150   2.043  12.456  0.7018  0.6495 -0.6587
 7052SOL     OW32791   1.058   2.109  10.941  0.2838 -0.3537 -0.1529
 7052SOL    HW132792   1.004   2.099  11.019 -0.3912  0.5417 -0.5077
 7052SOL    HW232793   0.994   2.150  10.883 -1.8230 -3.2254  0.1324
 7053SOL     OW32794   4.361   0.990   8.194  0.0021  0.3098  0.1040
 7053SOL    HW132795   4.392   0.937   8.268 -2.2460 -0.3868  0.5324
 7053SOL    HW232796   4.270   0.959   8.190  0.1950 -0.2428 -0.1412
 7054SOL     OW32797   1.853   3.351   7.275  0.2196 -0.4814  0.2971
 7054SOL    HW132798   1.947   3.337   7.267  0.2421 -1.6641  2.4988
 7054SOL    HW232799   1.834   3.434   7.231  1.4029 -0.8890 -0.9770
 7055SOL     OW32800   1.450   1.957   2.379  0.0702 -0.9587 -0.5406
 7055SOL    HW132801   1.481   1.884   2.432  0.6501 -2.5084 -3.0388
 7055SOL    HW232802   1.492   2.021   2.436 -1.5282 -0.1707 -0.2468
 7056SOL     OW32803   1.284   2.694  10.425  0.0959  0.5969  0.0663
 7056SOL    HW132804   1.356   2.683  10.487 -1.2290 -4.6044  0.6346
 7056SOL    HW232805   1.287   2.601  10.403 -1.0141  0.5834 -0.0414
 7057SOL     OW32806   2.435   2.110  13.503 -0.4602 -0.0468 -0.2128
 7057SOL    HW132807   2.378   2.182  13.477 -0.4318 -0.2122 -0.7362
 7057SOL    HW232808   2.383   2.078  13.576  0.0368  0.1220  0.2147
 7058SOL     OW32809   3.390   0.624   2.057 -0.0925 -0.1395 -0.3303
 7058SOL    HW132810   3.363   0.714   2.078  0.6381  0.0263 -0.0838
 7058SOL    HW232811   3.302   0.593   2.036 -0.3230  0.9403 -0.9654
 7059SOL     OW32812   0.524   1.364   8.908  0.0681 -0.2442 -0.2022
 7059SOL    HW132813   0.614   1.368   8.875  0.4474  1.9185  1.0762
 7059SOL    HW232814   0.503   1.457   8.907 -2.0238 -0.7147  0.9068
 7060SOL     OW32815   3.509   2.803   2.664 -0.1939  0.1601  0.0523
 7060SOL    HW132816   3.508   2.898   2.651 -0.7783  0.1527  0.0495
 7060SOL    HW232817   3.596   2.792   2.702 -0.2687  0.3494  0.2826
 7061SOL     OW32818   2.315   0.965  12.453  0.7319 -0.3384 -0.3021
 7061SOL    HW132819   2.362   0.958  12.536 -2.4858  2.6408  1.7418
 7061SOL    HW232820   2.314   0.880  12.409 -1.0304 -0.3271 -0.2835
 7062SOL     OW32821   0.476   2.987   8.919  0.3576 -0.0639  0.0295
 7062SOL    HW132822   0.423   2.956   8.992  2.4998 -1.1516  1.0964
 7062SOL    HW232823   0.493   3.077   8.947 -2.6838  0.5365 -0.0002
 7063SOL     OW32824   3.032   1.340   1.801 -0.6772 -0.0813  0.2928
 7063SOL    HW132825   2.956   1.395   1.819 -0.6211  0.0149  0.2390
 7063SOL    HW232826   3.052   1.357   1.709 -0.1439  1.1969  0.6315
 7064SOL     OW32827   4.565   1.718   2.806  0.0404  0.5358 -0.3029
 7064SOL    HW132828   4.476   1.682   2.803  1.3249 -2.7693  0.8650
 7064SOL    HW232829   4.609   1.672   2.735 -1.8057 -0.7186 -0.6299
 7065SOL     OW32830   3.748   0.808   8.861  0.1695 -0.4235  0.4643
 7065SOL    HW132831   3.762   0.900   8.882  0.9965 -0.1707 -1.1822
 7065SOL    HW232832   3.830   0.761   8.874  1.0249  1.4845  1.7374
 7066SOL     OW32833   4.346   1.043   5.475  0.3642 -0.0726 -0.1571
 7066SOL    HW132834   4.331   0.953   5.445  1.2034 -0.5076  0.7217
 7066SOL    HW232835   4.323   1.090   5.394 -0.7851  1.1079  0.8530
 7067SOL     OW32836   2.888   4.606   2.084  0.1270  0.4642  0.3483
 7067SOL    HW132837   2.852   4.673   2.026  1.0989  0.7535  0.0748
 7067SOL    HW232838   2.810   4.550   2.094 -0.1816  0.7664 -0.3407
 7068SOL     OW32839   2.195   3.031   1.096  0.1198  0.1218 -0.3847
 7068SOL    HW132840   2.103   3.015   1.116  1.2351 -1.4031  3.3491
 7068SOL    HW232841   2.205   2.980   1.015 -1.9335 -1.1972  0.1902
 7069SOL     OW32842   4.054   3.655  17.280  0.0994  0.5297  0.1428
 7069SOL    HW132843   4.114   3.596  17.233 -1.7092  0.1856 -1.7253
 7069SOL    HW232844   4.107   3.735  17.285  2.3009 -0.8641 -0.4749
 7070SOL     OW32845   3.114   2.183   3.117  0.4910 -0.2013 -0.0776
 7070SOL    HW132846   3.056   2.226   3.055 -0.0445  1.1139  1.3613
 7070SOL    HW232847   3.136   2.119   3.048  2.2255 -1.0912  1.2864
 7071SOL     OW32848   3.076   0.180   3.623 -0.0601 -0.5598  0.0873
 7071SOL    HW132849   3.000   0.213   3.575  0.1668  1.0908  0.8604
 7071SOL    HW232850   3.144   0.214   3.566 -0.4528 -0.4354 -0.3036
 7072SOL     OW32851   3.853   0.467   1.788  0.0574  0.2226  0.2038
 7072SOL    HW132852   3.793   0.517   1.842 -1.0303 -1.9744  1.0405
 7072SOL    HW232853   3.800   0.436   1.714 -0.4431 -1.2474  1.1689
 7073SOL     OW32854   3.368   4.714   2.370  0.5013  0.3915  0.0565
 7073SOL    HW132855   3.395   0.016   2.287  3.1029 -1.2800  0.1186
 7073SOL    HW232856   3.450   4.673   2.397 -0.2384  0.2022  1.9647
 7074SOL     OW32857   1.892   0.546   9.487  0.1280 -0.1682  0.0221
 7074SOL    HW132858   1.824   0.478   9.487 -0.5485  0.5167  1.4788
 7074SOL    HW232859   1.877   0.591   9.570 -0.5852 -1.4555  0.5902
 7075SOL     OW32860   1.599   3.924   8.614 -0.0455  0.2810  0.2298
 7075SOL    HW132861   1.623   3.874   8.536  0.7414 -0.3495  0.8748
 7075SOL    HW232862   1.678   3.910   8.667 -0.5806  1.1378  1.2541
 7076SOL     OW32863   4.650   0.606   5.544  0.0192 -0.3961  0.0765
 7076SOL    HW132864   4.594   0.667   5.497 -2.1071 -1.2904  1.4348
 7076SOL    HW232865   4.667   0.535   5.481  0.3235  0.6921 -1.0779
 7077SOL     OW32866   2.889   0.065   7.197  0.0029  0.2763  0.2125
 7077SOL    HW132867   2.822   0.050   7.263 -0.4371 -0.6456 -0.4440
 7077SOL    HW232868   2.849   0.132   7.141  2.5878 -0.0881 -2.0690
 7078SOL     OW32869   0.983   4.022  17.516  0.2156 -0.2001 -0.6345
 7078SOL    HW132870   1.052   4.059  17.461 -0.2485 -0.6093 -1.4962
 7078SOL    HW232871   1.001   4.078  17.591  1.2560 -0.8463 -0.4178
 7079SOL     OW32872   0.703   3.970   8.063  0.1300 -0.4983 -0.5144
 7079SOL    HW132873   0.749   3.929   7.990 -0.2612  3.4286 -2.9734
 7079SOL    HW232874   0.763   3.943   8.133 -1.7229 -1.4494  0.6883
 7080SOL     OW32875   0.140   1.840   9.180  0.0316  0.4998  0.0710
 7080SOL    HW132876   0.097   1.918   9.213 -1.3699 -0.7919  1.2866
 7080SOL    HW232877   0.101   1.766   9.228  2.5735 -0.5791  0.4984
 7081SOL     OW32878   0.751   3.647  15.463 -0.0230  0.0243  0.1801
 7081SOL    HW132879   0.714   3.734  15.480 -0.5313 -0.0751 -0.4197
 7081SOL    HW232880   0.743   3.611  15.551 -1.3278  0.1343  0.1011
 7082SOL     OW32881   1.871   0.496   3.606 -0.0379  0.5182  0.8347
 7082SOL    HW132882   1.924   0.517   3.529 -1.0918  0.8380  0.1937
 7082SOL    HW232883   1.801   0.561   3.616 -1.3766 -0.4866 -1.6689
 7083SOL     OW32884   3.647   3.006   7.961 -0.0453  0.6266 -0.2665
 7083SOL    HW132885   3.627   3.091   8.001 -0.8406 -0.3566  1.4082
 7083SOL    HW232886   3.734   3.016   7.924  0.1427 -3.1602 -0.8046
 7084SOL     OW32887   0.680   3.583   5.660 -0.2328 -0.6174  0.4816
 7084SOL    HW132888   0.761   3.534   5.668 -0.6082 -1.0771  1.4310
 7084SOL    HW232889   0.663   3.608   5.751 -1.3038 -2.1620  0.7102
 7085SOL     OW32890   2.113   2.209   3.644 -0.1355  0.4004 -0.1390
 7085SOL    HW132891   2.074   2.294   3.664 -0.6748  0.3174 -0.8396
 7085SOL    HW232892   2.204   2.236   3.627  0.4974 -1.1194  0.8234
 7086SOL     OW32893   1.927   2.114   6.485 -0.3186 -0.2232 -0.0390
 7086SOL    HW132894   2.003   2.057   6.496 -0.7812 -0.5992  1.2444
 7086SOL    HW232895   1.959   2.182   6.426  0.8928 -0.0827  0.7921
 7087SOL     OW32896   3.294   0.637   6.402  0.1279 -0.2587  0.3072
 7087SOL    HW132897   3.357   0.623   6.331  0.0890  1.4364 -0.0573
 7087SOL    HW232898   3.282   0.549   6.439 -2.7176 -0.3098 -0.7624
 7088SOL     OW32899   0.797   3.400   5.183 -0.0164 -0.4234  0.1219
 7088SOL    HW132900   0.849   3.460   5.237 -1.8862  0.3946  1.0225
 7088SOL    HW232901   0.725   3.457   5.159  2.3572  2.9565  0.9301
 7089SOL     OW32902   4.335   4.263  13.682  0.3671 -0.2450 -0.4320
 7089SOL    HW132903   4.314   4.212  13.760 -3.0246 -0.5440 -1.5458
 7089SOL    HW232904   4.364   4.348  13.716  0.2799 -1.6724  3.2333
 7090SOL     OW32905   0.321   1.393  16.460 -0.7177 -0.1862 -0.0748
 7090SOL    HW132906   0.296   1.403  16.368 -0.5233  1.1546  0.0179
 7090SOL    HW232907   0.232   1.392  16.494 -0.3078  0.9359  1.0570
 7091SOL     OW32908   1.802   1.903   2.956 -0.2464 -0.0045  0.1608
 7091SOL    HW132909   1.737   1.903   3.025 -0.2468  0.9867  0.1637
 7091SOL    HW232910   1.886   1.893   3.000 -0.1504 -1.8958 -0.4334
 7092SOL     OW32911   0.503   0.997  13.084 -0.4784 -0.1622 -0.3066
 7092SOL    HW132912   0.589   1.039  13.085  0.8241 -2.7613 -2.4164
 7092SOL    HW232913   0.462   1.034  13.162  1.5412  0.2607  0.5490
 7093SOL     OW32914   4.651   0.339   7.051 -0.1690 -0.5889 -0.4000
 7093SOL    HW132915   4.663   0.403   7.121  0.3020 -2.4298  1.2121
 7093SOL    HW232916   4.728   0.358   6.998  0.0661 -2.8319 -0.8523
 7094SOL     OW32917   2.696   1.894   8.903 -0.5769 -0.0311 -0.0852
 7094SOL    HW132918   2.770   1.854   8.857 -0.3038 -0.5384  0.7950
 7094SOL    HW232919   2.661   1.818   8.951 -1.5795  0.0158 -0.7429
 7095SOL     OW32920   1.646   0.327   7.348 -0.2261  0.0586 -0.6453
 7095SOL    HW132921   1.736   0.359   7.343  0.0103 -0.2521  1.5522
 7095SOL    HW232922   1.630   0.260   7.281  0.6794 -1.1185  0.3185
 7096SOL     OW32923   2.891   1.358   5.451 -0.5875  0.2862  0.5465
 7096SOL    HW132924   2.966   1.367   5.510 -1.0518 -0.2393  1.2092
 7096SOL    HW232925   2.875   1.264   5.451 -1.2994  0.4071 -0.4470
 7097SOL     OW32926   2.323   1.463   1.853  0.5267 -0.0389  0.0176
 7097SOL    HW132927   2.280   1.414   1.783 -0.0566 -0.7774  0.8969
 7097SOL    HW232928   2.248   1.496   1.902 -0.1766 -1.3825 -0.1475
 7098SOL     OW32929   0.312   4.225   5.042  0.2829  0.0862  0.4663
 7098SOL    HW132930   0.311   4.313   5.005  2.2032  1.3753  3.4210
 7098SOL    HW232931   0.225   4.191   5.020  1.1255 -1.9051  0.2126
 7099SOL     OW32932   3.600   2.686   5.088 -0.3276 -0.0704  0.7942
 7099SOL    HW132933   3.683   2.732   5.077 -0.9089  0.8245  0.0853
 7099SOL    HW232934   3.596   2.704   5.182  1.4357 -0.9339  1.0235
 7100SOL     OW32935   3.611   2.393   7.238 -0.1850 -0.3590 -0.1370
 7100SOL    HW132936   3.588   2.351   7.321  0.3707 -1.6359 -0.6230
 7100SOL    HW232937   3.598   2.318   7.179  0.9559  0.8197 -1.9088
 7101SOL     OW32938   2.832   0.294   8.513 -0.0556 -0.3485  0.1272
 7101SOL    HW132939   2.800   0.257   8.431 -1.1999 -2.1389  1.3566
 7101SOL    HW232940   2.918   0.329   8.492  0.7244 -2.7426 -0.6624
 7102SOL     OW32941   4.638   2.581  13.490  0.2442  0.1548 -0.1571
 7102SOL    HW132942   4.717   2.584  13.544 -0.4767  1.3848  0.8414
 7102SOL    HW232943   4.571   2.638  13.530  0.2776 -0.4085  0.6901
 7103SOL     OW32944   1.516   2.316   5.755  0.0014 -0.6476  0.0185
 7103SOL    HW132945   1.495   2.223   5.763 -1.5292 -0.3583 -0.8125
 7103SOL    HW232946   1.606   2.300   5.724 -0.7007 -1.4505 -1.5948
 7104SOL     OW32947   2.448   3.379  17.710  0.0135 -0.1351  0.3176
 7104SOL    HW132948   2.384   3.367  17.640  2.1298 -0.6960 -1.5097
 7104SOL    HW232949   2.502   3.448  17.671 -1.9372  0.6689 -0.9821
 7105SOL     OW32950   1.436   4.006   4.934  0.4882 -0.0435  0.0643
 7105SOL    HW132951   1.346   3.973   4.940  0.8235 -0.7977  0.8804
 7105SOL    HW232952   1.445   4.027   4.841 -1.7613 -0.4078 -0.2419
 7106SOL     OW32953   3.892   4.605  12.077 -0.5376  0.3136  0.0385
 7106SOL    HW132954   3.859   4.573  12.161 -3.5612  2.2411 -0.4025
 7106SOL    HW232955   3.895   4.699  12.094  4.5305 -0.2258  2.1214
 7107SOL     OW32956   2.957   0.984   4.469 -0.7098 -0.0378 -0.4858
 7107SOL    HW132957   2.862   0.987   4.458 -0.9798  0.6654  2.1027
 7107SOL    HW232958   2.963   0.940   4.554  1.5242  0.8417 -0.1843
 7108SOL     OW32959   4.203   2.520   1.406  0.2611 -0.0753  0.2706
 7108SOL    HW132960   4.295   2.528   1.431  0.0651 -0.4740  1.0875
 7108SOL    HW232961   4.184   2.440   1.454 -2.6065 -0.1244 -0.9067
 7109SOL     OW32962   3.024   2.598   0.180  0.0547  0.3186  0.7399
 7109SOL    HW132963   2.947   2.590   0.123  1.4518 -0.4309 -1.0640
 7109SOL    HW232964   3.068   2.654   0.115  0.2149 -0.8165 -0.1317
 7110SOL     OW32965   0.793   2.308   2.745  0.2378  0.0443  0.3488
 7110SOL    HW132966   0.763   2.283   2.832  1.1629 -1.0244  0.3526
 7110SOL    HW232967   0.783   2.225   2.698  2.1491  0.1971 -0.3207
 7111SOL     OW32968   2.558   3.167   5.611  0.9491  0.1376 -0.3336
 7111SOL    HW132969   2.622   3.201   5.673  0.9763 -0.9071  0.2069
 7111SOL    HW232970   2.560   3.073   5.626  2.8573  0.7062  3.0117
 7112SOL     OW32971   3.925   1.345   2.771  0.1311  0.1650 -0.4219
 7112SOL    HW132972   3.987   1.393   2.825 -0.3889 -2.1363  2.2200
 7112SOL    HW232973   3.962   1.366   2.685 -0.1188  1.2156 -0.2710
 7113SOL     OW32974   0.909   0.627   8.824  0.7290 -0.0906 -0.3792
 7113SOL    HW132975   0.999   0.614   8.794  1.1054 -0.6768  0.9900
 7113SOL    HW232976   0.854   0.567   8.773 -0.2748 -1.3474  2.1944
 7114SOL     OW32977   0.385   2.610   4.548 -0.2205  0.0298  0.3764
 7114SOL    HW132978   0.477   2.625   4.526 -0.9589  0.5545 -2.3069
 7114SOL    HW232979   0.375   2.699   4.583  1.0321  0.1792  0.3632
 7115SOL     OW32980   2.655   0.492  17.640 -0.0097  0.7083  0.3216
 7115SOL    HW132981   2.611   0.545  17.706 -0.6384 -0.6032  0.9426
 7115SOL    HW232982   2.634   0.405  17.674  1.9714  0.9259  2.0863
 7116SOL     OW32983   3.142   1.638  16.969 -0.1842  0.1079  0.5174
 7116SOL    HW132984   3.195   1.559  16.976 -0.7275 -0.5323 -2.4786
 7116SOL    HW232985   3.181   1.683  16.894 -0.9109 -1.5722 -0.8689
 7117SOL     OW32986   2.109   3.536   5.781  0.4544  0.1090  0.2130
 7117SOL    HW132987   2.035   3.595   5.791  0.8282  0.6518 -0.2756
 7117SOL    HW232988   2.078   3.472   5.717 -0.2097 -1.2716  1.9143
 7118SOL     OW32989   3.461   0.719   8.119  0.2693 -0.3170  0.5157
 7118SOL    HW132990   3.488   0.811   8.110  0.1850 -0.2083  1.4000
 7118SOL    HW232991   3.464   0.715   8.214 -2.8477 -0.9078  0.5961
 7119SOL     OW32992   1.732   0.198   6.420 -0.5102 -0.1753 -0.5058
 7119SOL    HW132993   1.778   0.114   6.413  0.2000  0.3105 -1.7850
 7119SOL    HW232994   1.775   0.248   6.489 -1.2754 -2.0123  1.2791
 7120SOL     OW32995   3.450   4.501   9.512  0.3382 -0.3908 -0.2019
 7120SOL    HW132996   3.413   4.519   9.426 -0.2325 -1.1034 -0.1147
 7120SOL    HW232997   3.411   4.575   9.559 -2.4733 -0.9818 -1.5990
 7121SOL     OW32998   0.820   4.463   6.945  0.0042 -0.6473 -0.3355
 7121SOL    HW132999   0.915   4.461   6.932  0.2958  0.2202  1.7959
 7121SOL    HW233000   0.789   4.421   6.864  0.6336  0.2989 -1.0713
 7122SOL     OW33001   4.206   4.313   5.673 -0.7266  0.2324 -0.0310
 7122SOL    HW133002   4.292   4.319   5.631 -0.4657  1.4348  0.6730
 7122SOL    HW233003   4.217   4.377   5.743  0.4789 -1.6141  1.4775
 7123SOL     OW33004   3.127   4.210   8.823  0.3125 -1.0371  0.4669
 7123SOL    HW133005   3.166   4.153   8.758  2.1829  1.4043 -0.5682
 7123SOL    HW233006   3.186   4.196   8.897  0.9278  1.4268  0.4579
 7124SOL     OW33007   3.955   2.738  13.666  0.0071 -0.5451  0.4178
 7124SOL    HW133008   3.929   2.772  13.752  0.0067  1.5628 -0.4040
 7124SOL    HW233009   3.962   2.648  13.697  0.4783 -0.1446  1.4727
 7125SOL     OW33010   0.082   2.447   4.393 -0.0368  0.7047  0.2838
 7125SOL    HW133011   0.066   2.541   4.397 -0.5054  0.6333  0.0830
 7125SOL    HW233012   0.002   2.427   4.343 -0.6141  4.4879 -0.3165
 7126SOL     OW33013   3.575   1.829  12.341 -0.3339 -0.3925 -0.3687
 7126SOL    HW133014   3.513   1.902  12.340 -1.8495 -1.6698  2.2536
 7126SOL    HW233015   3.654   1.871  12.373 -0.7032 -0.4450  0.6102
 7127SOL     OW33016   0.656   2.392   0.463 -0.8061  0.8379 -0.2701
 7127SOL    HW133017   0.582   2.441   0.499 -0.3209  0.3744  1.3525
 7127SOL    HW233018   0.734   2.426   0.508 -1.1913  1.6286 -0.1948
 7128SOL     OW33019   4.062   0.889   3.068 -0.3512 -0.0359 -0.0088
 7128SOL    HW133020   4.036   0.934   2.987 -1.4553 -0.3742  0.1636
 7128SOL    HW233021   3.998   0.924   3.129  0.1279  0.9198 -0.0544
 7129SOL     OW33022   2.612   0.921   1.976  0.7092  0.1915 -0.0730
 7129SOL    HW133023   2.634   0.920   2.069  0.3802  0.7387  0.0098
 7129SOL    HW233024   2.518   0.939   1.985  0.4558 -0.7635 -0.8813
 7130SOL     OW33025   0.282   3.684  16.968 -0.0397 -0.2013 -0.4576
 7130SOL    HW133026   0.278   3.641  16.883  1.4388  1.4364 -1.3374
 7130SOL    HW233027   0.206   3.649  17.014  0.2790 -0.0490  0.1847
 7131SOL     OW33028   3.773   2.486   3.625 -0.1616  0.4268  0.0651
 7131SOL    HW133029   3.857   2.467   3.667  0.0238 -1.6360 -1.2240
 7131SOL    HW233030   3.733   2.405   3.656 -0.6491  0.8963  0.6585
 7132SOL     OW33031   1.991   2.582   8.291  0.1096 -0.4687  0.0225
 7132SOL    HW133032   1.897   2.598   8.291 -0.0978 -1.6828  1.3358
 7132SOL    HW233033   2.023   2.632   8.216 -0.2927  0.5903  0.5663
 7133SOL     OW33034   0.396   1.949   9.213 -0.3955  0.4785 -0.1939
 7133SOL    HW133035   0.325   1.885   9.227 -1.0462  1.3734  0.6269
 7133SOL    HW233036   0.469   1.902   9.253 -1.3258 -0.7035  0.1571
 7134SOL     OW33037   2.716   2.645   6.560 -0.0799  0.1148  0.5858
 7134SOL    HW133038   2.743   2.555   6.582  2.2950  0.9563  1.1394
 7134SOL    HW233039   2.709   2.691   6.644  0.0132  0.8252  0.2037
 7135SOL     OW33040   4.652   1.122   8.594 -0.4242 -0.0210 -0.8350
 7135SOL    HW133041   4.665   1.053   8.659  0.0787  0.7343 -0.1262
 7135SOL    HW233042   4.738   1.165   8.592  0.0587 -1.1789 -5.1169
 7136SOL     OW33043   3.809   2.788  13.907 -0.3872  0.0315  0.3812
 7136SOL    HW133044   3.761   2.707  13.925 -2.3842  0.8776 -1.0981
 7136SOL    HW233045   3.827   2.820  13.995  0.7161  1.7341 -0.4814
 7137SOL     OW33046   1.915   1.890   3.197 -0.0209 -0.5698 -0.3956
 7137SOL    HW133047   1.899   1.796   3.188  0.2337 -0.5992 -0.5341
 7137SOL    HW233048   1.921   1.895   3.292  1.0319 -2.1269 -0.3824
 7138SOL     OW33049   0.642   1.848  12.387  0.2245  0.0980 -0.0642
 7138SOL    HW133050   0.599   1.933  12.391  0.7536  0.4061 -0.8963
 7138SOL    HW233051   0.570   1.787  12.404 -0.4680  1.2889  1.3187
 7139SOL     OW33052   3.700   3.993   1.612  0.2158 -0.5781 -0.4624
 7139SOL    HW133053   3.615   3.968   1.647 -0.4841  0.4101 -1.4525
 7139SOL    HW233054   3.731   3.904   1.595  0.4017 -0.9579  1.7933
 7140SOL     OW33055   2.934   3.342   4.575 -0.0383 -0.2342  0.3796
 7140SOL    HW133056   2.931   3.391   4.493 -1.0065  0.5919  0.9163
 7140SOL    HW233057   2.842   3.347   4.601 -0.6755 -1.1691 -1.7035
 7141SOL     OW33058   0.949   0.827   4.541  0.1993  0.0069  0.0605
 7141SOL    HW133059   0.913   0.885   4.607 -1.1797 -0.2915 -0.4427
 7141SOL    HW233060   0.868   0.804   4.497 -0.7778  2.1725  0.7129
 7142SOL     OW33061   3.054   2.168  10.518  0.8926  0.4279 -0.1107
 7142SOL    HW133062   3.149   2.180  10.526  0.8493 -1.0416  2.5650
 7142SOL    HW233063   3.040   2.087  10.567 -0.0072  1.8578  1.9774
 7143SOL     OW33064   2.662   4.127   6.612 -0.4315 -0.4572  0.5046
 7143SOL    HW133065   2.676   4.058   6.677 -1.8832 -0.8662  0.3971
 7143SOL    HW233066   2.611   4.192   6.659 -1.9669 -0.0779 -1.6861
 7144SOL     OW33067   4.421   3.509   8.012 -0.2435 -0.0215 -0.1321
 7144SOL    HW133068   4.468   3.488   8.092  1.0235  0.7749 -0.6641
 7144SOL    HW233069   4.423   3.605   8.021 -0.2497  0.0016 -0.3873
 7145SOL     OW33070   3.935   1.198  11.682  0.5353  0.2627  0.6420
 7145SOL    HW133071   3.960   1.131  11.746  1.1613  0.4824  0.6239
 7145SOL    HW233072   3.848   1.165  11.660  1.0176 -2.7723  3.2019
 7146SOL     OW33073   0.378   1.087  13.321  0.0753  0.7457 -0.9886
 7146SOL    HW133074   0.448   1.146  13.348  1.8763 -1.2687 -1.2268
 7146SOL    HW233075   0.362   1.034  13.400 -3.0473  0.2560 -1.9723
 7147SOL     OW33076   4.699   4.595  15.363 -0.5346  0.3643 -0.1180
 7147SOL    HW133077   0.054   4.613  15.348 -0.7080  2.1066  0.9789
 7147SOL    HW233078   4.694   4.653  15.439 -1.6790 -3.8992  3.0990
 7148SOL     OW33079   4.468   3.281   4.569  0.1979 -0.1906  0.4604
 7148SOL    HW133080   4.514   3.352   4.615 -0.7792 -0.8029  2.3789
 7148SOL    HW233081   4.546   3.235   4.540  0.4132  0.4120  0.0824
 7149SOL     OW33082   3.857   1.958   4.067 -0.8936  0.1474  0.9387
 7149SOL    HW133083   3.839   2.014   3.991 -2.6591 -2.1348 -0.3104
 7149SOL    HW233084   3.778   1.906   4.056 -0.9568  0.4234  0.0453
 7150SOL     OW33085   0.285   3.470   2.429  0.0085  0.2684  0.3372
 7150SOL    HW133086   0.254   3.380   2.426  0.2290  0.0948  3.6957
 7150SOL    HW233087   0.209   3.509   2.472  0.5725  0.3977  1.2132
 7151SOL     OW33088   3.921   4.182   2.240 -0.0118  0.1804  0.2385
 7151SOL    HW133089   3.832   4.164   2.269  0.1468 -2.7043 -1.1608
 7151SOL    HW233090   3.934   4.272   2.270  1.3392  0.4398 -1.1579
 7152SOL     OW33091   3.881   3.068   5.316  0.1716  0.4922  0.1114
 7152SOL    HW133092   3.908   3.097   5.404 -1.1705  0.0246  0.6712
 7152SOL    HW233093   3.925   2.985   5.301  1.6315  0.8460  2.4700
 7153SOL     OW33094   3.296   1.292  12.042 -0.1209 -0.3871  0.1167
 7153SOL    HW133095   3.224   1.344  12.006 -1.0628  0.0728  2.6697
 7153SOL    HW233096   3.347   1.281  11.962  1.2376 -1.4182  1.1149
 7154SOL     OW33097   1.019   2.927   4.219 -0.0556  0.4392 -0.1134
 7154SOL    HW133098   1.083   2.871   4.264  0.3154  0.6540 -0.3692
 7154SOL    HW233099   1.066   3.001   4.180  0.2469 -0.2722 -1.1175
 7155SOL     OW33100   2.710   0.518   8.296 -0.1147  0.1988  0.4412
 7155SOL    HW133101   2.618   0.491   8.286  1.1183 -2.8934 -2.6943
 7155SOL    HW233102   2.747   0.511   8.208 -0.2540  0.3985  0.3665
 7156SOL     OW33103   2.034   0.580  15.768 -0.5078  0.3236 -0.1962
 7156SOL    HW133104   2.051   0.517  15.838 -0.5034  1.4027  0.7832
 7156SOL    HW233105   1.940   0.595  15.783 -0.8176 -1.2437 -0.5502
 7157SOL     OW33106   0.645   1.912   5.958 -0.2308  0.4863  0.6994
 7157SOL    HW133107   0.678   1.898   6.047 -0.8327 -0.8966  0.6992
 7157SOL    HW233108   0.594   1.992   5.969 -1.0142  0.1813 -0.7112
 7158SOL     OW33109   0.757   2.896   4.936  0.4429  0.1841  0.9232
 7158SOL    HW133110   0.791   2.945   4.861 -1.8610 -1.5398 -1.2673
 7158SOL    HW233111   0.756   2.807   4.900  0.2491 -0.1196  1.6758
 7159SOL     OW33112   4.538   4.175   5.981 -0.2635 -0.3760 -0.0526
 7159SOL    HW133113   4.576   4.107   5.925  0.4366  0.9586 -1.1790
 7159SOL    HW233114   4.538   4.141   6.070 -0.1752 -1.4638 -0.4644
 7160SOL     OW33115   0.423   2.062   4.384 -0.5003 -0.2066 -0.0429
 7160SOL    HW133116   0.500   2.063   4.328 -0.3932 -3.0051  0.0814
 7160SOL    HW233117   0.376   2.144   4.365 -1.6810 -0.4561  1.7125
 7161SOL     OW33118   3.995   4.664  15.202 -0.0084  0.0238 -0.3479
 7161SOL    HW133119   3.942   4.620  15.268  1.0121 -1.6878 -0.6727
 7161SOL    HW233120   4.069   4.699  15.251 -0.9238 -0.9586  1.7338
 7162SOL     OW33121   2.829   0.792   0.976  0.1395 -0.3637  0.5380
 7162SOL    HW133122   2.896   0.806   1.043 -0.0509  0.5592  0.5379
 7162SOL    HW233123   2.876   0.728   0.922  0.4500  0.1253  0.2278
 7163SOL     OW33124   2.722   2.908   3.104  0.7590 -0.5183  0.4370
 7163SOL    HW133125   2.745   2.949   3.188 -0.3369 -1.0426  0.9878
 7163SOL    HW233126   2.731   2.814   3.119  0.7909 -1.0077 -2.5791
 7164SOL     OW33127   1.472   0.557   1.833 -0.6872 -0.3313  0.0159
 7164SOL    HW133128   1.450   0.640   1.874  0.3253 -0.4103  0.7061
 7164SOL    HW233129   1.467   0.496   1.907 -0.1647  0.7425  0.9236
 7165SOL     OW33130   2.256   2.853   4.118  0.1664 -1.1145  0.4492
 7165SOL    HW133131   2.336   2.896   4.087 -0.3064 -1.4613 -1.2760
 7165SOL    HW233132   2.198   2.926   4.139 -1.3358 -2.0837 -0.3177
 7166SOL     OW33133   3.379   4.527   2.702 -0.2909 -0.7475 -0.2193
 7166SOL    HW133134   3.355   4.619   2.706 -1.3492 -1.0068 -0.5348
 7166SOL    HW233135   3.473   4.525   2.681  0.3258  2.5292  2.3520
 7167SOL     OW33136   0.786   2.062   5.728 -0.2561 -0.3825 -0.0051
 7167SOL    HW133137   0.717   2.022   5.676  0.8276 -1.2893 -0.7505
 7167SOL    HW233138   0.824   1.983   5.767  0.3421 -1.1599 -2.1397
 7168SOL     OW33139   2.853   4.686   4.632 -0.0843 -0.1754 -0.1043
 7168SOL    HW133140   2.766   4.661   4.660 -1.0563  4.1518  0.7723
 7168SOL    HW233141   2.895   4.719   4.712 -0.3106 -0.8919  0.3063
 7169SOL     OW33142   0.096   1.891   5.537 -0.7205 -0.4524 -0.3154
 7169SOL    HW133143   0.046   1.918   5.614 -1.2922 -0.6940 -0.6008
 7169SOL    HW233144   0.051   1.809   5.513  0.7555 -1.4654  0.3723
 7170SOL     OW33145   1.721   3.079   6.284 -0.3152 -0.1367 -0.7523
 7170SOL    HW133146   1.753   3.013   6.346  2.3736 -0.9261 -2.9935
 7170SOL    HW233147   1.654   3.122   6.337  1.1596  1.5765 -0.3105
 7171SOL     OW33148   3.971   0.676   8.789  0.2397 -0.2610  0.2234
 7171SOL    HW133149   4.043   0.698   8.848  0.3766  1.3150 -0.5036
 7171SOL    HW233150   4.021   0.642   8.714  1.3452  1.0849  0.3478
 7172SOL     OW33151   2.152   2.092   8.721  0.2803  0.8125 -0.0983
 7172SOL    HW133152   2.103   2.142   8.656 -2.2237  0.3621  1.4372
 7172SOL    HW233153   2.191   2.164   8.770  1.7694  0.7375 -1.1803
 7173SOL     OW33154   1.527   0.318   8.212  0.5396 -0.3158  0.5238
 7173SOL    HW133155   1.600   0.367   8.250  1.6499 -2.0642  0.7035
 7173SOL    HW233156   1.471   0.381   8.168  0.9298 -0.1472  0.2697
 7174SOL     OW33157   3.099   3.860   6.021 -0.5490 -0.1298 -0.2430
 7174SOL    HW133158   3.129   3.828   6.106  0.9128 -0.4966 -0.9045
 7174SOL    HW233159   3.143   3.797   5.964  1.9658 -1.0171  2.7122
 7175SOL     OW33160   3.869   2.959   4.146 -0.4936  0.3981 -0.5521
 7175SOL    HW133161   3.781   2.933   4.175 -0.4603  1.7755  0.7841
 7175SOL    HW233162   3.860   3.019   4.072  1.8559  0.3598 -0.8534
 7176SOL     OW33163   3.448   4.180   3.672 -0.0419  0.3137 -0.6777
 7176SOL    HW133164   3.400   4.098   3.660 -2.0042  1.2440  0.6644
 7176SOL    HW233165   3.396   4.229   3.737 -0.0828 -0.3835 -0.1880
 7177SOL     OW33166   0.358   4.058  11.323 -0.1102  0.1979  0.4004
 7177SOL    HW133167   0.437   4.110  11.336  2.4484 -3.2318 -1.5663
 7177SOL    HW233168   0.313   4.134  11.287 -0.0964 -0.2597 -0.5766
 7178SOL     OW33169   0.090   0.609   9.906 -0.2558  0.2719 -0.4706
 7178SOL    HW133170   0.018   0.629   9.966  0.9383 -1.2710  1.4812
 7178SOL    HW233171   0.141   0.553   9.964 -2.2929 -0.1414  0.9242
 7179SOL     OW33172   3.134   4.639  16.272 -0.2476 -0.0439 -0.2708
 7179SOL    HW133173   3.081   4.671  16.199 -2.2159  1.4951  1.8078
 7179SOL    HW233174   3.207   4.604  16.221 -1.1066  0.6816 -1.9951
 7180SOL     OW33175   2.970   1.231   8.658 -0.2180 -0.5282 -0.0774
 7180SOL    HW133176   2.982   1.324   8.638  0.5838 -0.9068 -1.3991
 7180SOL    HW233177   2.876   1.214   8.655  0.0062 -1.7143 -0.8207
 7181SOL     OW33178   2.228   0.998   2.840 -0.2792 -0.2016  0.0491
 7181SOL    HW133179   2.167   0.988   2.767  1.0669  0.7443 -1.2128
 7181SOL    HW233180   2.175   0.969   2.914  0.2725  2.6261  1.5341
 7182SOL     OW33181   0.732   0.516   5.265  0.3876 -0.3720 -0.5172
 7182SOL    HW133182   0.822   0.537   5.238  0.1183  0.8880 -0.4355
 7182SOL    HW233183   0.700   0.601   5.296  0.1049 -0.9929  0.8395
 7183SOL     OW33184   0.832   4.597   4.704 -0.5717 -0.0558  0.0003
 7183SOL    HW133185   0.793   4.510   4.701  1.3539 -0.8616 -1.3457
 7183SOL    HW233186   0.799   4.622   4.790 -0.9351  0.0837 -0.1800
 7184SOL     OW33187   4.444   3.040   7.854 -0.6031 -0.6558  0.9197
 7184SOL    HW133188   4.436   3.084   7.769 -0.9075 -0.1738  1.1967
 7184SOL    HW233189   4.513   2.982   7.820 -0.2314 -0.5856  1.5555
 7185SOL     OW33190   3.664   2.001   8.913  0.1134 -0.0907  0.7025
 7185SOL    HW133191   3.655   2.057   8.990  1.4829  2.2107 -0.8200
 7185SOL    HW233192   3.628   2.061   8.848  0.0463 -0.5703  0.2948
 7186SOL     OW33193   0.255   0.293   8.668 -0.0876 -0.1731 -0.4533
 7186SOL    HW133194   0.177   0.301   8.613 -0.1042 -1.8950 -0.6577
 7186SOL    HW233195   0.214   0.290   8.754  1.7509 -1.5278  0.3811
 7187SOL     OW33196   0.108   1.077   4.986  0.0368  0.3955  0.3143
 7187SOL    HW133197   0.153   1.027   5.054 -0.1005 -0.3166 -0.1218
 7187SOL    HW233198   0.064   1.010   4.934 -3.1637  0.8183  2.4464
 7188SOL     OW33199   0.878   4.641   4.374 -0.2589 -0.1882 -0.2383
 7188SOL    HW133200   0.784   4.623   4.379  0.2028 -2.5129  0.0618
 7188SOL    HW233201   0.916   4.565   4.329  0.6855 -0.3299  0.7977
 7189SOL     OW33202   0.382   4.454   7.640 -0.0820  0.3007 -0.4473
 7189SOL    HW133203   0.311   4.512   7.666 -1.7588 -3.4363  3.2634
 7189SOL    HW233204   0.449   4.509   7.598  2.5264 -0.9724  2.0489
 7190SOL     OW33205   3.429   4.043   5.321  0.1211  0.2672 -0.1475
 7190SOL    HW133206   3.443   3.965   5.268 -0.2695  0.0206  0.1130
 7190SOL    HW233207   3.334   4.054   5.321  0.1144  0.2319  0.6517
 7191SOL     OW33208   4.216   1.710  15.800  0.1487 -0.0929  0.1333
 7191SOL    HW133209   4.158   1.776  15.836  1.7671  2.3005 -1.5936
 7191SOL    HW233210   4.210   1.732  15.707 -0.3738  1.4596  0.5308
 7192SOL     OW33211   0.917   3.576   9.709  0.2983 -0.5568  0.1065
 7192SOL    HW133212   0.951   3.502   9.759  0.2779 -1.7203 -1.6071
 7192SOL    HW233213   0.949   3.642   9.770  2.1533  0.4294 -1.9362
 7193SOL     OW33214   0.888   3.237  10.959  0.0234  0.4177 -0.4635
 7193SOL    HW133215   0.973   3.204  10.987 -0.5132 -2.0057 -1.7024
 7193SOL    HW233216   0.846   3.230  11.045 -0.0564 -0.6831 -0.5839
 7194SOL     OW33217   1.947   1.693   7.928  0.4656 -0.1793  0.5730
 7194SOL    HW133218   1.858   1.691   7.963  0.0455  0.3860 -0.4731
 7194SOL    HW233219   1.938   1.779   7.887  1.7359  0.2893  1.2693
 7195SOL     OW33220   4.580   1.360   7.494 -0.5190 -0.2180  0.1136
 7195SOL    HW133221   4.672   1.377   7.477 -0.5718  0.6732  0.7286
 7195SOL    HW233222   4.599   1.301   7.567  0.5624 -2.4038 -1.9352
 7196SOL     OW33223   2.413   1.214  12.408  0.3159  0.0432 -0.0211
 7196SOL    HW133224   2.379   1.127  12.389 -0.0743  0.1644  0.1288
 7196SOL    HW233225   2.496   1.199  12.453  0.3423  0.1482 -0.0345
 7197SOL     OW33226   2.852   0.467   9.867 -0.1391  0.2356  0.8441
 7197SOL    HW133227   2.821   0.400   9.805  0.6113  0.2030  0.5050
 7197SOL    HW233228   2.922   0.505   9.814 -0.0657  0.7600  1.3243
 7198SOL     OW33229   0.734   1.240  10.549 -0.5969  0.0005 -0.3465
 7198SOL    HW133230   0.666   1.274  10.491  1.0916  0.7658 -1.8878
 7198SOL    HW233231   0.814   1.280  10.515 -0.5996  1.1339  0.9919
 7199SOL     OW33232   4.069   4.374   1.761 -0.0539 -0.5340  0.2145
 7199SOL    HW133233   4.018   4.329   1.694 -0.9340  1.7411 -0.6710
 7199SOL    HW233234   4.029   4.331   1.836  2.6104 -2.9865  0.2191
 7200SOL     OW33235   1.928   2.084  17.648 -0.0869  0.3338  0.1401
 7200SOL    HW133236   1.842   2.078  17.608  0.1717 -2.1700 -0.0619
 7200SOL    HW233237   1.926   2.176  17.674 -0.7579  0.4544 -0.3657
 7201SOL     OW33238   4.111   2.402   4.983  0.6817  0.6021  0.3532
 7201SOL    HW133239   4.174   2.331   4.992  0.1221 -0.0209 -0.6936
 7201SOL    HW233240   4.117   2.425   4.890 -0.6640 -2.6253 -0.5329
 7202SOL     OW33241   3.249   1.873   0.370  0.0879  0.2444  0.2355
 7202SOL    HW133242   3.314   1.868   0.440  0.2922 -0.3993  0.0013
 7202SOL    HW233243   3.183   1.938   0.395 -0.6099 -0.3827  0.0045
 7203SOL     OW33244   3.685   3.374   8.647 -0.0774 -0.0021  0.0859
 7203SOL    HW133245   3.631   3.451   8.627  0.6354  0.4662 -0.0552
 7203SOL    HW233246   3.681   3.335   8.560  0.8794  3.3795 -1.4943
 7204SOL     OW33247   3.900   1.730   6.126 -0.2860  0.0131  0.4419
 7204SOL    HW133248   3.947   1.692   6.200 -0.6380  2.1292  1.7708
 7204SOL    HW233249   3.951   1.807   6.099  0.8402 -0.8103  0.2304
 7205SOL     OW33250   2.444   1.976  12.822 -0.1620  0.0584 -0.1872
 7205SOL    HW133251   2.539   1.972  12.824 -0.0880  1.1463 -1.4297
 7205SOL    HW233252   2.420   1.917  12.893 -0.3217  1.0268  0.5495
 7206SOL     OW33253   1.232   1.645   3.437 -0.0793 -0.6210  0.9770
 7206SOL    HW133254   1.208   1.715   3.498  1.2389  0.4318  0.2775
 7206SOL    HW233255   1.269   1.588   3.504 -1.4001 -0.8645  1.4972
 7207SOL     OW33256   1.190   4.352   1.219  0.0634  0.1545  0.0561
 7207SOL    HW133257   1.107   4.394   1.193 -1.1952 -1.7477  1.0108
 7207SOL    HW233258   1.212   4.391   1.303  2.5389 -2.5579  0.6498
 7208SOL     OW33259   4.036   3.900   5.015 -0.3153  0.4679  0.1402
 7208SOL    HW133260   4.124   3.939   5.015 -0.8304  1.6455 -0.1723
 7208SOL    HW233261   4.034   3.892   5.110 -0.1789 -0.1583  0.0937
 7209SOL     OW33262   2.059   4.543   8.735 -0.2362 -0.1334  0.3978
 7209SOL    HW133263   1.964   4.535   8.735 -0.1611 -0.8660 -2.1244
 7209SOL    HW233264   2.089   4.525   8.646  1.2171 -0.3622  0.9260
 7210SOL     OW33265   1.123   0.756  15.543  0.3665  0.2395 -0.6651
 7210SOL    HW133266   1.172   0.809  15.480  0.1770  1.0864 -0.1051
 7210SOL    HW233267   1.184   0.686  15.567 -0.8228 -0.2842  0.8365
 7211SOL     OW33268   2.421   1.851  13.062 -0.0692 -0.0905 -0.4209
 7211SOL    HW133269   2.424   1.759  13.037 -1.8407  0.2412 -1.9150
 7211SOL    HW233270   2.424   1.847  13.157  0.5488  0.1790 -0.4306
 7212SOL     OW33271   0.892   1.095   7.717 -0.3437 -0.4133 -0.0631
 7212SOL    HW133272   0.876   1.156   7.789  0.7459 -0.1178 -0.0775
 7212SOL    HW233273   0.814   1.039   7.715 -1.2163  0.7375  1.6119
 7213SOL     OW33274   3.233   3.140   1.062  0.5684 -0.0575 -0.3933
 7213SOL    HW133275   3.251   3.046   1.069  2.3014  0.2876 -0.2443
 7213SOL    HW233276   3.304   3.178   1.113  0.4393 -1.4694  0.8674
 7214SOL     OW33277   1.237   2.985   2.350 -0.4981  0.5933  0.0614
 7214SOL    HW133278   1.221   2.992   2.445  1.1347 -0.6546  0.4136
 7214SOL    HW233279   1.165   3.030   2.306 -1.9733 -0.7657  1.0571
 7215SOL     OW33280   2.741   1.616  11.750 -0.5537 -0.1178  1.1703
 7215SOL    HW133281   2.833   1.643  11.751 -0.1081 -1.5821  0.8171
 7215SOL    HW233282   2.724   1.624  11.844 -0.2226 -1.8744  1.3904
 7216SOL     OW33283   1.044   4.459   3.206  0.2577 -0.5975 -0.1665
 7216SOL    HW133284   0.958   4.501   3.206 -0.1306 -1.3600  1.6726
 7216SOL    HW233285   1.103   4.525   3.171 -0.6306  0.2111 -0.1187
 7217SOL     OW33286   4.456   0.758   8.638  0.5466 -0.1023 -0.3549
 7217SOL    HW133287   4.545   0.773   8.671 -0.8371 -1.3258  3.8393
 7217SOL    HW233288   4.427   0.685   8.692  3.3743  0.3526  1.8188
 7218SOL     OW33289   1.267   1.147   2.599  1.3064  0.2836  0.0459
 7218SOL    HW133290   1.281   1.201   2.677  2.0329  0.2196 -0.0362
 7218SOL    HW233291   1.337   1.179   2.542  1.6063 -1.5151 -0.5841
 7219SOL     OW33292   1.060   4.080   9.731 -0.0703 -0.3248  0.0947
 7219SOL    HW133293   0.984   4.042   9.685 -1.5201  1.0435  1.3466
 7219SOL    HW233294   1.126   4.011   9.730 -0.2854 -0.5312 -0.0257
 7220SOL     OW33295   4.364   4.514   9.059  0.1411  0.8711  0.2536
 7220SOL    HW133296   4.387   4.548   9.145 -1.4423 -0.9095  1.3738
 7220SOL    HW233297   4.431   4.445   9.051  0.2136  0.9666  0.0239
 7221SOL     OW33298   3.610   2.353   3.815 -0.2820 -0.5065 -0.1638
 7221SOL    HW133299   3.566   2.431   3.849  0.1342 -0.9452  1.4133
 7221SOL    HW233300   3.554   2.337   3.739 -0.1832 -1.2452 -0.0891
 7222SOL     OW33301   1.054   0.012   6.147 -0.0080  0.5121 -0.1164
 7222SOL    HW133302   1.003   4.690   6.201 -0.0345  1.0370  0.4492
 7222SOL    HW233303   1.141   4.716   6.168 -0.5112 -0.9572 -0.4861
 7223SOL     OW33304   0.583   3.605   2.979 -0.2221  0.2849  0.0369
 7223SOL    HW133305   0.598   3.699   2.963 -0.8658  0.1863 -1.1483
 7223SOL    HW233306   0.627   3.574   2.899 -0.2420  0.8766 -0.2056
 7224SOL     OW33307   1.695   0.726   5.546 -0.3688 -0.3322 -0.2085
 7224SOL    HW133308   1.600   0.727   5.531 -0.4315  0.7934  0.2550
 7224SOL    HW233309   1.712   0.665   5.474 -0.8158  0.8425 -1.3026
 7225SOL     OW33310   3.089   2.680  11.979 -0.4184 -0.4918  0.3589
 7225SOL    HW133311   3.175   2.704  11.943  0.0782 -2.8800 -0.0519
 7225SOL    HW233312   3.099   2.689  12.074 -1.7323  0.3221  0.4219
 7226SOL     OW33313   3.775   1.636   3.900 -0.2779 -0.3135 -0.2533
 7226SOL    HW133314   3.715   1.685   3.957  2.0704  2.6210 -0.3047
 7226SOL    HW233315   3.720   1.624   3.823 -1.4698  1.4913  0.3179
 7227SOL     OW33316   0.220   1.957   6.916 -0.1440 -0.0748 -0.3255
 7227SOL    HW133317   0.287   2.023   6.904  1.1471 -0.7551  2.9550
 7227SOL    HW233318   0.279   1.882   6.930 -1.6620 -1.1312  0.4959
 7228SOL     OW33319   1.172   0.689  13.570  0.8613 -0.3013 -0.4995
 7228SOL    HW133320   1.207   0.771  13.603  0.1653  0.7820 -2.4512
 7228SOL    HW233321   1.240   0.664  13.506 -0.4202 -1.8840 -1.2547
 7229SOL     OW33322   1.109   1.372  16.405 -0.2126  0.2144  0.5647
 7229SOL    HW133323   1.034   1.364  16.465 -1.1237  1.4945 -0.4013
 7229SOL    HW233324   1.178   1.344  16.464 -0.9222  0.2190  1.4072
 7230SOL     OW33325   0.869   0.651   4.292  1.3325 -0.1160 -0.2732
 7230SOL    HW133326   0.817   0.675   4.215  0.3479  0.4543  0.5770
 7230SOL    HW233327   0.953   0.653   4.245  2.0144  0.5704  0.9796
 7231SOL     OW33328   1.046   2.794   1.438  0.2128 -0.1632 -0.2144
 7231SOL    HW133329   1.123   2.826   1.390 -0.2235  2.4130  0.8330
 7231SOL    HW233330   1.020   2.881   1.467 -1.5304 -1.4681  2.1025
 7232SOL     OW33331   4.492   0.888   3.146  0.3594  0.1132  0.2581
 7232SOL    HW133332   4.520   0.798   3.165  2.8326  1.1884  1.7362
 7232SOL    HW233333   4.528   0.896   3.057  0.0961 -0.8588  0.0584
 7233SOL     OW33334   4.172   0.447   7.565  0.2893  0.1886 -0.1544
 7233SOL    HW133335   4.129   0.414   7.645 -0.8273  1.1414 -0.3520
 7233SOL    HW233336   4.199   0.369   7.518 -2.4514 -1.7825  1.5573
 7234SOL     OW33337   1.009   0.052   2.586 -0.2556 -0.1994 -0.4266
 7234SOL    HW133338   1.039   0.107   2.659 -1.3566  1.2003 -1.0138
 7234SOL    HW233339   1.073   4.721   2.600  1.7740  1.5256 -1.1457
 7235SOL     OW33340   0.121   0.441   5.079 -0.1221 -0.1528  0.1656
 7235SOL    HW133341   0.036   0.473   5.108 -0.2560 -1.0670  0.7687
 7235SOL    HW233342   0.097   0.428   4.988 -1.7175 -2.8036  0.9575
 7236SOL     OW33343   2.360   4.450   2.282  0.1494 -0.2540 -0.8393
 7236SOL    HW133344   2.274   4.410   2.267 -0.5721  0.9211  0.1500
 7236SOL    HW233345   2.404   4.378   2.329  2.1171  1.8202  0.4731
 7237SOL     OW33346   2.947   0.962  13.178 -0.1122  0.3777  0.1316
 7237SOL    HW133347   3.027   0.955  13.230  0.7711  3.2844 -0.8453
 7237SOL    HW233348   2.881   0.952  13.246  0.4877  0.0146  0.6589
 7238SOL     OW33349   4.374   0.780   4.119 -0.5517  0.4104  0.7027
 7238SOL    HW133350   4.414   0.865   4.138  0.7845 -0.1225  0.2913
 7238SOL    HW233351   4.309   0.799   4.052 -0.1073 -0.5637 -0.0026
 7239SOL     OW33352   2.174   2.556   5.440 -0.1861 -0.1774 -0.4394
 7239SOL    HW133353   2.194   2.643   5.475  0.5910  0.7346 -3.1766
 7239SOL    HW233354   2.171   2.570   5.345 -0.3487 -0.4921 -0.4811
 7240SOL     OW33355   3.467   1.379   5.275 -0.4883 -0.2518  0.1366
 7240SOL    HW133356   3.487   1.420   5.191  0.2959  2.2865  1.5431
 7240SOL    HW233357   3.558   1.377   5.305  0.0201  1.4220 -1.2756
 7241SOL     OW33358   3.581   3.595  12.276 -0.6709 -0.0431 -0.9331
 7241SOL    HW133359   3.647   3.569  12.340 -2.0534 -1.0200  0.1092
 7241SOL    HW233360   3.642   3.613  12.205  0.3547 -0.7826 -0.2291
 7242SOL     OW33361   3.230   3.270   6.947  0.1759  0.2191 -0.3149
 7242SOL    HW133362   3.313   3.298   6.987  0.0088  0.6517 -0.2773
 7242SOL    HW233363   3.160   3.295   7.008 -1.4760  3.2437 -3.5085
 7243SOL     OW33364   2.845   2.565   2.060 -0.0571  0.2782  0.4285
 7243SOL    HW133365   2.838   2.563   1.965 -0.6783 -1.7437  0.5147
 7243SOL    HW233366   2.939   2.566   2.076 -0.3023 -1.2432  1.9705
 7244SOL     OW33367   4.725   2.682   5.906  0.2808 -0.2449  0.0618
 7244SOL    HW133368   0.004   2.617   5.837  0.1009  0.9924 -1.1485
 7244SOL    HW233369   0.062   2.661   5.961 -0.0425 -1.4464  0.0642
 7245SOL     OW33370   1.997   2.396  11.152 -0.0913 -0.7529 -0.1244
 7245SOL    HW133371   1.967   2.306  11.162  1.0364 -1.2624 -1.2913
 7245SOL    HW233372   2.002   2.412  11.058  0.4110  0.0693  0.0322
 7246SOL     OW33373   1.839   4.395   7.872 -0.1124 -0.1112  0.2942
 7246SOL    HW133374   1.809   4.485   7.887 -0.0867  0.2747 -1.9130
 7246SOL    HW233375   1.763   4.346   7.902 -1.0872  0.6478 -0.9064
 7247SOL     OW33376   4.148   0.394   4.247  0.1664 -0.1604 -0.0704
 7247SOL    HW133377   4.124   0.403   4.155 -1.9913 -0.2529  0.4885
 7247SOL    HW233378   4.190   0.309   4.255 -0.3342 -0.4231 -0.2446
 7248SOL     OW33379   2.382   3.406   4.644  0.6297 -0.1119 -0.1933
 7248SOL    HW133380   2.310   3.453   4.685 -0.1193 -1.5065  0.1087
 7248SOL    HW233381   2.451   3.472   4.641 -1.5460  2.0284 -2.0061
 7249SOL     OW33382   2.321   4.667   8.122 -0.1234  0.1922  0.4889
 7249SOL    HW133383   2.307   4.650   8.215  0.7622 -0.8893  0.4242
 7249SOL    HW233384   2.385   4.737   8.132 -2.3610  2.3325  0.0489
 7250SOL     OW33385   2.689   2.379   6.722  0.3321 -0.0445  0.1619
 7250SOL    HW133386   2.661   2.436   6.793  2.1601 -0.8376  1.5145
 7250SOL    HW233387   2.616   2.318   6.712 -0.2127  1.0678 -2.5940
 7251SOL     OW33388   3.019   2.538  10.468 -0.5392  0.6680 -0.2958
 7251SOL    HW133389   2.940   2.592  10.472 -2.8332 -2.7222  0.0408
 7251SOL    HW233390   2.978   2.457  10.440 -0.3251  0.4979 -0.1158
 7252SOL     OW33391   2.869   0.851   9.889 -0.0455  0.0053 -0.4573
 7252SOL    HW133392   2.854   0.791   9.816 -0.3813  0.4763 -0.7702
 7252SOL    HW233393   2.781   0.888   9.901  0.1430  0.8634 -1.7404
 7253SOL     OW33394   0.383   0.395  14.104 -0.2681  0.4472 -0.0497
 7253SOL    HW133395   0.422   0.355  14.027 -0.5340  1.2414 -0.5993
 7253SOL    HW233396   0.338   0.477  14.082  0.9004  1.1357  0.1169
 7254SOL     OW33397   3.254   2.789   2.415  0.3618 -0.1709  0.2623
 7254SOL    HW133398   3.232   2.800   2.508  0.9055  2.3504  0.0726
 7254SOL    HW233399   3.167   2.790   2.375 -0.2406 -0.7951  1.5449
 7255SOL     OW33400   3.161   3.052   5.148  0.2426 -0.1254 -0.1525
 7255SOL    HW133401   3.241   3.067   5.097  1.9529 -1.9591  2.0031
 7255SOL    HW233402   3.184   2.981   5.208  3.3656  0.4535 -0.6652
 7256SOL     OW33403   3.135   2.947   2.687 -0.1294  0.0771  0.1144
 7256SOL    HW133404   3.068   2.931   2.755  1.3932  1.7412  2.0033
 7256SOL    HW233405   3.214   2.980   2.730  0.2128 -1.4583  0.6410
 7257SOL     OW33406   2.214   1.645   5.206  0.6790  0.0222  0.1152
 7257SOL    HW133407   2.280   1.711   5.187 -0.6259  1.9098  2.0919
 7257SOL    HW233408   2.198   1.658   5.300 -1.7377 -0.5636 -0.2038
 7258SOL     OW33409   2.300   3.281   1.214  0.0226 -0.0324  0.7248
 7258SOL    HW133410   2.394   3.276   1.202 -0.2013  1.2853 -1.6292
 7258SOL    HW233411   2.287   3.187   1.209 -2.2849  0.2970  0.4129
 7259SOL     OW33412   0.227   3.270   7.638 -0.1627 -0.6128  0.8769
 7259SOL    HW133413   0.235   3.307   7.726  0.8409  2.6030 -0.5518
 7259SOL    HW233414   0.315   3.293   7.608 -0.8468  0.5965 -0.2361
 7260SOL     OW33415   4.536   2.975  10.199  0.2157  0.1236  0.8145
 7260SOL    HW133416   4.441   2.989  10.199  0.3305  0.9757 -0.1370
 7260SOL    HW233417   4.560   2.951  10.288  0.6006  0.8175  0.8994
 7261SOL     OW33418   4.058   0.480   5.339 -0.3011  0.0704  0.2577
 7261SOL    HW133419   4.042   0.455   5.430  0.0782 -2.6986 -0.4284
 7261SOL    HW233420   4.082   0.396   5.300 -0.4433 -0.0186  0.3626
 7262SOL     OW33421   0.415   2.603   6.763  0.5569  0.5480  0.3141
 7262SOL    HW133422   0.366   2.521   6.753 -0.3527  1.0021  0.9908
 7262SOL    HW233423   0.412   2.642   6.676 -2.9892 -1.4213 -0.4638
 7263SOL     OW33424   3.800   2.735   7.466  0.1998 -0.5424  0.0650
 7263SOL    HW133425   3.852   2.779   7.399 -0.8160 -0.3008 -0.5755
 7263SOL    HW233426   3.719   2.786   7.459  0.2471 -0.3261  1.1352
 7264SOL     OW33427   2.719   0.833   3.079  0.3070 -0.1752  0.0374
 7264SOL    HW133428   2.674   0.791   3.152 -3.6723  0.1297 -2.2185
 7264SOL    HW233429   2.649   0.870   3.026  0.3106 -1.1760 -0.6820
 7265SOL     OW33430   0.582   3.922   2.414 -0.6191  0.6517 -0.0706
 7265SOL    HW133431   0.576   3.891   2.505 -0.4984 -1.4846 -0.7948
 7265SOL    HW233432   0.673   3.951   2.417 -0.1603 -0.8260  0.8273
 7266SOL     OW33433   1.901   2.159   3.195 -0.6499 -0.7468  0.0111
 7266SOL    HW133434   1.962   2.164   3.268  0.5478 -1.7496 -0.9124
 7266SOL    HW233435   1.908   2.065   3.179 -1.6477 -0.9634  0.7996
 7267SOL     OW33436   1.395   0.652  12.938 -0.0576  0.3166  0.1374
 7267SOL    HW133437   1.476   0.606  12.912  0.4704  0.0830  2.2077
 7267SOL    HW233438   1.432   0.734  12.968  0.5624  0.2996 -0.5582
 7268SOL     OW33439   1.478   1.595   1.419 -0.4708  0.6666 -0.9975
 7268SOL    HW133440   1.460   1.619   1.328  1.2479  1.4401 -1.1315
 7268SOL    HW233441   1.554   1.652   1.426  0.6191 -0.8181 -0.9140
 7269SOL     OW33442   3.022   1.460   7.129 -0.6075  0.0147 -0.3267
 7269SOL    HW133443   3.033   1.480   7.222 -2.1099 -0.7965  0.0257
 7269SOL    HW233444   3.109   1.484   7.099 -1.0574  2.6606  0.3941
 7270SOL     OW33445   2.130   3.887   9.694 -0.4669  0.1409  0.1947
 7270SOL    HW133446   2.198   3.820   9.702  0.7950  1.3547 -0.3296
 7270SOL    HW233447   2.154   3.959   9.753 -3.1307 -0.3602  1.9252
 7271SOL     OW33448   4.514   1.898   8.267 -0.2478  0.3310 -0.2556
 7271SOL    HW133449   4.477   1.954   8.335 -0.5081  0.7664 -0.7574
 7271SOL    HW233450   4.551   1.826   8.318  0.3267  2.3857  2.2306
 7272SOL     OW33451   4.190   4.473   3.585 -0.6864 -0.1205  0.2633
 7272SOL    HW133452   4.111   4.445   3.540  0.2210 -3.0262  0.5104
 7272SOL    HW233453   4.192   4.563   3.553 -1.5922 -0.5721 -1.0319
 7273SOL     OW33454   4.390   0.134  16.772  0.1018  0.5804  0.2461
 7273SOL    HW133455   4.477   0.095  16.764 -0.6968 -0.8083 -1.4869
 7273SOL    HW233456   4.334   0.057  16.759  2.0647 -0.4533 -2.1130
 7274SOL     OW33457   4.045   1.741  10.007  0.3150 -0.1321  0.0368
 7274SOL    HW133458   3.986   1.765  10.078 -1.2655 -1.3528 -0.8561
 7274SOL    HW233459   4.028   1.802   9.935 -1.8299 -1.7456 -0.8455
 7275SOL     OW33460   2.835   1.440   8.878 -0.2201  0.8108 -0.5132
 7275SOL    HW133461   2.843   1.491   8.797 -2.4591  3.2737  0.8138
 7275SOL    HW233462   2.885   1.502   8.931  1.4273  0.4416 -1.6487
 7276SOL     OW33463   4.523   2.278   4.921  0.5509  0.4584 -0.3943
 7276SOL    HW133464   4.582   2.252   4.992 -0.5898 -0.5875  0.1668
 7276SOL    HW233465   4.440   2.238   4.948  1.2746 -1.3639 -0.8874
 7277SOL     OW33466   3.592   4.597  16.593  0.1971  0.2744  0.1044
 7277SOL    HW133467   3.516   4.633  16.547  1.2089  0.4866 -1.3803
 7277SOL    HW233468   3.666   4.632  16.545 -0.9535  2.2017 -0.2674
 7278SOL     OW33469   0.739   4.220   0.982  0.2179  0.8854  0.0349
 7278SOL    HW133470   0.784   4.231   1.065  2.2083 -2.0884 -0.6498
 7278SOL    HW233471   0.660   4.170   1.003  0.4074  2.0300  3.4765
 7279SOL     OW33472   2.141   0.327  13.213  0.4841 -0.1747 -0.7878
 7279SOL    HW133473   2.178   0.251  13.258 -1.2526  1.2155  3.0006
 7279SOL    HW233474   2.216   0.387  13.218  0.7179 -0.3726 -1.7945
 7280SOL     OW33475   4.219   2.447  16.918  0.3710  0.2510  0.3363
 7280SOL    HW133476   4.272   2.513  16.963  0.1225  1.3517 -1.0150
 7280SOL    HW233477   4.166   2.432  16.997 -0.3391 -1.8902 -0.5519
 7281SOL     OW33478   3.409   0.810  10.127  0.0610  0.1789  0.4121
 7281SOL    HW133479   3.437   0.724  10.158  2.2494  0.7369 -0.0324
 7281SOL    HW233480   3.366   0.796  10.043  2.4369 -2.1443 -0.4090
 7282SOL     OW33481   0.622   4.178   9.281  0.1998  0.2134 -0.2852
 7282SOL    HW133482   0.658   4.092   9.259 -1.3149  0.0530 -2.0438
 7282SOL    HW233483   0.611   4.166   9.376 -0.3975 -0.9771 -0.5049
 7283SOL     OW33484   0.617   2.644   2.202  0.3376  0.0786  0.4831
 7283SOL    HW133485   0.645   2.557   2.175  1.0261 -0.0774  1.7141
 7283SOL    HW233486   0.694   2.675   2.249 -1.0333  1.8050  1.5775
 7284SOL     OW33487   0.616   3.644   6.220 -0.4134 -0.0494 -0.0149
 7284SOL    HW133488   0.614   3.553   6.249  0.9081 -0.1776 -0.3449
 7284SOL    HW233489   0.689   3.639   6.159  1.4423 -1.3744  2.3285
 7285SOL     OW33490   1.979   0.969   6.072  0.1941  0.1626 -0.0148
 7285SOL    HW133491   1.937   1.004   6.150 -0.9088 -2.0773  0.4080
 7285SOL    HW233492   1.906   0.933   6.023 -0.2347 -0.1056  0.8254
 7286SOL     OW33493   3.132   3.140   1.924 -0.1606  0.0535 -0.0665
 7286SOL    HW133494   3.227   3.136   1.926 -0.2369 -0.3112  2.1047
 7286SOL    HW233495   3.110   3.069   1.984 -2.0742  1.0545  0.4300
 7287SOL     OW33496   3.222   0.806   3.385  0.0267  0.0876 -0.3010
 7287SOL    HW133497   3.285   0.734   3.386 -0.3119 -0.1819  2.1342
 7287SOL    HW233498   3.240   0.842   3.298 -1.5251  0.8088 -0.3256
 7288SOL     OW33499   2.752   0.250   1.437  0.3124 -0.1884  0.3695
 7288SOL    HW133500   2.670   0.300   1.440  0.4962  0.0303  2.1194
 7288SOL    HW233501   2.775   0.259   1.345 -1.9277 -0.9725 -0.2641
 7289SOL     OW33502   4.018   2.338   7.400  0.4610 -0.3817 -0.0895
 7289SOL    HW133503   3.937   2.387   7.390  0.9123  0.4082  0.1391
 7289SOL    HW233504   4.086   2.405   7.396  0.8663 -0.7753  0.2013
 7290SOL     OW33505   2.563   3.887   2.909  0.1038  0.1480  0.1552
 7290SOL    HW133506   2.570   3.836   2.990  1.5445 -0.1562 -0.1504
 7290SOL    HW233507   2.502   3.961   2.911 -0.5223 -0.3981  1.2844
 7291SOL     OW33508   4.201   1.338  11.063 -0.2079  0.3242 -0.5975
 7291SOL    HW133509   4.294   1.357  11.072  0.1101 -1.8164  0.5657
 7291SOL    HW233510   4.187   1.244  11.053  0.2994  0.0186  1.6449
 7292SOL     OW33511   0.707   3.321   8.857  0.1558  0.3726  0.3012
 7292SOL    HW133512   0.797   3.336   8.887  1.1313  0.0390 -2.4148
 7292SOL    HW233513   0.726   3.296   8.767  0.8479  3.1723 -0.3267
 7293SOL     OW33514   1.253   3.553   8.272 -0.2185  0.4880 -0.3412
 7293SOL    HW133515   1.323   3.518   8.327  1.0236  0.7551 -1.7624
 7293SOL    HW233516   1.266   3.500   8.193 -3.1270 -0.2655 -0.3286
 7294SOL     OW33517   3.598   2.589   0.514  0.5560  0.7888 -0.4377
 7294SOL    HW133518   3.644   2.520   0.466 -0.0454  0.6642 -0.8346
 7294SOL    HW233519   3.598   2.648   0.439 -2.0223 -1.5601 -2.2981
 7295SOL     OW33520   0.065   2.113  15.399  0.6670  0.1046 -0.2040
 7295SOL    HW133521   0.127   2.091  15.468  1.3548 -1.9241 -1.4575
 7295SOL    HW233522   0.032   2.029  15.366  0.5672  0.7068 -1.6323
 7296SOL     OW33523   0.615   1.192   1.782 -0.0581 -0.0581  0.4852
 7296SOL    HW133524   0.549   1.123   1.788 -1.9740  1.8186  0.9522
 7296SOL    HW233525   0.653   1.172   1.697 -0.1222 -1.1323  0.7058
 7297SOL     OW33526   0.258   4.244   2.893 -0.1266 -0.3687  0.5306
 7297SOL    HW133527   0.322   4.287   2.836 -1.0510 -0.0009 -0.2208
 7297SOL    HW233528   0.202   4.208   2.825  1.4458 -1.0421 -0.4075
 7298SOL     OW33529   1.173   4.157   5.447  0.0804  0.6425 -0.9495
 7298SOL    HW133530   1.145   4.235   5.399 -0.4988  0.0288 -1.6051
 7298SOL    HW233531   1.268   4.167   5.438  0.0878  0.1319 -1.4240
 7299SOL     OW33532   4.723   4.367   3.215 -0.1938  0.0626  0.1494
 7299SOL    HW133533   0.080   4.359   3.217 -0.1736  0.6291  1.5359
 7299SOL    HW233534   4.701   4.378   3.123 -0.0373 -0.9428 -0.0066
 7300SOL     OW33535   3.950   4.653   3.320 -0.1995 -0.5926  0.4393
 7300SOL    HW133536   3.881   4.719   3.312 -0.1234 -0.7226 -1.2923
 7300SOL    HW233537   3.978   4.646   3.229  2.1322  2.9231  0.8785
 7301SOL     OW33538   2.800   2.266   5.386  0.0796 -0.9004 -1.3141
 7301SOL    HW133539   2.742   2.340   5.373  0.5958  0.0883  2.0854
 7301SOL    HW233540   2.742   2.192   5.367 -1.1556 -0.4614  0.7535
 7302SOL     OW33541   0.020   3.932   8.179  0.2136 -0.1499 -0.2172
 7302SOL    HW133542   4.707   3.918   8.099  0.6831 -0.8004 -0.4101
 7302SOL    HW233543   0.091   3.991   8.155  1.2815 -0.0412  3.2640
 7303SOL     OW33544   2.997   0.518  17.465  0.1228 -0.0919  0.5327
 7303SOL    HW133545   3.040   0.439  17.430 -1.6557  0.1701 -2.2711
 7303SOL    HW233546   3.024   0.496  17.554  1.1638 -0.0460  0.2388
 7304SOL     OW33547   3.976   1.124   3.775 -0.4669  0.2009  0.0683
 7304SOL    HW133548   3.918   1.098   3.703 -0.2253 -1.4927  0.4827
 7304SOL    HW233549   3.916   1.120   3.850  0.9437 -1.3402  1.1028
 7305SOL     OW33550   0.205   1.344   4.932 -0.0619  0.6967 -0.8295
 7305SOL    HW133551   0.173   1.254   4.936  0.4951  0.6321  1.8275
 7305SOL    HW233552   0.201   1.359   4.837 -1.4328  1.2417 -0.6804
 7306SOL     OW33553   3.944   2.759   7.947 -0.0975  0.5345 -0.2289
 7306SOL    HW133554   3.948   2.753   7.851  0.8174  0.9076 -0.2112
 7306SOL    HW233555   3.928   2.854   7.949  0.3070  0.6356 -1.7576
 7307SOL     OW33556   2.193   3.120  13.353  0.0963 -0.1783  0.4616
 7307SOL    HW133557   2.200   3.203  13.401  0.4537  0.7884 -1.2595
 7307SOL    HW233558   2.125   3.148  13.291  1.2236  2.6191  0.4768
 7308SOL     OW33559   0.109   0.692   8.525  0.1222 -0.5115  0.5166
 7308SOL    HW133560   0.178   0.753   8.552  0.1469  0.0384 -0.7893
 7308SOL    HW233561   0.079   0.745   8.451 -0.1940 -1.7813 -0.2579
 7309SOL     OW33562   0.100   0.517   5.889  0.1067 -0.4386 -0.1141
 7309SOL    HW133563   0.079   0.602   5.929  1.3811 -0.4208  0.5168
 7309SOL    HW233564   0.030   0.461   5.923  0.1912  0.1141  0.9733
 7310SOL     OW33565   0.019   3.808   9.074  0.2284  0.5347  0.4729
 7310SOL    HW133566   0.082   3.880   9.073  0.0375  0.6914 -1.3736
 7310SOL    HW233567   0.077   3.744   9.031 -0.1324  1.6203 -1.6344
 7311SOL     OW33568   2.670   2.137  15.821 -0.3135  0.1662  0.3946
 7311SOL    HW133569   2.725   2.073  15.775  1.4260 -0.1198  2.8548
 7311SOL    HW233570   2.675   2.090  15.904  1.1314 -0.2404  0.0820
 7312SOL     OW33571   1.126   2.931   7.834  0.0757 -0.2575 -0.6965
 7312SOL    HW133572   1.213   2.907   7.867  0.4006  2.1153  0.1419
 7312SOL    HW233573   1.076   2.849   7.836  0.3901 -0.4854 -2.2550
 7313SOL     OW33574   4.655   2.562  15.662  0.1702 -0.4433  0.4667
 7313SOL    HW133575   4.648   2.469  15.639 -1.1114 -0.4743  0.9656
 7313SOL    HW233576   4.580   2.600  15.616  0.8346 -0.5313 -0.6939
 7314SOL     OW33577   4.070   3.174   4.243 -0.0825  0.7562 -0.2390
 7314SOL    HW133578   4.015   3.100   4.218  1.8793 -0.3913 -1.1945
 7314SOL    HW233579   4.049   3.168   4.336  2.9934 -1.9085  0.2972
 7315SOL     OW33580   4.206   4.276   4.755  0.7020 -0.5116  0.3053
 7315SOL    HW133581   4.150   4.199   4.768  2.2053 -1.7559 -0.5396
 7315SOL    HW233582   4.272   4.238   4.813  2.5758 -0.1486 -1.5972
 7316SOL     OW33583   3.877   4.551   6.205 -0.6645  0.2240 -0.0097
 7316SOL    HW133584   3.891   4.644   6.220  1.5122 -0.2168  0.6948
 7316SOL    HW233585   3.798   4.544   6.258  0.1994  0.6523  1.3280
 7317SOL     OW33586   3.567   0.410   1.970  0.2766 -0.3206  0.4330
 7317SOL    HW133587   3.488   0.464   1.972  0.7460  0.4644 -2.9469
 7317SOL    HW233588   3.622   0.464   2.028  1.6052  1.4564 -2.4976
 7318SOL     OW33589   2.740   0.201  17.695 -0.0183  0.4048 -0.1523
 7318SOL    HW133590   2.822   0.168  17.658 -0.0561  0.7432 -0.5357
 7318SOL    HW233591   2.694   0.118  17.711  1.0649 -0.8428 -3.3810
 7319SOL     OW33592   0.281   1.133   9.589 -0.0870 -0.2274 -0.0224
 7319SOL    HW133593   0.323   1.096   9.512 -1.4879 -2.1617  0.1328
 7319SOL    HW233594   0.321   1.079   9.658 -1.9473 -2.1314 -0.4259
 7320SOL     OW33595   2.771   3.620   1.201 -0.4888  0.3073  0.1115
 7320SOL    HW133596   2.810   3.686   1.258 -0.7632 -2.5443  3.5752
 7320SOL    HW233597   2.707   3.677   1.158  1.8138  1.8695 -1.2530
 7321SOL     OW33598   4.137   0.320   5.838  0.0713 -0.4287 -0.1277
 7321SOL    HW133599   4.147   0.407   5.799 -1.3990 -0.2364 -0.0939
 7321SOL    HW233600   4.213   0.276   5.801 -0.2202 -1.1651  0.1496
 7322SOL     OW33601   2.803   1.288   3.328 -0.0396  0.2080  0.5515
 7322SOL    HW133602   2.888   1.257   3.360  0.0355 -2.4568 -2.2832
 7322SOL    HW233603   2.784   1.220   3.264 -0.7656 -1.5664  2.6542
 7323SOL     OW33604   1.075   3.474  12.154  0.3226  0.3834 -0.1059
 7323SOL    HW133605   0.989   3.516  12.164 -0.2843 -0.9330  0.2144
 7323SOL    HW233606   1.059   3.380  12.154  0.3105  0.4083  3.2760
 7324SOL     OW33607   3.872   1.919   6.499 -0.2528  0.3647  0.1153
 7324SOL    HW133608   3.815   1.983   6.455 -0.7905  2.4269  3.8219
 7324SOL    HW233609   3.956   1.965   6.498  0.1537 -0.3681  0.4424
 7325SOL     OW33610   4.259   3.485  16.248  0.1001  0.1226 -0.1189
 7325SOL    HW133611   4.304   3.472  16.331 -0.8350  0.9777  0.5240
 7325SOL    HW233612   4.184   3.545  16.259  0.4352  0.5014  0.1049
 7326SOL     OW33613   3.122   1.399   5.022  0.3614  0.6994  0.1878
 7326SOL    HW133614   3.057   1.443   4.967 -0.8847  1.2622  2.1213
 7326SOL    HW233615   3.187   1.366   4.960  2.4091  0.6744  2.3700
 7327SOL     OW33616   4.337   3.112   7.122  0.2471  0.3088  0.1635
 7327SOL    HW133617   4.314   3.112   7.029  0.4712  0.2948  0.1082
 7327SOL    HW233618   4.421   3.157   7.118  1.0202 -0.9130  2.6741
 7328SOL     OW33619   2.488   2.405   2.710  0.3106 -0.0705  0.1546
 7328SOL    HW133620   2.525   2.397   2.622  0.8654 -0.0545  0.3847
 7328SOL    HW233621   2.536   2.477   2.751  1.2678 -0.6328  0.0293
 7329SOL     OW33622   2.974   3.228   3.396 -0.0967 -0.0238 -0.3819
 7329SOL    HW133623   3.070   3.224   3.386 -0.0530 -1.6031  0.6642
 7329SOL    HW233624   2.972   3.133   3.384  0.8387 -0.1235  0.1816
 7330SOL     OW33625   2.007   2.107  11.360 -0.2317 -0.0047  0.3607
 7330SOL    HW133626   2.032   2.086  11.449  0.4822  0.6107  0.3038
 7330SOL    HW233627   2.072   2.057  11.311  1.8023  1.2765  1.7679
 7331SOL     OW33628   3.184   2.245   1.784  0.1350 -0.0887 -0.6323
 7331SOL    HW133629   3.140   2.235   1.700  0.1644 -1.5979 -0.4708
 7331SOL    HW233630   3.112   2.213   1.839  0.4867  1.1817  0.5644
 7332SOL     OW33631   4.095   3.262  10.057 -0.0280 -0.1457  0.2719
 7332SOL    HW133632   4.074   3.305  10.140 -0.2803  1.7662 -0.7678
 7332SOL    HW233633   4.190   3.261  10.067 -0.0101 -2.5462 -0.2560
 7333SOL     OW33634   3.485   4.544  11.631  0.0471 -0.3689  0.1700
 7333SOL    HW133635   3.560   4.488  11.612  1.8964  2.2714 -0.3200
 7333SOL    HW233636   3.410   4.498  11.593 -0.4455  1.1067 -0.6432
 7334SOL     OW33637   1.608   0.503   4.949 -0.2806  0.1107 -0.1291
 7334SOL    HW133638   1.609   0.420   4.902 -1.3947  0.0073  0.0210
 7334SOL    HW233639   1.687   0.499   5.001  0.0303 -1.1253 -0.7002
 7335SOL     OW33640   4.384   1.098   3.488 -0.1194  0.2825 -0.1027
 7335SOL    HW133641   4.399   1.129   3.577 -2.5129  2.2999 -0.4078
 7335SOL    HW233642   4.314   1.033   3.495 -0.5385  1.0368  2.5885
 7336SOL     OW33643   2.381   1.533   4.428 -0.7798  0.6452 -0.2115
 7336SOL    HW133644   2.395   1.458   4.486 -1.1090  1.7703  1.3215
 7336SOL    HW233645   2.472   1.539   4.399 -0.3542 -2.2896  0.4396
 7337SOL     OW33646   1.037   3.795   6.021  0.5312  0.0724 -0.2064
 7337SOL    HW133647   0.957   3.751   6.049  0.1938  0.7407 -0.1400
 7337SOL    HW233648   1.106   3.741   6.062  0.2502 -0.8902 -0.9901
 7338SOL     OW33649   3.873   1.040   3.523 -0.0884 -0.2038  0.2815
 7338SOL    HW133650   3.780   1.022   3.532 -0.3752  0.7596 -0.8400
 7338SOL    HW233651   3.886   0.958   3.475  0.2267  1.0592 -1.7866
 7339SOL     OW33652   4.658   1.310   3.290 -0.4109 -0.4066 -0.4681
 7339SOL    HW133653   4.663   1.337   3.382  0.7639 -0.7798 -0.4124
 7339SOL    HW233654   4.565   1.327   3.274 -0.5911 -0.6025  0.3724
 7340SOL     OW33655   2.578   2.245   6.050 -0.0236 -0.3144 -0.4256
 7340SOL    HW133656   2.634   2.182   6.095 -0.5861 -0.5969 -0.1213
 7340SOL    HW233657   2.644   2.297   6.005 -1.5651  0.2667 -2.0468
 7341SOL     OW33658   4.436   3.787   3.723  0.1302  0.0873 -0.0382
 7341SOL    HW133659   4.432   3.883   3.717 -0.7921  0.1324  1.4402
 7341SOL    HW233660   4.375   3.782   3.796 -0.8038  3.0950 -0.6248
 7342SOL     OW33661   1.389   3.555  10.545  0.3192  0.6993  0.3268
 7342SOL    HW133662   1.435   3.576  10.627  3.3487  1.6061 -1.6138
 7342SOL    HW233663   1.419   3.466  10.524  1.2442  0.7590  1.3991
 7343SOL     OW33664   4.026   3.893   5.309 -0.7405 -0.1593 -0.7601
 7343SOL    HW133665   4.060   3.978   5.336  0.0409 -0.7541  0.1169
 7343SOL    HW233666   3.931   3.897   5.317 -0.5629 -2.0554  2.1692
 7344SOL     OW33667   4.253   1.033   3.221  0.0525  0.2772 -0.4848
 7344SOL    HW133668   4.229   0.955   3.171 -1.1263  1.0811 -1.1795
 7344SOL    HW233669   4.348   1.024   3.228 -0.1125  0.2738  1.7734
 7345SOL     OW33670   2.125   1.217   2.524 -0.1289  0.6593 -0.1711
 7345SOL    HW133671   2.099   1.127   2.545  2.6442 -0.1518 -0.1469
 7345SOL    HW233672   2.074   1.272   2.583  0.2611 -0.2998  1.0548
 7346SOL     OW33673   0.809   0.014   3.581 -0.1729 -0.0872  0.1027
 7346SOL    HW133674   0.720   0.020   3.546  0.1934  1.6112 -0.5480
 7346SOL    HW233675   0.825   4.661   3.555  0.4404  0.4598 -1.4583
 7347SOL     OW33676   1.107   1.561   1.303 -0.3973  0.3291 -0.6549
 7347SOL    HW133677   1.112   1.647   1.261 -1.0003 -0.1120 -1.6378
 7347SOL    HW233678   1.110   1.585   1.395 -0.8867  2.0780 -1.0861
 7348SOL     OW33679   3.833   2.174   2.672 -0.0338  0.8923 -0.3728
 7348SOL    HW133680   3.745   2.210   2.680 -0.2689 -0.1964  1.8619
 7348SOL    HW233681   3.872   2.234   2.609 -1.1774  2.6409  0.6013
 7349SOL     OW33682   2.667   1.588   3.819  0.2443 -0.0042  0.0059
 7349SOL    HW133683   2.654   1.496   3.798  1.3654 -0.5497  1.7541
 7349SOL    HW233684   2.708   1.586   3.905 -2.0805  1.3917  1.1514
 7350SOL     OW33685   2.264   4.345  13.644 -0.0687 -0.2828 -0.2346
 7350SOL    HW133686   2.201   4.415  13.628 -1.1747 -1.6432 -1.8231
 7350SOL    HW233687   2.284   4.326  13.552 -0.9717 -0.6640 -0.3494
 7351SOL     OW33688   0.149   0.638  15.672  0.5674  0.0380 -0.0656
 7351SOL    HW133689   0.197   0.626  15.590 -1.1697 -2.5854 -0.7130
 7351SOL    HW233690   0.142   0.733  15.674 -0.5836 -0.1197  4.2878
 7352SOL     OW33691   0.985   2.033  11.796  0.0645 -0.7368  0.2710
 7352SOL    HW133692   0.951   1.960  11.847 -1.8748  1.0890  1.5730
 7352SOL    HW233693   1.049   1.993  11.737  2.5615  1.4890  1.4986
 7353SOL     OW33694   0.145   1.636  15.035 -0.1791 -0.0437  0.2795
 7353SOL    HW133695   0.185   1.614  15.119 -1.2730 -0.9591  0.5653
 7353SOL    HW233696   0.106   1.549  15.029 -0.7678  0.3486 -1.8154
 7354SOL     OW33697   1.809   4.092   3.007 -0.1521  0.5025  1.0146
 7354SOL    HW133698   1.828   4.000   2.987 -1.5311  0.1517  1.2910
 7354SOL    HW233699   1.713   4.091   3.013 -0.2414  0.9517 -0.3867
 7355SOL     OW33700   2.782   2.081  11.325  0.3596  0.2444 -0.4021
 7355SOL    HW133701   2.690   2.103  11.314  0.3476  0.5245  0.2322
 7355SOL    HW233702   2.817   2.154  11.376 -1.7354  0.5296  0.6207
 7356SOL     OW33703   3.803   1.998   5.697 -0.4267 -0.1069  0.5073
 7356SOL    HW133704   3.823   1.904   5.694  0.3701  0.0434  1.0499
 7356SOL    HW233705   3.893   2.029   5.690 -0.1588 -1.1103 -0.5557
 7357SOL     OW33706   4.550   4.574   9.879 -0.6343 -0.0869  0.0076
 7357SOL    HW133707   4.631   4.619   9.900 -0.4021 -0.3856 -0.2412
 7357SOL    HW233708   4.577   4.482   9.868  2.6652  0.9650 -0.7473
 7358SOL     OW33709   3.648   2.440  16.931  0.0169  0.4763  0.5843
 7358SOL    HW133710   3.586   2.452  17.003 -0.2615  1.3744  0.1958
 7358SOL    HW233711   3.608   2.501  16.868 -0.7846 -0.3961  0.2614
 7359SOL     OW33712   0.815   3.277   6.920 -0.1569 -0.1327 -0.5170
 7359SOL    HW133713   0.830   3.368   6.893  0.9460  0.0876  0.8381
 7359SOL    HW233714   0.837   3.224   6.843 -1.6295 -0.5111 -0.6776
 7360SOL     OW33715   1.363   0.742   7.874  0.2600 -0.5169 -0.0535
 7360SOL    HW133716   1.343   0.652   7.846 -4.3564  0.5461 -0.2485
 7360SOL    HW233717   1.279   0.773   7.909  1.3995  1.8390  0.5524
 7361SOL     OW33718   3.436   4.395   3.239 -0.1514 -0.7065  0.1467
 7361SOL    HW133719   3.492   4.383   3.315 -0.2372 -1.4247  0.0943
 7361SOL    HW233720   3.347   4.377   3.268 -1.2774  2.5497 -1.3518
 7362SOL     OW33721   3.277   1.603   3.370 -0.0467  0.5668 -0.3454
 7362SOL    HW133722   3.316   1.517   3.352  0.9074  0.9577 -0.1184
 7362SOL    HW233723   3.209   1.569   3.428 -0.3464 -0.6529 -1.4094
 7363SOL     OW33724   2.399   0.295   5.707 -0.0126  0.2324 -0.4497
 7363SOL    HW133725   2.337   0.245   5.653 -0.4165 -0.2980  0.5052
 7363SOL    HW233726   2.389   0.382   5.668  1.3676  0.3821 -0.4722
 7364SOL     OW33727   2.115   0.764   2.335 -0.4388 -0.0043  0.5691
 7364SOL    HW133728   2.056   0.815   2.280 -0.5919 -1.2043 -0.3833
 7364SOL    HW233729   2.080   0.678   2.312  2.0801 -0.9735  0.2966
 7365SOL     OW33730   1.790   4.267   6.950 -0.3952 -0.5591 -0.4476
 7365SOL    HW133731   1.730   4.253   6.877 -0.8976 -1.4139  0.1335
 7365SOL    HW233732   1.786   4.362   6.961 -1.7511 -0.3330 -2.7900
 7366SOL     OW33733   4.162   4.083   9.635  0.7885 -0.7615  0.1623
 7366SOL    HW133734   4.152   4.140   9.559 -1.4359 -1.8766 -0.3835
 7366SOL    HW233735   4.252   4.103   9.662  0.0996  0.9055  1.2250
 7367SOL     OW33736   3.208   0.618   2.663 -0.5273  0.2333 -0.2318
 7367SOL    HW133737   3.202   0.527   2.693  1.5318  0.3069  0.3454
 7367SOL    HW233738   3.230   0.609   2.570 -0.7963 -0.7610 -0.2003
 7368SOL     OW33739   2.610   1.196   2.985 -0.1079 -0.1963  0.1642
 7368SOL    HW133740   2.681   1.166   3.042 -0.3383 -0.8650  0.0917
 7368SOL    HW233741   2.537   1.204   3.047 -0.4260 -0.5972 -0.1639
 7369SOL     OW33742   4.569   4.059   6.205 -0.6229 -0.5033  0.4385
 7369SOL    HW133743   4.633   3.992   6.181 -0.8076 -0.2434 -0.8042
 7369SOL    HW233744   4.570   4.054   6.300  0.4896  0.7185  0.4751
 7370SOL     OW33745   3.951   4.033   4.009 -0.0385 -0.0992 -0.3123
 7370SOL    HW133746   3.908   4.113   3.980 -0.7962 -1.2831 -2.4859
 7370SOL    HW233747   3.998   4.046   4.091  0.4142  3.1887 -1.0974
 7371SOL     OW33748   1.990   1.955   0.142 -0.2260  0.1316  0.0259
 7371SOL    HW133749   2.070   1.937   0.191  1.0019  1.1436 -1.5994
 7371SOL    HW233750   2.024   2.004   0.067  0.0471  0.1646  0.1711
 7372SOL     OW33751   1.097   0.720   4.127 -0.4950  0.4098 -0.2562
 7372SOL    HW133752   1.109   0.781   4.199 -1.5966 -0.3483  0.5520
 7372SOL    HW233753   1.085   0.778   4.052 -0.1026  2.6903  1.4629
 7373SOL     OW33754   1.565   0.125   7.139 -0.1733  0.6464  0.7519
 7373SOL    HW133755   1.577   0.048   7.084 -1.1787  0.8842  0.1964
 7373SOL    HW233756   1.574   0.201   7.082  0.3695  0.7584  0.9845
 7374SOL     OW33757   0.793   2.919   1.972  0.2741  0.0521  0.0918
 7374SOL    HW133758   0.796   2.824   1.987 -1.9690  0.0104  0.2991
 7374SOL    HW233759   0.881   2.938   1.940 -0.1627  1.5024 -0.2367
 7375SOL     OW33760   4.619   3.354   8.647 -0.2838  0.4407  0.9268
 7375SOL    HW133761   4.569   3.282   8.609 -1.2092  1.2648  0.5876
 7375SOL    HW233762   4.607   3.346   8.742  2.1346  2.4816  1.4159
 7376SOL     OW33763   0.616   1.159   4.240 -0.3001 -0.5166 -0.0452
 7376SOL    HW133764   0.647   1.171   4.329  0.3938 -0.4737 -0.2940
 7376SOL    HW233765   0.525   1.132   4.252 -0.5118  0.6050  0.8432
 7377SOL     OW33766   0.378   3.383   6.562  0.1755  0.2868  0.3167
 7377SOL    HW133767   0.302   3.396   6.620 -0.1741  1.0473 -0.3164
 7377SOL    HW233768   0.453   3.417   6.610  1.4567  0.0498 -1.5527
 7378SOL     OW33769   2.741   4.302   2.498  0.5597  0.5814  0.2453
 7378SOL    HW133770   2.766   4.323   2.408  0.7392 -1.1147 -0.1012
 7378SOL    HW233771   2.826   4.273   2.530 -0.4525  0.6134  3.0410
 7379SOL     OW33772   4.223   3.400  13.377 -0.3329 -0.3584 -0.8020
 7379SOL    HW133773   4.177   3.480  13.401  0.6836 -0.1072  0.2889
 7379SOL    HW233774   4.176   3.361  13.302  3.5363 -2.4732 -2.1344
 7380SOL     OW33775   0.562   4.735   6.789 -0.4215  0.6514 -0.1588
 7380SOL    HW133776   0.626   4.678   6.748 -1.4764 -0.6773  0.0511
 7380SOL    HW233777   0.576   4.711   6.881 -1.7018  0.4681 -0.0126
 7381SOL     OW33778   2.975   0.888   6.644 -0.4722  0.5201  0.0067
 7381SOL    HW133779   2.884   0.878   6.671 -1.5629  3.8436 -2.3710
 7381SOL    HW233780   2.996   0.833   6.568 -0.1860 -0.4099  0.7654
 7382SOL     OW33781   4.279   4.012   5.069  0.0721  0.5647  0.5634
 7382SOL    HW133782   4.267   4.107   5.063  0.3314  0.5395 -0.4882
 7382SOL    HW233783   4.375   4.008   5.061  0.2124 -0.3321  2.5832
 7383SOL     OW33784   1.289   0.545  15.896  0.3878  0.0423 -0.5192
 7383SOL    HW133785   1.204   0.519  15.861 -0.1753  2.6783 -1.1387
 7383SOL    HW233786   1.277   0.521  15.987 -2.9272  0.1300 -0.9253
 7384SOL     OW33787   4.373   4.580  14.907  0.1085 -0.2586  0.0512
 7384SOL    HW133788   4.466   4.572  14.927  0.0845  1.8099  1.0234
 7384SOL    HW233789   4.326   4.555  14.987  0.4925 -0.8492  0.0851
 7385SOL     OW33790   3.955   0.125   4.098  0.4949  0.3718  0.4101
 7385SOL    HW133791   4.024   0.093   4.156  1.4481 -0.4150 -1.1822
 7385SOL    HW233792   3.998   0.152   4.016  0.0101 -1.9077 -0.5762
 7386SOL     OW33793   2.557   3.016   6.228 -0.3322  0.1839 -0.8112
 7386SOL    HW133794   2.562   2.947   6.295  2.4518 -0.2368 -1.4791
 7386SOL    HW233795   2.485   2.977   6.178  0.1116 -1.3062 -0.2886
 7387SOL     OW33796   0.306   0.540  13.559  0.0255 -0.4926 -0.3679
 7387SOL    HW133797   0.343   0.601  13.496 -0.1509 -1.2384 -1.1981
 7387SOL    HW233798   0.375   0.547  13.625 -1.2016 -0.7606  0.9393
 7388SOL     OW33799   1.161   3.541  10.855  0.0469 -0.2012  0.1226
 7388SOL    HW133800   1.254   3.561  10.845 -1.1229  4.3756 -1.1487
 7388SOL    HW233801   1.136   3.539  10.762 -0.3749 -2.3836  0.2807
 7389SOL     OW33802   4.651   1.160  12.719  0.4807 -0.0550  0.5564
 7389SOL    HW133803   4.696   1.157  12.804 -0.7207 -3.0030  1.0842
 7389SOL    HW233804   4.607   1.245  12.711  0.3645 -0.3010 -1.3265
 7390SOL     OW33805   3.873   2.738  11.877  0.0612  0.2852  0.0755
 7390SOL    HW133806   3.797   2.775  11.922 -0.4188 -0.1289 -0.3883
 7390SOL    HW233807   3.934   2.747  11.950 -1.0787  0.6908  0.9805
 7391SOL     OW33808   0.576   3.454  14.924 -0.3121  0.0381 -0.1287
 7391SOL    HW133809   0.645   3.491  14.870  0.6877  1.4570  2.1244
 7391SOL    HW233810   0.633   3.434  14.998 -1.3152 -1.0879  0.3400
 7392SOL     OW33811   2.611   3.020   8.177 -0.2379  0.1419 -0.1490
 7392SOL    HW133812   2.647   2.941   8.137 -0.1966 -0.0346  0.2323
 7392SOL    HW233813   2.692   3.070   8.186 -0.0100 -0.5757  1.9921
 7393SOL     OW33814   1.394   2.067  12.657  0.6347 -0.2423 -0.5885
 7393SOL    HW133815   1.326   2.128  12.683 -0.0561 -1.5036  0.5284
 7393SOL    HW233816   1.420   2.096  12.569  0.5999 -2.4201 -1.3294
 7394SOL     OW33817   3.418   0.067   7.154  0.3391 -0.5839  0.0029
 7394SOL    HW133818   3.411   0.079   7.249 -0.5124 -1.6492  0.0703
 7394SOL    HW233819   3.327   0.057   7.126  0.2941 -1.3938  0.4249
 7395SOL     OW33820   4.304   4.626   7.950 -0.0367 -0.3663 -0.4241
 7395SOL    HW133821   4.370   4.695   7.958  0.0125 -0.3472 -0.9894
 7395SOL    HW233822   4.362   4.554   7.927  0.9293  0.3268 -0.1817
 7396SOL     OW33823   1.995   2.865   1.763 -0.2675  0.4987  0.2854
 7396SOL    HW133824   1.906   2.890   1.790 -0.6156  0.8775 -1.2370
 7396SOL    HW233825   2.024   2.943   1.717 -0.2603  0.9450  1.0397
 7397SOL     OW33826   3.083   2.643   8.958 -0.5669  0.1706 -0.4478
 7397SOL    HW133827   3.047   2.554   8.948  1.8676 -0.9272  0.4880
 7397SOL    HW233828   3.024   2.679   8.892 -0.8137  0.9234  0.1875
 7398SOL     OW33829   3.743   4.131  16.235 -0.3231 -0.3651  0.2308
 7398SOL    HW133830   3.685   4.207  16.226 -2.0229 -1.5072  1.4554
 7398SOL    HW233831   3.820   4.168  16.277 -0.7944  1.0493 -0.1680
 7399SOL     OW33832   0.441   4.200   3.607 -0.4013 -0.4416  0.7027
 7399SOL    HW133833   0.365   4.224   3.661 -1.1749  0.8200 -0.9790
 7399SOL    HW233834   0.518   4.212   3.663 -0.1123  1.9649 -0.2079
 7400SOL     OW33835   4.085   0.454   4.528 -0.7967 -0.1772 -0.2994
 7400SOL    HW133836   4.136   0.534   4.526 -0.9061 -0.0790  0.9521
 7400SOL    HW233837   4.101   0.437   4.435  1.5458  1.1485 -0.1326
 7401SOL     OW33838   2.746   1.334   7.182  0.5743  0.2500 -0.3772
 7401SOL    HW133839   2.708   1.276   7.115  1.0879  1.2444 -1.5268
 7401SOL    HW233840   2.824   1.374   7.143 -0.3256 -0.6117 -3.0908
 7402SOL     OW33841   1.063   2.609  11.965  0.8116  0.0872  0.0400
 7402SOL    HW133842   1.061   2.683  12.026 -0.4145  0.1969 -0.1363
 7402SOL    HW233843   1.146   2.620  11.920  0.1295 -0.6746 -1.3994
 7403SOL     OW33844   2.825   4.474   6.726 -0.6435  0.7083  0.2585
 7403SOL    HW133845   2.782   4.395   6.758 -1.2386  0.9564  0.0752
 7403SOL    HW233846   2.812   4.525   6.806  2.9815 -2.6928  2.9871
 7404SOL     OW33847   1.678   1.202   6.814  0.1642  0.0127  0.0877
 7404SOL    HW133848   1.731   1.229   6.889  1.4699 -1.0749 -0.4360
 7404SOL    HW233849   1.687   1.270   6.748 -0.0542 -1.2760 -1.2878
 7405SOL     OW33850   1.709   4.547   4.322 -0.1298  0.0205 -0.4402
 7405SOL    HW133851   1.690   4.547   4.228  3.7931  1.6844 -1.2308
 7405SOL    HW233852   1.635   4.499   4.358 -0.1368 -0.8960 -1.6671
 7406SOL     OW33853   3.617   3.470   7.857 -0.4721 -0.4032 -0.2160
 7406SOL    HW133854   3.709   3.496   7.861 -0.9123  1.0484  0.5847
 7406SOL    HW233855   3.608   3.427   7.772  1.7181 -0.6300 -0.3440
 7407SOL     OW33856   2.467   1.778   5.444  0.2808 -0.1390  0.1391
 7407SOL    HW133857   2.514   1.845   5.393  1.8632 -1.8241 -0.6335
 7407SOL    HW233858   2.450   1.710   5.378 -0.0883 -0.6992  0.8168
 7408SOL     OW33859   2.796   2.205   2.311  0.0176 -0.4057 -0.1246
 7408SOL    HW133860   2.737   2.197   2.236 -1.5169  0.2728  1.0207
 7408SOL    HW233861   2.819   2.114   2.327  0.1944 -0.4433 -0.6094
 7409SOL     OW33862   4.578   3.863   9.256 -0.0062  0.1909 -0.5772
 7409SOL    HW133863   4.651   3.834   9.201 -0.5561  0.2166 -1.3176
 7409SOL    HW233864   4.522   3.900   9.188  0.1826 -2.2484 -2.0766
 7410SOL     OW33865   2.352   2.425   2.378 -0.4273 -0.0620  0.2177
 7410SOL    HW133866   2.438   2.395   2.407  0.0767  1.3455  0.1765
 7410SOL    HW233867   2.355   2.520   2.394 -1.7251  0.0201  0.0483
 7411SOL     OW33868   2.828   0.648   1.592  0.5750 -0.0612  0.1777
 7411SOL    HW133869   2.811   0.678   1.503 -0.2927 -3.3895 -0.7730
 7411SOL    HW233870   2.777   0.699   1.655  0.8567  1.0057 -0.4476
 7412SOL     OW33871   3.553   1.444   4.436  0.5576  0.1030 -0.4927
 7412SOL    HW133872   3.625   1.459   4.375  1.0532 -1.4132 -0.2846
 7412SOL    HW233873   3.558   1.519   4.495 -4.5689  1.0692 -1.3255
 7413SOL     OW33874   3.359   4.541   1.968  0.2689  0.1482 -0.0602
 7413SOL    HW133875   3.324   4.541   1.879 -1.1674  1.5024  0.5233
 7413SOL    HW233876   3.279   4.523   2.017 -0.3693  0.9176 -0.8451
 7414SOL     OW33877   1.714   0.940   4.468 -0.6210  0.4101  0.3123
 7414SOL    HW133878   1.701   0.896   4.553  0.2664 -1.0234 -0.2977
 7414SOL    HW233879   1.790   0.994   4.489  0.9260 -1.5766 -0.1028
 7415SOL     OW33880   3.489   0.882   8.958 -0.1336  0.3333 -0.8763
 7415SOL    HW133881   3.564   0.824   8.944 -0.2817 -0.2819  0.8364
 7415SOL    HW233882   3.503   0.950   8.893 -0.1049  1.1517 -0.0137
 7416SOL     OW33883   4.195   2.707   0.017 -0.0297  0.2334 -0.9405
 7416SOL    HW133884   4.141   2.756   0.079  1.2013  0.0307  0.2826
 7416SOL    HW233885   4.281   2.749   0.026 -0.0290 -0.2366  1.1421
 7417SOL     OW33886   3.424   3.317   7.154  0.2285  0.1830 -0.1741
 7417SOL    HW133887   3.509   3.294   7.117  0.1018  2.6102 -1.9534
 7417SOL    HW233888   3.442   3.399   7.198  0.9975  0.5640 -1.2004
 7418SOL     OW33889   1.586   1.497   8.771  0.8516 -0.2444  0.2573
 7418SOL    HW133890   1.615   1.405   8.768  1.0998 -0.2403  2.2632
 7418SOL    HW233891   1.653   1.539   8.718  0.8045 -0.3671  0.1015
 7419SOL     OW33892   2.470   3.145   8.623  0.0049  0.7564  0.2822
 7419SOL    HW133893   2.439   3.058   8.596 -1.7073  1.5727 -0.4080
 7419SOL    HW233894   2.485   3.183   8.536  1.0076  0.8336  0.4916
 7420SOL     OW33895   1.511   2.773   2.983  0.0916 -1.0547  0.6232
 7420SOL    HW133896   1.576   2.832   3.019  0.0986 -0.3843 -0.4921
 7420SOL    HW233897   1.559   2.698   2.946 -0.2479 -0.5989 -0.7634
 7421SOL     OW33898   3.380   3.010   3.173 -0.1686  0.4566  0.0973
 7421SOL    HW133899   3.326   2.938   3.206  0.3090 -0.2392 -0.6316
 7421SOL    HW233900   3.329   3.020   3.093 -1.8274 -0.3532  1.0476
 7422SOL     OW33901   0.608   3.487   6.683 -0.0713 -0.1679 -0.1939
 7422SOL    HW133902   0.595   3.567   6.735 -1.6495 -0.4929 -0.0813
 7422SOL    HW233903   0.701   3.473   6.701 -0.3652 -0.4664  1.1020
 7423SOL     OW33904   2.548   1.679   7.684 -0.2626 -0.1405  0.7634
 7423SOL    HW133905   2.535   1.590   7.715  0.1617 -0.4656  0.0221
 7423SOL    HW233906   2.480   1.679   7.617 -0.7542 -2.2927  1.2707
 7424SOL     OW33907   1.349   3.208  10.022  0.4993 -0.7738 -0.5584
 7424SOL    HW133908   1.294   3.265   9.969 -1.5484 -1.6280  0.6329
 7424SOL    HW233909   1.434   3.252  10.022  0.0461  0.0976 -0.1744
 7425SOL     OW33910   3.240   2.020  16.477 -0.0886 -0.3819 -0.5270
 7425SOL    HW133911   3.219   2.078  16.404  1.2687 -0.3102 -0.8601
 7425SOL    HW233912   3.267   2.080  16.547 -0.1538  0.3629 -1.1495
 7426SOL     OW33913   2.835   2.551   2.379 -0.3734 -0.5129 -0.4313
 7426SOL    HW133914   2.741   2.554   2.361 -0.5214 -0.6229  0.3387
 7426SOL    HW233915   2.854   2.458   2.366  0.9526 -0.5695  1.9806
 7427SOL     OW33916   1.223   0.072   4.476  0.7387 -0.5456  0.1162
 7427SOL    HW133917   1.212   0.065   4.381  1.3957  2.9053 -0.2249
 7427SOL    HW233918   1.294   0.137   4.478 -1.3607  1.7112  1.0582
 7428SOL     OW33919   2.049   2.316   6.369  0.0770  0.0411 -0.8919
 7428SOL    HW133920   2.060   2.409   6.385 -0.0918 -0.1812  0.4893
 7428SOL    HW233921   2.137   2.299   6.335 -0.8514 -4.0248 -1.2500
 7429SOL     OW33922   4.266   2.300   1.950  0.0444 -0.4859 -0.6459
 7429SOL    HW133923   4.328   2.230   1.928  0.1948 -1.0823  1.6423
 7429SOL    HW233924   4.250   2.292   2.044 -0.1197 -1.1033 -0.7243
 7430SOL     OW33925   3.628   0.609   4.863  0.1625 -0.3975 -0.2344
 7430SOL    HW133926   3.650   0.639   4.775 -1.9384 -0.7081 -0.8620
 7430SOL    HW233927   3.557   0.547   4.843  0.1826 -0.5540  0.1889
 7431SOL     OW33928   2.413   0.370   8.344  0.4862  0.2619  0.2530
 7431SOL    HW133929   2.404   0.435   8.274  1.9125  1.8938  1.5910
 7431SOL    HW233930   2.331   0.329   8.319 -0.3509  0.7008  2.2462
 7432SOL     OW33931   3.548   1.702   9.325  0.0334 -0.2063 -0.1695
 7432SOL    HW133932   3.494   1.653   9.263 -0.1691  1.1365 -1.0668
 7432SOL    HW233933   3.621   1.736   9.273 -0.4547 -1.2468 -1.5226
 7433SOL     OW33934   0.335   2.624   4.018  0.0124  0.5771 -0.1464
 7433SOL    HW133935   0.321   2.700   3.962 -1.0965 -0.6081 -1.4613
 7433SOL    HW233936   0.346   2.654   4.109 -2.3919  0.7652  0.0960
 7434SOL     OW33937   3.109   1.252  14.731  0.2014 -0.6901 -0.0305
 7434SOL    HW133938   3.119   1.281  14.822  1.2817  0.9779 -0.6663
 7434SOL    HW233939   3.117   1.336  14.685 -0.5129 -1.4229 -1.4891
 7435SOL     OW33940   4.624   4.702   1.102  0.6521 -0.0732  0.0223
 7435SOL    HW133941   4.598   4.720   1.012  0.0381 -3.8740 -0.5767
 7435SOL    HW233942   4.633   4.607   1.100  0.7682 -0.0456 -0.5894
 7436SOL     OW33943   3.612   2.440  14.453  0.2432  0.0443 -0.0361
 7436SOL    HW133944   3.520   2.435  14.429 -0.0984  3.2719  0.5918
 7436SOL    HW233945   3.594   2.508  14.518 -0.7517 -0.8100  0.5672
 7437SOL     OW33946   2.484   0.346   1.425  0.1787  0.4576  0.5663
 7437SOL    HW133947   2.468   0.339   1.331  3.0812 -0.3450  0.1349
 7437SOL    HW233948   2.430   0.422   1.445 -1.1668 -0.1201 -0.8316
 7438SOL     OW33949   4.253   2.879   3.231 -0.5206 -0.5686  0.0566
 7438SOL    HW133950   4.190   2.951   3.236 -1.9261 -1.6244 -2.5696
 7438SOL    HW233951   4.295   2.876   3.317  1.6696 -0.6261 -1.0329
 7439SOL     OW33952   3.203   4.546   3.114 -0.2772  0.5057  0.4834
 7439SOL    HW133953   3.154   4.465   3.129  0.6898 -0.0042  0.8874
 7439SOL    HW233954   3.160   4.578   3.035  0.3589  1.4066  0.4968
 7440SOL     OW33955   2.430   0.638  16.441 -0.2141 -0.2855  0.2333
 7440SOL    HW133956   2.362   0.573  16.422  0.7247 -0.0494 -4.0641
 7440SOL    HW233957   2.501   0.583  16.408  0.7622  1.4373 -0.5290
 7441SOL     OW33958   3.724   0.080  13.741  0.4385  0.2073  0.1560
 7441SOL    HW133959   3.683   0.051  13.659  0.8384 -0.5379  0.2232
 7441SOL    HW233960   3.764   4.732  13.756  1.9011  0.8568 -0.0855
 7442SOL     OW33961   0.640   3.841   2.663 -0.5125 -0.4835  0.3150
 7442SOL    HW133962   0.656   3.747   2.669 -0.8753 -0.5347  0.4367
 7442SOL    HW233963   0.721   3.883   2.691 -0.2992 -0.5772 -0.1539
 7443SOL     OW33964   1.045   4.095   4.805  0.5279  0.2831 -0.4137
 7443SOL    HW133965   1.059   4.188   4.784 -0.0248  1.1696  3.1590
 7443SOL    HW233966   0.997   4.089   4.887 -0.4762  0.9822 -0.9486
 7444SOL     OW33967   3.253   4.227   5.801  0.2863 -0.2127 -0.1187
 7444SOL    HW133968   3.276   4.219   5.894  0.4818  1.0856 -0.0570
 7444SOL    HW233969   3.266   4.321   5.790 -0.1688  0.0009  1.2667
 7445SOL     OW33970   1.040   2.773  14.247  0.3630  0.1811 -0.3689
 7445SOL    HW133971   1.012   2.747  14.335  1.0076  0.1890 -0.1641
 7445SOL    HW233972   1.033   2.869  14.251 -0.1345  0.0693  1.3344
 7446SOL     OW33973   1.575   4.604   1.960 -0.0723 -0.0196 -0.0092
 7446SOL    HW133974   1.483   4.589   1.936 -0.3981  1.8398  0.0306
 7446SOL    HW233975   1.622   4.531   1.921 -1.3464 -0.7595 -0.1704
 7447SOL     OW33976   3.922   3.880  15.308  0.1648  0.4507 -0.0070
 7447SOL    HW133977   3.915   3.915  15.219  1.8894  0.2946 -0.2100
 7447SOL    HW233978   3.924   3.961  15.359  2.1617  0.2033  0.2935
 7448SOL     OW33979   1.506   1.068   4.067  0.0953  0.2771 -0.8207
 7448SOL    HW133980   1.503   1.071   4.162 -0.7400 -1.2796 -0.8013
 7448SOL    HW233981   1.600   1.054   4.062  0.0726 -0.1708 -0.0504
 7449SOL     OW33982   2.787   2.659   6.218  0.0949 -0.5947 -0.1967
 7449SOL    HW133983   2.828   2.742   6.242  2.2410 -2.2346  1.7708
 7449SOL    HW233984   2.736   2.649   6.299 -0.8416  4.3126 -0.1675
 7450SOL     OW33985   3.174   3.149  11.978 -0.4959  0.3394 -0.1602
 7450SOL    HW133986   3.158   3.193  11.894  0.4850  0.5951 -0.2129
 7450SOL    HW233987   3.143   3.217  12.038 -1.1755  0.9064 -1.1590
 7451SOL     OW33988   1.371   3.432   5.990  0.3395 -0.3412 -0.5417
 7451SOL    HW133989   1.400   3.350   5.951  1.3892 -1.5491  2.7653
 7451SOL    HW233990   1.391   3.492   5.918  1.0004 -0.7576 -0.7010
 7452SOL     OW33991   1.237   4.611  17.058 -0.1369  0.1888  0.1832
 7452SOL    HW133992   1.265   4.667  17.130 -0.2313  0.6894 -0.1688
 7452SOL    HW233993   1.281   4.652  16.984  1.2393  0.5544  1.2055
 7453SOL     OW33994   0.783   1.879  12.626 -0.4893  0.0789  0.5729
 7453SOL    HW133995   0.827   1.963  12.617  1.5047 -0.8092  1.9322
 7453SOL    HW233996   0.723   1.880  12.552  0.8922 -0.6667 -0.5690
 7454SOL     OW33997   1.818   0.374   1.708 -0.4442 -0.2360 -0.2008
 7454SOL    HW133998   1.906   0.382   1.670 -0.4508 -0.8081 -0.3368
 7454SOL    HW233999   1.832   0.348   1.799 -0.6843 -1.1517 -0.4269
 7455SOL     OW34000   2.092   2.531   0.709 -0.2575 -0.5362 -0.6926
 7455SOL    HW134001   2.138   2.536   0.625  0.9009  2.0327  0.0951
 7455SOL    HW234002   2.163   2.516   0.772  1.0818 -1.1624 -2.3463
 7456SOL     OW34003   3.308   1.353   8.681 -0.4375  0.2148 -0.2448
 7456SOL    HW134004   3.299   1.425   8.619 -0.5869  0.3578 -0.0568
 7456SOL    HW234005   3.404   1.346   8.673 -0.3942 -0.0772  0.5051
 7457SOL     OW34006   1.662   2.026   6.325  0.5886  0.3267 -0.1883
 7457SOL    HW134007   1.611   2.050   6.403  1.2619  0.7976  0.1183
 7457SOL    HW234008   1.751   2.037   6.359 -0.3087  0.5773  2.0843
 7458SOL     OW34009   2.098   4.295  12.971 -0.5300 -0.3129 -0.0185
 7458SOL    HW134010   2.015   4.269  12.931  0.5602 -1.5289 -1.4754
 7458SOL    HW234011   2.127   4.372  12.922 -1.5652  0.4013  0.4879
 7459SOL     OW34012   3.822   3.904   6.236 -0.5245  0.5800  0.2458
 7459SOL    HW134013   3.874   3.882   6.158  1.2651  1.1889  1.2623
 7459SOL    HW234014   3.743   3.944   6.200  0.2634  0.7932 -1.2392
 7460SOL     OW34015   1.700   2.624  10.770  0.1472  0.1484  0.2544
 7460SOL    HW134016   1.735   2.543  10.806 -0.9731  0.5086  2.1738
 7460SOL    HW234017   1.755   2.629  10.692  0.4691  3.5301  0.7024
 7461SOL     OW34018   0.459   4.375   5.537  0.0574 -0.3312 -0.1904
 7461SOL    HW134019   0.475   4.325   5.617 -1.1714  0.9915  0.8842
 7461SOL    HW234020   0.459   4.307   5.470  1.3943  0.2149 -0.7604
 7462SOL     OW34021   1.801   3.553  16.255  0.5819  0.4924 -0.1314
 7462SOL    HW134022   1.750   3.508  16.322  0.8614 -0.6046 -0.6534
 7462SOL    HW234023   1.838   3.629  16.301 -1.1360  1.1793  0.1215
 7463SOL     OW34024   4.400   2.014  15.908  0.2036  0.0280 -0.3413
 7463SOL    HW134025   4.317   2.061  15.920  1.6546  1.9284  2.4987
 7463SOL    HW234026   4.411   1.970  15.993  1.5090 -1.3264 -1.2009
 7464SOL     OW34027   0.660   3.225   2.892 -0.3167 -0.5660  0.3346
 7464SOL    HW134028   0.636   3.194   2.805 -2.2704  2.1453 -0.0726
 7464SOL    HW234029   0.682   3.141   2.934 -1.4964  0.8204  3.7296
 7465SOL     OW34030   0.906   2.537   9.191  0.3680 -0.1773  0.8726
 7465SOL    HW134031   0.880   2.527   9.283 -1.1114  1.7885  0.6400
 7465SOL    HW234032   0.946   2.624   9.196 -0.0186 -0.0059  0.9752
 7466SOL     OW34033   4.066   4.151   9.146  0.9143 -0.6988 -0.1351
 7466SOL    HW134034   4.014   4.159   9.065  0.5272 -0.5068  0.1321
 7466SOL    HW234035   4.018   4.217   9.196  0.9132  1.8012 -3.4275
 7467SOL     OW34036   0.802   2.750   5.620 -0.4621 -0.4049 -0.1612
 7467SOL    HW134037   0.864   2.822   5.629  0.0702 -0.4567 -3.6401
 7467SOL    HW234038   0.846   2.708   5.547  0.7590  1.1681 -0.3079
 7468SOL     OW34039   0.560   2.853   7.837  0.0392 -0.0431 -0.9160
 7468SOL    HW134040   0.521   2.933   7.803  1.5549  0.4067 -1.5807
 7468SOL    HW234041   0.511   2.856   7.919 -0.2307 -0.7356 -1.0476
 7469SOL     OW34042   3.151   4.701   7.173  0.0889 -0.2062 -0.2142
 7469SOL    HW134043   3.058   4.725   7.168 -0.7825 -3.0085  2.2000
 7469SOL    HW234044   3.128   4.610   7.192  1.8951 -0.8020 -0.9479
 7470SOL     OW34045   1.359   4.625   6.075  0.5330 -0.3104 -0.4514
 7470SOL    HW134046   1.278   4.574   6.076 -0.1050  0.7347  0.7659
 7470SOL    HW234047   1.359   4.672   6.158 -1.0180  0.2164 -0.7347
 7471SOL     OW34048   1.690   1.505   7.772  0.1086 -0.4826 -0.3213
 7471SOL    HW134049   1.687   1.559   7.851 -0.9250  0.3529 -0.9523
 7471SOL    HW234050   1.639   1.565   7.719 -0.7579 -2.3697 -1.6409
 7472SOL     OW34051   0.686   2.406   7.475  0.3611 -0.2693  0.9084
 7472SOL    HW134052   0.770   2.379   7.436  0.3088  0.7358  0.1221
 7472SOL    HW234053   0.704   2.482   7.529 -3.0574  1.1393  0.0381
 7473SOL     OW34054   2.450   3.721  17.066 -0.8465 -0.1568 -0.4396
 7473SOL    HW134055   2.447   3.766  16.982  1.6571  1.3748  0.2595
 7473SOL    HW234056   2.419   3.797  17.116  1.9425  0.8366 -0.2002
 7474SOL     OW34057   1.472   1.184   1.596  0.6352 -0.4452  0.3930
 7474SOL    HW134058   1.555   1.141   1.574  0.9128  0.7653 -0.9245
 7474SOL    HW234059   1.444   1.214   1.509 -0.2259  1.8837  1.4772
 7475SOL     OW34060   1.237   4.432   1.493  0.0654  0.7018 -0.6710
 7475SOL    HW134061   1.190   4.450   1.574 -0.4067  1.0628 -1.0329
 7475SOL    HW234062   1.295   4.509   1.490  1.1009 -0.1282 -2.2174
 7476SOL     OW34063   0.425   4.058  14.304  0.5577  0.3789 -0.4328
 7476SOL    HW134064   0.370   4.133  14.283  1.6535  1.1365 -0.5799
 7476SOL    HW234065   0.430   4.010  14.221 -2.4087  0.8228 -0.8570
 7477SOL     OW34066   2.371   2.315  17.041  0.4908  0.1646  0.6510
 7477SOL    HW134067   2.340   2.308  17.132 -1.6610  0.2747 -0.0903
 7477SOL    HW234068   2.460   2.280  17.050 -0.0263 -1.9531 -2.7134
 7478SOL     OW34069   1.584   4.568  11.190  0.1493 -0.5284  0.0107
 7478SOL    HW134070   1.503   4.618  11.177 -0.4362 -1.9440 -1.7138
 7478SOL    HW234071   1.609   4.588  11.281  0.1153 -2.7811  0.5009
 7479SOL     OW34072   1.546   0.749  13.361  0.5160  0.1606 -0.2799
 7479SOL    HW134073   1.588   0.831  13.385  1.5806 -1.3376  3.0608
 7479SOL    HW234074   1.623   0.696  13.340 -0.6484 -1.7844  0.2924
 7480SOL     OW34075   3.385   1.383   7.287 -0.5762 -0.0834 -0.5160
 7480SOL    HW134076   3.316   1.404   7.350 -3.1434  1.9847 -3.9832
 7480SOL    HW234077   3.378   1.457   7.227 -0.8684  1.8529  1.9335
 7481SOL     OW34078   4.649   1.221   7.756 -0.2071 -0.0541 -0.5890
 7481SOL    HW134079   4.617   1.133   7.736  0.8777 -0.9543  1.6422
 7481SOL    HW234080   0.003   1.198   7.746 -0.3342 -0.0461 -1.8013
 7482SOL     OW34081   3.132   3.667  17.534  0.8446 -0.2902  0.3312
 7482SOL    HW134082   3.195   3.598  17.514  0.7762 -0.1295 -0.4411
 7482SOL    HW234083   3.189   3.721  17.589  1.1605 -1.8379  1.5196
 7483SOL     OW34084   2.464   3.685   8.528  0.4407  0.3424 -0.2892
 7483SOL    HW134085   2.510   3.752   8.478  1.9857 -2.8224 -3.0962
 7483SOL    HW234086   2.450   3.728   8.612 -0.1529 -1.0210  0.3001
 7484SOL     OW34087   4.487   3.892   3.105  0.5224 -0.7880 -0.6550
 7484SOL    HW134088   4.563   3.903   3.047  1.4446 -2.0162  0.3453
 7484SOL    HW234089   4.520   3.831   3.170  1.1310 -0.7928 -0.9713
 7485SOL     OW34090   3.025   1.601   3.210  0.4254 -0.4151 -0.1028
 7485SOL    HW134091   3.095   1.655   3.245  1.3934  0.7917 -3.9481
 7485SOL    HW234092   2.993   1.557   3.288 -0.1836 -0.0241 -0.1297
 7486SOL     OW34093   0.563   4.434   8.297  0.1014 -0.1898 -0.2370
 7486SOL    HW134094   0.657   4.421   8.296  0.1914  0.3782  0.7244
 7486SOL    HW234095   0.534   4.355   8.343 -2.0974  0.6038 -0.2224
 7487SOL     OW34096   3.850   1.986  13.998  0.1117  0.4393  0.2883
 7487SOL    HW134097   3.843   1.895  14.026  1.2169  0.1966 -0.2136
 7487SOL    HW234098   3.943   1.988  13.977 -0.0710 -1.2388 -0.6419
 7488SOL     OW34099   3.968   3.913  16.452  0.3195  0.0156 -0.1602
 7488SOL    HW134100   4.017   3.843  16.495  0.7024  1.3974  1.6617
 7488SOL    HW234101   3.975   3.877  16.363  0.6433  0.1703 -0.1968
 7489SOL     OW34102   2.775   3.563   5.161  0.0878 -0.6974  0.5297
 7489SOL    HW134103   2.722   3.640   5.182 -0.4825 -0.5713 -1.3573
 7489SOL    HW234104   2.860   3.602   5.141 -0.9284  1.4579  0.4260
 7490SOL     OW34105   2.606   1.331  13.720 -0.0992  0.0536  0.0030
 7490SOL    HW134106   2.688   1.373  13.746 -0.4581  0.8518 -0.1420
 7490SOL    HW234107   2.548   1.346  13.794 -2.4641 -2.4872 -1.3287
 7491SOL     OW34108   3.299   0.842   3.769  0.0508  0.4459  0.4667
 7491SOL    HW134109   3.268   0.757   3.798 -1.2334  0.8251  0.2016
 7491SOL    HW234110   3.392   0.833   3.789  0.2022  0.4717 -0.2091
 7492SOL     OW34111   3.905   3.127   6.681  0.6584 -0.4491  0.2068
 7492SOL    HW134112   3.846   3.121   6.606  0.0210  0.8523  0.6016
 7492SOL    HW234113   3.881   3.044   6.722 -0.6509  0.8537  2.0806
 7493SOL     OW34114   3.361   0.414  14.576 -0.6951 -0.1861 -0.4086
 7493SOL    HW134115   3.363   0.354  14.650  0.9304 -0.3169 -0.5741
 7493SOL    HW234116   3.365   0.345  14.510  0.1862  1.4085 -1.9993
 7494SOL     OW34117   2.586   2.996   3.620  0.4984 -0.1236  0.0482
 7494SOL    HW134118   2.499   2.970   3.651 -1.1977  2.2371 -2.7661
 7494SOL    HW234119   2.596   3.086   3.653  1.5441  0.3503 -1.5734
 7495SOL     OW34120   1.415   1.793   5.967  0.0737 -0.3372 -0.1400
 7495SOL    HW134121   1.400   1.750   5.883  1.0183  1.3145 -1.1442
 7495SOL    HW234122   1.403   1.728   6.036 -0.7895 -0.9441 -0.8526
 7496SOL     OW34123   0.680   2.705   8.686 -0.0486  0.0565  0.0145
 7496SOL    HW134124   0.709   2.655   8.763 -2.3812 -2.0463 -0.4649
 7496SOL    HW234125   0.585   2.712   8.698  0.0310  0.7823  0.2148
 7497SOL     OW34126   2.983   4.569  15.065 -0.1380 -0.0067 -0.1996
 7497SOL    HW134127   3.048   4.556  14.996  0.3899  0.3722  0.2187
 7497SOL    HW234128   2.908   4.586  15.009  0.8103  1.7277 -0.9543
 7498SOL     OW34129   0.090   3.295   3.254 -0.1999 -0.5379 -0.1119
 7498SOL    HW134130   0.035   3.373   3.246  0.2097 -0.1213  0.9617
 7498SOL    HW234131   0.129   3.306   3.341  1.1722 -2.2596 -0.5163
 7499SOL     OW34132   0.255   0.849   5.205  0.0537 -0.3987 -0.7577
 7499SOL    HW134133   0.335   0.832   5.253  0.9726 -0.4850 -2.3174
 7499SOL    HW234134   0.195   0.875   5.275 -0.9497 -0.0558 -1.7514
 7500SOL     OW34135   3.084   2.733  16.128  0.8728 -0.6245  0.4568
 7500SOL    HW134136   3.009   2.770  16.081  1.1649 -1.0529 -0.3346
 7500SOL    HW234137   3.166   2.763  16.090  0.3960 -2.9727 -2.4740
 7501SOL     OW34138   2.990   0.619  14.449 -0.2416  0.1799 -0.2573
 7501SOL    HW134139   2.914   0.675  14.457  1.3550  2.0076  1.9556
 7501SOL    HW234140   2.990   0.576  14.535 -2.3338 -0.6549 -0.6631
 7502SOL     OW34141   3.288   1.971   3.825 -0.3413 -0.7325 -0.2008
 7502SOL    HW134142   3.226   1.899   3.842 -1.3065  0.4467  1.3344
 7502SOL    HW234143   3.278   1.982   3.731  1.1329 -1.7346 -0.4701
 7503SOL     OW34144   2.406   3.907  13.795  0.0378 -0.3293  0.4552
 7503SOL    HW134145   2.422   3.988  13.745  0.5759 -1.1148 -0.6461
 7503SOL    HW234146   2.322   3.876  13.759  1.5828 -0.9144 -2.6481
 7504SOL     OW34147   2.281   3.068   8.854 -0.0003 -0.4542 -0.0730
 7504SOL    HW134148   2.306   3.090   8.764  0.8354 -1.4025 -0.0841
 7504SOL    HW234149   2.187   3.056   8.840 -0.2311  0.8088  0.4467
 7505SOL     OW34150   2.323   2.164  12.656 -0.6859 -0.0349 -0.1310
 7505SOL    HW134151   2.326   2.083  12.708  1.9881 -1.0666 -1.9132
 7505SOL    HW234152   2.336   2.236  12.719  0.6268  0.6573 -1.2024
 7506SOL     OW34153   0.011   2.652  17.598  0.4711 -0.1060  0.9095
 7506SOL    HW134154   0.056   2.733  17.574  1.8849 -0.4425  2.3488
 7506SOL    HW234155   0.030   2.661  17.692  0.9861  0.1606  0.7779
 7507SOL     OW34156   0.739   2.734   3.790 -0.4564 -0.5292 -0.0332
 7507SOL    HW134157   0.655   2.772   3.816 -0.2663 -1.6509  2.2950
 7507SOL    HW234158   0.802   2.801   3.813  0.0419 -0.9890 -0.0636
 7508SOL     OW34159   3.534   4.177   2.788  0.7087  0.0028 -0.2451
 7508SOL    HW134160   3.558   4.215   2.873 -1.7246  1.0206 -0.0047
 7508SOL    HW234161   3.473   4.246   2.760 -0.2615 -1.1828 -1.0430
 7509SOL     OW34162   1.885   1.628   1.198  0.2218 -0.0873 -0.4368
 7509SOL    HW134163   1.977   1.632   1.173  0.4477 -1.0246  0.2562
 7509SOL    HW234164   1.860   1.720   1.183  0.2111 -0.0874 -0.4193
 7510SOL     OW34165   3.670   3.229   1.568 -0.1958 -0.3402  0.4207
 7510SOL    HW134166   3.586   3.274   1.576 -0.7735 -1.2538 -0.4348
 7510SOL    HW234167   3.654   3.184   1.485 -0.2518  1.3778 -0.5032
 7511SOL     OW34168   2.934   1.771   8.785 -0.6786 -0.6791  0.0664
 7511SOL    HW134169   2.895   1.740   8.703  0.7953  0.5164 -1.0868
 7511SOL    HW234170   3.024   1.739   8.775 -1.4639 -2.6711 -0.6110
 7512SOL     OW34171   2.893   2.341   6.221 -0.0845  0.9739  0.1263
 7512SOL    HW134172   2.852   2.367   6.139 -0.9484 -1.6817 -0.2691
 7512SOL    HW234173   2.851   2.263   6.256  0.2760  0.7159 -0.0125
 7513SOL     OW34174   4.527   2.216  11.681 -0.3456 -0.0057  0.2977
 7513SOL    HW134175   4.476   2.265  11.745 -1.0761 -0.6301  0.1844
 7513SOL    HW234176   4.534   2.129  11.719 -3.3778  0.5446  2.0807
 7514SOL     OW34177   1.632   3.495   2.246 -0.0701  0.2107 -0.2930
 7514SOL    HW134178   1.720   3.502   2.208  0.0991 -1.5926 -0.2723
 7514SOL    HW234179   1.609   3.408   2.212  2.0514  0.3618 -2.1280
 7515SOL     OW34180   0.498   1.107   5.056 -0.0406  0.0241  0.0061
 7515SOL    HW134181   0.499   1.066   4.970 -0.0947  1.2269 -0.5742
 7515SOL    HW234182   0.427   1.170   5.042  0.3286  0.1621 -1.2596
 7516SOL     OW34183   2.726   4.618   7.988  0.2219  0.4927 -0.2201
 7516SOL    HW134184   2.795   4.684   7.979 -0.7116  1.5672  0.4899
 7516SOL    HW234185   2.653   4.672   8.018 -0.7099 -1.1114  0.3887
 7517SOL     OW34186   4.637   2.726   7.500  0.0607 -0.1074  0.8970
 7517SOL    HW134187   4.579   2.656   7.470  1.2030 -0.9170  0.6300
 7517SOL    HW234188   4.589   2.807   7.480 -1.8257 -0.7774  2.6422
 7518SOL     OW34189   0.077   4.026   9.877  0.3351  0.4915  0.4146
 7518SOL    HW134190   0.061   4.073   9.959 -2.8956  0.5299 -0.2513
 7518SOL    HW234191   0.122   3.952   9.918  2.2052  1.6323  0.4284
 7519SOL     OW34192   1.356   4.710   2.836  0.2648 -0.2454 -0.4514
 7519SOL    HW134193   1.308   0.028   2.896 -1.7793 -1.3678 -1.0074
 7519SOL    HW234194   1.430   0.030   2.820 -1.2855  1.5673 -0.9885
 7520SOL     OW34195   1.874   3.025   6.599 -0.2543 -0.0618  0.6029
 7520SOL    HW134196   1.845   3.005   6.688 -0.7217 -1.2422  0.1848
 7520SOL    HW234197   1.958   3.067   6.618 -1.1806  2.1885 -0.2586
 7521SOL     OW34198   1.976   4.484   4.039  0.2746  0.3468  0.1407
 7521SOL    HW134199   1.988   4.556   4.100  0.8959 -0.5974  1.1345
 7521SOL    HW234200   1.883   4.507   4.030  0.4161  0.5818 -0.6846
 7522SOL     OW34201   2.517   3.931  10.966  0.3632  0.1832 -0.0243
 7522SOL    HW134202   2.574   3.982  10.909  0.4742 -1.8564 -1.7138
 7522SOL    HW234203   2.459   3.882  10.908  1.4878  0.2717 -1.2163
 7523SOL     OW34204   0.110   4.072   4.444  0.0282  0.0648  0.0716
 7523SOL    HW134205   0.192   4.078   4.492  1.7786 -2.3313 -2.6307
 7523SOL    HW234206   0.094   3.979   4.428  1.0259 -0.2018  0.6311
 7524SOL     OW34207   4.277   1.349  12.707  0.0764  0.3125 -0.0999
 7524SOL    HW134208   4.358   1.381  12.748 -0.5902  1.3633  0.4007
 7524SOL    HW234209   4.223   1.428  12.717  0.9497  1.0316 -0.9693
 7525SOL     OW34210   1.191   3.854   5.399  0.2480 -0.3309 -0.0602
 7525SOL    HW134211   1.248   3.861   5.322  1.2452  1.9564  0.9250
 7525SOL    HW234212   1.199   3.946   5.422  1.6408 -1.2897  3.2206
 7526SOL     OW34213   1.890   1.002  16.843  0.1722  0.6305  0.2288
 7526SOL    HW134214   1.812   0.957  16.877 -0.6480  0.6765 -1.5924
 7526SOL    HW234215   1.862   1.038  16.759  0.6999 -2.1267 -1.1594
 7527SOL     OW34216   3.409   3.525   3.041  0.2082  0.1979  0.2621
 7527SOL    HW134217   3.357   3.546   3.118 -0.6383  0.6018 -0.4215
 7527SOL    HW234218   3.372   3.438   3.028 -1.4590  1.2303 -1.8453
 7528SOL     OW34219   0.059   3.868  16.256 -0.1284 -0.2651 -0.8087
 7528SOL    HW134220   0.025   3.932  16.318 -1.1804  0.9222 -2.6120
 7528SOL    HW234221   0.150   3.860  16.285 -0.8824  1.9416  2.1349
 7529SOL     OW34222   4.336   3.962  15.828  0.3964 -0.4113 -0.2971
 7529SOL    HW134223   4.269   3.913  15.779  0.0315 -0.4175  0.2072
 7529SOL    HW234224   4.418   3.915  15.810  0.0663 -1.7268  1.6380
 7530SOL     OW34225   0.651   1.439  12.205  0.4624 -0.3580  0.0439
 7530SOL    HW134226   0.656   1.461  12.298  0.4240 -0.6288  0.1100
 7530SOL    HW234227   0.557   1.431  12.189  0.5458  1.8041 -1.4665
 7531SOL     OW34228   3.553   0.295  17.191  0.1250 -0.8560  0.1096
 7531SOL    HW134229   3.513   0.254  17.268 -0.8176 -0.1552 -0.0043
 7531SOL    HW234230   3.470   0.308  17.145  0.2197  0.7898  0.4030
 7532SOL     OW34231   0.493   4.188   6.768  0.6445 -0.1545  0.3166
 7532SOL    HW134232   0.430   4.197   6.839 -0.6224 -0.4241 -0.7755
 7532SOL    HW234233   0.449   4.230   6.693  0.5161  1.1961  1.1498
 7533SOL     OW34234   2.914   2.442   7.894 -0.3425 -0.2439 -0.1371
 7533SOL    HW134235   2.904   2.473   7.985 -0.2614 -0.9469  0.1107
 7533SOL    HW234236   2.830   2.454   7.850 -1.2750 -0.0402  1.6931
 7534SOL     OW34237   4.031   0.504   2.245  0.3408  0.3961 -0.6105
 7534SOL    HW134238   4.027   0.533   2.336 -1.2326  2.3243 -1.3030
 7534SOL    HW234239   3.996   0.415   2.251 -1.1389  0.8970 -1.6952
 7535SOL     OW34240   1.546   1.402   1.894  0.3755  0.4857  0.0689
 7535SOL    HW134241   1.462   1.405   1.849 -0.6343  0.3872  1.9447
 7535SOL    HW234242   1.532   1.444   1.978 -1.3786 -0.6306  0.3351
 7536SOL     OW34243   0.961   1.296  13.464  0.2100 -0.2478  0.6388
 7536SOL    HW134244   1.030   1.358  13.441 -0.1414 -0.8295 -2.0492
 7536SOL    HW234245   0.883   1.351  13.475  0.1197  0.0943 -1.6279
 7537SOL     OW34246   1.998   3.413  14.329  0.5798  1.0028 -0.3606
 7537SOL    HW134247   2.091   3.403  14.345 -0.0899 -2.6682  1.2403
 7537SOL    HW234248   1.960   3.432  14.415 -0.4364 -1.4274 -0.2536
 7538SOL     OW34249   2.119   2.924   7.376 -0.1801 -0.1358  0.3015
 7538SOL    HW134250   2.034   2.901   7.339 -0.6637 -1.2018  2.0772
 7538SOL    HW234251   2.188   2.936   7.312  1.0121 -1.2813  1.3557
 7539SOL     OW34252   3.768   4.512   6.916  0.1186  0.3646 -0.0082
 7539SOL    HW134253   3.807   4.427   6.893  1.2699  0.2165  2.4575
 7539SOL    HW234254   3.810   4.527   7.001 -0.5838 -1.9153  0.7613
 7540SOL     OW34255   1.636   1.242   8.913 -0.0557 -0.8460 -0.2146
 7540SOL    HW134256   1.704   1.174   8.911  0.4192 -0.4082  1.4766
 7540SOL    HW234257   1.653   1.276   9.000  2.2426 -2.1356 -0.1713
 7541SOL     OW34258   0.231   1.040   6.970 -0.2166 -0.0464 -0.2623
 7541SOL    HW134259   0.264   1.004   6.888  2.9609  0.4064  0.8520
 7541SOL    HW234260   0.308   1.078   7.010 -1.2540  2.0464 -0.2417
 7542SOL     OW34261   1.499   2.423   3.258 -0.4605  0.0385 -0.2562
 7542SOL    HW134262   1.412   2.392   3.283 -0.5255  0.1405 -0.3533
 7542SOL    HW234263   1.500   2.378   3.173 -1.0098  0.2293 -0.3663
 7543SOL     OW34264   1.948   3.810  13.594  0.0829  0.2949 -0.2232
 7543SOL    HW134265   1.858   3.842  13.596 -0.4230 -1.3007  2.3561
 7543SOL    HW234266   1.983   3.893  13.562 -0.4396  1.0280  1.1259
 7544SOL     OW34267   4.028   2.968  10.119 -0.0629 -0.0672  0.0835
 7544SOL    HW134268   3.955   2.995  10.175 -0.3112  2.2562 -1.3978
 7544SOL    HW234269   4.061   3.055  10.096  2.1063 -0.3891  2.0130
 7545SOL     OW34270   0.311   2.409  16.369  0.3456  0.6494  0.0388
 7545SOL    HW134271   0.270   2.439  16.450  3.5876  1.2298  1.4423
 7545SOL    HW234272   0.395   2.451  16.381  0.8888 -0.3561 -0.2169
 7546SOL     OW34273   2.956   0.400   1.587 -0.3137  0.1307 -0.7213
 7546SOL    HW134274   2.897   0.359   1.524  0.1676 -2.3133  0.3952
 7546SOL    HW234275   2.922   0.489   1.584 -0.0758  0.2157 -0.9730
 7547SOL     OW34276   3.210   3.309   5.262  0.1050 -0.2979  0.3324
 7547SOL    HW134277   3.194   3.217   5.238  2.4219 -0.5236 -0.3797
 7547SOL    HW234278   3.170   3.359   5.191  2.6930 -0.8847 -1.5794
 7548SOL     OW34279   3.087   3.437   8.098 -0.1880 -0.0789 -0.0081
 7548SOL    HW134280   3.003   3.478   8.077 -0.7181 -0.2431  1.7882
 7548SOL    HW234281   3.067   3.352   8.138  0.9810 -0.6595 -0.6296
 7549SOL     OW34282   3.744   0.885  15.586  0.2211  0.4667  0.0083
 7549SOL    HW134283   3.809   0.955  15.586  0.1896  0.4771 -1.9319
 7549SOL    HW234284   3.787   0.814  15.538 -0.2704 -0.3058  0.6905
 7550SOL     OW34285   4.270   2.364   7.670 -0.1893  0.1112  0.5208
 7550SOL    HW134286   4.279   2.459   7.673 -0.2431  0.1483 -0.7593
 7550SOL    HW234287   4.274   2.337   7.762  1.3060  2.2351  1.0643
 7551SOL     OW34288   4.359   0.609   0.934 -0.6376 -0.1513 -0.1656
 7551SOL    HW134289   4.395   0.648   0.855  0.0227 -2.4447 -1.0127
 7551SOL    HW234290   4.271   0.634   0.906 -0.8816 -0.9677 -0.1558
 7552SOL     OW34291   4.632   3.191   2.687 -0.4346 -0.1801  0.2708
 7552SOL    HW134292   4.682   3.115   2.658 -1.3857 -0.6352 -0.1926
 7552SOL    HW234293   4.555   3.198   2.631  0.3145  0.4250 -0.6749
 7553SOL     OW34294   0.773   2.147   3.472  0.2098 -0.3196  0.1515
 7553SOL    HW134295   0.777   2.085   3.399 -1.3924 -0.6855  0.3722
 7553SOL    HW234296   0.697   2.197   3.443 -2.2805 -4.8305 -1.1568
 7554SOL     OW34297   2.487   2.671   0.117  0.1747 -0.3994 -0.0391
 7554SOL    HW134298   2.557   2.624   0.072 -0.4096  0.5096 -1.8727
 7554SOL    HW234299   2.538   2.744   0.150  0.5453 -0.9549  0.6304
 7555SOL     OW34300   2.230   3.689  14.840  0.1869  0.2267  0.1940
 7555SOL    HW134301   2.156   3.629  14.846  1.0890 -0.8924  0.1997
 7555SOL    HW234302   2.274   3.671  14.757  0.4312  0.2835  0.3108
 7556SOL     OW34303   2.787   3.591  12.844  0.1814 -0.1904 -0.2945
 7556SOL    HW134304   2.782   3.568  12.937 -3.5339  1.6257 -0.0781
 7556SOL    HW234305   2.767   3.684  12.848  0.9580 -0.1258  1.9233
 7557SOL     OW34306   1.394   2.307   0.940 -0.0934 -0.0512 -0.4836
 7557SOL    HW134307   1.424   2.239   1.000  0.3682  1.2399  0.7618
 7557SOL    HW234308   1.470   2.313   0.881  0.3551 -0.0125  0.1001
 7558SOL     OW34309   0.202   1.453   5.687  0.2802  0.0646 -0.6922
 7558SOL    HW134310   0.277   1.394   5.680  0.5522  0.2943  0.4128
 7558SOL    HW234311   0.138   1.407   5.633  1.2522 -2.6262  0.4278
 7559SOL     OW34312   1.474   0.757   4.873  0.5923  0.0024 -0.5245
 7559SOL    HW134313   1.494   0.670   4.908  1.2351  0.1947 -0.4052
 7559SOL    HW234314   1.547   0.753   4.810  0.1901 -0.9413 -0.9318
 7560SOL     OW34315   3.201   1.203   5.509  0.3444  0.4016  0.0006
 7560SOL    HW134316   3.244   1.243   5.433  2.1533  0.1298  0.8727
 7560SOL    HW234317   3.142   1.274   5.535 -0.3869 -0.5511  0.9135
 7561SOL     OW34318   4.276   3.079  10.323  0.2128 -0.1704  0.1340
 7561SOL    HW134319   4.295   3.094  10.416  0.1005  0.1973  0.0930
 7561SOL    HW234320   4.221   3.001  10.327  0.2307 -0.1477  0.8611
 7562SOL     OW34321   2.177   1.490   7.425 -0.7452  0.2068 -0.2105
 7562SOL    HW134322   2.105   1.496   7.489 -0.1165  2.6426  0.2773
 7562SOL    HW234323   2.181   1.399   7.398  1.2973  0.7318 -1.6346
 7563SOL     OW34324   1.619   4.141  11.080  0.2891 -0.3657  0.2747
 7563SOL    HW134325   1.676   4.068  11.103  2.7183  1.7090  0.8319
 7563SOL    HW234326   1.568   4.140  11.161 -0.3121  1.7408 -0.0727
 7564SOL     OW34327   1.118   2.672   2.905 -0.0360  0.3127  0.4187
 7564SOL    HW134328   1.106   2.600   2.843 -1.2209  0.4219  0.5073
 7564SOL    HW234329   1.030   2.709   2.903  0.1996  0.7984 -0.5497
 7565SOL     OW34330   1.543   2.894   7.583  0.4339 -0.1335 -0.2779
 7565SOL    HW134331   1.601   2.970   7.575 -0.7073  0.7193 -0.4852
 7565SOL    HW234332   1.456   2.933   7.589  0.5385 -0.1463  1.5782
 7566SOL     OW34333   4.604   3.780   5.734  0.1683  0.0872  0.0172
 7566SOL    HW134334   4.535   3.720   5.761  0.6204 -1.4189 -2.1517
 7566SOL    HW234335   4.563   3.826   5.660  0.7292 -1.6256 -1.3678
 7567SOL     OW34336   1.776   0.430   6.712  0.4496  0.5329 -0.4664
 7567SOL    HW134337   1.786   0.501   6.776 -0.5219 -0.3656  0.6850
 7567SOL    HW234338   1.695   0.454   6.667  0.5273  0.5058 -0.6208
 7568SOL     OW34339   1.521   3.292   4.538 -0.1792 -0.4895 -0.3411
 7568SOL    HW134340   1.515   3.259   4.448 -2.7086  1.7639 -0.9869
 7568SOL    HW234341   1.604   3.339   4.538 -0.8395  0.6897  2.6862
 7569SOL     OW34342   2.681   4.377   3.927  0.1884 -0.5632  0.0023
 7569SOL    HW134343   2.738   4.317   3.975 -1.0293 -1.7079  0.0238
 7569SOL    HW234344   2.738   4.399   3.854 -0.0835 -1.8270 -0.5993
 7570SOL     OW34345   2.270   3.534   8.409  0.0128 -0.0865  0.0619
 7570SOL    HW134346   2.248   3.468   8.476  2.0104 -1.1957 -0.3674
 7570SOL    HW234347   2.334   3.579   8.465  1.6642 -0.7037 -1.3405
 7571SOL     OW34348   0.228   3.142   1.902  0.0162 -0.1664 -0.0055
 7571SOL    HW134349   0.156   3.098   1.858  0.8621 -3.0714  1.4727
 7571SOL    HW234350   0.295   3.074   1.912 -1.3077 -1.5079 -0.3210
 7572SOL     OW34351   2.627   1.790   7.990  0.1620 -0.1817 -0.5873
 7572SOL    HW134352   2.679   1.772   7.911  0.8953  2.2241 -0.6501
 7572SOL    HW234353   2.543   1.806   7.947 -0.1983 -1.3650 -0.3153
 7573SOL     OW34354   3.877   1.937  14.945 -0.0296  0.3642  0.0357
 7573SOL    HW134355   3.910   2.013  14.898  2.3000  0.2177  1.4345
 7573SOL    HW234356   3.792   1.973  14.972 -0.7575 -1.0732 -0.3464
 7574SOL     OW34357   0.110   0.168   2.183 -0.6084  0.0570 -0.0656
 7574SOL    HW134358   0.202   0.194   2.182 -0.3488 -0.7934  2.5875
 7574SOL    HW234359   0.104   0.120   2.266 -0.9954 -0.4454 -0.3864
 7575SOL     OW34360   0.927   0.021   6.536 -0.1116 -0.1925  0.5564
 7575SOL    HW134361   0.918   0.098   6.592 -1.8437 -0.2360  0.3338
 7575SOL    HW234362   1.013   0.024   6.494 -0.8197 -0.2052 -0.8949
 7576SOL     OW34363   3.354   2.424  14.315  0.4430  0.3310 -0.3304
 7576SOL    HW134364   3.318   2.381  14.238  0.7256 -0.2414 -0.1475
 7576SOL    HW234365   3.385   2.506  14.276 -1.2060  1.9021  1.6616
 7577SOL     OW34366   4.683   2.928  16.053 -0.0411  0.8280  0.3358
 7577SOL    HW134367   4.701   2.836  16.038 -0.8690  0.4495  1.7095
 7577SOL    HW234368   4.619   2.938  15.982  0.0412  1.6598  0.3763
 7578SOL     OW34369   0.649   2.575  14.473  0.0106  0.2371  0.5733
 7578SOL    HW134370   0.604   2.601  14.393 -1.5742  2.0787  2.0645
 7578SOL    HW234371   0.710   2.647  14.491  0.7529 -0.3891  0.5625
 7579SOL     OW34372   0.560   3.794   5.204  0.5335  0.0598  0.1099
 7579SOL    HW134373   0.527   3.864   5.148 -1.2914 -0.3615  0.6431
 7579SOL    HW234374   0.486   3.769   5.260  2.3653 -1.0253  2.0504
 7580SOL     OW34375   2.230   3.718  10.070  0.4535 -0.0703  0.1601
 7580SOL    HW134376   2.235   3.624  10.090 -0.7343  0.1933  1.6797
 7580SOL    HW234377   2.272   3.722   9.984 -2.0159  0.3594 -1.0193
 7581SOL     OW34378   0.973   2.488   5.920  0.0122  0.2556 -0.0680
 7581SOL    HW134379   1.059   2.508   5.958  0.6512 -0.8764 -0.9283
 7581SOL    HW234380   0.978   2.396   5.945 -0.6576 -0.0684 -1.1236
 7582SOL     OW34381   0.334   0.132  15.489  0.1351 -0.7105  0.1550
 7582SOL    HW134382   0.256   0.184  15.471  0.3476 -0.9622 -1.5424
 7582SOL    HW234383   0.399   0.160  15.424 -0.3688  0.0022 -0.0462
 7583SOL     OW34384   0.517   3.795   2.166  0.4427 -0.4917 -0.2619
 7583SOL    HW134385   0.497   3.712   2.209 -2.1225  0.1784 -0.1568
 7583SOL    HW234386   0.565   3.836   2.238  0.7107  0.1605 -0.8039
 7584SOL     OW34387   1.809   2.160   2.211 -0.5183 -0.1636  0.3370
 7584SOL    HW134388   1.731   2.114   2.180 -0.9224  1.0412 -0.3974
 7584SOL    HW234389   1.775   2.249   2.200  0.3015  0.4027  2.3269
 7585SOL     OW34390   3.688   2.687  12.956  0.0503 -0.0987 -0.1749
 7585SOL    HW134391   3.780   2.712  12.958  0.0269 -0.0074 -0.2649
 7585SOL    HW234392   3.690   2.630  12.879 -2.5640 -0.2258 -0.1343
 7586SOL     OW34393   3.698   1.848   3.313  0.1942 -0.4490  0.3675
 7586SOL    HW134394   3.629   1.794   3.352 -1.4539  1.6282  0.3702
 7586SOL    HW234395   3.769   1.814   3.368  1.5363  2.1742  0.2883
 7587SOL     OW34396   3.989   0.933  13.583 -0.2758 -0.3150 -0.1227
 7587SOL    HW134397   4.037   0.851  13.572  0.4932  0.1769 -0.4805
 7587SOL    HW234398   3.918   0.899  13.637 -1.9243  1.5439 -1.1114
 7588SOL     OW34399   0.433   0.518  11.730  0.2375 -0.0945 -0.3544
 7588SOL    HW134400   0.442   0.434  11.685  0.5831  0.4499 -1.3131
 7588SOL    HW234401   0.464   0.562  11.650  0.1032  2.0800  0.7999
 7589SOL     OW34402   4.610   1.586  15.205 -0.1454  0.8072  0.2679
 7589SOL    HW134403   4.598   1.595  15.299  0.0299 -1.8562  0.5334
 7589SOL    HW234404   4.519   1.606  15.181 -0.6024 -1.0822  0.4235
 7590SOL     OW34405   4.205   0.060   7.440 -0.1745  0.0801 -0.8198
 7590SOL    HW134406   4.243   4.738   7.504 -1.5851  0.3221  0.2522
 7590SOL    HW234407   4.115   0.055   7.474  0.6036  0.2321  1.2884
 7591SOL     OW34408   0.796   4.264  12.219 -0.5407 -0.9148  0.1570
 7591SOL    HW134409   0.750   4.313  12.151  0.1560 -0.6414 -0.1185
 7591SOL    HW234410   0.869   4.232  12.166 -0.1286  0.6076 -0.1781
 7592SOL     OW34411   4.291   2.896   3.502  0.5797  0.0179  0.3693
 7592SOL    HW134412   4.243   2.835   3.557  0.5601 -1.5755 -1.4328
 7592SOL    HW234413   4.377   2.898   3.545  0.3952 -2.0627  0.8266
 7593SOL     OW34414   1.721   0.941   0.904  0.2091  0.1615  0.4590
 7593SOL    HW134415   1.673   0.950   0.821  2.0869  3.9140 -0.2039
 7593SOL    HW234416   1.658   0.878   0.941 -0.9197  0.4806 -0.8741
 7594SOL     OW34417   1.477   3.578   9.967 -0.3731 -0.3392 -0.3012
 7594SOL    HW134418   1.499   3.630  10.044 -1.7851  0.8859 -0.7236
 7594SOL    HW234419   1.547   3.513   9.971 -0.9293 -0.8791  0.5425
 7595SOL     OW34420   3.169   4.148   2.772  0.2291 -0.0351  0.2827
 7595SOL    HW134421   3.185   4.208   2.699  0.8684 -4.0435 -2.8680
 7595SOL    HW234422   3.100   4.201   2.813 -0.1221 -0.6850  0.5305
 7596SOL     OW34423   3.284   1.165   4.898 -0.0148 -0.0097  0.1590
 7596SOL    HW134424   3.302   1.071   4.909 -1.8410 -0.3113  0.5999
 7596SOL    HW234425   3.259   1.160   4.806 -0.1589  0.6010  0.1648
 7597SOL     OW34426   3.589   4.488   0.763  0.6404  0.0489 -0.1287
 7597SOL    HW134427   3.508   4.534   0.787  2.4969  1.7711  2.8128
 7597SOL    HW234428   3.564   4.414   0.709  0.6402  0.7808 -1.1338
 7598SOL     OW34429   0.667   0.418   7.199 -0.4517 -0.5198  0.1612
 7598SOL    HW134430   0.589   0.392   7.150 -1.2769 -0.2561  1.3260
 7598SOL    HW234431   0.741   0.372   7.160  1.2721  0.0759  2.7183
 7599SOL     OW34432   1.106   3.891   9.403  0.2575 -0.6110  0.6669
 7599SOL    HW134433   1.019   3.923   9.428  0.3647 -0.2065  0.5289
 7599SOL    HW234434   1.094   3.833   9.328 -0.2335  2.2737 -1.5019
 7600SOL     OW34435   0.826   3.947   9.442  0.1790 -0.0393 -0.0510
 7600SOL    HW134436   0.816   3.863   9.486 -0.6981  0.9637  1.6234
 7600SOL    HW234437   0.780   3.941   9.358 -0.1734 -1.2437  0.2335
 7601SOL     OW34438   0.143   4.588   2.735  0.6718  0.1326  0.6042
 7601SOL    HW134439   0.193   4.617   2.811  0.2055  3.6188 -0.4023
 7601SOL    HW234440   0.116   4.669   2.691 -3.5209 -1.5578  0.0910
 7602SOL     OW34441   0.096   1.876   7.616  0.2496  0.7253  0.1084
 7602SOL    HW134442   0.025   1.815   7.596  1.0911 -0.2074 -0.0000
 7602SOL    HW234443   0.099   1.864   7.711  0.2959 -0.9490 -0.1088
 7603SOL     OW34444   2.709   1.498   9.148 -0.1941 -0.7834  0.3540
 7603SOL    HW134445   2.742   1.433   9.085 -0.9717 -0.8599  0.0250
 7603SOL    HW234446   2.728   1.578   9.100  1.8324 -1.0273  0.7490
 7604SOL     OW34447   3.989   0.339  16.049  0.0453  0.2412 -0.0207
 7604SOL    HW134448   3.898   0.366  16.062 -0.5886 -0.3667 -3.1918
 7604SOL    HW234449   3.984   0.267  16.113 -1.9860  0.0785 -0.3647
 7605SOL     OW34450   1.809   0.701   1.169 -0.3343 -0.1724  0.1745
 7605SOL    HW134451   1.773   0.747   1.244  0.5108  0.2692  0.3066
 7605SOL    HW234452   1.740   0.725   1.106  1.5292  1.1357 -1.3514
 7606SOL     OW34453   3.487   3.334   2.706 -0.2407  0.0617  0.1310
 7606SOL    HW134454   3.432   3.305   2.633  0.7169 -4.7131  1.2730
 7606SOL    HW234455   3.450   3.422   2.715  0.0873  0.2314 -0.1763
 7607SOL     OW34456   1.653   2.427  15.349  0.1283  0.6354  0.1560
 7607SOL    HW134457   1.745   2.402  15.349 -0.2728 -0.8193  0.9486
 7607SOL    HW234458   1.626   2.413  15.440 -1.8800 -1.9044 -0.8269
 7608SOL     OW34459   0.117   2.834   5.041 -0.5380  0.0933  0.0330
 7608SOL    HW134460   0.112   2.738   5.042  1.8671 -0.0369  0.4557
 7608SOL    HW234461   0.141   2.849   5.132 -0.4981 -0.2109  0.0740
 7609SOL     OW34462   2.091   0.400   1.650 -0.4649 -0.4545  0.0279
 7609SOL    HW134463   2.151   0.465   1.687  0.2370 -0.7204 -0.6463
 7609SOL    HW234464   2.129   0.317   1.679  0.7966  0.0911 -0.0593
 7610SOL     OW34465   1.005   2.146   7.222 -0.1710 -0.1080  0.2375
 7610SOL    HW134466   1.096   2.123   7.201  0.9647  3.2719  1.5833
 7610SOL    HW234467   0.955   2.064   7.220 -0.1002 -0.1476  0.0519
 7611SOL     OW34468   1.226   1.724   0.039  0.1049  0.1958 -0.2749
 7611SOL    HW134469   1.176   1.658  17.742 -1.1506  1.0926 -0.2103
 7611SOL    HW234470   1.160   1.743   0.106  0.6940 -0.4309  0.4841
 7612SOL     OW34471   3.072   3.493   7.108  0.0129 -0.3316 -0.3953
 7612SOL    HW134472   3.135   3.563   7.124 -0.5491  0.2287 -0.6018
 7612SOL    HW234473   3.077   3.449   7.192 -0.2862 -1.1536 -0.8085
 7613SOL     OW34474   1.971   2.121   7.993 -0.3261  0.1586  0.6102
 7613SOL    HW134475   1.929   2.201   7.960  0.4429  0.4382  0.3138
 7613SOL    HW234476   1.988   2.064   7.919  0.7395  0.3845  0.6772
 7614SOL     OW34477   4.138   2.683  17.148  0.2987 -0.3724 -0.5921
 7614SOL    HW134478   4.129   2.590  17.170 -1.1352  0.2243  1.3343
 7614SOL    HW234479   4.187   2.711  17.226 -0.2218  1.0319 -0.7866
 7615SOL     OW34480   0.894   2.640   2.159  0.2713  0.3092  0.1373
 7615SOL    HW134481   0.913   2.732   2.176  2.0849 -0.7669  4.0723
 7615SOL    HW234482   0.972   2.610   2.113  1.2944 -0.7971  2.5839
 7616SOL     OW34483   2.451   2.301   7.571  0.1711  0.4703 -0.1767
 7616SOL    HW134484   2.498   2.346   7.501  0.6479  1.0730  0.5305
 7616SOL    HW234485   2.456   2.367   7.641 -0.1657  1.2062 -0.8495
 7617SOL     OW34486   3.409   0.804   4.185 -0.2966  0.6128  0.2449
 7617SOL    HW134487   3.332   0.816   4.240 -0.5039  2.6291 -0.5044
 7617SOL    HW234488   3.471   0.867   4.222  1.0622  0.0821 -1.0944
 7618SOL     OW34489   1.108   1.881  12.851 -0.0923  0.2151  0.7213
 7618SOL    HW134490   1.092   1.975  12.838 -4.5675 -0.8019 -1.1137
 7618SOL    HW234491   1.084   1.885  12.944  1.9730  1.4276  1.1987
 7619SOL     OW34492   1.594   3.714   6.006  0.4268 -0.2708 -0.7827
 7619SOL    HW134493   1.517   3.761   6.039  0.5293 -1.1737  0.7408
 7619SOL    HW234494   1.663   3.766   6.047  1.0923 -2.4498  0.8837
 7620SOL     OW34495   3.350   0.662   9.482 -0.1922 -0.0806 -0.1876
 7620SOL    HW134496   3.356   0.576   9.525 -1.8193 -0.1845 -0.1826
 7620SOL    HW234497   3.285   0.715   9.527  0.2407 -1.1570  1.7156
 7621SOL     OW34498   1.746   4.298   8.595 -0.1270  0.0610  0.1343
 7621SOL    HW134499   1.669   4.243   8.607 -0.4942 -0.0645 -2.8310
 7621SOL    HW234500   1.816   4.250   8.639 -0.3596 -0.1402  0.2783
 7622SOL     OW34501   1.462   0.583   3.075  0.2539  0.1112  0.5346
 7622SOL    HW134502   1.449   0.660   3.019  0.8429  0.1608  0.4679
 7622SOL    HW234503   1.396   0.599   3.142  0.9484 -1.7329  1.6476
 7623SOL     OW34504   4.526   0.993   7.123 -0.4266 -0.0005  0.1985
 7623SOL    HW134505   4.575   0.928   7.173 -2.5584  0.2964  2.6648
 7623SOL    HW234506   4.458   1.002   7.190 -0.8147 -0.8213 -0.0885
 7624SOL     OW34507   1.930   0.057   7.459 -0.2063 -0.4580 -0.1306
 7624SOL    HW134508   1.983   0.032   7.536  0.4049 -0.1722 -0.4573
 7624SOL    HW234509   2.000   0.063   7.393  1.2675 -0.3540  1.4294
 7625SOL     OW34510   1.657   0.593   7.919  0.0192  0.0451 -0.2676
 7625SOL    HW134511   1.729   0.585   7.981 -0.7141 -1.3693  0.4198
 7625SOL    HW234512   1.643   0.504   7.886  0.0200 -0.1268  0.1887
 7626SOL     OW34513   0.188   1.003  12.734 -0.2642  0.6598 -0.1654
 7626SOL    HW134514   0.133   1.054  12.792 -3.7057  0.7030 -3.4469
 7626SOL    HW234515   0.247   0.962  12.797 -0.0592  0.1808 -0.6673
 7627SOL     OW34516   1.142   3.343  12.428  0.2736  0.3573  0.1571
 7627SOL    HW134517   1.172   3.315  12.342  0.0034 -1.3788  0.6370
 7627SOL    HW234518   1.221   3.320  12.476 -0.5401 -1.5722  0.5556
 7628SOL     OW34519   0.945   2.858   6.601  0.0432 -0.1581  0.3486
 7628SOL    HW134520   0.865   2.838   6.650 -0.5259 -1.2279 -1.0232
 7628SOL    HW234521   0.906   2.855   6.514  0.0197  2.8942  0.2288
 7629SOL     OW34522   3.114   3.759   3.099  0.5539 -0.2923 -0.5515
 7629SOL    HW134523   3.132   3.849   3.073  1.1187 -0.2769 -0.0990
 7629SOL    HW234524   3.137   3.760   3.191  2.0044 -1.2778 -0.8987
 7630SOL     OW34525   2.687   1.084  17.155 -0.0234 -0.2065  0.2129
 7630SOL    HW134526   2.725   1.157  17.106  0.2254  0.6045  1.6011
 7630SOL    HW234527   2.705   1.015  17.092 -2.9641 -0.1608 -0.7090
 7631SOL     OW34528   3.785   1.925   6.838  0.2328 -0.3827  0.0358
 7631SOL    HW134529   3.876   1.925   6.810  0.7793 -1.0367  1.7804
 7631SOL    HW234530   3.745   1.848   6.797 -0.2586 -0.3502  0.4527
 7632SOL     OW34531   0.375   0.472   5.940 -0.5832  0.3246  0.5033
 7632SOL    HW134532   0.290   0.506   5.912  0.1785  1.6673 -0.2129
 7632SOL    HW234533   0.358   0.384   5.972 -0.3836  0.6534  1.4941
 7633SOL     OW34534   3.866   0.579  10.068  0.0019 -0.3575 -0.4881
 7633SOL    HW134535   3.951   0.621  10.073 -1.0227  1.8035 -1.1722
 7633SOL    HW234536   3.865   0.513  10.137 -0.3562  0.2955  0.1362
 7634SOL     OW34537   0.200   3.586   9.082  0.5187  0.0312 -0.0309
 7634SOL    HW134538   0.198   3.494   9.056 -2.6740  0.4379 -1.1966
 7634SOL    HW234539   0.162   3.585   9.170  0.5232 -0.5657 -0.0323
 7635SOL     OW34540   1.535   2.682  16.094  0.3907 -0.1713 -0.0294
 7635SOL    HW134541   1.533   2.767  16.137  1.2289 -0.9435  1.5310
 7635SOL    HW234542   1.546   2.720  16.007 -0.1902  0.0718  0.0006
 7636SOL     OW34543   3.276   1.652   2.389  0.1475  0.9518  0.3881
 7636SOL    HW134544   3.247   1.577   2.441 -2.2359  1.1749 -0.6336
 7636SOL    HW234545   3.211   1.718   2.412 -1.7010  0.7258 -4.1726
 7637SOL     OW34546   2.949   3.722   2.388 -0.0123  0.3011  0.7731
 7637SOL    HW134547   3.015   3.657   2.365  1.1545  1.8586 -0.2803
 7637SOL    HW234548   2.920   3.739   2.299  2.5047 -0.4715 -0.1811
 7638SOL     OW34549   0.986   2.413   1.947 -0.0783  0.1655 -0.3566
 7638SOL    HW134550   0.906   2.360   1.941  1.7053 -2.6005  0.4549
 7638SOL    HW234551   0.998   2.411   2.042 -1.9114 -0.5826 -0.1413
 7639SOL     OW34552   2.777   3.122   5.384  0.7562 -0.4918 -0.4295
 7639SOL    HW134553   2.779   3.217   5.368  0.6372 -0.4706 -0.3139
 7639SOL    HW234554   2.844   3.114   5.452  1.0889 -1.9562 -0.9325
 7640SOL     OW34555   3.604   2.456  16.088 -0.6368 -0.2598  0.8356
 7640SOL    HW134556   3.522   2.505  16.084 -1.5948 -1.8257  1.1318
 7640SOL    HW234557   3.656   2.527  16.126  0.3053 -0.2976 -0.3878
 7641SOL     OW34558   1.050   1.463   7.828 -0.1115  0.2272 -0.4517
 7641SOL    HW134559   1.064   1.379   7.784  1.3643  0.3715 -0.2317
 7641SOL    HW234560   1.074   1.518   7.753 -0.4247 -2.2686 -2.4196
 7642SOL     OW34561   3.425   3.768   7.882 -0.4818  0.0473 -0.3125
 7642SOL    HW134562   3.457   3.843   7.931  2.5789  0.4148 -2.8225
 7642SOL    HW234563   3.397   3.719   7.959  0.0675  0.6242  0.2496
 7643SOL     OW34564   3.549   1.497  12.423  0.3562 -0.3517 -0.3763
 7643SOL    HW134565   3.489   1.572  12.432  0.5637 -0.2584  0.2134
 7643SOL    HW234566   3.485   1.429  12.398  0.0347 -0.8553  1.8307
 7644SOL     OW34567   2.572   1.516   1.898  0.5791  0.5445 -0.1592
 7644SOL    HW134568   2.481   1.514   1.928  1.8384  1.4741  3.8080
 7644SOL    HW234569   2.572   1.441   1.838  0.4345  0.5757 -0.1980
 7645SOL     OW34570   3.127   2.608   5.397 -0.3398 -0.1653 -0.2729
 7645SOL    HW134571   3.161   2.575   5.480  0.2182 -0.9421 -0.8141
 7645SOL    HW234572   3.070   2.534   5.376 -0.1870 -0.5181  0.5868
 7646SOL     OW34573   3.623   0.567   8.252  0.0439  0.2137  0.3985
 7646SOL    HW134574   3.715   0.573   8.227 -0.3163 -2.2804 -1.4936
 7646SOL    HW234575   3.582   0.605   8.174 -1.7179 -2.1780  0.1525
 7647SOL     OW34576   0.254   4.113  15.429 -0.4090  0.2187 -0.3748
 7647SOL    HW134577   0.295   4.149  15.507  1.9512 -1.6705 -0.7591
 7647SOL    HW234578   0.210   4.191  15.395  0.8835  0.9848 -0.2953
 7648SOL     OW34579   4.100   1.169   6.050 -0.0557 -0.3513  0.1294
 7648SOL    HW134580   4.032   1.173   6.118 -0.3462  0.0821 -0.1842
 7648SOL    HW234581   4.064   1.229   5.985 -3.3637 -2.6756 -0.2319
 7649SOL     OW34582   2.793   0.162   4.486  0.3305  0.3465  0.1776
 7649SOL    HW134583   2.710   0.138   4.446  1.3157 -1.9941 -0.4676
 7649SOL    HW234584   2.822   0.079   4.525 -0.5390  0.2534  0.6255
 7650SOL     OW34585   0.094   1.507   8.339 -0.0267  0.1782  0.1827
 7650SOL    HW134586   0.164   1.443   8.327  0.6794  0.8931  0.4881
 7650SOL    HW234587   0.020   1.459   8.301  2.2021  0.3989 -4.4825
 7651SOL     OW34588   1.127   0.752  12.960 -0.6155 -0.0941  0.8600
 7651SOL    HW134589   1.121   0.846  12.943 -0.8199 -0.4009 -0.7787
 7651SOL    HW234590   1.214   0.724  12.932 -0.6713 -0.2927  0.8824
 7652SOL     OW34591   2.709   3.411   5.375  0.3591  0.0015 -0.2498
 7652SOL    HW134592   2.729   3.444   5.287 -1.1333  2.1900  0.2335
 7652SOL    HW234593   2.722   3.487   5.432  1.7761 -1.1193  0.8945
 7653SOL     OW34594   0.517   1.815   6.384 -0.3256  0.1944 -0.4840
 7653SOL    HW134595   0.474   1.802   6.469 -3.9469 -0.3559 -2.3819
 7653SOL    HW234596   0.443   1.847   6.332 -1.5860 -1.5150  0.2490
 7654SOL     OW34597   0.147   3.285   9.073 -0.5020 -0.3814  0.1518
 7654SOL    HW134598   0.174   3.252   8.988 -0.4500  3.2799 -1.2521
 7654SOL    HW234599   0.073   3.225   9.083 -1.7626  0.9468 -1.1096
 7655SOL     OW34600   0.131   4.362  15.357  0.0918 -0.0119 -0.2945
 7655SOL    HW134601   0.098   4.404  15.437  1.2095  0.4443 -0.0617
 7655SOL    HW234602   0.053   4.365  15.302  0.3669  1.7351 -0.5942
 7656SOL     OW34603   2.698   0.575   4.331 -0.4320 -0.6473  0.5264
 7656SOL    HW134604   2.688   0.627   4.411 -0.6575 -0.9405  0.6899
 7656SOL    HW234605   2.653   0.493   4.349 -0.4451 -0.7951 -0.1976
 7657SOL     OW34606   1.499   0.115   8.004  0.4195  0.2382 -0.2727
 7657SOL    HW134607   1.528   0.173   8.074 -1.3604 -0.4751  1.0799
 7657SOL    HW234608   1.496   0.172   7.928  1.2439  1.4746  0.6192
 7658SOL     OW34609   0.526   2.519   4.840  0.2527  0.3578  0.1944
 7658SOL    HW134610   0.597   2.582   4.830  0.7550 -0.1696  0.4436
 7658SOL    HW234611   0.502   2.506   4.748 -2.3755  0.6848  0.8558
 7659SOL     OW34612   4.323   4.318   8.074  0.1871  0.5211 -0.1276
 7659SOL    HW134613   4.261   4.352   8.139  0.3286 -2.3940  1.5554
 7659SOL    HW234614   4.406   4.338   8.116  0.4902 -1.6451  0.3000
 7660SOL     OW34615   0.124   1.628   0.943  0.3527  0.0843 -0.0341
 7660SOL    HW134616   0.209   1.643   0.903  1.6708  0.2481  2.7841
 7660SOL    HW234617   0.075   1.642   0.862  1.8056  2.2611 -0.5463
 7661SOL     OW34618   2.755   2.628   1.426 -0.5856 -0.2965  0.3323
 7661SOL    HW134619   2.737   2.535   1.425 -2.3048  0.0511 -0.3080
 7661SOL    HW234620   2.695   2.648   1.499 -1.9141 -2.2857 -0.2224
 7662SOL     OW34621   2.758   0.911   7.769  0.0639 -0.3729 -0.1455
 7662SOL    HW134622   2.671   0.914   7.731 -0.0725 -0.8162  0.1300
 7662SOL    HW234623   2.742   0.938   7.859  1.5704 -0.8682  0.2702
 7663SOL     OW34624   2.204   2.457   2.070 -0.2535 -0.2711 -0.0171
 7663SOL    HW134625   2.220   2.515   2.145 -0.7755 -2.0599  1.4640
 7663SOL    HW234626   2.191   2.521   2.000  2.1895 -1.6208 -1.6949
 7664SOL     OW34627   3.968   0.135  12.121  0.4259 -0.4220 -0.0904
 7664SOL    HW134628   4.007   0.176  12.198  2.4312 -2.3501 -0.0891
 7664SOL    HW234629   4.014   0.185  12.053 -1.3802 -1.0599 -1.7894
 7665SOL     OW34630   1.258   3.999   8.774  0.8663  0.5109 -0.1329
 7665SOL    HW134631   1.192   3.969   8.836  0.2620 -0.6150 -1.3235
 7665SOL    HW234632   1.338   3.967   8.817 -1.4020  1.8309  5.0305
 7666SOL     OW34633   2.635   1.195  13.367 -0.0232 -0.0189 -0.4100
 7666SOL    HW134634   2.568   1.260  13.387  0.8422  0.5811  0.5233
 7666SOL    HW234635   2.720   1.234  13.388  0.8857 -1.1653 -1.9531
 7667SOL     OW34636   0.326   4.080   9.144 -0.5269  0.7230 -0.0559
 7667SOL    HW134637   0.384   4.005   9.154 -0.4876  0.8328  0.5914
 7667SOL    HW234638   0.369   4.119   9.068  0.1599  0.8647  0.3985
 7668SOL     OW34639   1.134   0.581  16.589  0.4890 -0.0220 -0.4310
 7668SOL    HW134640   1.163   0.659  16.635 -2.6799  0.9824 -0.1023
 7668SOL    HW234641   1.041   0.589  16.613  0.2680  1.0303 -1.6838
 7669SOL     OW34642   2.599   2.413  11.090  0.0072  0.2450  0.7958
 7669SOL    HW134643   2.523   2.368  11.127 -0.1180 -1.0754 -1.0512
 7669SOL    HW234644   2.658   2.399  11.163  0.7941 -0.8499 -0.0554
 7670SOL     OW34645   2.136   1.483   7.926  0.0868 -0.2387  0.2239
 7670SOL    HW134646   2.110   1.455   8.014  2.1580 -0.5555  0.7564
 7670SOL    HW234647   2.076   1.551   7.897 -2.8387 -2.1921  1.7327
 7671SOL     OW34648   2.556   2.857  15.582 -0.1976  0.2185 -0.5085
 7671SOL    HW134649   2.538   2.860  15.676  1.1435 -0.1202 -0.2499
 7671SOL    HW234650   2.633   2.911  15.567 -0.7284  0.6540 -1.6425
 7672SOL     OW34651   2.368   1.216   9.216 -0.5553  0.4056  0.3961
 7672SOL    HW134652   2.287   1.260   9.241 -1.3033 -1.2750  0.9765
 7672SOL    HW234653   2.404   1.199   9.303  0.1206 -1.3522 -0.2285
 7673SOL     OW34654   3.288   3.866  17.597  0.5815  0.1176  0.3846
 7673SOL    HW134655   3.369   3.869  17.546  0.5183  1.0392  0.3333
 7673SOL    HW234656   3.259   3.957  17.605  0.3788  0.1478 -0.8168
 7674SOL     OW34657   4.658   0.911  12.102  0.3804 -0.4982 -0.4280
 7674SOL    HW134658   0.012   0.891  12.119 -0.1301 -1.4426  1.2400
 7674SOL    HW234659   4.669   0.930  12.009  0.0311  2.6535  0.1668
 7675SOL     OW34660   4.122   2.634   5.453  0.0413  0.4383  0.3884
 7675SOL    HW134661   4.184   2.589   5.397  1.2840  0.7301  1.5268
 7675SOL    HW234662   4.059   2.562   5.460 -1.1547  1.2480 -1.8596
 7676SOL     OW34663   0.349   1.996   5.799  0.2320  0.6956  0.3931
 7676SOL    HW134664   0.388   2.005   5.886 -1.1332 -2.3007  1.3010
 7676SOL    HW234665   0.260   2.027   5.812 -0.1518 -0.2031 -0.0866
 7677SOL     OW34666   3.841   4.472  10.945  0.4675 -0.0444  0.5886
 7677SOL    HW134667   3.798   4.420  11.013 -0.5627 -1.2010 -0.9703
 7677SOL    HW234668   3.766   4.507  10.897 -1.3498 -2.0712  1.9354
 7678SOL     OW34669   1.880   1.197  14.693 -0.1149  0.2667 -0.2372
 7678SOL    HW134670   1.933   1.270  14.661  0.9893  0.4255  1.9638
 7678SOL    HW234671   1.916   1.172  14.778  0.2388  1.1458 -0.1360
 7679SOL     OW34672   4.708   2.309   8.642 -0.2060 -0.2031  0.6340
 7679SOL    HW134673   4.697   2.327   8.735 -1.2833 -1.2832  0.7237
 7679SOL    HW234674   0.038   2.242   8.636  1.4724  1.7223 -1.8530
 7680SOL     OW34675   2.766   4.384   8.208 -0.3182  0.0602  0.0564
 7680SOL    HW134676   2.820   4.324   8.156 -0.1869 -0.8371  1.2295
 7680SOL    HW234677   2.818   4.464   8.197  0.7543 -0.8516 -1.4956
 7681SOL     OW34678   0.461   2.221   2.102 -0.5301  0.2911 -0.2595
 7681SOL    HW134679   0.381   2.169   2.094 -0.9197  1.1191 -1.7951
 7681SOL    HW234680   0.440   2.310   2.075 -1.6660 -0.4028 -1.6858
 7682SOL     OW34681   0.212   0.041   6.278  0.2642 -0.0704 -0.1338
 7682SOL    HW134682   0.276   0.110   6.293 -0.1834 -0.1489  2.0592
 7682SOL    HW234683   0.129   0.085   6.261  1.3487  1.4051 -1.7254
 7683SOL     OW34684   0.088   0.352   0.516  0.5117 -0.0790 -0.5632
 7683SOL    HW134685   0.153   0.369   0.448 -0.0221 -1.2076 -1.3553
 7683SOL    HW234686   0.133   0.369   0.599 -1.7650  0.1965  0.6358
 7684SOL     OW34687   0.454   1.868   2.284 -0.3810 -0.5801  0.8836
 7684SOL    HW134688   0.501   1.822   2.215 -0.4604 -0.0429  0.4685
 7684SOL    HW234689   0.373   1.821   2.304 -1.1533  0.4689  0.2443
 7685SOL     OW34690   2.738   3.205   7.619  0.7503 -0.2392  0.3258
 7685SOL    HW134691   2.692   3.235   7.541 -0.0397  0.3552  1.0247
 7685SOL    HW234692   2.670   3.211   7.686 -0.0382  2.4912 -0.7300
 7686SOL     OW34693   3.474   1.708   3.142 -0.9011  0.4782 -0.1394
 7686SOL    HW134694   3.461   1.660   3.224 -0.0734  1.9267  0.8251
 7686SOL    HW234695   3.507   1.633   3.092  3.3148  1.8631  0.6155
 7687SOL     OW34696   1.834   0.155   5.509  0.5313 -0.1655  0.1891
 7687SOL    HW134697   1.880   0.152   5.593  0.9491  1.9927  0.0304
 7687SOL    HW234698   1.770   0.090   5.539  0.8030 -0.1780  0.7363
 7688SOL     OW34699   2.281   1.509  14.258  0.1910 -0.0536  0.1205
 7688SOL    HW134700   2.217   1.439  14.273  1.0101 -0.6028  0.9989
 7688SOL    HW234701   2.333   1.462  14.193  0.2502 -0.1746  0.2558
 7689SOL     OW34702   3.846   0.340   2.604 -0.4545 -0.3163  0.5812
 7689SOL    HW134703   3.813   0.427   2.584  0.8841  0.3824  1.4079
 7689SOL    HW234704   3.874   0.311   2.517  1.3064 -1.3453  1.4758
 7690SOL     OW34705   4.710   3.402  10.780 -0.0170  0.7713  0.8156
 7690SOL    HW134706   0.047   3.461  10.789  0.3383  0.1785  1.6869
 7690SOL    HW234707   4.664   3.426  10.860 -1.7259  0.6229 -0.1247
 7691SOL     OW34708   2.511   4.503  10.111 -0.1367  0.1351  0.5719
 7691SOL    HW134709   2.579   4.506  10.044  1.3307  1.5748  2.1417
 7691SOL    HW234710   2.569   4.514  10.186  0.9784  0.0364 -0.2736
 7692SOL     OW34711   2.003   2.805   5.615  0.2095 -0.9819 -0.1097
 7692SOL    HW134712   1.952   2.724   5.611 -1.8219  0.2322  1.0338
 7692SOL    HW234713   1.946   2.863   5.666  1.8174  1.1949 -0.8035
 7693SOL     OW34714   1.921   0.841   3.845 -0.6749  0.2295 -0.0473
 7693SOL    HW134715   1.972   0.760   3.849  1.4978  1.4525 -3.3013
 7693SOL    HW234716   1.989   0.905   3.865 -0.3571 -0.3318  0.6669
 7694SOL     OW34717   0.909   2.492   4.989 -0.2219  0.3738 -0.2550
 7694SOL    HW134718   0.855   2.517   5.064  3.4377  0.7615  2.2420
 7694SOL    HW234719   0.995   2.485   5.031 -0.5766 -0.0990  0.3899
 7695SOL     OW34720   4.111   3.437   4.786 -0.0700  0.8576 -0.3840
 7695SOL    HW134721   4.120   3.411   4.878 -2.0826 -0.0534 -0.4458
 7695SOL    HW234722   4.022   3.404   4.774  0.2744 -0.0699 -0.3663
 7696SOL     OW34723   2.987   4.713   4.859 -0.3192  0.0991 -0.1806
 7696SOL    HW134724   3.077   4.733   4.837  0.5031 -2.3001  0.9770
 7696SOL    HW234725   2.953   0.041   4.920  1.0709  1.3211 -0.7425
 7697SOL     OW34726   1.172   1.331   8.872 -0.0342  0.0625  0.1042
 7697SOL    HW134727   1.143   1.254   8.921 -0.3325  0.9077  1.2634
 7697SOL    HW234728   1.241   1.289   8.821  0.4649  0.0013  0.8266
 7698SOL     OW34729   3.491   3.180  16.978 -0.6709 -0.3449 -0.0184
 7698SOL    HW134730   3.546   3.114  17.021 -0.3205  0.1786  0.3284
 7698SOL    HW234731   3.525   3.179  16.889 -0.3342  0.8381  0.1048
 7699SOL     OW34732   0.543   4.213   9.549  0.0476  0.0736  0.3041
 7699SOL    HW134733   0.464   4.179   9.592  1.4068 -1.1289  1.8121
 7699SOL    HW234734   0.503   4.285   9.500 -0.6141 -0.0096  0.7202
 7700SOL     OW34735   3.701   3.771  10.153 -0.9177 -0.0395 -0.2411
 7700SOL    HW134736   3.775   3.751  10.211 -0.0148 -1.9060 -2.0317
 7700SOL    HW234737   3.745   3.771  10.067  0.0201 -0.6204  0.2365
 7701SOL     OW34738   4.522   2.228  15.150 -0.5772  0.7946  0.2729
 7701SOL    HW134739   4.542   2.138  15.176  0.1642  0.4334 -1.6068
 7701SOL    HW234740   4.614   2.254  15.140  0.6143 -3.1326  1.1908
 7702SOL     OW34741   2.743   0.537   9.193  0.1113 -0.0485 -0.0311
 7702SOL    HW134742   2.725   0.567   9.104 -3.1808 -0.3365  0.5469
 7702SOL    HW234743   2.657   0.508   9.221  0.4192 -0.3124  0.6509
 7703SOL     OW34744   3.551   2.741   1.165 -0.9869 -0.0781 -0.0466
 7703SOL    HW134745   3.596   2.658   1.179  0.2574  0.5590 -0.2341
 7703SOL    HW234746   3.619   2.784   1.113 -0.8215  0.0885  0.3046
 7704SOL     OW34747   3.216   4.488   8.281  0.6842  0.1949  0.0266
 7704SOL    HW134748   3.187   4.475   8.372 -1.6231 -0.7620 -0.8626
 7704SOL    HW234749   3.292   4.547   8.287 -1.3185  3.0259 -2.6119
 7705SOL     OW34750   0.376   4.169   8.901  0.2262 -0.2599 -0.7275
 7705SOL    HW134751   0.438   4.217   8.845  0.1931  1.4202  0.6828
 7705SOL    HW234752   0.292   4.199   8.868 -0.7946  1.0239  3.0864
 7706SOL     OW34753   1.249   3.644   1.852  0.5910  0.3672 -0.6017
 7706SOL    HW134754   1.287   3.645   1.765 -0.8985  2.7259 -1.2339
 7706SOL    HW234755   1.323   3.682   1.900 -0.0221  0.7714  0.0334
 7707SOL     OW34756   4.249   3.488   9.323 -0.7823 -0.4079  0.0294
 7707SOL    HW134757   4.283   3.563   9.372 -1.5484 -0.2493  0.3202
 7707SOL    HW234758   4.251   3.418   9.388 -1.6555 -0.7457 -0.3059
 7708SOL     OW34759   3.735   3.768  10.833  0.0853 -0.4369 -0.5575
 7708SOL    HW134760   3.770   3.812  10.910 -0.7831 -0.4251 -0.1699
 7708SOL    HW234761   3.817   3.754  10.784 -0.8574 -0.9017 -1.9955
 7709SOL     OW34762   0.161   2.677  15.683 -0.6057 -0.0655  0.2497
 7709SOL    HW134763   0.070   2.647  15.671 -0.0407 -2.0762  0.9229
 7709SOL    HW234764   0.195   2.638  15.764 -3.4464 -0.0155  1.4914
 7710SOL     OW34765   0.560   1.962   5.607  0.4961  0.0503 -0.5294
 7710SOL    HW134766   0.485   1.942   5.664  0.9177  0.9523  0.3604
 7710SOL    HW234767   0.512   1.977   5.526  0.3701  1.3338 -0.2274
 7711SOL     OW34768   3.981   1.518   4.978 -0.2621  0.0507 -0.3311
 7711SOL    HW134769   4.027   1.476   4.906 -1.5577  0.8819 -1.6379
 7711SOL    HW234770   3.960   1.605   4.944 -0.0890 -0.3197 -1.3591
 7712SOL     OW34771   4.405   0.225   7.822  0.2392 -0.1274  0.1928
 7712SOL    HW134772   4.450   0.185   7.896  2.6198  0.3151 -1.0378
 7712SOL    HW234773   4.331   0.165   7.806  1.3433 -1.5484  0.4351
 7713SOL     OW34774   0.682   0.283   9.988  0.3863 -1.4034  0.1958
 7713SOL    HW134775   0.737   0.326   9.923 -0.6947 -1.6418 -0.8659
 7713SOL    HW234776   0.710   0.195   9.963 -1.8826 -2.2566  0.6429
 7714SOL     OW34777   0.490   4.560   8.872 -0.4798 -0.5459  0.3627
 7714SOL    HW134778   0.487   4.483   8.929 -1.9806 -1.3427 -0.7769
 7714SOL    HW234779   0.514   4.518   8.789 -1.9950 -0.8415  0.0763
 7715SOL     OW34780   4.487   1.764  15.691  0.0244 -0.0092  0.1700
 7715SOL    HW134781   4.407   1.799  15.730 -0.0590 -1.3949  1.2340
 7715SOL    HW234782   4.517   1.715  15.767 -2.2061  0.4518  1.3536
 7716SOL     OW34783   0.999   3.370  10.131  0.2512 -0.2945 -0.1217
 7716SOL    HW134784   1.046   3.296  10.170  1.7308  1.8535  2.1756
 7716SOL    HW234785   0.915   3.356  10.176  0.4472  0.6601  0.5664
 7717SOL     OW34786   4.611   2.498   8.261 -0.9455 -0.2813  0.4444
 7717SOL    HW134787   4.579   2.567   8.204  0.0607 -0.2763 -0.0973
 7717SOL    HW234788   4.529   2.453   8.285 -1.1940  0.8124  1.6140
 7718SOL     OW34789   3.723   1.293   3.905 -0.2007  0.6464  0.3053
 7718SOL    HW134790   3.728   1.313   3.811 -0.2754  3.0442  0.7950
 7718SOL    HW234791   3.633   1.307   3.933 -0.3707  0.6437 -0.2316
 7719SOL     OW34792   0.583   4.699   3.417 -0.0564 -0.4738  0.0171
 7719SOL    HW134793   0.534   4.617   3.420 -1.0167  0.2119  2.7075
 7719SOL    HW234794   0.623   4.691   3.330 -1.2750  0.0512 -0.5749
 7720SOL     OW34795   2.497   2.252   8.326  0.1445 -0.2942  0.2389
 7720SOL    HW134796   2.447   2.175   8.353 -0.5282 -0.3757 -1.1981
 7720SOL    HW234797   2.558   2.210   8.264  2.1103 -1.1296  2.7320
 7721SOL     OW34798   1.297   2.571  14.381  0.6119 -0.5728  0.8459
 7721SOL    HW134799   1.347   2.586  14.462 -1.0961 -0.6466  1.9157
 7721SOL    HW234800   1.340   2.634  14.323 -0.0474 -0.9954 -0.0973
 7722SOL     OW34801   1.287   2.999   7.610 -0.0171  0.2264 -0.5767
 7722SOL    HW134802   1.303   3.086   7.645  2.0030 -0.0696 -0.7238
 7722SOL    HW234803   1.250   2.956   7.687  0.5180 -1.9739 -1.5342
 7723SOL     OW34804   4.642   1.726   8.416 -0.2398 -0.1308 -0.2285
 7723SOL    HW134805   4.669   1.704   8.505  0.9889 -1.8236 -1.0179
 7723SOL    HW234806   4.706   1.687   8.356 -1.2862 -1.1600 -0.6591
 7724SOL     OW34807   0.034   1.037   1.685 -0.2189  0.0079  0.0279
 7724SOL    HW134808   4.691   1.022   1.733 -1.0509 -2.5801 -2.1708
 7724SOL    HW234809   0.030   0.956   1.635 -0.7946  0.4505 -0.6433
 7725SOL     OW34810   0.671   4.437   6.373 -0.5844 -0.1380 -0.6653
 7725SOL    HW134811   0.660   4.481   6.457  0.3311 -0.5915 -0.3133
 7725SOL    HW234812   0.668   4.345   6.399  1.3026  0.0375  0.1928
 7726SOL     OW34813   2.808   0.358   3.701 -0.7877  0.2348  0.3844
 7726SOL    HW134814   2.825   0.327   3.789 -3.0155  0.2350  0.8132
 7726SOL    HW234815   2.759   0.284   3.665 -2.6031  0.7738  1.7557
 7727SOL     OW34816   2.226   0.631  15.097  0.4169 -0.9669 -0.0524
 7727SOL    HW134817   2.145   0.580  15.100 -0.1968  0.2105  3.0262
 7727SOL    HW234818   2.191   0.713  15.130  0.1251 -0.9196 -0.4782
 7728SOL     OW34819   1.730   0.104  13.731 -0.3021  0.1383  0.2188
 7728SOL    HW134820   1.669   0.150  13.673  0.1302  0.0162 -0.3387
 7728SOL    HW234821   1.672   0.033  13.757 -1.2735  1.0738  0.6050
 7729SOL     OW34822   1.675   1.851   2.025 -0.7136  0.0462 -0.3277
 7729SOL    HW134823   1.601   1.842   1.965 -0.8813  0.9857 -0.2539
 7729SOL    HW234824   1.645   1.919   2.085 -1.8388 -1.5594  0.9224
 7730SOL     OW34825   3.432   4.539  13.876  0.0747 -0.3748 -0.4125
 7730SOL    HW134826   3.354   4.557  13.824 -0.7009  0.1786  0.9530
 7730SOL    HW234827   3.497   4.565  13.811  0.8470  1.9678  1.2967
 7731SOL     OW34828   1.591   4.003   9.659  0.3827 -0.0183 -0.2006
 7731SOL    HW134829   1.512   4.033   9.614 -1.0263 -1.0619  1.5899
 7731SOL    HW234830   1.556   3.936   9.718 -0.7984 -0.0724 -0.9524
 7732SOL     OW34831   1.291   3.687   7.569 -0.1659 -0.0913 -0.3148
 7732SOL    HW134832   1.353   3.691   7.497  0.2839  0.4165  0.1068
 7732SOL    HW234833   1.333   3.626   7.630  0.4567 -0.4888 -1.1456
 7733SOL     OW34834   1.766   4.252   5.041 -0.4475  0.8086  0.2229
 7733SOL    HW134835   1.761   4.157   5.025 -0.4345  0.4051  2.6357
 7733SOL    HW234836   1.819   4.265   5.120  1.9170 -0.5311 -1.1171
 7734SOL     OW34837   4.452   4.391   2.075  0.0436  0.0132 -0.2706
 7734SOL    HW134838   4.459   4.377   1.981  3.5692 -0.9008  0.1135
 7734SOL    HW234839   4.484   4.305   2.102  0.8122  0.0277 -1.1302
 7735SOL     OW34840   1.289   3.029  15.490  0.2325  0.4682  0.5210
 7735SOL    HW134841   1.202   2.990  15.499 -0.1316  1.0950 -0.2571
 7735SOL    HW234842   1.347   2.964  15.528 -0.1844  0.6907  1.5334
 7736SOL     OW34843   3.637   1.956   0.036  0.0328 -0.3923  0.2950
 7736SOL    HW134844   3.592   1.950   0.120 -4.1280  0.5161 -1.8660
 7736SOL    HW234845   3.623   1.865   0.010  1.0761 -0.2065 -0.9373
 7737SOL     OW34846   2.216   4.089  17.737 -0.7288  0.2010  0.5571
 7737SOL    HW134847   2.162   4.019   0.023 -1.2575  1.3775  2.0624
 7737SOL    HW234848   2.185   4.101  17.647  0.3953 -0.0600  0.1376
 7738SOL     OW34849   2.964   1.675   6.237 -0.3152  0.2026  0.0738
 7738SOL    HW134850   2.926   1.708   6.155  0.7992  1.1126 -0.0734
 7738SOL    HW234851   2.896   1.612   6.262  1.5519 -1.8145  0.0326
 7739SOL     OW34852   1.875   1.524   4.076  0.0861  0.4441 -0.0877
 7739SOL    HW134853   1.799   1.466   4.074  0.0771  0.4248  0.8404
 7739SOL    HW234854   1.833   1.600   4.116  0.3464  0.9057 -0.6855
 7740SOL     OW34855   2.213   4.403  13.220 -0.4489 -0.4864  0.3842
 7740SOL    HW134856   2.188   4.354  13.143  1.9587 -0.1735 -0.6056
 7740SOL    HW234857   2.162   4.482  13.203 -0.5574 -0.4749  0.7562
 7741SOL     OW34858   3.162   3.998   5.649 -0.6091 -0.0170 -0.6234
 7741SOL    HW134859   3.146   4.033   5.561 -0.4366 -1.3570 -1.1809
 7741SOL    HW234860   3.179   4.083   5.691 -3.2191  1.4940 -2.6145
 7742SOL     OW34861   3.397   0.345   8.089  0.4326  0.1186  0.5736
 7742SOL    HW134862   3.395   0.392   8.172  1.7415  0.5991  0.3372
 7742SOL    HW234863   3.464   0.384   8.031  1.3123 -1.0396  0.8022
 7743SOL     OW34864   0.917   1.487   3.925 -0.1361  0.4647 -0.0528
 7743SOL    HW134865   0.993   1.437   3.955 -0.2540  1.2085  1.4677
 7743SOL    HW234866   0.965   1.528   3.852 -1.6020  0.7871 -0.8373
 7744SOL     OW34867   3.714   2.582  14.987  0.0168  0.0513 -0.2430
 7744SOL    HW134868   3.717   2.677  14.976  1.2518  0.1533  0.9054
 7744SOL    HW234869   3.796   2.563  14.940  0.4207 -1.0700  0.9121
 7745SOL     OW34870   3.825   3.688   5.718  0.1166  0.1100 -0.5290
 7745SOL    HW134871   3.891   3.725   5.661  0.3309  0.7138  0.1122
 7745SOL    HW234872   3.759   3.676   5.650  0.1369  1.6117 -0.8091
 7746SOL     OW34873   4.681   0.114  13.192 -0.8778 -0.0940 -0.1168
 7746SOL    HW134874   0.035   0.140  13.193 -0.3995 -1.8435  1.8195
 7746SOL    HW234875   4.647   0.178  13.255  0.1565  0.2111  0.1336
 7747SOL     OW34876   3.012   3.093   2.473 -0.3777 -0.0181 -0.7437
 7747SOL    HW134877   3.034   3.049   2.555  0.3705  1.8335  0.0533
 7747SOL    HW234878   3.025   3.186   2.493 -3.4094  0.0991  0.6352
 7748SOL     OW34879   2.697   2.243  16.840 -0.1042 -0.3918 -0.0791
 7748SOL    HW134880   2.762   2.302  16.804  1.0413 -2.1375 -0.8665
 7748SOL    HW234881   2.663   2.281  16.921  1.8502 -2.4768  1.7021
 7749SOL     OW34882   2.520   3.076   4.252  0.1015 -0.2384 -0.8995
 7749SOL    HW134883   2.486   3.116   4.332 -1.4322 -1.2445 -1.0441
 7749SOL    HW234884   2.538   2.986   4.279  0.7703  0.2248  0.1747
 7750SOL     OW34885   2.085   0.748  16.339  0.0455 -0.1186  0.3558
 7750SOL    HW134886   2.148   0.773  16.271  0.1160  0.3349  0.5824
 7750SOL    HW234887   2.007   0.718  16.292 -0.0461  0.4320  0.1561
 7751SOL     OW34888   1.549   1.354  10.414  0.4041 -0.0460 -0.0453
 7751SOL    HW134889   1.583   1.444  10.418  1.5076 -0.5598  2.1831
 7751SOL    HW234890   1.533   1.338  10.507  0.3091 -0.5022 -0.1420
 7752SOL     OW34891   0.514   2.224  12.624  0.0869 -0.1618 -0.0403
 7752SOL    HW134892   0.547   2.313  12.612 -0.3033 -0.5112 -3.7106
 7752SOL    HW234893   0.495   2.225  12.717  1.9356 -1.8724  0.3596
 7753SOL     OW34894   2.528   0.353  14.876  0.0462 -0.0136  0.5199
 7753SOL    HW134895   2.447   0.367  14.827 -0.7634 -3.0633  1.0007
 7753SOL    HW234896   2.501   0.372  14.966 -1.4046 -0.5487  0.1815
 7754SOL     OW34897   2.035   1.089   9.203 -0.1655  0.6468 -0.7469
 7754SOL    HW134898   1.965   1.037   9.241  1.1291 -0.9194 -0.4877
 7754SOL    HW234899   1.991   1.119   9.123  0.2024 -1.8556 -1.9231
 7755SOL     OW34900   1.479   2.659  10.579 -0.3312 -0.0909  0.2771
 7755SOL    HW134901   1.566   2.690  10.555 -0.0111  1.3323  3.2885
 7755SOL    HW234902   1.492   2.602  10.655  0.8842  1.2206  1.0574
 7756SOL     OW34903   2.094   4.186   3.621  0.2122 -0.2177  0.0945
 7756SOL    HW134904   2.091   4.213   3.529 -0.9425  1.9571  0.7682
 7756SOL    HW234905   2.005   4.204   3.652  0.5882 -0.0364  1.0740
 7757SOL     OW34906   4.249   4.483  15.126 -0.0870  0.2336  0.3137
 7757SOL    HW134907   4.316   4.526  15.179  0.2380 -0.1173  0.1791
 7757SOL    HW234908   4.172   4.511  15.176 -0.2573 -1.0384  0.7640
 7758SOL     OW34909   1.447   2.225   3.836 -0.1607  0.0851  0.3151
 7758SOL    HW134910   1.467   2.304   3.886  1.0458 -0.1799  0.2651
 7758SOL    HW234911   1.360   2.241   3.798  0.5367 -0.3288 -1.4812
 7759SOL     OW34912   1.892   1.609   3.528 -0.4763 -0.4941 -0.0288
 7759SOL    HW134913   1.854   1.691   3.558  0.8211  0.3465 -0.6735
 7759SOL    HW234914   1.877   1.550   3.601  0.1854  0.3984  0.8188
 7760SOL     OW34915   1.547   0.174   7.576  0.0066 -0.1927  0.4100
 7760SOL    HW134916   1.454   0.193   7.575  0.1616  0.6866  1.6928
 7760SOL    HW234917   1.577   0.230   7.505  2.1043 -2.1221 -0.2262
 7761SOL     OW34918   1.389   3.657  17.332 -0.4134  0.5671 -0.0953
 7761SOL    HW134919   1.325   3.638  17.263  0.7280  1.3147 -1.3531
 7761SOL    HW234920   1.474   3.690  17.301 -0.7805 -0.9990 -2.8016
 7762SOL     OW34921   2.742   1.612   6.965  0.3413 -0.0604 -0.1735
 7762SOL    HW134922   2.732   1.685   6.903 -0.4459 -0.6312 -0.7271
 7762SOL    HW234923   2.756   1.662   7.045  2.4317  0.1510 -0.6862
 7763SOL     OW34924   3.594   2.321   2.244 -0.3965  0.1009 -0.1863
 7763SOL    HW134925   3.594   2.225   2.246  0.2779  0.1151  0.8095
 7763SOL    HW234926   3.542   2.345   2.167 -0.5612 -1.9539 -0.7223
 7764SOL     OW34927   1.420   3.147   4.296  0.1553  0.5411 -0.4237
 7764SOL    HW134928   1.436   3.055   4.317 -0.0870  0.2273 -1.6134
 7764SOL    HW234929   1.453   3.147   4.206 -0.3820  2.9543 -0.6143
 7765SOL     OW34930   0.671   0.729  13.182  0.2939  0.0329  0.6455
 7765SOL    HW134931   0.627   0.813  13.174  0.7333  0.0712 -1.3083
 7765SOL    HW234932   0.622   0.671  13.123  0.9202  0.0749  0.0847
 7766SOL     OW34933   1.563   3.168   7.881  0.4371  0.0080  0.0869
 7766SOL    HW134934   1.487   3.207   7.837  0.7911 -1.0516 -1.4683
 7766SOL    HW234935   1.530   3.176   7.970  1.2542  1.0984  0.2866
 7767SOL     OW34936   0.696   1.037   2.444  0.6449  0.3338 -0.3397
 7767SOL    HW134937   0.651   1.120   2.461 -1.7107 -0.7640 -1.1827
 7767SOL    HW234938   0.733   1.056   2.357 -0.5860  0.3948 -0.8594
 7768SOL     OW34939   2.195   1.027  10.858 -0.5215 -0.1120  0.2224
 7768SOL    HW134940   2.145   1.107  10.873  0.8738  1.0126 -1.0960
 7768SOL    HW234941   2.173   1.007  10.767 -3.0148 -0.6191  0.9417
 7769SOL     OW34942   3.324   3.422   3.472 -0.1014 -0.2302 -0.3088
 7769SOL    HW134943   3.296   3.467   3.392  0.6709 -0.5719 -0.7684
 7769SOL    HW234944   3.330   3.328   3.453  1.9883 -0.0760 -0.3370
 7770SOL     OW34945   2.640   3.115   7.866  0.0460 -0.0391  0.1670
 7770SOL    HW134946   2.636   3.149   7.956  1.3867  1.5604 -0.3877
 7770SOL    HW234947   2.636   3.021   7.882 -0.8338  0.4040  2.6267
 7771SOL     OW34948   4.013   3.763  10.784 -0.3961  0.8763 -0.1507
 7771SOL    HW134949   4.095   3.793  10.825  0.1266 -1.1457  0.2671
 7771SOL    HW234950   3.991   3.851  10.754  1.0012  1.2723 -0.0276
 7772SOL     OW34951   0.869   2.799   2.895  0.1562  0.0809  0.2008
 7772SOL    HW134952   0.805   2.765   2.833 -0.6464  0.3074  0.9166
 7772SOL    HW234953   0.813   2.863   2.939  3.1715  2.8615  0.0314
 7773SOL     OW34954   1.601   0.601   7.114  0.4621  0.1940  0.1009
 7773SOL    HW134955   1.670   0.644   7.167  1.0654  1.0252 -1.3585
 7773SOL    HW234956   1.524   0.651   7.140  0.5621  0.8330 -0.8271
 7774SOL     OW34957   4.425   1.738   4.931  1.0581 -0.2049  0.0602
 7774SOL    HW134958   4.349   1.784   4.965  0.6666  0.8303 -2.2041
 7774SOL    HW234959   4.474   1.800   4.876  2.0972  0.6951  2.0144
 7775SOL     OW34960   4.577   0.430   7.872 -0.5894  0.2864  0.4408
 7775SOL    HW134961   4.502   0.374   7.853 -0.6763  1.3242 -2.2356
 7775SOL    HW234962   4.608   0.465   7.789 -5.1188  1.4633 -0.7420
 7776SOL     OW34963   2.523   2.089   6.394 -0.1019 -0.7967  0.2497
 7776SOL    HW134964   2.471   2.012   6.415 -0.7356 -0.7514 -1.1172
 7776SOL    HW234965   2.574   2.050   6.323 -0.1176  1.0553 -0.8002
 7777SOL     OW34966   0.978   1.327  10.405  0.4484  0.1430  1.0299
 7777SOL    HW134967   0.988   1.407  10.353  0.2745 -0.7653 -0.3987
 7777SOL    HW234968   1.069   1.299  10.415  0.6878  0.0718 -1.4028
 7778SOL     OW34969   0.977   2.830   8.646  0.5951 -0.3746 -0.3371
 7778SOL    HW134970   0.882   2.832   8.654  0.4464  1.0384 -2.7740
 7778SOL    HW234971   1.006   2.896   8.709  0.3607 -0.5710 -0.0223
 7779SOL     OW34972   0.363   4.453   4.739 -0.6842 -0.0527 -0.4096
 7779SOL    HW134973   0.375   4.483   4.829 -1.9731  0.9233 -0.5645
 7779SOL    HW234974   0.282   4.403   4.745 -1.3197  1.1516  1.0881
 7780SOL     OW34975   3.353   0.390   7.105 -0.7326  0.0768 -0.1570
 7780SOL    HW134976   3.388   0.301   7.104 -0.8438  0.0712 -2.4601
 7780SOL    HW234977   3.404   0.426   7.033 -0.5935 -0.5231 -0.3601
 7781SOL     OW34978   3.324   3.388   2.154  0.0401 -0.0387  0.0395
 7781SOL    HW134979   3.410   3.345   2.151 -0.8210 -1.7104 -0.3651
 7781SOL    HW234980   3.333   3.439   2.074  1.7964 -1.5614 -0.7428
 7782SOL     OW34981   4.206   0.781   7.203  0.0699  0.0138  0.2298
 7782SOL    HW134982   4.174   0.870   7.188 -1.1124 -0.6468 -1.2576
 7782SOL    HW234983   4.222   0.753   7.113 -0.4901 -3.0394  1.0953
 7783SOL     OW34984   0.121   0.080   7.888  0.4382 -0.2159 -0.0464
 7783SOL    HW134985   0.113   0.152   7.950  1.6015 -0.8245  0.8296
 7783SOL    HW234986   0.101   0.119   7.804  2.2295 -1.7359 -1.1863
 7784SOL     OW34987   4.066   0.131   9.508  0.6808  0.0724 -0.2631
 7784SOL    HW134988   4.032   0.156   9.594 -0.0566  0.7237 -0.7397
 7784SOL    HW234989   4.039   0.039   9.515  0.0006  0.1571 -1.8761
 7785SOL     OW34990   2.853   0.228   3.429  0.2121 -0.2683  0.0683
 7785SOL    HW134991   2.770   0.203   3.470  0.1612 -0.8019 -0.3647
 7785SOL    HW234992   2.889   0.142   3.405  2.5876  0.7840 -0.1713
 7786SOL     OW34993   0.940   3.786   7.025  0.3276  0.3661  0.2025
 7786SOL    HW134994   0.909   3.827   7.105 -0.4516  2.8274 -1.3423
 7786SOL    HW234995   0.915   3.695   7.040  3.0219 -0.1651  1.3882
 7787SOL     OW34996   1.018   4.043   3.517 -0.4952  0.2057  0.2231
 7787SOL    HW134997   1.082   4.095   3.468 -0.6935 -0.9727 -1.2717
 7787SOL    HW234998   1.064   3.976   3.567  0.8826 -2.1376 -4.2214
 7788SOL     OW34999   2.957   0.319   4.337 -0.3987  0.2241  0.0602
 7788SOL    HW135000   2.912   0.303   4.255 -0.4952  0.9033 -0.0213
 7788SOL    HW235001   2.908   0.265   4.399  0.8504  0.8651  1.6263
 7789SOL     OW35002   4.227   0.687   9.058  0.4582  0.1807  0.6439
 7789SOL    HW135003   4.247   0.772   9.099 -0.9183  0.9156 -0.2281
 7789SOL    HW235004   4.304   0.632   9.074 -1.4865 -2.5889  0.4599
 7790SOL     OW35005   1.877   2.545  12.020 -0.3003  0.1002  0.7214
 7790SOL    HW135006   1.857   2.639  12.013  1.0166  0.4600  1.9479
 7790SOL    HW235007   1.967   2.552  12.050 -0.0129 -0.4000 -0.0197
 7791SOL     OW35008   4.506   2.700   8.076 -0.4880  0.4734 -0.4354
 7791SOL    HW135009   4.530   2.656   7.995 -1.2133 -1.2068  0.2803
 7791SOL    HW235010   4.419   2.732   8.053  0.6465  2.4769 -1.9262
 7792SOL     OW35011   3.215   2.887   9.918  0.1928  0.7941  0.6592
 7792SOL    HW135012   3.223   2.794   9.898 -1.3366  1.2665 -2.0518
 7792SOL    HW235013   3.253   2.922   9.837 -0.0230 -1.5968 -0.4742
 7793SOL     OW35014   3.691   2.305   5.442  0.0813  0.0387  0.2784
 7793SOL    HW135015   3.656   2.216   5.434 -1.3923  0.6476 -0.0436
 7793SOL    HW235016   3.686   2.327   5.535 -1.0500  0.7869  0.0399
 7794SOL     OW35017   1.151   2.005  13.993  0.4217 -0.8111  0.4542
 7794SOL    HW135018   1.210   2.068  14.034  0.4244 -1.0515  0.8156
 7794SOL    HW235019   1.102   2.068  13.939 -0.3111  0.0845  2.1631
 7795SOL     OW35020   0.310   1.924  17.005 -0.1628 -0.6175 -0.4156
 7795SOL    HW135021   0.361   1.910  16.925  1.2734 -0.0903  0.4114
 7795SOL    HW235022   0.372   1.886  17.068  0.4499  1.0958  0.0176
 7796SOL     OW35023   1.633   2.054   7.806  0.0499 -0.3955  0.0135
 7796SOL    HW135024   1.656   2.140   7.841 -0.2564 -0.2830 -0.0622
 7796SOL    HW235025   1.625   2.000   7.885  1.4824 -0.2842  0.2252
 7797SOL     OW35026   0.106   0.778   5.607 -0.1256 -0.7503  0.2166
 7797SOL    HW135027   0.037   0.712   5.614  0.0157 -0.9065  0.1384
 7797SOL    HW235028   0.084   0.821   5.524  0.7788 -2.4729 -0.9174
 7798SOL     OW35029   2.505   3.891   4.899 -0.1577  0.0962 -0.3163
 7798SOL    HW135030   2.454   3.857   4.973  0.4290 -1.2993 -0.5448
 7798SOL    HW235031   2.592   3.895   4.939 -0.0298 -0.7920 -0.4979
 7799SOL     OW35032   1.303   1.304   3.807 -0.1356 -0.1822 -0.1199
 7799SOL    HW135033   1.280   1.255   3.886 -1.9349  0.8453 -0.0115
 7799SOL    HW235034   1.283   1.245   3.735  0.5897  0.1011 -0.5599
 7800SOL     OW35035   2.715   0.591   5.149  0.4147  0.1696 -0.0408
 7800SOL    HW135036   2.782   0.527   5.173 -2.6443 -3.2950 -0.7266
 7800SOL    HW235037   2.752   0.678   5.163  0.3477  0.2308 -0.2441
 7801SOL     OW35038   0.076   4.466   6.906 -0.7618  0.4552  0.1336
 7801SOL    HW135039   0.151   4.417   6.872  1.2989  0.6706  4.2962
 7801SOL    HW235040   0.014   4.459   6.833 -0.3466  0.0431 -0.1766
 7802SOL     OW35041   2.552   0.539   3.688  0.0581 -0.5129 -0.2970
 7802SOL    HW135042   2.555   0.444   3.697  0.1524 -0.5388 -0.5905
 7802SOL    HW235043   2.595   0.563   3.770 -1.9036 -0.0998  0.6040
 7803SOL     OW35044   1.421   1.154   4.611  0.3001  0.1356  0.3010
 7803SOL    HW135045   1.463   1.153   4.697 -1.2449 -0.5520  1.0458
 7803SOL    HW235046   1.431   1.247   4.591 -0.0289  0.1909  0.3881
 7804SOL     OW35047   3.917   3.566  12.923 -0.3725  0.6770 -0.5650
 7804SOL    HW135048   3.996   3.520  12.895 -0.7274 -0.7265  0.7316
 7804SOL    HW235049   3.883   3.558  12.834 -0.3431 -1.5477 -0.3910
 7805SOL     OW35050   3.169   3.089   2.991  0.7381  0.2450  0.0780
 7805SOL    HW135051   3.074   3.078   2.980  0.8200 -1.9031  1.4574
 7805SOL    HW235052   3.198   3.070   2.902  2.9496  0.6626  0.7108
 7806SOL     OW35053   2.307   2.653   2.212  0.3106  0.6441 -0.5122
 7806SOL    HW135054   2.398   2.627   2.198  0.5522  1.4221 -0.3607
 7806SOL    HW235055   2.320   2.736   2.258 -2.7541  0.6126  0.4651
 7807SOL     OW35056   0.404   2.996   6.301 -0.3636  0.3793  0.1573
 7807SOL    HW135057   0.414   2.974   6.208 -0.4043 -1.1327  0.5260
 7807SOL    HW235058   0.311   2.979   6.317 -0.4354  0.5619 -0.0555
 7808SOL     OW35059   2.505   2.734   3.892  0.2447  0.0842  0.3041
 7808SOL    HW135060   2.561   2.730   3.969  2.2624 -1.4596 -1.2493
 7808SOL    HW235061   2.489   2.827   3.875  0.7762 -0.2744 -2.1242
 7809SOL     OW35062   1.746   0.439   5.471 -0.5512 -0.5128  0.4538
 7809SOL    HW135063   1.666   0.404   5.511  0.4521 -0.5956  2.3906
 7809SOL    HW235064   1.784   0.357   5.438 -1.2309 -0.1048 -1.3247
 7810SOL     OW35065   0.130   1.080   7.679 -0.0774  0.1103 -0.0465
 7810SOL    HW135066   0.142   0.998   7.631 -0.5524 -1.5884  2.7376
 7810SOL    HW235067   0.214   1.122   7.664  0.9561 -0.7472  3.2751
 7811SOL     OW35068   2.971   3.813   6.931 -0.6787 -0.1631 -0.1700
 7811SOL    HW135069   2.998   3.730   6.892  1.2501  0.1622  0.4696
 7811SOL    HW235070   3.034   3.804   7.002 -0.6295 -2.2489 -0.4884
 7812SOL     OW35071   2.744   2.535   1.807 -0.0925  0.1925  0.1091
 7812SOL    HW135072   2.705   2.460   1.852  1.3575 -0.8587 -0.3505
 7812SOL    HW235073   2.686   2.542   1.731  2.1870  0.7083 -1.5911
 7813SOL     OW35074   2.413   0.734   6.745  0.2303 -0.0175 -0.2074
 7813SOL    HW135075   2.391   0.688   6.826  1.9116 -1.8861 -0.7841
 7813SOL    HW235076   2.409   0.666   6.678  0.0762  0.3924 -0.6122
 7814SOL     OW35077   3.577   3.289   4.349 -0.0665 -0.3137  0.3838
 7814SOL    HW135078   3.654   3.238   4.374 -0.1809 -1.2398 -1.1203
 7814SOL    HW235079   3.555   3.324   4.435 -0.9556  1.0804 -0.4130
 7815SOL     OW35080   2.608   0.956   8.324  0.1473 -0.2372 -0.4303
 7815SOL    HW135081   2.649   0.986   8.405 -0.5017  0.9657 -0.5601
 7815SOL    HW235082   2.522   0.928   8.356 -0.2934 -0.7290 -2.0646
 7816SOL     OW35083   0.770   3.281   4.933 -0.0098  0.1552  0.4448
 7816SOL    HW135084   0.766   3.367   4.892 -0.5069  0.0229  0.2114
 7816SOL    HW235085   0.774   3.302   5.026  0.4830 -1.6497  0.8360
 7817SOL     OW35086   4.234   0.725   7.913 -0.1996  0.7252 -0.2573
 7817SOL    HW135087   4.234   0.633   7.939  1.1042  1.0437  0.9302
 7817SOL    HW235088   4.227   0.710   7.819 -1.9400 -0.3078  0.0383
 7818SOL     OW35089   3.186   1.320   8.169  0.3381 -0.2296 -0.1854
 7818SOL    HW135090   3.185   1.253   8.100  0.3573  0.2259 -0.6273
 7818SOL    HW235091   3.266   1.302   8.219 -1.1503 -2.2594  1.4755
 7819SOL     OW35092   3.343   1.141   2.707 -0.4739  0.0726  0.0251
 7819SOL    HW135093   3.333   1.172   2.797  0.1018 -1.3204  0.5591
 7819SOL    HW235094   3.382   1.221   2.672 -0.9935 -1.0844 -3.1679
 7820SOL     OW35095   3.362   3.108   4.717 -0.1705 -0.2543  0.0997
 7820SOL    HW135096   3.320   3.034   4.760  0.2824  1.3646  3.3280
 7820SOL    HW235097   3.293   3.174   4.708  1.7766  1.9949  1.5797
 7821SOL     OW35098   2.564   1.859  14.830 -0.6716 -0.8927  0.5940
 7821SOL    HW135099   2.598   1.940  14.866 -0.7864 -0.9316  0.7912
 7821SOL    HW235100   2.643   1.805  14.820  0.0101  0.4158 -1.0863
 7822SOL     OW35101   0.905   0.365   2.255 -0.4636 -0.7342 -0.2189
 7822SOL    HW135102   0.850   0.413   2.317 -1.1484 -2.2720  0.3556
 7822SOL    HW235103   0.947   0.303   2.314  1.5955  3.3785  2.6422
 7823SOL     OW35104   4.659   4.074   2.205 -0.1775  0.2567 -0.8388
 7823SOL    HW135105   4.699   4.127   2.135  0.3773 -1.8181 -2.0820
 7823SOL    HW235106   4.720   4.001   2.205 -0.6968 -0.1708  0.8254
 7824SOL     OW35107   0.099   2.125   5.865  0.2075 -0.9567  0.2363
 7824SOL    HW135108   0.018   2.161   5.829  0.7142 -0.2342 -0.1982
 7824SOL    HW235109   0.127   2.203   5.912  0.3895 -0.4420 -0.7121
 7825SOL     OW35110   1.040   4.437  15.994  0.7579 -0.2708  0.1893
 7825SOL    HW135111   0.956   4.395  15.974  0.5969  0.1286  0.0415
 7825SOL    HW235112   1.012   4.486  16.071  0.7632  1.3242 -0.8198
 7826SOL     OW35113   0.692   2.507   2.615 -0.7920 -0.0691  0.0071
 7826SOL    HW135114   0.727   2.426   2.653 -0.2990  0.0927 -0.1032
 7826SOL    HW235115   0.691   2.476   2.524  0.8997 -0.2595  0.0446
 7827SOL     OW35116   1.728   3.466   4.571 -0.3739  0.5070  0.7206
 7827SOL    HW135117   1.761   3.550   4.602  1.1411  0.4741 -0.8288
 7827SOL    HW235118   1.793   3.399   4.588  1.0801  2.1105  1.4832
 7828SOL     OW35119   0.806   2.882   7.719 -0.4405  0.6583 -0.7061
 7828SOL    HW135120   0.728   2.856   7.767  0.8021 -1.6876  0.0638
 7828SOL    HW235121   0.779   2.856   7.631  1.6329 -0.8528 -0.9285
 7829SOL     OW35122   0.493   0.009   0.525 -0.3301 -0.0065  0.2219
 7829SOL    HW135123   0.585   0.008   0.498 -0.6491  3.4572 -1.0503
 7829SOL    HW235124   0.452   4.710   0.447  0.5032 -2.9506  1.2032
 7830SOL     OW35125   2.162   4.663   4.248  0.1558  0.8449  0.2331
 7830SOL    HW135126   2.229   4.595   4.257 -1.3526 -0.8616 -1.3710
 7830SOL    HW235127   2.097   4.618   4.301 -0.0251  1.0276  0.1680
 7831SOL     OW35128   2.706   4.369   2.072 -0.5822  0.6333  0.0503
 7831SOL    HW135129   2.665   4.302   2.127 -1.2372  0.9165 -0.0966
 7831SOL    HW235130   2.768   4.311   2.027 -0.9427  0.3076 -0.0215
 7832SOL     OW35131   3.351   2.585   2.723  0.2142  0.3322 -0.0562
 7832SOL    HW135132   3.413   2.513   2.708  0.9130  1.1437 -1.0269
 7832SOL    HW235133   3.396   2.662   2.688  0.8956 -0.1677 -0.2712
 7833SOL     OW35134   2.694   0.218   7.053 -0.6477 -0.7497  0.6211
 7833SOL    HW135135   2.735   0.191   6.971 -2.4277  1.8360 -1.1182
 7833SOL    HW235136   2.612   0.258   7.024  0.8444 -0.3920 -3.1312
 7834SOL     OW35137   1.790   0.591   2.933  0.1709  0.0289  0.1456
 7834SOL    HW135138   1.821   0.552   3.016 -0.1665 -0.1853  0.1719
 7834SOL    HW235139   1.753   0.671   2.970 -0.7682 -0.3530  0.0386
 7835SOL     OW35140   0.430   1.046   9.352 -0.3522  0.2951 -0.0085
 7835SOL    HW135141   0.355   1.001   9.314 -1.1114  0.4573  1.2691
 7835SOL    HW235142   0.456   1.106   9.282 -1.3480 -0.4415 -1.0071
 7836SOL     OW35143   1.734   3.723  13.323 -0.0944  0.3197  0.3455
 7836SOL    HW135144   1.688   3.649  13.363  0.2706  0.0583  0.2860
 7836SOL    HW235145   1.662   3.760  13.273 -0.9573  0.0232  1.3751
 7837SOL     OW35146   4.387   1.628   1.878  0.0234 -0.2655  0.0388
 7837SOL    HW135147   4.326   1.557   1.858 -2.0522  1.4298  0.1947
 7837SOL    HW235148   4.316   1.686   1.906  0.0062 -1.6153  2.7491
 7838SOL     OW35149   1.497   4.731   4.178  0.2966  0.2483  0.8774
 7838SOL    HW135150   1.473   4.653   4.228  0.1120 -0.0593  0.3018
 7838SOL    HW235151   1.414   0.041   4.170  0.1517 -0.5672 -2.5002
 7839SOL     OW35152   0.742   3.749  10.473 -0.1634 -0.3089  0.3324
 7839SOL    HW135153   0.684   3.799  10.531  0.7141  0.6497  0.3703
 7839SOL    HW235154   0.702   3.662  10.462  1.3597 -0.8032 -1.2844
 7840SOL     OW35155   0.048   1.473   9.993  0.0765 -0.1424 -0.1420
 7840SOL    HW135156   4.736   1.399   9.957 -1.5531  0.5736  0.6839
 7840SOL    HW235157   0.127   1.438  10.036  1.3005  1.4656 -1.0967
 7841SOL     OW35158   2.786   4.086  15.052  0.0554  0.5411  0.1463
 7841SOL    HW135159   2.858   4.149  15.064  0.1733  0.3137  0.6182
 7841SOL    HW235160   2.817   4.023  14.987  2.5513 -0.6813  2.5568
 7842SOL     OW35161   4.246   1.214   6.572  0.5751  0.1438 -0.3035
 7842SOL    HW135162   4.198   1.132   6.573 -0.0035  0.5262  2.1164
 7842SOL    HW235163   4.328   1.175   6.602 -0.2095 -1.8666 -0.7492
 7843SOL     OW35164   0.859   2.345   3.232  0.5281  0.3524 -0.3499
 7843SOL    HW135165   0.894   2.299   3.309 -0.4127 -0.7289 -0.5628
 7843SOL    HW235166   0.942   2.379   3.201  0.8493  0.3292  0.4860
 7844SOL     OW35167   4.575   0.982  15.238 -0.1618 -0.1533 -0.2232
 7844SOL    HW135168   4.489   0.941  15.234  1.2720 -3.1629 -0.2495
 7844SOL    HW235169   4.625   0.961  15.159 -0.0217 -2.3209  0.4455
 7845SOL     OW35170   3.917   4.085  16.963 -0.3208  0.3550  0.3824
 7845SOL    HW135171   3.916   3.997  16.926  2.5276 -0.8105  3.0027
 7845SOL    HW235172   3.838   4.130  16.934  0.1440  0.1482 -1.1843
 7846SOL     OW35173   2.535   0.517   5.530 -0.6494 -0.2437 -0.2554
 7846SOL    HW135174   2.488   0.455   5.475  2.0430 -2.2908 -0.2377
 7846SOL    HW235175   2.559   0.581   5.462 -0.9317 -1.0381 -1.1010
 7847SOL     OW35176   0.085   0.609   1.994 -0.6581 -0.0973 -0.1018
 7847SOL    HW135177   0.019   0.675   2.018  1.2646  1.6686  0.3174
 7847SOL    HW235178   0.054   0.544   2.057 -0.9001 -1.0911 -1.2687
 7848SOL     OW35179   0.537   4.011   8.688  0.0238  0.1878 -0.0785
 7848SOL    HW135180   0.579   4.094   8.668 -0.8182  0.5683 -0.2810
 7848SOL    HW235181   0.446   4.034   8.670  0.0439 -0.5921 -1.2312
 7849SOL     OW35182   0.466   0.442   9.257 -0.0630 -0.1006  0.5052
 7849SOL    HW135183   0.433   0.368   9.308 -1.0542 -0.1552 -0.2306
 7849SOL    HW235184   0.419   0.520   9.287 -2.0310 -1.5739  1.2060
 7850SOL     OW35185   2.739   3.221   4.256  0.1568  0.3599 -0.2210
 7850SOL    HW135186   2.756   3.176   4.339 -0.6028  1.1407  0.3616
 7850SOL    HW235187   2.648   3.194   4.249 -0.0327  0.7540  0.7566
 7851SOL     OW35188   3.731   1.049  10.441 -0.1334 -0.1955  0.3994
 7851SOL    HW135189   3.731   1.038  10.346  2.1591 -0.8136  0.4704
 7851SOL    HW235190   3.688   0.965  10.457 -1.1594  0.4896  1.2368
 7852SOL     OW35191   2.116   2.751   1.525  0.1316  0.3128  0.1304
 7852SOL    HW135192   2.044   2.756   1.588  0.5216  0.2714  0.5810
 7852SOL    HW235193   2.074   2.707   1.452  2.6083 -2.0328  0.1042
 7853SOL     OW35194   1.853   3.832  17.609  0.2000 -0.1687  0.0273
 7853SOL    HW135195   1.948   3.824  17.599 -0.1000 -2.5294 -0.9415
 7853SOL    HW235196   1.832   3.778  17.685 -0.9945 -0.8099 -0.7619
 7854SOL     OW35197   2.838   1.511  14.042 -0.0826  0.6225 -0.0191
 7854SOL    HW135198   2.888   1.506  13.961  0.2606  2.9707  0.0531
 7854SOL    HW235199   2.878   1.581  14.094 -0.5026  0.7353  0.1527
 7855SOL     OW35200   3.293   2.228   6.846  0.3718 -0.1196  0.3644
 7855SOL    HW135201   3.328   2.277   6.921  0.1589 -1.5709  1.4037
 7855SOL    HW235202   3.210   2.270   6.823  0.4302 -0.5875 -0.6628
 7856SOL     OW35203   3.589   2.746  10.844  0.0027  0.1050  0.7276
 7856SOL    HW135204   3.562   2.742  10.936  0.0292 -0.3653  0.7154
 7856SOL    HW235205   3.549   2.668  10.805 -1.7771  1.2892  0.1676
 7857SOL     OW35206   3.573   3.649   4.171  0.1866 -0.9684 -0.0070
 7857SOL    HW135207   3.559   3.735   4.132 -0.2137 -0.6219  0.9126
 7857SOL    HW235208   3.659   3.627   4.135  0.2930  0.0666 -0.3738
 7858SOL     OW35209   2.413   4.555   9.251 -0.3792 -0.3259 -0.0479
 7858SOL    HW135210   2.383   4.645   9.237 -4.1338 -1.4563  0.7414
 7858SOL    HW235211   2.341   4.526   9.307 -1.5454 -2.0692 -2.4374
 7859SOL     OW35212   3.538   4.051   9.727 -0.0649  0.0629 -0.2533
 7859SOL    HW135213   3.552   4.034   9.820 -1.4147  3.3838  0.5573
 7859SOL    HW235214   3.559   3.963   9.698 -0.6051 -0.4892  1.0536
 7860SOL     OW35215   4.566   2.710   9.203 -0.2426  0.3214 -0.4380
 7860SOL    HW135216   4.524   2.793   9.225 -0.6311 -0.7750  3.0381
 7860SOL    HW235217   4.490   2.652   9.202  0.4049 -0.5390 -0.2016
 7861SOL     OW35218   2.515   3.067  17.748  0.7401  0.1484 -0.1280
 7861SOL    HW135219   2.468   3.049  17.666 -0.2673 -1.0266  0.7094
 7861SOL    HW235220   2.503   3.162   0.008 -1.7674 -0.2434  0.5966
 7862SOL     OW35221   4.730   1.229   9.592 -0.0404  0.0171  0.3237
 7862SOL    HW135222   4.707   1.256   9.681 -1.4885 -2.8903  0.8317
 7862SOL    HW235223   0.087   1.245   9.593  0.3861 -2.5612 -0.2112
 7863SOL     OW35224   3.874   3.380   1.010 -0.3090  0.0217 -0.4408
 7863SOL    HW135225   3.893   3.306   1.067 -1.0813  0.5766  0.5416
 7863SOL    HW235226   3.956   3.427   0.993 -0.7557 -0.1663 -3.1108
 7864SOL     OW35227   1.052   0.347   9.242 -0.0518  0.1285  0.3042
 7864SOL    HW135228   1.069   0.415   9.177 -0.2702 -0.0572  0.0531
 7864SOL    HW235229   1.136   0.301   9.240  0.9143  1.9569 -1.3058
 7865SOL     OW35230   3.006   2.454  11.836  0.9410 -0.0109 -0.0637
 7865SOL    HW135231   3.023   2.490  11.749  0.4934 -1.8283 -0.9084
 7865SOL    HW235232   3.012   2.538  11.882 -1.1659  1.0353 -1.6759
 7866SOL     OW35233   2.433   0.052  14.636  0.5078  0.0959 -0.1084
 7866SOL    HW135234   2.394   4.703  14.645 -1.0670  0.8622  0.5428
 7866SOL    HW235235   2.524   0.027  14.624  0.6136 -0.2506  1.3190
 7867SOL     OW35236   1.887   4.721  16.853  0.1872 -0.4674 -0.3949
 7867SOL    HW135237   1.831   4.656  16.812  0.2394  0.7628 -2.4268
 7867SOL    HW235238   1.833   0.034  16.914  1.6035 -0.4598  0.8341
 7868SOL     OW35239   3.145   4.596  14.549  0.3170 -0.4690 -0.0510
 7868SOL    HW135240   3.201   4.630  14.618 -1.8780  0.2610  1.3444
 7868SOL    HW235241   3.096   4.529  14.598 -0.8017 -0.2130 -0.8142
 7869SOL     OW35242   1.238   4.519   6.691  0.3074  0.4112  0.4933
 7869SOL    HW135243   1.161   4.469   6.717  0.7044 -0.2227  0.4271
 7869SOL    HW235244   1.297   4.444   6.690  1.0293  0.9728  0.9582
 7870SOL     OW35245   0.379   3.227  10.980 -0.5621  0.6434  0.3659
 7870SOL    HW135246   0.372   3.203  10.888  0.2628  1.9873 -0.0520
 7870SOL    HW235247   0.441   3.300  10.978 -0.6385  0.6589 -1.5751
 7871SOL     OW35248   0.663   0.058   7.073 -0.2225  0.4598 -0.3375
 7871SOL    HW135249   0.630   0.101   7.152 -2.2368 -3.1696  0.7612
 7871SOL    HW235250   0.682   4.709   7.108  0.5724  0.5972 -0.4326
 7872SOL     OW35251   1.069   1.507  17.664 -0.3144 -0.4653  0.0534
 7872SOL    HW135252   1.005   1.451  17.708  0.2252 -0.9726  0.2053
 7872SOL    HW235253   1.127   1.437  17.632 -0.0786  0.1413 -0.8325
 7873SOL     OW35254   4.413   3.685  14.139  0.7482  0.5418  0.4842
 7873SOL    HW135255   4.380   3.616  14.196 -0.8456 -0.4726 -1.6976
 7873SOL    HW235256   4.503   3.657  14.121  0.6437  1.0903 -0.9099
 7874SOL     OW35257   1.739   3.708   4.983 -0.1765 -0.4688  0.3657
 7874SOL    HW135258   1.668   3.649   5.009 -1.4010  0.3452 -1.1283
 7874SOL    HW235259   1.720   3.731   4.892  1.3077  2.4780  0.7954
 7875SOL     OW35260   4.064   1.379   5.187 -0.4270  0.9080 -0.3057
 7875SOL    HW135261   4.039   1.441   5.118  1.3320  1.5100 -0.3778
 7875SOL    HW235262   4.045   1.292   5.150 -3.4804  0.1009  3.1071
 7876SOL     OW35263   1.920   0.133   0.725  0.1949  0.0823  0.0341
 7876SOL    HW135264   1.924   0.070   0.797  2.1734  0.2807  0.1001
 7876SOL    HW235265   1.868   0.206   0.758  1.1834  0.2939  1.0858
 7877SOL     OW35266   4.093   0.532   0.335  0.1047  0.2255 -0.4593
 7877SOL    HW135267   4.113   0.592   0.263 -3.6044  0.9878 -0.8976
 7877SOL    HW235268   3.999   0.551   0.341  0.2692  0.5544  1.1085
 7878SOL     OW35269   0.303   4.148   8.595 -0.0235  0.4876 -0.1034
 7878SOL    HW135270   0.250   4.069   8.607  0.6456 -0.0253 -0.5773
 7878SOL    HW235271   0.243   4.219   8.572 -2.0514 -1.1499  0.1472
 7879SOL     OW35272   3.837   2.912   1.846  0.4310  0.0693  0.3933
 7879SOL    HW135273   3.879   2.827   1.836  0.0180 -0.0594 -0.2915
 7879SOL    HW235274   3.910   2.971   1.863  0.4428  0.7297 -1.9860
 7880SOL     OW35275   1.531   4.687  11.937 -0.1254  0.5936 -0.4868
 7880SOL    HW135276   1.489   4.622  11.993 -0.6795  2.0612  0.7865
 7880SOL    HW235277   1.619   4.678  11.972  0.7606  1.9941 -2.3718
 7881SOL     OW35278   0.949   1.935   8.691 -0.1611 -0.8530  0.6054
 7881SOL    HW135279   0.900   1.855   8.674 -0.7591 -0.3265 -0.1587
 7881SOL    HW235280   0.904   1.994   8.630  0.6878 -1.4484 -0.5934
 7882SOL     OW35281   3.171   2.001   1.538  0.8462  0.2273 -0.4772
 7882SOL    HW135282   3.247   1.985   1.594 -0.9315  0.2271  1.9203
 7882SOL    HW235283   3.195   2.076   1.483  0.1942 -0.0511 -1.1483
 7883SOL     OW35284   0.107   4.341   4.742  0.0075  0.1263 -0.4591
 7883SOL    HW135285   0.074   4.265   4.790  0.8223 -0.3394 -0.6368
 7883SOL    HW235286   0.062   4.329   4.658 -0.5515  3.6867 -0.6553
 7884SOL     OW35287   3.136   0.056   6.560  0.6727 -0.4377  0.0347
 7884SOL    HW135288   3.099   4.710   6.586 -0.3628  0.0465  0.1301
 7884SOL    HW235289   3.156   0.103   6.641 -0.1531  1.7637 -1.0192
 7885SOL     OW35290   3.989   4.301   5.095  0.3441 -0.3991  0.1619
 7885SOL    HW135291   3.900   4.266   5.090 -0.1019  0.6910  0.4082
 7885SOL    HW235292   4.020   4.248   5.168  0.9029 -1.5022 -0.8792
 7886SOL     OW35293   2.473   1.909   6.788 -0.7899 -0.0936  0.3167
 7886SOL    HW135294   2.566   1.895   6.770 -1.2399  0.1591 -2.1981
 7886SOL    HW235295   2.483   1.889   6.881 -0.0735 -1.7192 -0.1096
 7887SOL     OW35296   3.024   2.553  11.575 -0.2959  0.6676 -0.3858
 7887SOL    HW135297   2.950   2.604  11.543 -0.8126  0.1558 -0.0191
 7887SOL    HW235298   3.095   2.584  11.519 -0.6325  0.4340 -0.9456
 7888SOL     OW35299   2.192   1.189  14.487  0.0267 -0.2166 -0.6399
 7888SOL    HW135300   2.197   1.102  14.446 -1.8993  0.0127 -1.3674
 7888SOL    HW235301   2.168   1.240  14.409  1.2634  0.3787 -0.6293
 7889SOL     OW35302   3.834   0.951   6.426  0.4923  0.2844  0.0057
 7889SOL    HW135303   3.808   0.864   6.398 -1.8361  1.5082 -1.6275
 7889SOL    HW235304   3.756   0.972   6.478 -0.7384 -1.9340 -0.9676
 7890SOL     OW35305   3.829   3.364   9.430 -0.4404  0.2867 -0.3092
 7890SOL    HW135306   3.901   3.394   9.486  1.1531 -3.4537 -0.3140
 7890SOL    HW235307   3.862   3.281   9.394  1.2223  0.6326  0.4291
 7891SOL     OW35308   3.953   3.555   2.809 -0.3979 -0.9876  0.1480
 7891SOL    HW135309   3.970   3.589   2.897 -2.0989 -1.6654  0.7472
 7891SOL    HW235310   3.944   3.462   2.833 -1.8693 -0.6738  0.8492
 7892SOL     OW35311   0.379   0.739   2.743  0.1122 -0.1486  0.0765
 7892SOL    HW135312   0.343   0.714   2.658 -0.9587  0.2646  0.4054
 7892SOL    HW235313   0.450   0.800   2.726  0.6838 -0.5651  0.9897
 7893SOL     OW35314   2.962   4.096   9.441  0.2808  0.3998 -0.2183
 7893SOL    HW135315   2.874   4.117   9.410  0.5839 -0.6218 -1.8228
 7893SOL    HW235316   2.976   4.159   9.511 -1.0746  0.8218 -0.3352
 7894SOL     OW35317   1.839   4.456  15.364 -0.1627  0.2885 -0.4743
 7894SOL    HW135318   1.932   4.438  15.383 -0.3948  0.3906  0.7485
 7894SOL    HW235319   1.802   4.371  15.387  0.0645  0.4185  0.3780
 7895SOL     OW35320   3.121   0.366   6.758  0.3790 -0.1716 -0.1243
 7895SOL    HW135321   3.152   0.302   6.822 -0.7589 -0.1791  0.4148
 7895SOL    HW235322   3.137   0.452   6.798  3.1630 -0.0959 -1.3661
 7896SOL     OW35323   1.748   4.424   1.820  0.0961 -0.2681 -0.3191
 7896SOL    HW135324   1.838   4.401   1.800  1.5172  1.1562  4.4848
 7896SOL    HW235325   1.733   4.479   1.743  0.8489 -0.1898 -0.4020
 7897SOL     OW35326   0.994   2.168   5.558  0.3163 -0.0085 -0.3969
 7897SOL    HW135327   1.010   2.233   5.490  0.3890 -0.1439 -0.5084
 7897SOL    HW235328   0.900   2.154   5.556  0.3148  0.0816 -1.0120
 7898SOL     OW35329   0.373   0.407   8.984 -0.3760 -0.1899  0.4768
 7898SOL    HW135330   0.411   0.326   8.952 -1.2936 -0.2967 -0.3456
 7898SOL    HW235331   0.417   0.421   9.068 -0.7217  1.0154  0.4614
 7899SOL     OW35332   1.722   3.347   6.969  0.8202 -0.3871  0.5364
 7899SOL    HW135333   1.710   3.434   7.008  1.0164 -0.5051  0.8606
 7899SOL    HW235334   1.659   3.295   7.018 -0.8160 -0.1032 -1.2532
 7900SOL     OW35335   0.421   1.343   3.736 -0.4590  0.0056  0.0500
 7900SOL    HW135336   0.497   1.298   3.773 -0.3738  0.0947 -0.0170
 7900SOL    HW235337   0.436   1.332   3.642 -4.0886 -0.2063 -0.5120
 7901SOL     OW35338   1.518   3.864   9.876  0.0671  0.2864 -0.3481
 7901SOL    HW135339   1.607   3.842   9.902 -0.1718 -0.1298  0.1046
 7901SOL    HW235340   1.485   3.877   9.965  0.0434  0.1649 -0.3389
 7902SOL     OW35341   2.928   1.813   2.000 -0.5987  0.2591  0.5230
 7902SOL    HW135342   2.834   1.797   2.014 -0.3807 -1.3493  0.1294
 7902SOL    HW235343   2.934   1.742   1.937 -0.6432  0.6739  0.0553
 7903SOL     OW35344   3.014   0.542  17.201 -0.3708 -0.0267  0.3647
 7903SOL    HW135345   2.985   0.541  17.292  0.0011 -2.0921  0.4503
 7903SOL    HW235346   3.103   0.512  17.218  0.3944  2.5128  0.8707
 7904SOL     OW35347   3.537   0.688   7.082 -0.2381 -0.1243 -0.4354
 7904SOL    HW135348   3.585   0.614   7.121 -3.2479 -2.1788 -0.6496
 7904SOL    HW235349   3.520   0.646   6.998  0.6457  0.4974 -0.9261
 7905SOL     OW35350   2.111   1.573   4.943  0.2363 -0.8324  0.0447
 7905SOL    HW135351   2.192   1.567   4.892  0.8564 -2.7677  1.2557
 7905SOL    HW235352   2.142   1.572   5.034  1.5729  1.4817 -0.3911
 7906SOL     OW35353   2.211   1.601  11.022  0.4214  0.0658  0.0378
 7906SOL    HW135354   2.177   1.512  11.028  1.0243 -0.3650 -2.4808
 7906SOL    HW235355   2.133   1.648  10.996 -0.8925 -2.3284 -0.3789
 7907SOL     OW35356   3.996   1.375   3.690 -0.0035  0.2997 -0.1872
 7907SOL    HW135357   3.990   1.287   3.727  3.2671  1.1202  2.3152
 7907SOL    HW235358   4.078   1.409   3.726 -1.1714  2.0175  0.8439
 7908SOL     OW35359   2.047   3.408  14.032  0.4395  0.7513 -0.0958
 7908SOL    HW135360   2.025   3.315  14.024 -1.3400  1.1111  0.5004
 7908SOL    HW235361   2.060   3.424  14.125  0.2293  0.9693 -0.1019
 7909SOL     OW35362   0.299   2.862  10.973 -0.0640 -0.0733  0.4621
 7909SOL    HW135363   0.299   2.833  10.881 -0.9091  4.8752 -1.1180
 7909SOL    HW235364   0.205   2.871  10.990 -0.0785  0.5950  0.0525
 7910SOL     OW35365   3.284   4.021   2.430  0.3711  0.1846  0.6543
 7910SOL    HW135366   3.378   4.036   2.428  0.1265  1.7504  0.7715
 7910SOL    HW235367   3.286   3.980   2.517 -0.4248  0.8628  1.0051
 7911SOL     OW35368   1.155   3.008   6.663 -0.2867 -0.0654  0.0092
 7911SOL    HW135369   1.155   3.057   6.745 -0.9288  1.5560 -0.9713
 7911SOL    HW235370   1.075   2.961   6.683  1.0239 -1.2035  2.5947
 7912SOL     OW35371   3.021   0.073   6.222  0.5257 -0.2627  0.3672
 7912SOL    HW135372   2.998   0.117   6.140 -3.3976 -0.5741  1.2988
 7912SOL    HW235373   3.027   0.154   6.273 -0.9248 -0.0324  0.1706
 7913SOL     OW35374   1.535   3.489  16.855 -0.2895 -0.3717  0.3105
 7913SOL    HW135375   1.476   3.507  16.782 -2.6577 -4.1312  1.2875
 7913SOL    HW235376   1.514   3.564  16.910  0.5301  0.4308 -0.4675
 7914SOL     OW35377   4.474   0.166   2.018 -0.4366 -0.6572 -0.2575
 7914SOL    HW135378   4.554   0.114   2.019  1.5942  2.4488  0.0367
 7914SOL    HW235379   4.455   0.156   1.924 -0.4343 -0.1855 -0.3076
 7915SOL     OW35380   0.905   1.320   4.878 -0.2051  0.2032 -0.7743
 7915SOL    HW135381   0.838   1.386   4.859 -2.0686 -1.0196  1.6151
 7915SOL    HW235382   0.875   1.281   4.960  0.7280  2.4906  0.6755
 7916SOL     OW35383   2.037   0.822  15.886 -0.0176  0.2382 -0.5830
 7916SOL    HW135384   2.048   0.756  15.817  3.3592  0.1299  0.0599
 7916SOL    HW235385   2.099   0.795  15.955  1.3313 -0.6315 -2.1390
 7917SOL     OW35386   0.152   1.358  15.068 -0.5027 -0.3833  0.5211
 7917SOL    HW135387   0.146   1.279  15.121  2.3292 -0.4638  0.6895
 7917SOL    HW235388   0.236   1.387  15.103 -0.2713  2.8577 -2.6855
 7918SOL     OW35389   0.171   1.052   7.946  0.2134 -0.2821  0.0312
 7918SOL    HW135390   0.109   0.981   7.933 -0.1809  0.3300 -1.4445
 7918SOL    HW235391   0.166   1.073   7.852  2.1244 -0.1228 -0.0198
 7919SOL     OW35392   3.955   1.132   9.470  0.1506 -0.0421 -0.0924
 7919SOL    HW135393   3.903   1.200   9.513 -0.4206 -0.7089  0.2837
 7919SOL    HW235394   3.929   1.054   9.519  1.1970  1.1039  2.2873
 7920SOL     OW35395   1.553   0.766  11.299  0.7521 -0.3017 -0.3085
 7920SOL    HW135396   1.559   0.720  11.383 -0.4153 -0.6184 -0.3928
 7920SOL    HW235397   1.644   0.795  11.301  1.4837 -2.7785  2.4857
 7921SOL     OW35398   0.948   3.122  11.338  0.1040 -0.8560 -0.2831
 7921SOL    HW135399   1.015   3.060  11.367  0.8181  0.1668  0.2738
 7921SOL    HW235400   0.991   3.206  11.355 -1.2662 -0.3798  0.8143
 7922SOL     OW35401   0.750   1.052   2.911 -0.2188 -0.2147  0.2592
 7922SOL    HW135402   0.773   1.032   3.002  0.0683 -2.7722 -0.3831
 7922SOL    HW235403   0.655   1.060   2.912 -0.2384 -0.6422  1.2624
 7923SOL     OW35404   2.055   2.586   4.802 -0.0098  0.1857  0.1342
 7923SOL    HW135405   1.986   2.581   4.868 -0.5177 -1.4839 -0.5282
 7923SOL    HW235406   2.026   2.525   4.734 -0.6788  0.5311  0.1144
 7924SOL     OW35407   1.341   1.982   3.724  0.1333  0.0169  0.2384
 7924SOL    HW135408   1.369   2.046   3.658  2.1490 -2.9416 -1.7388
 7924SOL    HW235409   1.426   1.946   3.752 -0.4896 -0.4966  1.4666
 7925SOL     OW35410   2.610   0.118   3.242 -0.8034 -0.3407  0.0898
 7925SOL    HW135411   2.658   0.196   3.216  0.9675 -0.9789  1.4381
 7925SOL    HW235412   2.677   0.051   3.230 -1.6364 -1.0791 -0.4442
 7926SOL     OW35413   4.015   3.955  13.857 -0.3318  0.2163 -0.2411
 7926SOL    HW135414   4.083   3.925  13.917 -0.6697 -0.1664 -0.0488
 7926SOL    HW235415   3.990   4.027  13.914 -0.9382 -1.6863  1.8897
 7927SOL     OW35416   3.528   3.205   9.003 -0.2316 -0.3277 -0.3858
 7927SOL    HW135417   3.561   3.190   8.915 -3.3607  1.1035 -1.8002
 7927SOL    HW235418   3.578   3.279   9.036  1.7556 -1.2289 -1.3848
 7928SOL     OW35419   1.139   4.360  10.622  0.2017 -0.1051 -0.3862
 7928SOL    HW135420   1.136   4.454  10.637 -0.5394 -0.7403  3.3617
 7928SOL    HW235421   1.051   4.347  10.586  0.6758  0.4662 -1.7786
 7929SOL     OW35422   1.973   0.955  10.659 -0.5716 -0.2851 -0.6968
 7929SOL    HW135423   2.015   0.890  10.716  1.4819  1.3078 -0.4292
 7929SOL    HW235424   1.886   0.958  10.700  0.5124  1.1931  1.5224
 7930SOL     OW35425   1.874   0.714   5.277  0.3682 -0.1497 -0.5114
 7930SOL    HW135426   1.923   0.756   5.207  0.0129  0.3715 -0.4461
 7930SOL    HW235427   1.785   0.717   5.242  0.4968  2.1157 -0.6216
 7931SOL     OW35428   4.129   4.601   6.870 -0.1409 -0.0331  0.2842
 7931SOL    HW135429   4.055   4.589   6.929 -1.3828 -2.1030 -1.6964
 7931SOL    HW235430   4.088   4.601   6.783 -1.3114  0.7701  0.8340
 7932SOL     OW35431   3.106   1.986   8.639  0.1508 -0.2456  0.1059
 7932SOL    HW135432   3.041   1.943   8.695 -0.1248  1.9558  1.5208
 7932SOL    HW235433   3.067   1.984   8.552 -2.1816  3.5558  1.0751
 7933SOL     OW35434   1.023   3.378   4.125  0.3103 -0.5662  0.1242
 7933SOL    HW135435   0.955   3.433   4.165  0.8977  0.0480  0.2805
 7933SOL    HW235436   1.059   3.323   4.194  0.3811 -0.5052  0.1349
 7934SOL     OW35437   2.562   2.718   9.569 -0.6674 -0.1673 -0.3998
 7934SOL    HW135438   2.525   2.740   9.483 -3.1400 -2.2265  0.1429
 7934SOL    HW235439   2.533   2.792   9.621  1.2526  1.2984 -1.4231
 7935SOL     OW35440   2.949   2.377   4.850 -0.3661  0.0000 -0.1575
 7935SOL    HW135441   2.881   2.315   4.826  0.0796 -0.4070 -0.3540
 7935SOL    HW235442   3.005   2.332   4.914  0.2725  1.2855  0.1942
 7936SOL     OW35443   1.448   1.007  14.097 -0.0573  0.4073  0.5123
 7936SOL    HW135444   1.424   1.008  14.190 -0.7338  1.2319  0.3258
 7936SOL    HW235445   1.374   1.063  14.074 -0.0104  0.5128  0.6183
 7937SOL     OW35446   3.842   0.086   6.885 -0.4752  0.3013  0.0721
 7937SOL    HW135447   3.848   4.738   6.927  0.1848  1.2045  1.8285
 7937SOL    HW235448   3.787   0.137   6.944 -1.2072  0.4644 -0.7615
 7938SOL     OW35449   3.446   0.671   4.561  0.9480 -0.0670  0.4706
 7938SOL    HW135450   3.388   0.668   4.485  1.5662  3.1514 -0.1127
 7938SOL    HW235451   3.509   0.604   4.534 -1.4908 -1.8868 -0.7127
 7939SOL     OW35452   0.861   3.687   6.521  0.7691  0.3023 -0.5803
 7939SOL    HW135453   0.904   3.721   6.599 -0.1768 -2.6693  1.1972
 7939SOL    HW235454   0.771   3.718   6.533  0.8320  0.2984 -0.1111
 7940SOL     OW35455   0.044   1.433  16.641  0.1384  0.0091  0.1003
 7940SOL    HW135456   0.068   1.521  16.613 -0.5398 -0.4676 -1.9722
 7940SOL    HW235457   4.687   1.439  16.630 -0.0765 -1.7304  0.9435
 7941SOL     OW35458   3.468   0.474   6.850 -0.7412  0.0615 -0.1642
 7941SOL    HW135459   3.552   0.488   6.805 -0.0459 -0.5675  0.9425
 7941SOL    HW235460   3.399   0.508   6.793 -1.5072 -1.0421  0.1145
 7942SOL     OW35461   3.923   2.323   3.125 -0.4187 -0.0030  0.0884
 7942SOL    HW135462   3.949   2.239   3.163  2.0912 -0.0607 -1.8129
 7942SOL    HW235463   3.904   2.374   3.204 -1.1063  0.9947 -0.7140
 7943SOL     OW35464   3.413   0.014   6.418 -0.2348  0.2159 -0.1166
 7943SOL    HW135465   3.447   0.087   6.469  0.6061 -1.5596  1.8203
 7943SOL    HW235466   3.318   0.024   6.428 -0.2180 -0.6785  0.9044
 7944SOL     OW35467   2.227   3.363   8.636 -0.8927  0.0167  0.4729
 7944SOL    HW135468   2.281   3.316   8.572 -1.9942 -2.6397  1.5052
 7944SOL    HW235469   2.291   3.357   8.707 -0.6502 -0.7607  0.1883
 7945SOL     OW35470   4.160   4.661  10.425  0.1565 -0.6051 -0.6905
 7945SOL    HW135471   4.086   4.605  10.401 -1.7180  1.6461 -0.1190
 7945SOL    HW235472   4.188   4.694  10.340  0.7064  1.6149  0.3525
 7946SOL     OW35473   2.389   3.967  17.184 -0.1440 -0.2104 -0.2386
 7946SOL    HW135474   2.359   4.049  17.144 -0.8384 -0.3119  0.0588
 7946SOL    HW235475   2.483   3.985  17.183 -0.5585  1.9808 -0.1090
 7947SOL     OW35476   1.438   1.680   6.547  0.3246  0.0909  0.0123
 7947SOL    HW135477   1.488   1.757   6.576  1.2625 -0.0026 -1.3978
 7947SOL    HW235478   1.414   1.711   6.460  1.0896 -0.2745 -0.3208
 7948SOL     OW35479   2.257   2.126   7.816 -0.2507 -0.0755 -0.2474
 7948SOL    HW135480   2.289   2.195   7.874 -0.7615 -0.4866  0.5097
 7948SOL    HW235481   2.323   2.058   7.827 -0.8269 -0.7123 -0.7873
 7949SOL     OW35482   3.145   1.380  13.013 -0.3638  0.2424  0.0360
 7949SOL    HW135483   3.148   1.445  13.084  1.1763  1.4551 -1.1457
 7949SOL    HW235484   3.201   1.305  13.035 -0.3916  0.4712  0.8792
 7950SOL     OW35485   2.815   0.237   3.932  0.0130  0.1780  0.2885
 7950SOL    HW135486   2.846   0.201   4.015 -0.2051  0.8528  0.6579
 7950SOL    HW235487   2.735   0.185   3.923  0.7413 -1.2397  1.8392
 7951SOL     OW35488   1.167   1.980   5.374 -0.3604  0.1652  0.8373
 7951SOL    HW135489   1.222   2.023   5.308 -1.9581 -0.8568 -1.1864
 7951SOL    HW235490   1.108   2.042   5.416  0.1585 -0.0417  1.8658
 7952SOL     OW35491   1.617   0.438   3.432 -0.2434  0.0639 -0.1861
 7952SOL    HW135492   1.564   0.374   3.479 -1.2041  1.7246  1.0038
 7952SOL    HW235493   1.629   0.507   3.498 -0.2017 -0.5587  0.4491
 7953SOL     OW35494   2.365   0.007   6.339 -0.6121 -0.6124 -0.0663
 7953SOL    HW135495   2.359   4.708   6.427 -1.4504  0.8764  0.4890
 7953SOL    HW235496   2.294   0.071   6.337 -0.3747 -0.2866  1.9516
 7954SOL     OW35497   0.684   1.899   8.596 -0.4772 -0.5711 -0.3227
 7954SOL    HW135498   0.627   1.850   8.656  0.6211 -0.6159  0.6827
 7954SOL    HW235499   0.679   1.847   8.516  0.9036  0.5751 -1.1437
 7955SOL     OW35500   2.143   1.827   3.010  0.0872 -0.5261 -0.1585
 7955SOL    HW135501   2.205   1.776   3.063  2.1072 -0.9357 -2.9271
 7955SOL    HW235502   2.105   1.889   3.072  0.2118 -1.1378  0.5303
 7956SOL     OW35503   0.066   2.779   1.445 -1.0058  1.1917  0.1247
 7956SOL    HW135504   0.076   2.712   1.513 -0.5667 -0.2514 -1.3407
 7956SOL    HW235505   0.090   2.856   1.496  0.3060  0.6051  0.4129
 7957SOL     OW35506   1.856   2.163  11.159 -0.4119  0.3373 -0.4064
 7957SOL    HW135507   1.908   2.129  11.232 -1.3000 -1.1072 -0.4443
 7957SOL    HW235508   1.771   2.166  11.202 -0.5358 -1.5048 -0.5216
 7958SOL     OW35509   0.850   2.617   1.746  0.0543  0.3426 -0.4680
 7958SOL    HW135510   0.931   2.566   1.752 -0.5466 -0.3737  1.4078
 7958SOL    HW235511   0.884   2.700   1.779  1.5436 -0.0350 -1.0582
 7959SOL     OW35512   0.951   3.604   4.720  0.2794 -0.3378 -0.5980
 7959SOL    HW135513   1.013   3.538   4.750  0.7397 -0.0243 -0.8549
 7959SOL    HW235514   0.906   3.626   4.802  1.2887 -0.7048  0.0442
 7960SOL     OW35515   4.460   3.730   7.548  0.5796  0.0698 -0.2089
 7960SOL    HW135516   4.370   3.715   7.521 -0.1483  1.2483  1.5098
 7960SOL    HW235517   4.478   3.652   7.600  1.7751 -0.6659 -1.7389
 7961SOL     OW35518   4.310   3.762   6.587  0.9084  0.0223  0.1982
 7961SOL    HW135519   4.275   3.701   6.652 -0.3071  0.1087 -0.3679
 7961SOL    HW235520   4.264   3.727   6.510  0.1202 -0.6823  0.9912
 7962SOL     OW35521   1.512   2.885   7.027 -0.7342  0.4610  0.7317
 7962SOL    HW135522   1.550   2.798   7.011 -0.3829  1.1040 -1.9257
 7962SOL    HW235523   1.472   2.906   6.943 -0.3114  0.6471  0.5743
 7963SOL     OW35524   1.765   3.879  15.524 -0.0116  0.4306  0.2715
 7963SOL    HW135525   1.800   3.902  15.438 -1.0260  2.0649  0.3021
 7963SOL    HW235526   1.840   3.842  15.572  1.7242  0.2694 -2.5648
 7964SOL     OW35527   2.980   2.357  17.161 -0.5505 -0.2786 -0.9209
 7964SOL    HW135528   2.930   2.439  17.162 -3.4118 -2.0202 -0.6550
 7964SOL    HW235529   2.940   2.296  17.224  0.1825 -0.6614 -0.8317
 7965SOL     OW35530   2.435   4.132  13.674 -0.6370  0.1812  0.6396
 7965SOL    HW135531   2.515   4.157  13.627 -0.2263 -2.1057  0.1178
 7965SOL    HW235532   2.380   4.210  13.667  0.6031  1.2185  2.3478
 7966SOL     OW35533   2.032   1.565   8.772  0.0553 -0.3288 -0.3333
 7966SOL    HW135534   2.099   1.496   8.769 -0.8216 -1.1861 -0.1716
 7966SOL    HW235535   2.079   1.641   8.736  1.8699 -0.5032  1.6665
 7967SOL     OW35536   1.757   1.481   3.772  0.6412  0.1717  0.0433
 7967SOL    HW135537   1.686   1.522   3.822 -1.2024 -2.2228 -0.5705
 7967SOL    HW235538   1.738   1.390   3.791 -0.7005  0.8793  2.0880
 7968SOL     OW35539   3.053   2.321   1.548 -0.9517 -0.3762 -0.5980
 7968SOL    HW135540   3.082   2.410   1.528  0.2510 -0.9525 -1.3613
 7968SOL    HW235541   2.963   2.319   1.515 -1.6321 -0.1092  1.2392
 7969SOL     OW35542   3.465   3.857   4.698 -0.0253 -0.4670 -0.2093
 7969SOL    HW135543   3.527   3.928   4.720 -0.5518 -0.0677  0.0011
 7969SOL    HW235544   3.379   3.899   4.696  0.2766  0.2232  1.0249
 7970SOL     OW35545   0.432   0.090   2.866  0.5314 -0.3943  0.4688
 7970SOL    HW135546   0.459   0.170   2.822  0.5920 -1.2690 -1.0837
 7970SOL    HW235547   0.375   0.124   2.935  1.1099  0.7808  0.3660
 7971SOL     OW35548   0.215   3.963   6.859 -0.4802  0.5344 -0.0246
 7971SOL    HW135549   0.277   4.035   6.868 -0.1015  0.1883  0.1320
 7971SOL    HW235550   0.143   4.006   6.905  0.4382  0.1831  1.7300
 7972SOL     OW35551   2.615   2.883   0.168 -0.3769  0.3876  0.0915
 7972SOL    HW135552   2.574   2.949   0.112 -1.3264 -0.3951 -0.1390
 7972SOL    HW235553   2.709   2.884   0.149 -0.7640  2.6075 -1.8459
 7973SOL     OW35554   1.450   3.367   2.815  0.7395  0.9326  0.3605
 7973SOL    HW135555   1.382   3.365   2.747  0.3402  1.8842  0.7287
 7973SOL    HW235556   1.404   3.427   2.874 -0.6060  0.7648 -0.5102
 7974SOL     OW35557   0.564   0.767   4.376 -0.0910 -0.3423 -0.6903
 7974SOL    HW135558   0.598   0.765   4.286  2.1535  1.2373  0.1185
 7974SOL    HW235559   0.607   0.688   4.408  0.4956 -0.7119 -2.3494
 7975SOL     OW35560   2.982   1.731  11.729  0.4087 -0.0597 -0.1717
 7975SOL    HW135561   2.971   1.754  11.637 -0.3806 -1.3610 -0.4069
 7975SOL    HW235562   3.023   1.807  11.768 -1.9498  0.4387  1.3267
 7976SOL     OW35563   1.258   4.233   0.311  0.1987 -0.4932  0.6342
 7976SOL    HW135564   1.308   4.313   0.330  1.8378 -0.9496 -1.6901
 7976SOL    HW235565   1.171   4.269   0.294 -0.2824 -2.8588 -2.0054
 7977SOL     OW35566   0.968   3.001   5.380 -0.7322 -0.2060 -0.1604
 7977SOL    HW135567   0.874   2.983   5.390 -1.4508  3.6087 -0.1348
 7977SOL    HW235568   0.978   3.024   5.288 -2.0218 -1.0401 -0.5033
 7978SOL     OW35569   2.744   1.330  17.749  0.1522  0.5236  0.0192
 7978SOL    HW135570   2.768   1.330   0.091 -0.3942  0.6994  0.1612
 7978SOL    HW235571   2.773   1.239  17.735  1.2465  0.5521  2.1154
 7979SOL     OW35572   1.170   2.972  11.299 -0.6214  0.8617  0.0368
 7979SOL    HW135573   1.241   2.953  11.238 -1.5109  0.9324 -1.0161
 7979SOL    HW235574   1.213   2.946  11.381 -2.5940 -0.6523  0.5806
 7980SOL     OW35575   3.766   1.091   6.807 -0.4923 -0.1734 -0.2042
 7980SOL    HW135576   3.717   1.054   6.880  0.7565  0.7743  1.1075
 7980SOL    HW235577   3.842   1.034   6.798 -0.1593  0.1682  0.4857
 7981SOL     OW35578   0.746   2.357  13.432 -0.8473 -0.4039 -0.4313
 7981SOL    HW135579   0.784   2.328  13.515 -1.4233 -0.7930 -0.2950
 7981SOL    HW235580   0.784   2.281  13.387  0.3708 -0.6022  0.9372
 7982SOL     OW35581   2.794   1.096   5.474  0.1979 -0.2854  0.0130
 7982SOL    HW135582   2.836   1.019   5.512  2.0012  0.7786  0.1921
 7982SOL    HW235583   2.707   1.104   5.513  0.3480  1.6586 -0.0258
 7983SOL     OW35584   0.189   2.590   3.554  0.0334 -0.4641 -0.2693
 7983SOL    HW135585   0.101   2.625   3.565  0.3796  0.4871 -0.6018
 7983SOL    HW235586   0.242   2.670   3.549  0.6195 -0.8754 -0.6684
 7984SOL     OW35587   4.632   3.695  10.876  0.2377 -0.2166 -0.3246
 7984SOL    HW135588   4.675   3.651  10.950  0.3118  0.2573 -0.0861
 7984SOL    HW235589   4.578   3.759  10.922 -0.4541 -0.1432 -1.2599
 7985SOL     OW35590   0.145   1.661  15.911 -0.4340  0.4511  0.4256
 7985SOL    HW135591   0.164   1.622  15.825 -0.7554  0.6104  0.2838
 7985SOL    HW235592   0.210   1.610  15.960 -1.1216  0.6122  1.5067
 7986SOL     OW35593   4.483   2.737  13.631  0.5322  0.2076  0.0216
 7986SOL    HW135594   4.537   2.816  13.636  1.7554 -0.6298  0.0333
 7986SOL    HW235595   4.392   2.763  13.645  0.2964  0.2480 -1.6081
 7987SOL     OW35596   0.302   3.264   6.326  0.3416 -0.4863  0.2631
 7987SOL    HW135597   0.348   3.180   6.326  2.5331  0.7059  0.4416
 7987SOL    HW235598   0.317   3.300   6.413  0.6608 -0.3350  0.1439
 7988SOL     OW35599   3.884   2.097  13.248 -0.3968 -0.1993  0.6587
 7988SOL    HW135600   3.885   2.103  13.153 -0.0168  0.7156  0.7186
 7988SOL    HW235601   3.977   2.076  13.257 -0.5999 -1.6701 -0.7934
 7989SOL     OW35602   2.356   0.825  13.687 -0.7542  0.4706  0.7978
 7989SOL    HW135603   2.377   0.815  13.594 -0.3879 -0.5708  0.9928
 7989SOL    HW235604   2.346   0.920  13.694  2.1866  0.8359 -0.1804
 7990SOL     OW35605   3.899   3.189   5.585 -0.3360  0.0561  0.0428
 7990SOL    HW135606   3.935   3.161   5.669  0.0373  2.2912  0.6221
 7990SOL    HW235607   3.944   3.272   5.569 -0.9788  0.2629 -0.6969
 7991SOL     OW35608   3.241   1.864   4.628  0.1520  0.1354  0.0270
 7991SOL    HW135609   3.214   1.864   4.720  0.0608 -0.1827 -0.0010
 7991SOL    HW235610   3.336   1.863   4.635  0.2374  1.3065 -0.9374
 7992SOL     OW35611   0.352   0.169   5.954  0.1105 -0.0178  0.0678
 7992SOL    HW135612   0.379   0.194   5.866  1.5488  0.5861  0.6676
 7992SOL    HW235613   0.437   0.137   5.984 -0.4050  0.5071  2.1087
 7993SOL     OW35614   2.014   3.849   2.393 -0.6203 -0.2884  0.1675
 7993SOL    HW135615   1.975   3.829   2.308 -1.4140  1.0945  0.2019
 7993SOL    HW235616   2.005   3.944   2.388 -0.1060 -0.3962 -2.4010
 7994SOL     OW35617   4.183   4.349   8.576 -0.3392 -0.0942  0.0702
 7994SOL    HW135618   4.206   4.259   8.554  0.9822 -0.2162  1.8889
 7994SOL    HW235619   4.259   4.380   8.626 -0.3479 -0.2321  0.1681
 7995SOL     OW35620   2.430   1.389  14.074 -0.7399  0.3835  0.0306
 7995SOL    HW135621   2.480   1.310  14.098  0.1414  0.3823 -1.8158
 7995SOL    HW235622   2.407   1.372  13.983  1.4530 -0.0370 -0.4585
 7996SOL     OW35623   3.884   0.212  13.929  0.0746 -0.7924  0.3457
 7996SOL    HW135624   3.902   0.297  13.890  1.9440  0.2488  3.4738
 7996SOL    HW235625   3.851   0.163  13.854  0.6352  0.4413 -0.6922
 7997SOL     OW35626   3.465   2.374   2.002  0.2915  1.3936 -0.2145
 7997SOL    HW135627   3.519   2.453   2.012  0.2382  1.2398  1.3974
 7997SOL    HW235628   3.381   2.419   2.004 -0.7410 -0.5673  0.6234
 7998SOL     OW35629   3.581   1.260  17.259 -0.1550  0.2098 -0.4091
 7998SOL    HW135630   3.591   1.354  17.251  2.2427  0.2428  3.0940
 7998SOL    HW235631   3.633   1.231  17.184 -0.3080  3.1284 -1.6141
 7999SOL     OW35632   4.028   2.911   8.609  0.4581 -0.3715 -0.1363
 7999SOL    HW135633   4.030   2.833   8.554  2.0400 -0.4212  0.0069
 7999SOL    HW235634   3.934   2.928   8.611  0.8791  1.7179  1.3983
 8000SOL     OW35635   0.839   4.047   2.481  0.5096  0.4099 -0.0832
 8000SOL    HW135636   0.933   4.032   2.468  0.2113 -1.8186  0.3610
 8000SOL    HW235637   0.832   4.051   2.576 -0.9785  1.1592 -0.2169
 8001SOL     OW35638   2.940   0.321   3.099 -0.6588  0.3620  0.3118
 8001SOL    HW135639   3.030   0.327   3.065 -0.4386 -1.8477  0.4873
 8001SOL    HW235640   2.946   0.377   3.176 -0.3221 -1.0740  1.3439
 8002SOL     OW35641   1.046   2.195   1.389  0.5196  0.5608 -0.4548
 8002SOL    HW135642   1.018   2.162   1.475  1.8655 -2.6082 -1.2357
 8002SOL    HW235643   1.018   2.116   1.341 -1.6414  0.3882  1.0858
 8003SOL     OW35644   3.908   0.810   3.394 -0.0452  0.1243 -0.8122
 8003SOL    HW135645   3.882   0.777   3.308  1.0524 -1.8980 -0.3792
 8003SOL    HW235646   3.920   0.726   3.438 -0.1292 -0.8119 -2.5469
 8004SOL     OW35647   2.190   3.110   0.734 -0.1150 -0.0783 -0.0001
 8004SOL    HW135648   2.217   3.199   0.712  4.3743 -1.0346  1.5706
 8004SOL    HW235649   2.107   3.143   0.769  0.9025  0.3448  2.0793
 8005SOL     OW35650   4.074   1.248   5.461 -0.0505  0.6554  0.3541
 8005SOL    HW135651   4.000   1.293   5.420 -0.2973  0.0007  0.0701
 8005SOL    HW235652   4.121   1.236   5.379 -0.8560  0.5851 -0.1052
 8006SOL     OW35653   3.208   2.465   2.033 -0.9587  0.3201 -0.5447
 8006SOL    HW135654   3.143   2.415   2.082 -0.2044 -0.2033 -0.0916
 8006SOL    HW235655   3.156   2.483   1.954  0.3657  0.1231 -1.4568
 8007SOL     OW35656   4.316   1.561  13.142  0.0497  0.5722 -0.7019
 8007SOL    HW135657   4.239   1.505  13.157 -0.2972  1.4682  0.8890
 8007SOL    HW235658   4.287   1.604  13.062 -0.3163  0.2495 -0.7465
 8008SOL     OW35659   4.245   2.976  14.341  0.4831  0.5870  0.5711
 8008SOL    HW135660   4.239   3.031  14.419 -1.8867 -0.8266  1.3765
 8008SOL    HW235661   4.264   2.894  14.386  0.8338  0.0507 -0.5353
 8009SOL     OW35662   1.705   0.023   2.429 -0.9407 -0.0409 -0.3609
 8009SOL    HW135663   1.704   4.716   2.344 -1.4158  0.4812 -0.6250
 8009SOL    HW235664   1.737   0.110   2.407  0.3606  0.3798  3.2230
 8010SOL     OW35665   4.547   2.037  15.582 -0.2388  0.2536  0.0951
 8010SOL    HW135666   4.596   1.987  15.648  0.3090 -0.3000 -0.7369
 8010SOL    HW235667   4.461   2.045  15.623 -1.3956  1.1593 -2.5006
 8011SOL     OW35668   2.581   4.630   3.624 -0.2067 -0.1226 -0.0007
 8011SOL    HW135669   2.607   4.549   3.580 -0.5856  0.7215 -1.7761
 8011SOL    HW235670   2.486   4.616   3.627 -0.1069 -0.8958 -0.5058
 8012SOL     OW35671   4.256   3.141   4.497  0.3877 -0.0810  0.1716
 8012SOL    HW135672   4.327   3.202   4.517 -1.0764  1.9378 -0.7526
 8012SOL    HW235673   4.298   3.056   4.509  0.4219  0.1927  1.9931
 8013SOL     OW35674   0.593   1.093   9.086 -0.5458  0.3550  0.7106
 8013SOL    HW135675   0.592   0.999   9.107 -1.4607  0.2859  0.3861
 8013SOL    HW235676   0.660   1.128   9.144  0.0973  2.1970 -1.1763
 8014SOL     OW35677   2.377   0.752  10.772  0.3388  0.3984 -0.5545
 8014SOL    HW135678   2.443   0.742  10.840  0.5998  0.9762 -0.7237
 8014SOL    HW235679   2.403   0.691  10.703 -0.2284  1.2441 -1.5118
 8015SOL     OW35680   0.156   2.448  16.583  0.6496  0.0950  0.1066
 8015SOL    HW135681   0.113   2.456  16.668  1.7501  1.3099  0.5436
 8015SOL    HW235682   0.085   2.405  16.534  1.3728  2.1775 -2.7463
 8016SOL     OW35683   3.330   4.598   6.799 -0.3235 -0.0959  0.4377
 8016SOL    HW135684   3.413   4.614   6.755 -0.3800  1.3526  0.8357
 8016SOL    HW235685   3.365   4.539   6.866 -0.6122 -1.4064 -0.5750
 8017SOL     OW35686   4.225   3.909   6.901  0.1092  0.1293  0.1092
 8017SOL    HW135687   4.316   3.927   6.877  0.0674  0.9086  0.5653
 8017SOL    HW235688   4.239   3.854   6.977 -0.3519 -1.5364 -1.0043
 8018SOL     OW35689   2.198   4.201   8.560  0.0912 -0.1831  0.4623
 8018SOL    HW135690   2.173   4.275   8.506  5.7554  0.8271 -0.7694
 8018SOL    HW235691   2.213   4.242   8.645  1.6411  0.6533 -0.2184
 8019SOL     OW35692   3.208   4.051  13.555 -0.5491 -0.0674  0.8463
 8019SOL    HW135693   3.221   3.988  13.626  0.1105 -0.6982  0.1746
 8019SOL    HW235694   3.178   4.000  13.480  0.3538  0.5233  0.0767
 8020SOL     OW35695   3.261   0.305   3.491 -0.5377  0.4877 -0.1199
 8020SOL    HW135696   3.356   0.307   3.484 -0.5931 -1.5369 -1.3279
 8020SOL    HW235697   3.234   0.359   3.417  0.4823  1.6446  0.3468
 8021SOL     OW35698   2.201   3.271   3.778  0.1039 -0.1232  0.3728
 8021SOL    HW135699   2.125   3.219   3.751 -1.1272  1.6411  0.4457
 8021SOL    HW235700   2.175   3.359   3.749  0.8149  0.7134  2.3079
 8022SOL     OW35701   1.770   2.965   4.506  0.3326  0.2077 -0.7000
 8022SOL    HW135702   1.775   3.041   4.564  1.0148 -0.3918  0.0136
 8022SOL    HW235703   1.811   2.904   4.567 -0.8940  0.2231  0.1425
 8023SOL     OW35704   1.479   3.932   2.361  0.1208 -0.0745 -0.7716
 8023SOL    HW135705   1.544   3.934   2.432  0.7087  2.2471 -1.3551
 8023SOL    HW235706   1.485   4.026   2.342  1.0455  0.4585  2.1493
 8024SOL     OW35707   0.633   0.896  13.467 -0.3331  0.2551 -0.2181
 8024SOL    HW135708   0.714   0.849  13.487 -1.1114 -0.3500  1.4551
 8024SOL    HW235709   0.675   0.975  13.433 -1.0125  0.3777 -0.7730
 8025SOL     OW35710   2.522   2.692   5.230  0.0662  0.6552  0.4401
 8025SOL    HW135711   2.552   2.777   5.263  0.2881 -0.0715  2.1338
 8025SOL    HW235712   2.566   2.684   5.146 -0.5145  1.4014  0.0689
 8026SOL     OW35713   2.201   1.774  17.522  0.4491  0.1567 -0.2722
 8026SOL    HW135714   2.231   1.768  17.432  0.4172  1.2043 -0.3572
 8026SOL    HW235715   2.268   1.721  17.565 -0.7072 -0.3266  0.9424
 8027SOL     OW35716   3.263   2.286   3.585 -0.1293 -1.2262 -0.6791
 8027SOL    HW135717   3.220   2.336   3.655  2.1141 -1.2563  0.7118
 8027SOL    HW235718   3.198   2.275   3.516 -0.5578  0.9656 -0.6138
 8028SOL     OW35719   3.272   4.729  12.977 -0.0508  0.0509  0.3769
 8028SOL    HW135720   3.220   0.057  12.930 -1.6283  0.4733  2.7237
 8028SOL    HW235721   3.316   0.046  13.041 -0.0533  1.5724 -0.9279
 8029SOL     OW35722   2.218   4.011   1.418 -0.0746 -0.2011  0.0383
 8029SOL    HW135723   2.271   4.089   1.436 -1.4857  0.5553  0.9808
 8029SOL    HW235724   2.205   3.988   1.510 -0.5387 -0.2925 -0.0509
 8030SOL     OW35725   4.070   1.063   4.802 -0.0940  0.3758 -0.0100
 8030SOL    HW135726   4.015   0.987   4.782  1.3154 -0.9673  1.1488
 8030SOL    HW235727   4.097   1.044   4.892 -1.6524 -2.0527 -0.0579
 8031SOL     OW35728   4.201   3.945   3.410  0.6643  0.8290  0.4849
 8031SOL    HW135729   4.168   4.031   3.383  0.0394  0.0113 -1.3445
 8031SOL    HW235730   4.153   3.927   3.491 -1.4070  0.1866 -0.9033
 8032SOL     OW35731   3.519   1.262   7.550 -0.0589 -0.3524 -0.3533
 8032SOL    HW135732   3.510   1.199   7.479 -1.2191  0.1703 -0.6729
 8032SOL    HW235733   3.525   1.343   7.500  0.1886 -0.4419 -0.4668
 8033SOL     OW35734   0.920   4.588  16.207 -0.2576 -0.4182 -0.0940
 8033SOL    HW135735   0.915   4.678  16.175  1.5254 -1.2005 -2.5587
 8033SOL    HW235736   0.828   4.565  16.191 -0.5760 -0.1234  1.3210
 8034SOL     OW35737   0.434   1.588   4.783  0.3808 -0.0880  0.6551
 8034SOL    HW135738   0.356   1.547   4.746  0.5255 -0.5577  0.8683
 8034SOL    HW235739   0.450   1.649   4.711  1.3477 -0.5762  0.4545
 8035SOL     OW35740   0.863   1.462   1.428 -0.3277  0.2479 -0.1162
 8035SOL    HW135741   0.860   1.366   1.420  2.6136  0.2699 -1.8397
 8035SOL    HW235742   0.919   1.477   1.352 -1.0590 -0.2590 -0.7600
 8036SOL     OW35743   0.679   4.177   6.427 -0.1726 -0.1015 -0.0274
 8036SOL    HW135744   0.721   4.137   6.504 -2.1457 -3.5922 -0.7711
 8036SOL    HW235745   0.648   4.106   6.371 -2.1795  0.3656  0.4830
 8037SOL     OW35746   0.745   3.992   1.304  0.2424  0.5743 -0.6419
 8037SOL    HW135747   0.782   4.075   1.276  2.8941 -0.4828 -0.2084
 8037SOL    HW235748   0.659   3.972   1.266  0.2174  2.2915 -1.4980
 8038SOL     OW35749   4.708   1.069   6.622  0.9520  0.2082  0.1428
 8038SOL    HW135750   4.710   0.986   6.573 -0.3959  0.7113 -0.7662
 8038SOL    HW235751   0.053   1.074   6.669  2.4484 -0.5179 -2.4145
 8039SOL     OW35752   0.819   4.506   5.690  0.3020  0.2849 -0.1267
 8039SOL    HW135753   0.777   4.513   5.605  1.8966  1.1660 -0.8493
 8039SOL    HW235754   0.736   4.488   5.734  0.7548  0.1678  0.6897
 8040SOL     OW35755   2.644   4.136   7.393  0.2210  0.3040 -0.3475
 8040SOL    HW135756   2.596   4.210   7.432 -0.5455 -0.3089 -0.1470
 8040SOL    HW235757   2.732   4.170   7.376  0.3587  0.8777  1.5080
 8041SOL     OW35758   4.278   2.019   2.539  0.1314 -0.2510  0.9049
 8041SOL    HW135759   4.260   2.109   2.512 -0.1677 -0.7679 -0.6178
 8041SOL    HW235760   4.373   2.025   2.542  0.0568  1.3611 -0.2366
 8042SOL     OW35761   1.331   0.384   4.333 -0.0930  0.1453  0.1475
 8042SOL    HW135762   1.365   0.327   4.403 -1.8381  0.3775  1.1843
 8042SOL    HW235763   1.316   0.463   4.384  0.1335 -0.8003  1.6861
 8043SOL     OW35764   0.737   1.688   5.211 -0.4498  0.5925 -0.2792
 8043SOL    HW135765   0.812   1.738   5.243 -0.3234 -1.1475  2.0957
 8043SOL    HW235766   0.713   1.737   5.132  0.7181  0.3552 -0.7828
 8044SOL     OW35767   3.569   2.026   9.984 -0.6049 -0.5085 -0.3308
 8044SOL    HW135768   3.590   1.970  10.059  0.8538  0.4419 -0.0258
 8044SOL    HW235769   3.478   2.053   9.993 -0.3519  0.9525 -2.1643
 8045SOL     OW35770   2.300   1.892   9.032  0.7822 -0.5500  0.5814
 8045SOL    HW135771   2.345   1.940   9.102  0.0143 -0.5137  1.0563
 8045SOL    HW235772   2.274   1.805   9.064 -0.9513 -0.6912 -1.2514
 8046SOL     OW35773   2.514   4.058   5.844 -0.6581 -0.3256 -0.4380
 8046SOL    HW135774   2.494   3.984   5.786 -0.2264 -0.2780 -0.6431
 8046SOL    HW235775   2.535   4.007   5.922 -0.9063  1.4205  0.7715
 8047SOL     OW35776   2.060   4.491   4.926  0.4830 -0.3058  0.1458
 8047SOL    HW135777   2.014   4.409   4.910  0.7125 -0.3296 -0.3933
 8047SOL    HW235778   1.988   4.554   4.930 -0.6109 -1.6118  0.6778
 8048SOL     OW35779   0.957   3.660   4.455 -0.2521 -0.2840 -0.1559
 8048SOL    HW135780   1.045   3.625   4.441  0.7219  1.5292  1.3813
 8048SOL    HW235781   0.944   3.642   4.548 -0.1567 -0.4438 -0.1739
 8049SOL     OW35782   1.962   4.367   5.921  0.0571 -0.0379 -0.4150
 8049SOL    HW135783   2.053   4.386   5.944 -0.5662  2.0410  0.3688
 8049SOL    HW235784   1.914   4.382   6.003 -0.5602 -0.1211 -0.7599
 8050SOL     OW35785   4.446   1.932  11.147 -0.0648 -0.1855  0.5145
 8050SOL    HW135786   4.489   1.930  11.232 -1.2456 -0.1032  1.1195
 8050SOL    HW235787   4.439   1.838  11.133 -0.4493  0.3714 -2.9611
 8051SOL     OW35788   4.324   1.987   8.802  0.3620  0.5024 -0.2646
 8051SOL    HW135789   4.257   1.921   8.784 -1.1273  2.0337 -0.2700
 8051SOL    HW235790   4.264   2.058   8.827  1.2812  0.6729  1.4927
 8052SOL     OW35791   0.063   3.600   6.986  0.4881  0.2867 -0.4547
 8052SOL    HW135792   0.134   3.600   6.923 -0.3231 -0.0212 -1.3737
 8052SOL    HW235793   0.000   3.640   6.925 -1.4247 -0.5454  0.9692
 8053SOL     OW35794   0.379   2.920   2.058  0.0727 -0.1847  0.1984
 8053SOL    HW135795   0.373   2.851   2.125  3.1070 -1.4718 -0.8833
 8053SOL    HW235796   0.466   2.948   2.086  0.8761 -1.0235 -1.4622
 8054SOL     OW35797   1.408   3.012   3.616 -0.5741 -0.3008 -0.4197
 8054SOL    HW135798   1.325   3.045   3.581 -0.1252  1.5814  0.2767
 8054SOL    HW235799   1.406   3.022   3.711  0.2766  1.4239 -0.5794
 8055SOL     OW35800   0.852   3.300   9.558  1.0122  0.6067  0.5770
 8055SOL    HW135801   0.916   3.365   9.587  2.3760  0.1401 -1.3585
 8055SOL    HW235802   0.899   3.221   9.585  0.6597  0.2520  0.1631
 8056SOL     OW35803   4.562   1.735  14.991  0.2061 -0.0417 -0.0240
 8056SOL    HW135804   4.475   1.696  15.001 -0.2463  1.1377  0.7597
 8056SOL    HW235805   4.599   1.716  15.077 -0.7169 -0.7408  0.2115
 8057SOL     OW35806   0.908   2.971   5.718  0.2054  0.0396 -0.4833
 8057SOL    HW135807   0.954   2.970   5.802  1.5577 -0.3437 -1.2314
 8057SOL    HW235808   0.866   3.057   5.721 -0.8739 -0.5361  1.1187
 8058SOL     OW35809   0.624   2.537   1.272  0.0734 -0.8592 -0.2003
 8058SOL    HW135810   0.653   2.593   1.199 -0.9790  1.4847  1.1874
 8058SOL    HW235811   0.706   2.499   1.304  1.0042  2.5980  1.5538
 8059SOL     OW35812   2.581   0.830  13.251 -0.6406  0.8014 -0.5551
 8059SOL    HW135813   2.527   0.790  13.184 -1.5476  0.0721  0.6121
 8059SOL    HW235814   2.634   0.890  13.198 -1.0267 -0.4135 -2.3124
 8060SOL     OW35815   1.042   2.103   4.808 -0.2704  0.1114 -0.5360
 8060SOL    HW135816   0.957   2.060   4.800  1.0674 -2.9111  1.6982
 8060SOL    HW235817   1.023   2.189   4.770  1.3186  0.6094 -0.2020
 8061SOL     OW35818   4.484   0.516   8.476  0.2379  0.8098  0.0266
 8061SOL    HW135819   4.499   0.606   8.505  0.3512  0.7321  0.2089
 8061SOL    HW235820   4.574   0.484   8.475 -0.4179 -1.0752  1.6398
 8062SOL     OW35821   3.638   3.336  15.016 -0.3806 -0.3907 -0.7617
 8062SOL    HW135822   3.564   3.390  14.990 -0.0713  0.5099  0.2596
 8062SOL    HW235823   3.597   3.263  15.063 -0.1005  1.3776  2.1607
 8063SOL     OW35824   0.536   4.330   8.701  0.3729 -0.2099  0.4394
 8063SOL    HW135825   0.492   4.362   8.623  2.3799 -1.1309 -1.0605
 8063SOL    HW235826   0.624   4.365   8.685  0.4713 -2.1755 -3.3025
 8064SOL     OW35827   0.158   1.507   6.537 -0.1672  0.5646 -0.2005
 8064SOL    HW135828   0.074   1.493   6.493 -0.1608 -2.8485  0.8190
 8064SOL    HW235829   0.135   1.578   6.597  0.9019 -0.3769  1.3176
 8065SOL     OW35830   3.137   4.058   1.571  0.1580 -0.5170  0.5867
 8065SOL    HW135831   3.116   4.081   1.662 -4.7559 -0.5941 -0.5342
 8065SOL    HW235832   3.158   3.965   1.576 -0.3829 -0.6835 -0.2158
 8066SOL     OW35833   3.647   2.966   5.841 -0.2118  0.6665  0.1153
 8066SOL    HW135834   3.652   3.061   5.836  1.9267  0.6273  1.3197
 8066SOL    HW235835   3.688   2.958   5.927 -0.9752 -0.1480  0.4005
 8067SOL     OW35836   1.463   3.495   8.966  0.2849  0.3949 -0.1498
 8067SOL    HW135837   1.520   3.428   8.929  0.9717  1.5290 -1.1584
 8067SOL    HW235838   1.473   3.575   8.913  1.9664 -0.3723 -0.9977
 8068SOL     OW35839   3.655   1.072  14.709  0.0278  0.0423  0.3161
 8068SOL    HW135840   3.714   1.032  14.645 -0.2026 -0.0396  0.1526
 8068SOL    HW235841   3.594   0.998  14.712 -0.1683  0.1637 -0.5653
 8069SOL     OW35842   3.763   0.739   6.202  0.3061  0.2182  0.0458
 8069SOL    HW135843   3.851   0.774   6.182  0.9932 -1.9329 -0.6373
 8069SOL    HW235844   3.701   0.781   6.143  0.8592 -0.4594 -1.0166
 8070SOL     OW35845   2.767   2.807   3.709  0.0001 -0.0731 -0.5080
 8070SOL    HW135846   2.783   2.756   3.629  0.0803 -0.1975 -0.4139
 8070SOL    HW235847   2.690   2.859   3.690  0.0618  0.2743  0.1835
 8071SOL     OW35848   1.287   2.679  11.830  0.0358 -0.3060 -0.2321
 8071SOL    HW135849   1.230   2.672  11.754 -0.8339  1.4643  0.2580
 8071SOL    HW235850   1.331   2.595  11.816 -2.1920 -1.1734 -1.9670
 8072SOL     OW35851   0.992   0.226   3.611  0.2110 -0.4465 -0.2998
 8072SOL    HW135852   0.920   0.164   3.595  0.9139 -1.8151  1.7745
 8072SOL    HW235853   1.019   0.251   3.523 -0.6103 -2.4075 -1.1261
 8073SOL     OW35854   2.024   2.742   0.155  0.5422 -0.2178  0.0147
 8073SOL    HW135855   2.094   2.678   0.173 -0.3232 -1.1916 -0.0443
 8073SOL    HW235856   2.011   2.728   0.062  1.0245  0.9194 -0.2178
 8074SOL     OW35857   0.674   0.807   8.256  0.6302  0.3299  0.0408
 8074SOL    HW135858   0.662   0.900   8.234  1.4316  0.4725  0.1861
 8074SOL    HW235859   0.653   0.771   8.170  3.3477  1.4027 -1.0707
 8075SOL     OW35860   4.335   4.136   4.144  0.2035 -0.4347 -0.0720
 8075SOL    HW135861   4.312   4.228   4.135  2.1240 -0.1500 -2.4033
 8075SOL    HW235862   4.252   4.089   4.141  0.0799 -0.2494  0.5870
 8076SOL     OW35863   1.036   1.160   9.065 -0.0914 -0.2668 -0.3432
 8076SOL    HW135864   1.096   1.097   9.104  1.2698  1.7502  0.7914
 8076SOL    HW235865   0.991   1.103   9.002 -0.5804 -0.7697  0.4697
 8077SOL     OW35866   4.459   3.052  11.357  0.7418 -0.4129  0.2306
 8077SOL    HW135867   4.514   3.068  11.434  1.4201 -2.9891  0.2688
 8077SOL    HW235868   4.388   3.000  11.394 -0.4666  1.6892  0.8456
 8078SOL     OW35869   4.088   3.726  15.453 -0.0684 -0.0449  0.3700
 8078SOL    HW135870   4.025   3.778  15.403  0.4634 -0.2845 -0.5416
 8078SOL    HW235871   4.067   3.640  15.415 -0.6395  0.8623 -1.3420
 8079SOL     OW35872   0.714   2.610   3.533  0.4348  0.7521  0.2001
 8079SOL    HW135873   0.718   2.639   3.624  0.9104  0.0126  0.4156
 8079SOL    HW235874   0.672   2.525   3.548  2.3662 -0.5384 -1.8389
 8080SOL     OW35875   1.748   0.127   1.599  0.0086 -0.3992 -0.1896
 8080SOL    HW135876   1.759   0.215   1.634 -0.0308 -0.3832 -0.2176
 8080SOL    HW235877   1.790   0.073   1.667 -0.1715  1.7743  1.6260
 8081SOL     OW35878   3.631   0.126   8.384 -0.0229  0.4547  0.3609
 8081SOL    HW135879   3.618   0.220   8.398  0.3148 -0.1378  4.6119
 8081SOL    HW235880   3.632   0.096   8.475  2.7954 -1.9253 -0.4622
 8082SOL     OW35881   1.498   0.132   5.371  0.0147 -0.1828  0.1294
 8082SOL    HW135882   1.532   0.090   5.292  0.2917 -0.3664  0.3461
 8082SOL    HW235883   1.507   0.057   5.430  0.0777 -0.2320  0.0579
 8083SOL     OW35884   2.431   0.790   3.724  0.0429 -0.5650  0.1230
 8083SOL    HW135885   2.503   0.850   3.704  2.0127 -2.2319  2.2123
 8083SOL    HW235886   2.470   0.704   3.709 -0.3165 -0.9365  1.3139
 8084SOL     OW35887   1.988   0.737   1.741  0.1425  0.6200  0.0111
 8084SOL    HW135888   1.945   0.799   1.801  1.1951 -0.8164  2.2755
 8084SOL    HW235889   1.985   0.661   1.799 -0.5634 -0.3035 -1.2642
 8085SOL     OW35890   2.114   3.909  13.239  0.0546  0.3639 -0.6136
 8085SOL    HW135891   2.133   3.815  13.233 -2.0835  0.0524 -2.3619
 8085SOL    HW235892   2.145   3.946  13.156  0.8504 -0.3007 -0.6162
 8086SOL     OW35893   3.935   2.861   2.892  0.5266  0.0834  0.3148
 8086SOL    HW135894   4.028   2.841   2.903  0.5153  0.0146  0.2868
 8086SOL    HW235895   3.897   2.862   2.980 -1.7004  0.5727 -0.6635
 8087SOL     OW35896   0.926   2.893  11.210  0.0226  0.4661 -0.6100
 8087SOL    HW135897   1.017   2.890  11.240 -0.6523  3.1831  1.7046
 8087SOL    HW235898   0.911   2.982  11.241 -0.5858  0.1643 -0.0247
 8088SOL     OW35899   1.091   2.633  11.628 -0.0069 -0.3488 -0.2808
 8088SOL    HW135900   1.037   2.702  11.590 -1.2573  0.3420  2.8125
 8088SOL    HW235901   1.118   2.592  11.546 -1.2004  0.5602 -1.1312
 8089SOL     OW35902   1.042   1.325  14.169 -0.0837 -0.1989 -0.3015
 8089SOL    HW135903   0.947   1.331  14.167 -0.0177  0.9330  0.1532
 8089SOL    HW235904   1.064   1.237  14.200  1.5295 -0.1840 -1.3565
 8090SOL     OW35905   4.475   1.241   0.554 -0.2550 -0.0997  0.1191
 8090SOL    HW135906   4.384   1.253   0.527 -0.0009  1.7998  0.1155
 8090SOL    HW235907   4.494   1.158   0.511 -1.3831 -0.1047 -0.3604
 8091SOL     OW35908   0.035   1.036  15.010 -0.4271  0.0083 -0.1908
 8091SOL    HW135909   0.104   0.971  15.026 -0.4076  0.1484  0.2937
 8091SOL    HW235910   4.736   1.001  14.929 -0.5594  0.6688 -0.4177
 8092SOL     OW35911   3.628   2.706   6.598 -0.2445 -0.2903 -0.0059
 8092SOL    HW135912   3.623   2.712   6.693 -2.3345  0.7870 -0.1836
 8092SOL    HW235913   3.715   2.675   6.575 -0.4212 -0.4766 -0.4272
 8093SOL     OW35914   1.419   1.299  13.780 -0.6880  0.0278  0.2215
 8093SOL    HW135915   1.373   1.351  13.714  0.2189  0.6647  0.0952
 8093SOL    HW235916   1.386   1.211  13.762 -0.0482  0.0094 -0.8294
 8094SOL     OW35917   3.875   2.223   4.941 -0.4245  0.4351 -0.2284
 8094SOL    HW135918   3.950   2.208   4.883 -0.3033  4.6260 -1.1097
 8094SOL    HW235919   3.917   2.284   5.001 -0.4090 -0.1188  0.3232
 8095SOL     OW35920   3.996   2.739  14.551 -0.0237 -0.4500 -0.2551
 8095SOL    HW135921   3.930   2.770  14.489 -0.7889  0.4025  0.9836
 8095SOL    HW235922   4.076   2.737  14.498  1.4408 -0.6773  1.9242
 8096SOL     OW35923   0.299   0.303   2.608 -0.4462 -0.4599  0.0917
 8096SOL    HW135924   0.262   0.307   2.696  1.6293  2.9336  0.8172
 8096SOL    HW235925   0.246   0.375   2.576  0.7398 -0.5844 -2.1417
 8097SOL     OW35926   4.301   2.490  16.397  0.1429 -0.1533  0.0025
 8097SOL    HW135927   4.227   2.478  16.457 -0.7219  1.4149 -0.7653
 8097SOL    HW235928   4.307   2.398  16.370  2.7724  0.2333 -0.7636
 8098SOL     OW35929   2.846   0.517   8.048  0.1472  0.1604 -0.1131
 8098SOL    HW135930   2.941   0.511   8.057  0.3348  0.4841 -1.8516
 8098SOL    HW235931   2.838   0.605   8.009  2.7040  0.9982  1.2410
 8099SOL     OW35932   3.405   2.173  16.129 -0.2318  0.3098  0.4123
 8099SOL    HW135933   3.464   2.219  16.189  1.8681 -1.4435 -0.3025
 8099SOL    HW235934   3.467   2.128  16.072 -1.6793 -1.4615  0.2437
 8100SOL     OW35935   0.533   3.135   4.924 -0.2961  0.3288  0.4085
 8100SOL    HW135936   0.622   3.163   4.905 -0.4787  0.1441 -0.7100
 8100SOL    HW235937   0.538   3.159   5.016  1.1602 -1.8831  0.8986
 8101SOL     OW35938   1.985   2.852  12.693 -0.3254  0.1599 -0.1631
 8101SOL    HW135939   2.036   2.885  12.619  1.3480 -1.5027  0.2450
 8101SOL    HW235940   2.042   2.778  12.714 -1.1394 -0.6936 -0.9474
 8102SOL     OW35941   2.036   4.562   2.057 -0.4576 -0.0744  0.0944
 8102SOL    HW135942   2.091   4.590   1.984  4.1513  1.0671  3.9862
 8102SOL    HW235943   2.076   4.613   2.127 -1.4832 -1.3395  1.5837
 8103SOL     OW35944   4.464   4.524   7.289  0.4497  0.4093  0.4672
 8103SOL    HW135945   4.550   4.565   7.290 -0.2578  1.8719  2.0471
 8103SOL    HW235946   4.477   4.436   7.323  1.3972  1.1337  1.9517
 8104SOL     OW35947   3.069   2.535   3.254  0.5502  0.8216  0.2121
 8104SOL    HW135948   3.002   2.579   3.202 -0.6125  2.2967  2.9296
 8104SOL    HW235949   3.135   2.539   3.185 -2.1943 -1.6377 -2.5852
 8105SOL     OW35950   2.318   0.560   1.425 -0.2379 -0.5495 -0.2549
 8105SOL    HW135951   2.244   0.580   1.483  0.3793  0.5228  0.1636
 8105SOL    HW235952   2.295   0.607   1.345 -0.9969  1.9363  1.4490
 8106SOL     OW35953   3.399   0.003   8.635 -0.1996 -0.1664 -0.0402
 8106SOL    HW135954   3.356   0.009   8.720 -0.0386  0.7712 -0.0292
 8106SOL    HW235955   3.435   0.090   8.619 -0.2091  0.0688  1.2359
 8107SOL     OW35956   0.348   4.286   6.581  0.4266 -0.3583  0.3393
 8107SOL    HW135957   0.257   4.256   6.571  0.3877 -0.4728  1.0772
 8107SOL    HW235958   0.374   4.308   6.491 -0.2216 -2.1833 -0.2968
 8108SOL     OW35959   0.754   0.420  12.110  0.0318  0.0499  0.3368
 8108SOL    HW135960   0.678   0.460  12.152 -1.1879  0.5282 -2.3008
 8108SOL    HW235961   0.761   0.473  12.031 -0.5789  0.3012  0.4518
 8109SOL     OW35962   3.336   2.890   1.059 -0.5002 -0.7370 -0.9746
 8109SOL    HW135963   3.258   2.847   1.094  0.0408 -1.5367 -0.7460
 8109SOL    HW235964   3.408   2.846   1.105 -1.3671 -0.6688  0.4478
 8110SOL     OW35965   1.828   3.762   1.810  0.5835 -0.3509  0.8964
 8110SOL    HW135966   1.882   3.779   1.733 -0.0910 -0.8673  0.3099
 8110SOL    HW235967   1.800   3.852   1.824 -2.9122 -1.4646  0.8986
 8111SOL     OW35968   1.945   3.707  15.631 -0.4137 -0.1962 -0.4645
 8111SOL    HW135969   1.922   3.616  15.613 -2.5425 -0.1692  2.0314
 8111SOL    HW235970   1.977   3.701  15.721  0.9043 -1.3844 -1.0289
 8112SOL     OW35971   2.244   0.519   6.304  0.6318 -0.6096 -0.3005
 8112SOL    HW135972   2.313   0.507   6.239 -0.3981  0.8306 -1.6789
 8112SOL    HW235973   2.223   0.612   6.312 -0.0610 -0.5337 -2.7558
 8113SOL     OW35974   3.238   0.696  10.515  0.1404 -0.4966 -0.3871
 8113SOL    HW135975   3.275   0.782  10.495 -2.0129  0.4658 -0.2185
 8113SOL    HW235976   3.315   0.642  10.533  1.4635  1.1472 -1.0963
 8114SOL     OW35977   1.088   3.124  10.205 -0.7276  0.0780  0.4204
 8114SOL    HW135978   1.081   3.084  10.118 -1.7760  0.1713  0.4609
 8114SOL    HW235979   1.070   3.044  10.254  3.0775 -1.3066 -0.3825
 8115SOL     OW35980   2.845   1.038   6.192 -0.4292  0.3010  0.4241
 8115SOL    HW135981   2.929   1.067   6.229  0.5038 -0.3610 -1.1790
 8115SOL    HW235982   2.811   0.972   6.252 -0.8807  0.2793  0.1442
 8116SOL     OW35983   0.487   3.219  16.046  0.3029 -0.0835  0.1185
 8116SOL    HW135984   0.422   3.247  16.110  0.3387 -1.3399  0.7072
 8116SOL    HW235985   0.437   3.232  15.965  2.8256 -0.2646 -1.5018
 8117SOL     OW35986   0.529   2.777   5.625  0.0336 -0.5437 -0.5036
 8117SOL    HW135987   0.527   2.725   5.545 -0.0535 -2.4337  0.7233
 8117SOL    HW235988   0.614   2.749   5.660  0.4160 -0.9341 -1.7312
 8118SOL     OW35989   1.749   3.059   3.447 -0.6295 -0.0545 -0.0979
 8118SOL    HW135990   1.844   3.054   3.432 -0.6036  0.7589 -0.1823
 8118SOL    HW235991   1.725   2.974   3.410 -0.1597 -0.1675 -0.1453
 8119SOL     OW35992   4.625   1.463   1.999 -0.0925  0.2898 -0.0736
 8119SOL    HW135993   4.636   1.430   1.910 -1.7947 -0.1919 -0.1024
 8119SOL    HW235994   4.548   1.518   1.979 -0.5816 -1.0496 -1.8865
 8120SOL     OW35995   3.057   3.029   4.189 -0.0183  0.3051 -0.2787
 8120SOL    HW135996   3.062   3.024   4.284 -1.7061  0.6852 -0.1778
 8120SOL    HW235997   3.139   3.074   4.166 -0.8380  1.8473 -0.1656
 8121SOL     OW35998   0.627   2.438   6.633 -0.8218  0.0007 -0.0843
 8121SOL    HW135999   0.585   2.388   6.564  1.1912 -3.1546  0.9639
 8121SOL    HW236000   0.590   2.525   6.616  1.5025  0.7962 -1.0478
 8122SOL     OW36001   1.612   3.979   3.771 -0.3322  0.4765  0.2838
 8122SOL    HW136002   1.586   3.951   3.683 -1.0772  0.6237  0.4645
 8122SOL    HW236003   1.600   4.074   3.763 -2.1397  0.0953 -1.4375
 8123SOL     OW36004   1.859   3.312   2.389  0.2296 -0.3039  0.3008
 8123SOL    HW136005   1.903   3.368   2.325 -1.9103 -2.8321 -3.4019
 8123SOL    HW236006   1.869   3.238   2.329  1.0755 -0.1069  0.1931
 8124SOL     OW36007   2.389   1.435   5.576 -0.1978  0.4823 -0.1864
 8124SOL    HW136008   2.324   1.498   5.607 -0.6453  0.8379 -1.8334
 8124SOL    HW236009   2.334   1.362   5.549 -1.8695  1.7260 -0.1476
 8125SOL     OW36010   3.046   2.162   3.369 -0.0621  0.0384 -0.4848
 8125SOL    HW136011   3.075   2.167   3.278  1.0063 -0.0927 -0.1565
 8125SOL    HW236012   3.053   2.067   3.379  0.2677  0.2638  1.3066
 8126SOL     OW36013   3.071   3.544   4.067  0.1278 -0.5760  0.0718
 8126SOL    HW136014   3.108   3.553   3.979  1.4424  1.2207  0.8213
 8126SOL    HW236015   2.984   3.512   4.042  1.1061 -2.8389 -0.4814
 8127SOL     OW36016   2.239   2.401  17.731 -0.0922 -0.5396  0.0954
 8127SOL    HW136017   2.237   2.307  17.749 -1.4184 -0.3365  1.0571
 8127SOL    HW236018   2.322   2.414  17.685  0.9253  2.4432  2.8008
 8128SOL     OW36019   3.848   0.077  16.736  0.0221 -0.2466 -0.2713
 8128SOL    HW136020   3.778   0.077  16.802 -0.7869  0.9282 -1.1270
 8128SOL    HW236021   3.917   0.091  16.800  0.3514 -0.5525 -0.5592
 8129SOL     OW36022   2.983   1.878   5.048 -0.1122 -0.0701  0.4453
 8129SOL    HW136023   3.052   1.944   5.045  0.1728 -0.3442  1.0013
 8129SOL    HW236024   3.022   1.801   5.006 -0.4268  0.1007 -0.1547
 8130SOL     OW36025   4.228   0.125   4.115  0.3257  0.7119  0.4051
 8130SOL    HW136026   4.320   0.124   4.089  0.2911  1.3225  0.2515
 8130SOL    HW236027   4.194   0.152   4.029 -4.8647 -2.7244  1.3473
 8131SOL     OW36028   4.175   1.280   6.949 -0.6383 -0.3420 -0.5363
 8131SOL    HW136029   4.185   1.188   6.922  1.5499 -0.1363 -0.4128
 8131SOL    HW236030   4.080   1.275   6.959 -0.5486 -2.2774 -0.4849
 8132SOL     OW36031   2.316   1.729   2.827 -0.0445 -0.1510  0.0945
 8132SOL    HW136032   2.263   1.775   2.892  1.0162 -0.1835  0.9941
 8132SOL    HW236033   2.301   1.786   2.752  1.9412  0.3672  0.0764
 8133SOL     OW36034   0.243   1.810  12.073 -0.4780  0.2813  0.2641
 8133SOL    HW136035   0.198   1.883  12.030 -1.9119 -0.7429  0.0456
 8133SOL    HW236036   0.328   1.855  12.081  0.0518 -0.7737  0.5886
 8134SOL     OW36037   4.332   1.023   4.648  0.1911  0.0827  0.3188
 8134SOL    HW136038   4.396   1.091   4.669  1.1253 -1.0225  1.0623
 8134SOL    HW236039   4.253   1.073   4.628 -0.2761 -0.6724  0.2926
 8135SOL     OW36040   1.162   4.263   3.369 -0.0307 -0.0886  0.5165
 8135SOL    HW136041   1.220   4.224   3.303 -0.4995  2.7288 -1.5399
 8135SOL    HW236042   1.103   4.313   3.312 -1.9765 -0.5156  2.1354
 8136SOL     OW36043   0.360   3.990   5.999 -0.1794 -0.2701  0.8816
 8136SOL    HW136044   0.303   4.044   6.053 -1.1580  0.1441 -0.5573
 8136SOL    HW236045   0.345   3.901   6.031  1.6676 -1.2421 -0.9688
 8137SOL     OW36046   1.530   4.495   5.160  0.2211 -0.7109  0.2007
 8137SOL    HW136047   1.437   4.512   5.174  0.4324 -0.4982  1.3984
 8137SOL    HW236048   1.536   4.428   5.229 -0.6565 -1.2580 -0.2537
 8138SOL     OW36049   4.290   3.365   2.925 -0.6451 -0.6277  0.0708
 8138SOL    HW136050   4.255   3.427   2.990 -1.6867 -0.3362 -0.7620
 8138SOL    HW236051   4.379   3.401   2.925 -1.1901  0.7559 -1.5911
 8139SOL     OW36052   4.245   2.077  12.243  0.2958 -0.1145  0.5751
 8139SOL    HW136053   4.191   2.000  12.257  0.4503 -0.2091  0.6530
 8139SOL    HW236054   4.191   2.145  12.203  0.6755  0.4663  1.0465
 8140SOL     OW36055   1.653   3.154   5.454  0.4966  0.5599 -0.4123
 8140SOL    HW136056   1.743   3.185   5.456  0.7224 -0.1982  0.8805
 8140SOL    HW236057   1.609   3.240   5.453 -0.7754 -0.1233 -3.5238
 8141SOL     OW36058   0.180   3.344   5.973  0.4809 -0.4170 -0.2509
 8141SOL    HW136059   0.265   3.311   6.002  1.6369  1.1066 -1.8543
 8141SOL    HW236060   0.178   3.291   5.893  2.9529 -1.5945  0.4668
 8142SOL     OW36061   4.537   3.655   3.479 -0.1001  0.1964 -0.1434
 8142SOL    HW136062   4.456   3.628   3.435 -0.2511  2.2553 -1.1012
 8142SOL    HW236063   4.501   3.720   3.540 -1.3827  0.0371 -0.7182
 8143SOL     OW36064   1.097   1.383  16.803 -0.2536  0.2651 -0.0134
 8143SOL    HW136065   1.150   1.361  16.726 -2.0684  0.6886 -1.3740
 8143SOL    HW236066   1.160   1.377  16.875  0.1791 -0.9294 -0.4864
 8144SOL     OW36067   4.583   2.412   4.212 -0.1034  0.1314 -0.2166
 8144SOL    HW136068   4.579   2.423   4.117 -0.6133 -0.6906 -0.2845
 8144SOL    HW236069   4.494   2.385   4.235  0.7335 -2.2327  0.2346
 8145SOL     OW36070   4.651   3.625   2.892  0.3374 -0.0942 -0.0764
 8145SOL    HW136071   4.602   3.578   2.825 -0.5565  0.4039  0.2317
 8145SOL    HW236072   4.688   3.692   2.835 -0.3280 -0.9924 -1.5625
 8146SOL     OW36073   3.882   3.790   4.640  0.2885 -0.2879 -0.0159
 8146SOL    HW136074   3.820   3.719   4.621  0.6283 -0.2881 -1.1705
 8146SOL    HW236075   3.911   3.807   4.550 -0.8150  1.1729 -0.0910
 8147SOL     OW36076   2.549   4.457   2.715  0.2859 -0.4050  0.4611
 8147SOL    HW136077   2.606   4.394   2.760  1.6055  0.4172 -0.0510
 8147SOL    HW236078   2.613   4.523   2.690 -0.1388 -0.3420 -0.4327
 8148SOL     OW36079   4.715   4.604   9.251  0.6104  0.5788 -0.2411
 8148SOL    HW136080   4.714   4.566   9.339  1.1117 -0.9817 -0.9218
 8148SOL    HW236081   4.715   4.528   9.193 -2.5310  0.0834  0.3971
 8149SOL     OW36082   2.866   0.842   2.246 -0.5019  0.2349  0.2903
 8149SOL    HW136083   2.788   0.895   2.234  0.1140  1.0568 -0.1189
 8149SOL    HW236084   2.858   0.790   2.327  0.7917 -0.6708 -0.1639
 8150SOL     OW36085   3.699   4.200   7.872 -0.1302 -0.5901  0.0359
 8150SOL    HW136086   3.745   4.237   7.796  0.0730 -2.6225 -0.8370
 8150SOL    HW236087   3.767   4.143   7.907  1.2005  1.1721  0.3186
 8151SOL     OW36088   0.315   1.349  11.395  0.1922  0.5562  0.2828
 8151SOL    HW136089   0.318   1.424  11.335 -0.2587  0.9147  0.7115
 8151SOL    HW236090   0.385   1.369  11.457  1.7586 -3.6389 -0.1746
 8152SOL     OW36091   3.552   0.862   9.642 -0.0055 -0.5978  0.1407
 8152SOL    HW136092   3.592   0.784   9.605  0.2847  0.2723 -1.4121
 8152SOL    HW236093   3.589   0.858   9.730  1.8867  1.0094 -0.5795
 8153SOL     OW36094   4.114   0.861   8.137 -0.5267 -0.0059  0.2841
 8153SOL    HW136095   4.159   0.812   8.068 -1.2329  0.2336 -0.3447
 8153SOL    HW236096   4.076   0.927   8.079  0.2112  1.8339  1.9075
 8154SOL     OW36097   3.912   2.227   5.969  0.2095 -0.1036  0.3110
 8154SOL    HW136098   3.848   2.176   6.019 -1.8994  2.8313  0.5261
 8154SOL    HW236099   3.912   2.185   5.883  1.8664  0.7455 -0.1179
 8155SOL     OW36100   4.022   0.891   6.181  0.1981 -0.1137 -0.2588
 8155SOL    HW136101   4.091   0.854   6.235  0.3719 -1.3431 -1.3436
 8155SOL    HW236102   4.076   0.885   6.102 -1.2496 -0.0523 -1.2583
 8156SOL     OW36103   3.381   1.171  15.052 -0.6140  0.3880 -0.2645
 8156SOL    HW136104   3.408   1.083  15.027 -2.5319 -0.6570  1.2949
 8156SOL    HW236105   3.350   1.207  14.969 -0.5485  0.1249 -0.4036
 8157SOL     OW36106   2.298   2.696   2.567 -0.5866  0.0080  0.2253
 8157SOL    HW136107   2.211   2.731   2.546 -0.3692 -0.2541 -1.0757
 8157SOL    HW236108   2.356   2.771   2.562  0.0203 -0.5110 -0.4129
 8158SOL     OW36109   4.023   2.680   1.313  0.2197  0.3112 -0.0963
 8158SOL    HW136110   4.070   2.754   1.351 -0.4610  0.2792  0.8345
 8158SOL    HW236111   4.088   2.620   1.349  0.3958  1.1126  0.9295
 8159SOL     OW36112   3.820   3.171   0.595 -0.1486 -0.5300 -0.7158
 8159SOL    HW136113   3.775   3.198   0.675  0.4871 -4.8523  1.1171
 8159SOL    HW236114   3.850   3.083   0.616  0.4353 -0.2456 -0.3691
 8160SOL     OW36115   4.672   0.108   2.818 -0.2407  0.1092 -0.3443
 8160SOL    HW136116   4.639   0.054   2.746  0.3077  0.9989 -1.2557
 8160SOL    HW236117   4.611   0.084   2.888  0.9795 -2.5822 -0.1810
 8161SOL     OW36118   2.183   3.609   0.208  0.9113 -0.2336  0.3962
 8161SOL    HW136119   2.224   3.695   0.220  1.3192 -0.3223 -0.4059
 8161SOL    HW236120   2.145   3.605   0.296 -1.9959 -3.1786 -1.0302
 8162SOL     OW36121   0.212   1.657  10.189  0.2173  0.0183 -0.2722
 8162SOL    HW136122   0.124   1.626  10.168  1.3847 -2.0403 -2.1043
 8162SOL    HW236123   0.233   1.586  10.249 -1.3953 -2.1555 -2.2443
 8163SOL     OW36124   2.002   3.553   8.477  0.0235  0.2875  0.3351
 8163SOL    HW136125   2.084   3.527   8.435 -1.0073  1.3122 -2.3096
 8163SOL    HW236126   1.987   3.640   8.442  0.7021  0.6418  0.9346
 8164SOL     OW36127   2.788   1.919   2.262 -0.0410 -0.0092  0.0981
 8164SOL    HW136128   2.855   1.868   2.217  1.6841  1.4615  0.9766
 8164SOL    HW236129   2.739   1.859   2.318 -0.7081  0.4834  0.0460
 8165SOL     OW36130   1.363   1.540   3.679  0.3538 -0.2737 -0.1851
 8165SOL    HW136131   1.453   1.557   3.709  0.9203 -1.3144 -1.3236
 8165SOL    HW236132   1.363   1.457   3.725  2.2714 -0.2593 -0.1477
 8166SOL     OW36133   3.486   0.006   4.141  0.0098 -0.3582 -0.1627
 8166SOL    HW136134   3.432   0.075   4.104  2.8976  0.8156 -2.1911
 8166SOL    HW236135   3.565   0.059   4.155  2.0218 -2.8898 -1.9610
 8167SOL     OW36136   3.298   2.264   0.867 -0.0624 -0.0025 -0.3078
 8167SOL    HW136137   3.315   2.356   0.887  0.6731 -0.7165  2.3300
 8167SOL    HW236138   3.376   2.223   0.905  1.8994  3.5066 -0.6091
 8168SOL     OW36139   4.243   2.209   2.209  0.4944 -0.4583 -0.3310
 8168SOL    HW136140   4.165   2.231   2.259 -0.7622 -0.5957 -2.2408
 8168SOL    HW236141   4.222   2.124   2.172 -0.7256 -0.3997  0.2321
 8169SOL     OW36142   3.507   1.068   8.771 -0.4062  0.3336  0.3874
 8169SOL    HW136143   3.524   1.138   8.835  0.5360 -1.2763  1.8897
 8169SOL    HW236144   3.525   1.119   8.692  0.2931  0.3325  0.5453
 8170SOL     OW36145   2.771   4.628  17.565 -0.9553  0.2661 -0.1404
 8170SOL    HW136146   2.680   4.645  17.589 -0.9105  2.2131 -1.3687
 8170SOL    HW236147   2.778   4.671  17.479 -1.4438 -1.4851 -1.0513
 8171SOL     OW36148   4.514   2.347   3.399  0.9139 -0.3728  0.1096
 8171SOL    HW136149   4.510   2.381   3.488  1.1055 -0.3197  0.0974
 8171SOL    HW236150   4.564   2.420   3.362 -1.7942  0.9033 -1.0387
 8172SOL     OW36151   2.569   1.128   5.131 -0.2668 -0.2688  0.1023
 8172SOL    HW136152   2.663   1.132   5.150 -0.4806 -0.7335  1.2966
 8172SOL    HW236153   2.557   1.041   5.093 -1.5770  0.6905 -1.6588
 8173SOL     OW36154   4.607   2.996   3.953 -0.1882  0.4316 -0.2555
 8173SOL    HW136155   4.653   2.920   3.988  0.8449  1.2324  0.1066
 8173SOL    HW236156   4.561   3.031   4.030 -1.8065 -1.3053 -0.4398
 8174SOL     OW36157   0.824   2.202  10.259 -0.4581 -0.4010 -0.9148
 8174SOL    HW136158   0.830   2.296  10.241 -0.9514  0.2523  2.3525
 8174SOL    HW236159   0.797   2.177  10.171 -2.2750 -0.3446 -0.3748
 8175SOL     OW36160   1.265   3.604   9.816 -0.6172 -0.4989 -0.1770
 8175SOL    HW136161   1.351   3.594   9.858 -1.4437  0.0322  1.6308
 8175SOL    HW236162   1.205   3.568   9.881  0.1150  0.0242  0.7845
 8176SOL     OW36163   1.075   3.669  17.207 -0.4126  0.2196  1.0325
 8176SOL    HW136164   1.021   3.595  17.236 -1.2584 -0.1639 -1.5327
 8176SOL    HW236165   1.018   3.745  17.201 -0.5893  0.0178  0.1336
 8177SOL     OW36166   4.494   0.382   6.742  0.3904  0.1838 -0.0705
 8177SOL    HW136167   4.526   0.294   6.761 -1.4336 -0.2078  1.3173
 8177SOL    HW236168   4.411   0.387   6.791  0.0379 -0.0270 -0.6499
 8178SOL     OW36169   0.170   1.280   8.181 -0.1455 -0.0926 -0.2787
 8178SOL    HW136170   0.177   1.215   8.111 -3.8976 -1.5747  0.7102
 8178SOL    HW236171   0.196   1.235   8.261  0.7864  0.5840 -0.2041
 8179SOL     OW36172   3.838   3.634  12.128 -0.4387  0.0004  0.3143
 8179SOL    HW136173   3.892   3.644  12.049 -0.8391  1.6384  0.2323
 8179SOL    HW236174   3.806   3.722  12.147 -0.4836 -0.3449  1.7794
 8180SOL     OW36175   0.682   1.607   6.428 -0.3871  0.7052  0.8813
 8180SOL    HW136176   0.723   1.667   6.491 -0.1649  0.2285  1.1972
 8180SOL    HW236177   0.608   1.659   6.396 -0.0090  0.2379 -0.7411
 8181SOL     OW36178   2.489   2.346  12.411 -0.1595 -0.0084  0.0609
 8181SOL    HW136179   2.536   2.389  12.483  0.0356  0.3442 -0.2772
 8181SOL    HW236180   2.397   2.370  12.424 -0.0895  0.6647 -0.6947
 8182SOL     OW36181   1.353   0.069   9.821  0.2461 -0.4329  0.2039
 8182SOL    HW136182   1.292   0.039   9.889 -0.4159  2.8348  1.0169
 8182SOL    HW236183   1.422   0.007   9.845  1.6422  1.1783  0.2658
 8183SOL     OW36184   2.637   0.533   2.344  0.1309 -0.6720 -0.8440
 8183SOL    HW136185   2.553   0.570   2.371  0.1995 -1.7584  0.8815
 8183SOL    HW236186   2.693   0.593   2.393  0.6595 -1.7787 -0.0968
 8184SOL     OW36187   2.319   0.724  12.302 -0.5659  0.2150 -0.3689
 8184SOL    HW136188   2.242   0.697  12.252 -0.4066  3.2755 -2.2775
 8184SOL    HW236189   2.327   0.650  12.362  2.4497  1.1114  0.3529
 8185SOL     OW36190   0.883   0.887   2.056 -0.0177  0.4361  0.3752
 8185SOL    HW136191   0.895   0.798   2.023 -0.4846  0.8636 -0.9526
 8185SOL    HW236192   0.945   0.923   1.993 -1.0877  0.6674 -0.5576
 8186SOL     OW36193   0.257   2.227   1.288 -0.2476  0.1974 -0.1013
 8186SOL    HW136194   0.336   2.208   1.338 -0.4305 -0.9081 -0.2404
 8186SOL    HW236195   0.294   2.304   1.243 -0.1900 -0.1014 -0.5640
 8187SOL     OW36196   1.576   3.895   5.355 -0.0514 -0.3511  0.1771
 8187SOL    HW136197   1.660   3.857   5.326 -0.2322 -0.4856 -0.1734
 8187SOL    HW236198   1.570   3.859   5.443 -0.0090 -1.9807 -0.4697
 8188SOL     OW36199   1.712   2.976   7.971 -0.3037  0.1395  0.3159
 8188SOL    HW136200   1.671   3.050   7.926  0.7948 -0.5210 -1.7589
 8188SOL    HW236201   1.793   2.973   7.920  0.3690 -2.4088  1.5377
 8189SOL     OW36202   3.092   2.204   9.936 -0.5598 -0.5319  0.1093
 8189SOL    HW136203   3.074   2.138   9.870  1.6397 -0.6067 -0.4236
 8189SOL    HW236204   3.014   2.258   9.929  0.3341  0.4924 -1.9355
 8190SOL     OW36205   4.405   0.341   4.936  0.2089 -0.3645 -0.6235
 8190SOL    HW136206   4.487   0.337   4.887 -0.1147  0.7497 -1.2788
 8190SOL    HW236207   4.425   0.295   5.017  2.0491  1.0553 -0.2739
 8191SOL     OW36208   4.514   4.517   7.807 -0.0579 -0.0377  0.5663
 8191SOL    HW136209   4.551   4.561   7.730  3.7371 -3.9935  0.1067
 8191SOL    HW236210   4.594   4.527   7.860 -0.3368 -0.4525  1.0580
 8192SOL     OW36211   2.963   1.656   7.681 -0.5517 -0.0725 -0.0833
 8192SOL    HW136212   2.978   1.687   7.770 -1.0363  0.2562 -0.1089
 8192SOL    HW236213   3.051   1.631   7.653 -0.6501 -1.9578  1.3119
 8193SOL     OW36214   1.734   4.172   2.445  0.8145  0.9298  0.0645
 8193SOL    HW136215   1.691   4.251   2.415  0.3997  0.2279 -1.1773
 8193SOL    HW236216   1.727   4.174   2.541  1.3789 -1.1673  0.1595
 8194SOL     OW36217   1.472   4.275   3.718 -0.1508 -0.0878  0.0409
 8194SOL    HW136218   1.521   4.356   3.703  1.7245 -1.0332  0.9524
 8194SOL    HW236219   1.481   4.247   3.627  1.9024  0.4122  0.0685
 8195SOL     OW36220   1.776   1.786   2.426 -0.3054  0.0429  0.1542
 8195SOL    HW136221   1.684   1.759   2.432  0.2963 -1.5694  2.3056
 8195SOL    HW236222   1.777   1.871   2.471 -0.0860 -0.9365  2.0017
 8196SOL     OW36223   2.371   4.251  15.051 -0.2567 -0.3672 -0.1333
 8196SOL    HW136224   2.390   4.281  14.962  1.1331 -1.7671 -0.3121
 8196SOL    HW236225   2.284   4.283  15.076 -0.8995  0.7675 -3.7343
 8197SOL     OW36226   2.139   1.699   5.459  0.1950  0.5003 -0.7794
 8197SOL    HW136227   2.070   1.766   5.460 -1.1654 -0.9506  1.4027
 8197SOL    HW236228   2.173   1.710   5.548  0.4436 -0.6078 -0.7445
 8198SOL     OW36229   0.820   0.086   9.220  0.3856  0.0896 -0.0794
 8198SOL    HW136230   0.858   0.173   9.211 -0.0140  0.6657  4.1424
 8198SOL    HW236231   0.802   0.064   9.128  0.9498 -1.0390  0.0749
 8199SOL     OW36232   3.098   2.166   5.870  0.1530  0.7122 -0.1526
 8199SOL    HW136233   3.087   2.085   5.921 -3.4120  1.6891  0.5571
 8199SOL    HW236234   3.179   2.197   5.912  0.9194 -0.9676 -0.3632
 8200SOL     OW36235   4.268   3.250   9.507  0.3332  0.1851  0.1809
 8200SOL    HW136236   4.174   3.262   9.498  0.5343 -0.3838 -2.6514
 8200SOL    HW236237   4.287   3.226   9.598 -1.4984 -0.3655  0.4181
 8201SOL     OW36238   1.282   4.228   3.896 -0.0401 -0.4568  0.3346
 8201SOL    HW136239   1.228   4.295   3.853 -1.0731 -0.8891  0.9454
 8201SOL    HW236240   1.356   4.229   3.836 -0.4110 -3.2478 -0.1288
 8202SOL     OW36241   4.359   2.981  17.232  0.1133  0.3625 -0.0244
 8202SOL    HW136242   4.382   3.058  17.182 -2.3235  1.1376  0.0447
 8202SOL    HW236243   4.452   2.956  17.233  0.0487  0.1296  0.4033
 8203SOL     OW36244   0.790   4.450   3.357 -0.2262  0.7337  0.3643
 8203SOL    HW136245   0.698   4.422   3.348 -0.6064  1.7095  1.2347
 8203SOL    HW236246   0.800   4.529   3.305  1.8734  0.9527  1.0974
 8204SOL     OW36247   0.439   0.939   2.529  0.0105  0.1889 -0.3763
 8204SOL    HW136248   0.518   0.945   2.475  0.3329 -2.0363 -0.1663
 8204SOL    HW236249   0.424   1.033   2.538  0.6794  0.0988  1.7773
 8205SOL     OW36250   2.723   1.611  12.037 -0.1447 -0.1854 -0.2499
 8205SOL    HW136251   2.710   1.532  12.089 -1.6122  1.5030  1.9298
 8205SOL    HW236252   2.815   1.614  12.064 -0.7106 -0.7094  1.7196
 8206SOL     OW36253   3.115   2.579   6.647  0.0556 -0.0631  0.3149
 8206SOL    HW136254   3.193   2.621   6.612 -0.4833 -0.6286 -1.5695
 8206SOL    HW236255   3.061   2.553   6.572  2.0732  2.1125 -1.8861
 8207SOL     OW36256   4.126   3.200   7.331 -0.4936  0.1063 -0.1967
 8207SOL    HW136257   4.215   3.212   7.297 -0.1272  1.5519  1.2232
 8207SOL    HW236258   4.141   3.194   7.426 -1.0755  0.5492 -0.0795
 8208SOL     OW36259   3.596   0.423   7.900 -0.3877  0.2600  0.0673
 8208SOL    HW136260   3.555   0.406   7.816 -1.8598  1.5150  0.5269
 8208SOL    HW236261   3.659   0.493   7.883  0.3622  0.1264  2.2787
 8209SOL     OW36262   2.153   3.305   7.534 -0.3834  0.1837  0.3510
 8209SOL    HW136263   2.121   3.228   7.582  0.1324  0.1902  0.6976
 8209SOL    HW236264   2.117   3.378   7.584 -0.2791 -0.0612  0.7840
 8210SOL     OW36265   4.472   3.535   6.896 -0.5438  0.1305 -0.4416
 8210SOL    HW136266   4.441   3.491   6.817 -1.8359  0.1466  0.0583
 8210SOL    HW236267   4.530   3.605   6.864  0.3247 -1.2264 -1.8599
 8211SOL     OW36268   0.164   3.048  12.662 -0.5699 -0.3894  0.1625
 8211SOL    HW136269   0.221   3.037  12.585  0.9381 -1.0458  1.3709
 8211SOL    HW236270   0.235   3.063  12.725  0.9044 -1.8403 -1.1464
 8212SOL     OW36271   1.513   2.995   5.277  0.0937 -0.1786 -0.5546
 8212SOL    HW136272   1.453   2.955   5.339 -0.1271  1.4521  0.2659
 8212SOL    HW236273   1.558   3.055   5.336  0.9340 -1.3140 -0.0392
 8213SOL     OW36274   2.837   4.633   0.065  0.1967 -0.2349 -0.0168
 8213SOL    HW136275   2.809   4.549   0.102 -1.6593 -0.2443 -1.4404
 8213SOL    HW236276   2.829   4.622  17.721  1.1668  0.5886 -0.1950
 8214SOL     OW36277   3.295   1.239   6.791  0.0985 -0.3719  0.9779
 8214SOL    HW136278   3.203   1.261   6.774  1.1189  2.5513 -0.7695
 8214SOL    HW236279   3.318   1.197   6.709  1.9606  1.8275  0.3674
 8215SOL     OW36280   4.427   4.525   9.336 -0.1401  1.3234  0.1837
 8215SOL    HW136281   4.510   4.497   9.376 -1.6774 -2.3717  0.8121
 8215SOL    HW236282   4.364   4.484   9.395 -1.6730  2.3184 -0.7747
 8216SOL     OW36283   2.610   0.410   2.042  0.3330 -0.2635  0.3042
 8216SOL    HW136284   2.551   0.334   2.045 -0.4500  0.3470  0.6707
 8216SOL    HW236285   2.611   0.441   2.133 -2.2012  1.5861 -0.2753
 8217SOL     OW36286   3.959   4.027  10.704  0.0274  0.1820  0.0970
 8217SOL    HW136287   3.953   4.061  10.793 -2.9076 -3.2588  1.2649
 8217SOL    HW236288   4.034   4.073  10.667  0.1263 -0.2144 -0.2023
 8218SOL     OW36289   1.841   0.228   0.109 -0.8971  0.3141  0.2436
 8218SOL    HW136290   1.930   0.238   0.142 -0.5229  2.9775 -1.6076
 8218SOL    HW236291   1.863   0.218   0.017  0.2217  0.1994  0.5187
 8219SOL     OW36292   3.458   2.871  17.043  0.9141 -0.0166 -0.4282
 8219SOL    HW136293   3.461   2.802  17.109 -0.0917 -1.1198 -1.5247
 8219SOL    HW236294   3.550   2.889  17.027  1.3018 -0.8435  0.8810
 8220SOL     OW36295   3.365   2.327  13.325  0.0488  0.5580  0.1886
 8220SOL    HW136296   3.439   2.273  13.300 -0.1108  0.5718 -0.3203
 8220SOL    HW236297   3.373   2.406  13.273  1.0102  1.3602  1.5592
 8221SOL     OW36298   4.173   3.344   8.573  0.0526 -0.3100 -0.0379
 8221SOL    HW136299   4.250   3.294   8.548 -1.4397 -2.4909 -0.2612
 8221SOL    HW236300   4.207   3.396   8.647 -1.9923  0.5246  0.3235
 8222SOL     OW36301   4.305   1.275   8.163  0.3349  0.0609  0.0033
 8222SOL    HW136302   4.221   1.261   8.119  0.1470  0.5600  0.2064
 8222SOL    HW236303   4.321   1.186   8.195 -0.8675 -0.1753 -0.0650
 8223SOL     OW36304   1.090   3.296   6.146  0.7837 -0.4530  0.2723
 8223SOL    HW136305   1.084   3.242   6.068  1.0884 -1.3813  0.8916
 8223SOL    HW236306   1.012   3.283   6.200 -2.1310  2.7127 -3.1159
 8224SOL     OW36307   3.347   0.224  13.132 -0.3290  0.4527 -0.1636
 8224SOL    HW136308   3.360   0.307  13.087 -2.0984 -0.0662 -1.6278
 8224SOL    HW236309   3.261   0.219  13.173  0.7256  0.7410  2.1137
 8225SOL     OW36310   4.642   2.993  17.207  0.0163 -0.1272  0.1904
 8225SOL    HW136311   4.653   3.082  17.176 -0.5691 -0.9267 -2.3105
 8225SOL    HW236312   4.637   3.016  17.300  2.1164  1.2006 -0.0409
 8226SOL     OW36313   2.899   4.682   3.350 -0.4241  0.0360 -0.2045
 8226SOL    HW136314   2.978   4.630   3.366 -0.1174  0.0487 -1.6762
 8226SOL    HW236315   2.837   4.616   3.319 -0.2331 -0.3429  0.2177
 8227SOL     OW36316   0.637   4.247   4.561  0.0311  0.6437  0.6732
 8227SOL    HW136317   0.656   4.223   4.652 -0.6072 -0.4974  0.5134
 8227SOL    HW236318   0.725   4.242   4.524 -0.1814 -0.1287  0.2610
 8228SOL     OW36319   1.984   4.605  11.005 -0.2039 -0.2715 -0.1750
 8228SOL    HW136320   1.889   4.597  11.001 -0.0950 -0.3278 -2.4699
 8228SOL    HW236321   2.003   4.688  11.049  2.0664 -0.2643 -1.1709
 8229SOL     OW36322   2.078   1.046   3.993  0.6224  0.5185  0.6618
 8229SOL    HW136323   2.089   1.141   3.992  0.0444  0.5469 -2.5923
 8229SOL    HW236324   2.166   1.015   3.972  0.3488 -1.1992  2.0099
 8230SOL     OW36325   1.458   1.046   6.860 -0.3797  0.3766  0.0374
 8230SOL    HW136326   1.426   1.076   6.775  0.6251 -0.9613 -0.8199
 8230SOL    HW236327   1.529   1.110   6.874  0.4017 -0.4852  0.0414
 8231SOL     OW36328   3.393   3.715   6.164  0.1586  0.0795 -0.0868
 8231SOL    HW136329   3.425   3.632   6.201  0.0275 -0.3226 -0.8738
 8231SOL    HW236330   3.311   3.718   6.213  1.2305  0.2011  1.7041
 8232SOL     OW36331   1.121   4.218   9.122 -0.2104 -0.2143  0.0636
 8232SOL    HW136332   1.141   4.288   9.060  2.5692  0.3546  1.6140
 8232SOL    HW236333   1.027   4.211   9.103 -0.1914 -0.5643  0.0888
 8233SOL     OW36334   1.795   0.940   0.409 -0.2050  0.4184  0.1504
 8233SOL    HW136335   1.758   0.997   0.477  2.5101 -1.0224  2.8434
 8233SOL    HW236336   1.877   0.927   0.456 -1.5545 -0.7638  2.1706
 8234SOL     OW36337   1.936   4.097   4.470 -0.3218  0.1079  0.0135
 8234SOL    HW136338   1.973   4.029   4.526 -0.7789 -2.2248 -2.5067
 8234SOL    HW236339   1.859   4.105   4.527  0.7009 -0.8049  1.5067
 8235SOL     OW36340   0.812   1.041  12.955  0.1619 -0.1182 -0.3302
 8235SOL    HW136341   0.785   0.949  12.959  0.6541 -0.2168  0.8115
 8235SOL    HW236342   0.906   1.027  12.947  0.2760  0.0009  0.7867
 8236SOL     OW36343   4.058   3.061   2.353 -0.5844  0.3038 -0.0186
 8236SOL    HW136344   4.053   3.030   2.263 -3.3250  0.4336  0.0758
 8236SOL    HW236345   3.962   3.059   2.357 -0.5794  0.8354  0.3665
 8237SOL     OW36346   0.515   2.653   3.331  0.3048  0.1604 -0.4028
 8237SOL    HW136347   0.443   2.668   3.393  0.7049  0.6872 -0.0713
 8237SOL    HW236348   0.586   2.702   3.372 -0.1337 -1.7697  2.7234
 8238SOL     OW36349   3.587   2.800   4.114 -0.6106 -0.1596  0.5876
 8238SOL    HW136350   3.516   2.775   4.055 -1.1185  0.4097  0.9577
 8238SOL    HW236351   3.554   2.883   4.150 -0.6693 -0.4986  1.3226
 8239SOL     OW36352   2.704   1.023   2.506 -0.0334  0.1560  0.2650
 8239SOL    HW136353   2.622   1.035   2.555  0.1085 -0.4243  0.6379
 8239SOL    HW236354   2.759   0.997   2.580  0.0411 -0.4791 -0.0161
 8240SOL     OW36355   1.202   1.588   8.800 -0.2581 -0.2132 -0.2795
 8240SOL    HW136356   1.179   1.500   8.830 -0.4886  0.1001  0.4637
 8240SOL    HW236357   1.212   1.629   8.886  1.3205  1.7079 -1.3721
 8241SOL     OW36358   2.134   1.727   8.135  0.4121 -0.0989 -0.2118
 8241SOL    HW136359   2.079   1.723   8.057  0.1438  0.0783 -0.0287
 8241SOL    HW236360   2.120   1.644   8.181 -1.0733  0.0580 -0.3731
 8242SOL     OW36361   1.300   1.892   6.822  0.7950 -0.3765  0.3669
 8242SOL    HW136362   1.292   1.985   6.842 -1.4350 -0.7540  1.1644
 8242SOL    HW236363   1.228   1.874   6.762 -0.2958  0.5243  1.4210
 8243SOL     OW36364   1.913   0.658   8.064 -0.2038 -0.0207 -0.0004
 8243SOL    HW136365   1.953   0.702   7.988 -0.5657  0.5454  0.1365
 8243SOL    HW236366   1.907   0.728   8.129 -0.2411  1.5616 -1.7165
 8244SOL     OW36367   4.185   3.359  10.450  0.4593 -0.0428  0.2683
 8244SOL    HW136368   4.099   3.346  10.488  0.7772  1.5882  1.5120
 8244SOL    HW236369   4.198   3.266  10.428  0.1044 -0.0181 -0.0427
 8245SOL     OW36370   0.471   3.924   7.852  0.0644 -0.1183  0.3573
 8245SOL    HW136371   0.521   3.847   7.825 -1.6078 -0.0558 -2.8771
 8245SOL    HW236372   0.386   3.886   7.876  0.3908 -1.1284 -0.1187
 8246SOL     OW36373   2.099   2.143   3.001 -0.6456 -0.0566 -0.4221
 8246SOL    HW136374   2.167   2.209   3.018 -1.7698  0.6491  1.3621
 8246SOL    HW236375   2.033   2.163   3.067 -0.3906  0.7388 -0.4079
 8247SOL     OW36376   1.456   1.419   4.545  0.3863  0.1839  0.2976
 8247SOL    HW136377   1.366   1.449   4.532  0.0937 -1.0478 -0.5490
 8247SOL    HW236378   1.503   1.445   4.466 -1.0843  1.6150 -0.1028
 8248SOL     OW36379   2.230   2.717   8.312  0.0348  0.1760 -0.6378
 8248SOL    HW136380   2.170   2.650   8.347  0.6330 -0.7035 -1.2839
 8248SOL    HW236381   2.294   2.725   8.383 -1.8084  1.3540  0.8898
 8249SOL     OW36382   3.923   3.262   8.511  0.1305 -0.1315 -0.3345
 8249SOL    HW136383   3.870   3.318   8.567  0.0747 -0.6975  0.1788
 8249SOL    HW236384   4.012   3.278   8.544  0.1339  2.8974 -1.8595
 8250SOL     OW36385   4.427   2.493  17.103  0.5881 -0.4280 -0.1631
 8250SOL    HW136386   4.417   2.566  17.164  1.4653 -1.6826  1.4909
 8250SOL    HW236387   4.523   2.488  17.096  0.8529  0.9876  2.5120
 8251SOL     OW36388   1.243   0.781   3.423  0.5279 -0.0689 -0.3216
 8251SOL    HW136389   1.268   0.698   3.383 -3.3477 -1.0729 -0.6509
 8251SOL    HW236390   1.319   0.797   3.479  0.7937 -3.9744  0.3929
 8252SOL     OW36391   2.799   4.609   2.700  0.1386 -0.1163 -0.2557
 8252SOL    HW136392   2.870   4.663   2.666 -0.6084  1.1110  0.0877
 8252SOL    HW236393   2.784   4.646   2.787  0.6992 -0.3044 -0.0799
 8253SOL     OW36394   2.698   1.026   4.562  0.4795 -0.1577 -0.2460
 8253SOL    HW136395   2.703   1.052   4.470  0.2177  0.5062 -0.0769
 8253SOL    HW236396   2.602   1.020   4.567  0.5481 -2.2174 -1.6485
 8254SOL     OW36397   2.587   2.470   3.593  0.2500 -0.1681 -0.7161
 8254SOL    HW136398   2.642   2.416   3.649  0.1970  0.7499  0.2408
 8254SOL    HW236399   2.520   2.500   3.656  2.3468  2.2085  0.3879
 8255SOL     OW36400   0.540   2.709   3.078  0.4322  0.0332 -0.2370
 8255SOL    HW136401   0.613   2.650   3.061  0.7820 -0.8128  4.1755
 8255SOL    HW236402   0.526   2.692   3.172  0.6897  1.7641  0.1111
 8256SOL     OW36403   4.559   1.765  12.061 -0.2357  0.0137  0.0100
 8256SOL    HW136404   4.604   1.710  11.997  0.2253  1.7121 -1.1193
 8256SOL    HW236405   4.482   1.787  12.009 -1.8078  0.5410  2.5664
 8257SOL     OW36406   0.230   2.752   2.601  0.5688  0.5920 -0.2028
 8257SOL    HW136407   0.311   2.761   2.650  0.1313  0.3725  0.5562
 8257SOL    HW236408   0.266   2.779   2.517 -3.3214 -0.8520 -2.3474
 8258SOL     OW36409   4.402   2.573   7.393  0.1972  0.4093  0.2432
 8258SOL    HW136410   4.425   2.496   7.341  1.7251  0.5494  0.7176
 8258SOL    HW236411   4.306   2.572   7.390  0.1765  1.1848  0.8031
 8259SOL     OW36412   0.415   4.665   3.119 -0.0389 -0.0471  0.4499
 8259SOL    HW136413   0.340   4.665   3.059 -0.9850  0.6309  1.6524
 8259SOL    HW236414   0.426   0.021   3.125  1.2378  0.0421 -3.3342
 8260SOL     OW36415   4.575   2.957   4.859  0.0174  0.0096 -0.3079
 8260SOL    HW136416   4.481   2.971   4.870  0.2143 -0.1947  1.5870
 8260SOL    HW236417   4.580   2.872   4.903 -0.3296  0.2498  0.1974
 8261SOL     OW36418   2.116   1.213  14.882 -0.2620 -0.3463  0.2373
 8261SOL    HW136419   2.164   1.137  14.913 -0.7612 -1.7119 -2.3687
 8261SOL    HW236420   2.185   1.279  14.887 -0.0104 -0.5331 -0.7771
 8262SOL     OW36421   4.485   3.681   4.749 -0.3097 -0.0811  0.1049
 8262SOL    HW136422   4.465   3.771   4.724 -1.0395 -0.6073 -1.1987
 8262SOL    HW236423   4.431   3.622   4.697  0.0366  0.8700 -1.3291
 8263SOL     OW36424   3.764   3.430  10.034 -0.1580 -0.6799 -0.2196
 8263SOL    HW136425   3.758   3.346   9.988  1.1098  0.0712 -1.7447
 8263SOL    HW236426   3.697   3.479   9.987 -1.0416 -0.3658  1.3723
 8264SOL     OW36427   1.916   2.004   5.714 -0.1644  0.3645 -0.2233
 8264SOL    HW136428   1.858   2.001   5.790 -0.3655  2.6545 -0.2720
 8264SOL    HW236429   1.991   2.049   5.755  0.7245  0.2694 -1.7431
 8265SOL     OW36430   0.822   2.750  10.984 -0.6772  0.8936 -0.4975
 8265SOL    HW136431   0.857   2.809  11.052 -0.2494  0.2319 -0.1495
 8265SOL    HW236432   0.869   2.786  10.909 -1.3634  1.0981 -0.8244
 8266SOL     OW36433   4.045   1.866  13.115 -0.1522 -0.0195  0.3842
 8266SOL    HW136434   4.117   1.818  13.074 -0.1346  0.1055  0.2721
 8266SOL    HW236435   4.090   1.903  13.192  0.5845 -2.5361  1.1713
 8267SOL     OW36436   0.785   0.050   3.864  0.5066  0.2867 -0.3284
 8267SOL    HW136437   0.691   0.061   3.853  0.0823 -3.1430 -0.1957
 8267SOL    HW236438   0.819   0.031   3.776 -2.6966  0.9846 -1.7122
 8268SOL     OW36439   1.581   2.153  16.766  0.5495 -0.3116 -0.1085
 8268SOL    HW136440   1.655   2.122  16.713  0.1460 -0.0832 -0.7963
 8268SOL    HW236441   1.581   2.113  16.853  1.4315  2.2455  1.0574
 8269SOL     OW36442   1.257   1.549  10.493  0.0633 -0.0629 -0.1072
 8269SOL    HW136443   1.329   1.581  10.438  0.9308  1.2042  1.7929
 8269SOL    HW236444   1.295   1.471  10.533 -2.5997 -0.3775  1.8105
 8270SOL     OW36445   4.318   2.396   6.173  0.6715 -0.4607 -0.0212
 8270SOL    HW136446   4.339   2.335   6.102  0.6509  0.9119 -1.1996
 8270SOL    HW236447   4.234   2.355   6.193  0.3556  0.0570 -0.2883
 8271SOL     OW36448   4.734   3.697   1.874  0.6584 -0.4997 -0.2995
 8271SOL    HW136449   0.005   3.604   1.893  1.9270 -0.6177 -1.4944
 8271SOL    HW236450   4.674   3.698   1.800 -0.9166 -0.0207  0.9905
 8272SOL     OW36451   4.069   4.149   4.301 -0.1342 -0.0053  0.1712
 8272SOL    HW136452   4.131   4.186   4.364  0.3149 -1.7232  0.7267
 8272SOL    HW236453   4.049   4.069   4.350  3.0383 -1.6498 -1.2359
 8273SOL     OW36454   0.240   1.410   4.654  0.2227 -0.2737 -0.4116
 8273SOL    HW136455   0.257   1.323   4.618 -2.0934 -0.0926 -1.8857
 8273SOL    HW236456   0.166   1.446   4.605 -0.9067 -2.7659 -0.5261
 8274SOL     OW36457   1.548   0.155   2.758  0.8843  0.2484  0.2211
 8274SOL    HW136458   1.601   0.212   2.701  0.4530  0.9110  0.4805
 8274SOL    HW236459   1.607   0.145   2.833  0.2926  0.6827  0.7431
 8275SOL     OW36460   1.342   1.675   1.639  0.1554  0.0493  0.4211
 8275SOL    HW136461   1.334   1.594   1.689  2.1347 -1.0391 -0.9985
 8275SOL    HW236462   1.398   1.649   1.565 -0.4132 -0.2996  0.1110
 8276SOL     OW36463   3.057   1.996   0.881 -0.0673  0.2290 -0.2697
 8276SOL    HW136464   3.089   2.050   0.809 -2.8924  3.1153  0.5995
 8276SOL    HW236465   3.122   2.008   0.949  0.5368 -2.3329 -0.3878
 8277SOL     OW36466   3.255   1.062  14.309 -0.1809 -0.3441  0.1617
 8277SOL    HW136467   3.270   1.063  14.404  1.8829 -0.5229 -0.1741
 8277SOL    HW236468   3.279   0.971  14.292  1.0022  0.6702 -3.5286
 8278SOL     OW36469   2.565   4.124   3.570  0.1486  0.6467  0.2225
 8278SOL    HW136470   2.573   4.030   3.587 -0.0444  0.1825 -2.2425
 8278SOL    HW236471   2.507   4.151   3.641  0.2758  1.0258  0.1830
 8279SOL     OW36472   2.043   4.347   4.470 -0.0248  0.1171 -0.0889
 8279SOL    HW136473   2.106   4.353   4.541 -2.2654  2.7612  1.6600
 8279SOL    HW236474   2.021   4.254   4.478  0.2121 -0.3267 -4.5861
 8280SOL     OW36475   0.728   1.563   9.032  0.1473 -0.0478  0.2283
 8280SOL    HW136476   0.660   1.576   9.098 -1.6983  1.9227 -2.0871
 8280SOL    HW236477   0.697   1.609   8.954 -1.6092 -0.6131  0.5908
 8281SOL     OW36478   4.206   1.305   9.063 -0.4410 -0.0433 -0.5532
 8281SOL    HW136479   4.143   1.248   9.107  1.1025  0.5998  2.4163
 8281SOL    HW236480   4.235   1.366   9.131 -0.6251  0.2898 -0.7700
 8282SOL     OW36481   2.174   3.936   6.974 -0.0868  0.1511 -0.3352
 8282SOL    HW136482   2.259   3.900   6.948  0.2465  2.1275 -1.9924
 8282SOL    HW236483   2.194   4.030   6.972 -1.0770  0.3636 -0.1859
 8283SOL     OW36484   2.890   3.356  12.328  0.7249 -0.3022  0.2007
 8283SOL    HW136485   2.893   3.292  12.398 -0.0637 -0.9664 -0.3766
 8283SOL    HW236486   2.896   3.303  12.248 -0.8831 -0.2751  0.0745
 8284SOL     OW36487   3.141   0.505   7.797 -0.4117  0.3630  0.3827
 8284SOL    HW136488   3.146   0.569   7.869 -2.5179 -0.4573  1.2312
 8284SOL    HW236489   3.135   0.563   7.721 -1.0758 -2.7329 -1.9232
 8285SOL     OW36490   4.650   3.143   9.138 -0.1045  0.5568  0.8701
 8285SOL    HW136491   4.618   3.162   9.226 -0.9851  0.9739  0.4632
 8285SOL    HW236492   4.569   3.110   9.098 -0.4492  1.7781  0.5431
 8286SOL     OW36493   2.129   3.833  17.626  0.3086 -0.8247  0.2253
 8286SOL    HW136494   2.203   3.781  17.658  0.7197  0.5201  1.4541
 8286SOL    HW236495   2.166   3.840  17.538 -0.7192 -0.5838 -0.1889
 8287SOL     OW36496   1.877   2.174   4.302  0.4199 -0.2828  0.0639
 8287SOL    HW136497   1.885   2.173   4.207 -1.5418  0.2611 -0.0969
 8287SOL    HW236498   1.962   2.133   4.321  0.7325  0.0086 -0.7235
 8288SOL     OW36499   3.254   4.348   7.687  0.0494  0.1653 -0.3588
 8288SOL    HW136500   3.276   4.438   7.711  0.5939 -0.3920  1.1976
 8288SOL    HW236501   3.318   4.340   7.616 -0.3465 -1.8355 -0.4881
 8289SOL     OW36502   2.254   2.754   3.530 -0.3905 -0.0786  0.1276
 8289SOL    HW136503   2.319   2.796   3.586 -1.2320 -0.2135  1.2072
 8289SOL    HW236504   2.278   2.789   3.444 -0.4027  1.3179  0.7105
 8290SOL     OW36505   4.027   3.577   8.950 -0.2839  0.0909 -0.0561
 8290SOL    HW136506   3.981   3.513   8.897  0.8184 -0.8772  0.1565
 8290SOL    HW236507   3.956   3.608   9.007  0.3091  1.6353 -0.1490
 8291SOL     OW36508   4.079   4.391  13.386  0.8339  0.0364 -0.4375
 8291SOL    HW136509   4.089   4.298  13.369  2.3766 -0.1492  1.4973
 8291SOL    HW236510   4.165   4.432  13.379  0.1179  1.7395  0.6272
 8292SOL     OW36511   2.913   3.958   0.986 -0.1506 -0.5295  0.2497
 8292SOL    HW136512   2.928   3.898   0.913  1.2339 -1.2607  1.1278
 8292SOL    HW236513   2.820   3.976   0.978 -0.1309 -1.4233 -1.8575
 8293SOL     OW36514   0.868   1.879  13.864  0.7455 -0.1752  0.4022
 8293SOL    HW136515   0.797   1.849  13.920  0.5908  0.3085  0.4714
 8293SOL    HW236516   0.821   1.936  13.803  0.7962 -1.2832 -0.6658
 8294SOL     OW36517   0.095   3.680  10.611  0.3651  0.2106  0.3475
 8294SOL    HW136518   0.143   3.617  10.665  0.5118 -0.4265 -0.5388
 8294SOL    HW236519   0.152   3.756  10.606 -0.1873  0.4319 -2.2475
 8295SOL     OW36520   2.906   2.885  16.288  0.5424  0.2519 -0.1439
 8295SOL    HW136521   2.903   2.972  16.326  0.7798 -0.2582  1.0396
 8295SOL    HW236522   2.990   2.882  16.242 -0.4663 -3.1113 -1.8539
 8296SOL     OW36523   1.575   0.797   8.505 -0.0456 -0.6357  0.1634
 8296SOL    HW136524   1.565   0.818   8.413  0.6872 -0.7682  0.0564
 8296SOL    HW236525   1.607   0.707   8.505 -1.1087 -1.0100 -1.1754
 8297SOL     OW36526   0.211   2.242   7.901 -0.7726  0.3686 -0.3785
 8297SOL    HW136527   0.205   2.337   7.903  0.5808  0.4055  2.3887
 8297SOL    HW236528   0.259   2.205   7.976 -1.2371 -2.6865 -1.5711
 8298SOL     OW36529   3.900   0.315   8.463  0.0575  0.0451 -0.0978
 8298SOL    HW136530   3.912   0.222   8.486 -1.4397  1.0061  4.7384
 8298SOL    HW236531   3.807   0.328   8.445  0.1240  0.6844  0.0363
 8299SOL     OW36532   4.438   1.333   6.834  1.4635 -0.4544  0.1811
 8299SOL    HW136533   4.383   1.309   6.908 -0.4377 -0.5568 -1.2487
 8299SOL    HW236534   4.452   1.242   6.808 -2.0784 -0.2852 -2.3339
 8300SOL     OW36535   0.070   0.462  11.194  0.2354  0.0940 -0.0504
 8300SOL    HW136536   0.127   0.413  11.253 -0.2154  1.7209  1.7682
 8300SOL    HW236537   0.134   0.471  11.124  1.3435  0.9378  1.0795
 8301SOL     OW36538   0.071   1.564   7.387  0.9037 -0.2771  0.4008
 8301SOL    HW136539   4.732   1.612   7.419  0.0562 -1.2618 -0.1571
 8301SOL    HW236540   0.092   1.642   7.335 -2.5450  0.3041 -0.1380
 8302SOL     OW36541   2.541   3.259   1.755 -0.1383  0.8662  0.0323
 8302SOL    HW136542   2.637   3.248   1.752 -0.1402  1.2149 -1.1548
 8302SOL    HW236543   2.511   3.224   1.671 -1.2243 -0.9606  1.1790
 8303SOL     OW36544   0.768   3.124  15.268  0.0411  0.0375  0.2053
 8303SOL    HW136545   0.847   3.113  15.320  0.1539 -1.8054 -0.3413
 8303SOL    HW236546   0.786   3.087  15.182  0.8623  0.5753  0.1444
 8304SOL     OW36547   1.663   1.669  13.823  0.1227 -0.0463 -0.4150
 8304SOL    HW136548   1.733   1.728  13.795  0.3932  0.7534  1.9599
 8304SOL    HW236549   1.593   1.734  13.812 -0.2675 -0.6949 -1.8007
 8305SOL     OW36550   4.338   2.009   0.830 -0.0119  0.2811 -0.1298
 8305SOL    HW136551   4.297   2.077   0.883  1.5131 -0.2465  1.6809
 8305SOL    HW236552   4.261   1.971   0.787 -0.1044  1.4675 -1.0303
 8306SOL     OW36553   1.777   0.232   4.519 -0.1925 -0.0029 -0.0138
 8306SOL    HW136554   1.860   0.217   4.473 -1.2452 -0.7440 -1.6628
 8306SOL    HW236555   1.785   0.326   4.536  2.0415 -0.1682 -0.0418
 8307SOL     OW36556   2.208   0.289  14.877 -0.0272  0.7730  0.1327
 8307SOL    HW136557   2.158   0.369  14.868 -3.2208 -1.4025 -1.2116
 8307SOL    HW236558   2.258   0.295  14.796 -1.8617  0.1308 -1.0501
 8308SOL     OW36559   2.718   3.923   8.999 -0.0141 -0.8300 -0.2391
 8308SOL    HW136560   2.751   3.854   9.057  1.1412 -1.2382 -1.3682
 8308SOL    HW236561   2.624   3.928   9.009 -0.2639 -0.4490 -2.6093
 8309SOL     OW36562   0.507   0.523  12.209 -0.7815 -0.1347  0.5609
 8309SOL    HW136563   0.438   0.461  12.183 -0.1074 -0.1377 -1.1943
 8309SOL    HW236564   0.492   0.541  12.302 -0.6094 -1.5537  0.8543
 8310SOL     OW36565   2.653   1.757   2.027 -0.1531  1.1529 -0.6125
 8310SOL    HW136566   2.592   1.745   2.099  1.6527 -1.4347  0.4799
 8310SOL    HW236567   2.640   1.670   1.990 -0.8903 -1.8562  6.7746
 8311SOL     OW36568   3.241   0.008   5.952  0.2544  0.2506 -0.2455
 8311SOL    HW136569   3.242   4.679   6.020 -1.0353  0.4308 -0.0413
 8311SOL    HW236570   3.147   0.004   5.937  0.3467 -1.1500 -0.4853
 8312SOL     OW36571   1.475   4.211   3.443 -0.5063 -0.1774  0.0659
 8312SOL    HW136572   1.485   4.258   3.360 -1.1093 -2.4187 -1.2700
 8312SOL    HW236573   1.383   4.232   3.460 -1.0229  0.0129 -2.9600
 8313SOL     OW36574   4.040   4.651   2.676  0.3303  0.3169 -0.0211
 8313SOL    HW136575   4.125   4.657   2.720 -0.1379 -0.8324  1.0261
 8313SOL    HW236576   4.027   4.557   2.669  0.1986  0.2653  0.9482
 8314SOL     OW36577   2.532   2.974   5.374  0.7522 -0.2245  0.2703
 8314SOL    HW136578   2.603   3.038   5.380 -1.2653  1.9057  1.3823
 8314SOL    HW236579   2.538   2.938   5.463 -0.0803  0.3913  0.5821
 8315SOL     OW36580   1.670   0.997   5.516 -0.3603 -0.3063  0.5763
 8315SOL    HW136581   1.686   0.906   5.543  1.3346 -0.1528  0.1163
 8315SOL    HW236582   1.577   1.003   5.495 -0.0999 -3.8567 -1.6828
 8316SOL     OW36583   3.351   1.918   5.245 -0.4196  0.6460 -0.2000
 8316SOL    HW136584   3.408   1.849   5.211 -1.0228  0.9879 -1.8888
 8316SOL    HW236585   3.308   1.944   5.163  0.3156 -1.6331 -1.2999
 8317SOL     OW36586   3.426   4.349  17.641  0.5569  0.6153 -0.0763
 8317SOL    HW136587   3.456   4.266  17.679 -1.4018  0.5615  1.3179
 8317SOL    HW236588   3.393   4.391  17.720 -0.3550  0.4803 -0.3904
 8318SOL     OW36589   2.174   0.837   9.530  0.0801 -0.3242 -0.1182
 8318SOL    HW136590   2.211   0.748   9.529 -0.2462 -0.4522 -3.0328
 8318SOL    HW236591   2.086   0.827   9.566 -1.0951  3.0449 -2.0875
 8319SOL     OW36592   2.539   0.776   7.668  0.1756  0.2728 -0.0056
 8319SOL    HW136593   2.513   0.848   7.611  0.0196  0.7584  0.6878
 8319SOL    HW236594   2.503   0.702   7.619  0.8431 -0.0151 -0.0712
 8320SOL     OW36595   1.881   3.303  13.339 -1.0041 -0.1945  0.2458
 8320SOL    HW136596   1.924   3.351  13.268 -2.5825  0.2589 -0.3956
 8320SOL    HW236597   1.893   3.366  13.411  1.3284  0.3170 -0.5833
 8321SOL     OW36598   0.208   0.904   4.610 -0.0208 -0.2471  0.0963
 8321SOL    HW136599   0.298   0.935   4.601 -0.0279 -0.4911 -0.7828
 8321SOL    HW236600   0.202   0.860   4.525 -3.6333  0.2075  0.0907
 8322SOL     OW36601   0.550   0.331   7.538 -0.2649  0.0796  1.1263
 8322SOL    HW136602   0.599   0.346   7.619 -1.9492 -1.2393  2.3922
 8322SOL    HW236603   0.460   0.320   7.570  0.7014 -0.4248  3.7015
 8323SOL     OW36604   4.174   1.727   5.860 -0.1281 -0.3468 -0.3561
 8323SOL    HW136605   4.160   1.664   5.790 -1.0853 -0.8590  0.2958
 8323SOL    HW236606   4.161   1.667   5.934  2.5187  1.8268  1.8757
 8324SOL     OW36607   0.012   2.751   8.460 -0.0136  0.4458  0.6514
 8324SOL    HW136608   0.015   2.829   8.516  1.0147 -0.6178  2.0651
 8324SOL    HW236609   4.725   2.685   8.525  1.5269 -0.6669  0.1141
 8325SOL     OW36610   0.731   3.201  11.214 -0.6579  0.0573 -0.6125
 8325SOL    HW136611   0.653   3.159  11.249  0.1678 -1.2699 -0.3870
 8325SOL    HW236612   0.797   3.160  11.270  0.8252  2.3909 -0.6660
 8326SOL     OW36613   0.159   4.027   9.348 -0.0905  0.5162  0.2535
 8326SOL    HW136614   0.188   3.937   9.367 -1.9826 -0.1637 -0.0460
 8326SOL    HW236615   0.218   4.056   9.279  1.3733 -0.6999  0.9808
 8327SOL     OW36616   4.244   0.872   6.032  0.2883  0.2622 -0.0751
 8327SOL    HW136617   4.250   0.784   5.993  1.0331  0.0085  0.6055
 8327SOL    HW236618   4.301   0.865   6.108 -0.1076  1.8060  0.3579
 8328SOL     OW36619   1.177   1.738  13.951  0.4622  0.0238  0.1776
 8328SOL    HW136620   1.212   1.702  14.032  1.9934  0.5366 -0.2487
 8328SOL    HW236621   1.170   1.829  13.979  1.9990  0.1629  0.1098
 8329SOL     OW36622   3.353   1.309  12.316  0.5759 -0.0006  0.4341
 8329SOL    HW136623   3.348   1.291  12.222 -1.0219  2.9117 -0.0378
 8329SOL    HW236624   3.265   1.335  12.345  0.0991  0.1129 -1.1231
 8330SOL     OW36625   4.136   4.014   2.189 -0.4850  0.9497 -0.2810
 8330SOL    HW136626   4.123   3.941   2.248  1.5664 -0.4480 -1.5410
 8330SOL    HW236627   4.049   4.053   2.193 -0.4403  0.9715  0.4164
 8331SOL     OW36628   0.149   4.503   3.855  0.3374 -0.3174  0.0517
 8331SOL    HW136629   0.227   4.559   3.850  0.1094  0.2893  3.5685
 8331SOL    HW236630   0.194   4.431   3.899  0.2732  0.2179  0.9939
 8332SOL     OW36631   1.075   3.471   2.741  0.0018  0.0175  0.3696
 8332SOL    HW136632   1.080   3.384   2.781 -1.1043 -0.6518 -0.9309
 8332SOL    HW236633   1.149   3.475   2.680 -0.1005 -0.4184  0.2129
 8333SOL     OW36634   0.405   1.488   6.957 -0.4767 -0.0939 -0.7181
 8333SOL    HW136635   0.322   1.456   6.994 -1.3382 -0.0202 -2.5934
 8333SOL    HW236636   0.402   1.461   6.866  0.1084 -1.2678 -0.3771
 8334SOL     OW36637   0.418   0.468  16.479 -0.8146 -0.2969 -0.2416
 8334SOL    HW136638   0.380   0.528  16.543 -0.1433  2.3983 -2.3836
 8334SOL    HW236639   0.497   0.440  16.525 -0.5944  1.0251  0.1762
 8335SOL     OW36640   0.687   3.013   5.439 -0.1126  0.4426 -0.5961
 8335SOL    HW136641   0.678   2.948   5.370 -0.2550 -1.4536  1.1977
 8335SOL    HW236642   0.645   2.975   5.516 -1.3677  0.1498 -1.4433
 8336SOL     OW36643   3.525   0.880  14.370 -0.0463 -0.0990  0.2633
 8336SOL    HW136644   3.552   0.808  14.313  2.0378  2.5341 -2.0411
 8336SOL    HW236645   3.562   0.957  14.328 -0.1678  0.1131  0.5461
 8337SOL     OW36646   4.154   1.920   1.102  0.1803  0.2028  0.8113
 8337SOL    HW136647   4.181   2.009   1.078  1.3614 -0.7108 -1.2095
 8337SOL    HW236648   4.236   1.872   1.110  1.6568  2.6767  0.6321
 8338SOL     OW36649   3.154   1.537   6.537  0.2246 -0.2330 -0.6898
 8338SOL    HW136650   3.081   1.581   6.580  0.7272  0.4304 -0.5257
 8338SOL    HW236651   3.110   1.468   6.487 -0.5733 -1.5454  1.8056
 8339SOL     OW36652   0.415   2.419   7.518 -0.2939 -0.4590 -0.0576
 8339SOL    HW136653   0.431   2.491   7.578  0.1540 -0.1151 -0.5970
 8339SOL    HW236654   0.501   2.406   7.478 -0.9436 -3.0991 -0.6365
 8340SOL     OW36655   3.103   2.270  13.403 -0.0966  0.1906  0.2771
 8340SOL    HW136656   3.073   2.338  13.342  2.9606  0.5520 -0.8493
 8340SOL    HW236657   3.197   2.269  13.386 -0.2497  3.3469 -0.7434
 8341SOL     OW36658   0.556   0.699   1.883  0.1311 -0.1428  0.0941
 8341SOL    HW136659   0.464   0.725   1.871  0.0747 -0.2874  0.2071
 8341SOL    HW236660   0.578   0.668   1.795  0.4952  2.0756 -0.5795
 8342SOL     OW36661   0.200   4.174   9.677  0.4039  0.4783 -0.0214
 8342SOL    HW136662   0.155   4.236   9.619 -4.0559 -0.7018  2.1461
 8342SOL    HW236663   0.122   4.149   9.727 -1.2183  2.7697 -1.3604
 8343SOL     OW36664   3.899   2.628   0.338  0.0263 -0.0704 -0.1771
 8343SOL    HW136665   3.931   2.541   0.312  0.8313  0.9438 -2.5120
 8343SOL    HW236666   3.814   2.645   0.298  0.0652 -0.8879 -0.6026
 8344SOL     OW36667   2.925   2.985   2.902  0.3907  0.5319  0.2930
 8344SOL    HW136668   2.886   2.931   2.971 -0.3384  1.3306  0.5125
 8344SOL    HW236669   2.846   3.008   2.854 -0.3733 -1.9182  0.3857
 8345SOL     OW36670   2.344   2.349   5.412  0.3247 -0.3968 -0.1295
 8345SOL    HW136671   2.263   2.401   5.409  0.7646  0.3184  0.3845
 8345SOL    HW236672   2.360   2.344   5.318 -1.3058  1.2274 -0.4976
 8346SOL     OW36673   2.041   0.389   5.921  0.4323 -0.4868 -0.0382
 8346SOL    HW136674   2.037   0.483   5.900  0.9721 -0.7789 -1.4058
 8346SOL    HW236675   2.129   0.372   5.954  0.8673 -1.0720 -1.5316
 8347SOL     OW36676   0.300   3.725   6.808  0.4824  0.3449 -0.8121
 8347SOL    HW136677   0.309   3.767   6.722  1.3956 -1.6606 -1.6881
 8347SOL    HW236678   0.271   3.802   6.857 -1.7324 -1.4290  0.6675
 8348SOL     OW36679   2.125   2.960   2.737 -0.2750  0.7897  0.3303
 8348SOL    HW136680   2.089   2.957   2.649  1.6502  0.0686 -0.4280
 8348SOL    HW236681   2.146   3.053   2.745  1.7561  0.4105 -0.7516
 8349SOL     OW36682   4.081   4.268   7.435 -0.1668 -0.3933  0.0851
 8349SOL    HW136683   4.078   4.341   7.373 -2.2989  0.4707  1.2320
 8349SOL    HW236684   4.050   4.201   7.374  0.2706 -0.6576  0.1519
 8350SOL     OW36685   0.241   1.732   8.693  0.5692 -0.5747 -0.7647
 8350SOL    HW136686   0.257   1.806   8.634  0.7912 -0.1613 -0.1923
 8350SOL    HW236687   0.303   1.674   8.649  1.1014  0.8417 -1.8866
 8351SOL     OW36688   3.231   1.073  14.564  0.1162 -0.0849  0.1901
 8351SOL    HW136689   3.291   1.047  14.634 -0.1392 -2.9913 -0.7031
 8351SOL    HW236690   3.199   1.156  14.600 -0.3173 -0.3392  0.3812
 8352SOL     OW36691   3.743   2.281  15.328 -0.0655  0.3608 -0.2345
 8352SOL    HW136692   3.704   2.366  15.308 -0.0251  0.0977 -1.3850
 8352SOL    HW236693   3.678   2.218  15.297 -1.1006  0.2886  2.0804
 8353SOL     OW36694   1.853   1.834  13.714  0.5187 -0.1065  0.0274
 8353SOL    HW136695   1.892   1.920  13.697  0.1369  0.4769  2.2058
 8353SOL    HW236696   1.927   1.778  13.737 -0.3433 -0.6867  1.3556
 8354SOL     OW36697   1.221   1.292   5.102  0.0479 -0.0173 -0.1410
 8354SOL    HW136698   1.129   1.300   5.128  1.2820 -0.0730  4.2539
 8354SOL    HW236699   1.217   1.217   5.042 -0.6233 -0.4360  0.4273
 8355SOL     OW36700   2.918   4.079   6.268  0.0351  0.3471 -0.2792
 8355SOL    HW136701   2.891   4.148   6.329  1.7099  1.8050 -1.1845
 8355SOL    HW236702   2.933   4.006   6.329  0.7536  1.3072  0.6917
 8356SOL     OW36703   0.617   4.043   5.548  0.9562 -0.3107 -0.4561
 8356SOL    HW136704   0.690   3.982   5.541  0.8612 -0.5366  0.5469
 8356SOL    HW236705   0.559   3.972   5.576 -0.5467  1.3908  0.6999
 8357SOL     OW36706   1.403   1.947   8.401  0.1634  0.3285 -0.4701
 8357SOL    HW136707   1.431   1.879   8.462  2.2626 -0.4730 -2.3303
 8357SOL    HW236708   1.352   1.903   8.332  0.6051 -1.8508  0.5936
 8358SOL     OW36709   2.197   1.279   0.653 -0.3290 -0.0754  0.0876
 8358SOL    HW136710   2.165   1.190   0.640  4.0134 -1.2735 -2.4134
 8358SOL    HW236711   2.246   1.278   0.736 -0.4172  0.2564  0.1458
 8359SOL     OW36712   3.427   1.812   8.913 -0.0826  0.0789  0.0122
 8359SOL    HW136713   3.493   1.878   8.893 -2.2612  2.2774  0.1067
 8359SOL    HW236714   3.355   1.867   8.943  0.2736  0.6197 -0.1134
 8360SOL     OW36715   3.163   1.082   9.283  0.0202 -0.3137  0.4674
 8360SOL    HW136716   3.141   1.031   9.361 -0.9779 -1.5275 -0.6159
 8360SOL    HW236717   3.234   1.024   9.255 -0.1936  0.0726 -0.8636
 8361SOL     OW36718   0.031   3.480   4.081 -0.2505  0.3835 -0.0930
 8361SOL    HW136719   4.696   3.540   4.099  0.3893  1.0331  0.3457
 8361SOL    HW236720   0.019   3.463   3.988  0.4367  0.1678 -0.1459
 8362SOL     OW36721   2.567   2.229   4.677  0.2027  0.1616  0.2849
 8362SOL    HW136722   2.662   2.220   4.689  0.6058  2.4979 -1.1693
 8362SOL    HW236723   2.556   2.173   4.600 -1.4421  0.7835  0.0716
 8363SOL     OW36724   3.911   0.706  13.783  0.0134 -0.0068 -0.3386
 8363SOL    HW136725   3.854   0.782  13.777 -0.1315  0.1033  2.3699
 8363SOL    HW236726   3.969   0.731  13.855  0.6223 -0.6255 -0.6111
 8364SOL     OW36727   2.329   1.376  14.891  0.1200 -0.5410  0.3498
 8364SOL    HW136728   2.393   1.353  14.958 -1.5041 -1.9876  1.4015
 8364SOL    HW236729   2.368   1.329  14.818 -0.3426 -1.1096  0.4751
 8365SOL     OW36730   1.233   4.578   6.349 -0.4329 -0.0949 -0.2635
 8365SOL    HW136731   1.263   4.552   6.437  1.7251  2.2519 -0.3043
 8365SOL    HW236732   1.161   4.518   6.329  2.2202 -2.8709 -1.4714
 8366SOL     OW36733   2.522   2.614  10.123 -0.1876  0.7676  0.0866
 8366SOL    HW136734   2.522   2.645  10.213 -1.2421  1.4238 -0.1434
 8366SOL    HW236735   2.601   2.565  10.148 -1.5255 -0.7177  1.4848
 8367SOL     OW36736   0.296   3.575   6.302  0.5717  0.4460 -0.7519
 8367SOL    HW136737   0.212   3.542   6.270 -0.6420  1.1897  1.6645
 8367SOL    HW236738   0.324   3.511   6.367 -0.2871  0.5456 -0.2755
 8368SOL     OW36739   1.746   4.719  11.034 -0.3079  0.1051  0.2969
 8368SOL    HW136740   1.727   0.069  11.066 -0.8063 -1.0178  3.0169
 8368SOL    HW236741   1.713   4.662  11.103 -1.0605  0.3752  0.1637
 8369SOL     OW36742   0.890   0.014  11.774  0.1891 -0.6503  0.5933
 8369SOL    HW136743   0.926   0.044  11.857  1.7542 -2.3345  0.5149
 8369SOL    HW236744   0.814   4.702  11.804  0.0173  0.1460  1.4755
 8370SOL     OW36745   3.626   0.701   2.137 -0.4368 -0.6524  0.0493
 8370SOL    HW136746   3.583   0.741   2.213 -1.4919 -0.5573 -0.5963
 8370SOL    HW236747   3.550   0.662   2.093 -2.4010 -0.3843  3.1632
 8371SOL     OW36748   1.173   0.203  11.285  0.0653 -0.5125 -0.2996
 8371SOL    HW136749   1.159   0.109  11.273 -2.1330 -0.1514 -0.5938
 8371SOL    HW236750   1.235   0.199  11.358 -1.4362 -0.9861  0.9446
 8372SOL     OW36751   0.654   1.606   2.335 -0.2248  0.1541  0.7297
 8372SOL    HW136752   0.626   1.642   2.250 -0.9839 -2.5753 -0.1678
 8372SOL    HW236753   0.719   1.539   2.314 -0.3364  0.3645 -0.2986
 8373SOL     OW36754   2.381   3.204   6.803 -0.4202 -0.0978 -0.2185
 8373SOL    HW136755   2.325   3.260   6.856  0.2062  0.3520 -0.0362
 8373SOL    HW236756   2.396   3.134   6.867 -0.5780  0.3541  0.3139
 8374SOL     OW36757   3.499   0.568   3.650  0.4225 -0.2735  0.2364
 8374SOL    HW136758   3.414   0.526   3.642  0.9656 -0.8013 -2.8114
 8374SOL    HW236759   3.556   0.525   3.586 -0.3104 -1.4028  0.3596
 8375SOL     OW36760   1.191   0.740   8.348 -0.9047 -0.3322 -0.5498
 8375SOL    HW136761   1.128   0.736   8.419 -0.0002  1.9019  0.3746
 8375SOL    HW236762   1.197   0.833   8.327  2.2617 -0.2272  0.7901
 8376SOL     OW36763   1.708   4.042   6.809 -0.4130  0.0046  0.1542
 8376SOL    HW136764   1.799   4.065   6.826 -0.6364  1.1275 -0.1965
 8376SOL    HW236765   1.699   4.031   6.714 -3.5903 -1.3834  0.6120
 8377SOL     OW36766   1.226   3.976   2.879  0.7453 -0.0433 -0.0927
 8377SOL    HW136767   1.179   3.957   2.960  0.0227  1.9309 -0.0444
 8377SOL    HW236768   1.217   3.887   2.847 -2.2704 -0.2509  1.3273
 8378SOL     OW36769   4.010   3.421   6.010 -0.1649 -0.0258  0.8094
 8378SOL    HW136770   3.970   3.463   6.086  2.4274 -0.2677  2.2995
 8378SOL    HW236771   3.945   3.438   5.942 -0.2211  1.9097  1.3606
 8379SOL     OW36772   2.589   3.605  11.255  0.4024 -0.0965  0.2293
 8379SOL    HW136773   2.546   3.642  11.332 -0.9027 -0.1463 -0.4739
 8379SOL    HW236774   2.671   3.572  11.291  0.3165 -0.2658  0.2682
 8380SOL     OW36775   2.054   0.652   5.828 -0.1301 -0.0330 -0.0095
 8380SOL    HW136776   2.144   0.652   5.797 -0.2605  1.5771 -0.3906
 8380SOL    HW236777   2.006   0.718   5.778 -0.1821 -0.5255 -0.6048
 8381SOL     OW36778   1.274   4.530   4.223  0.3997  0.2680 -0.0328
 8381SOL    HW136779   1.194   4.490   4.257  0.8603  0.4142  1.2113
 8381SOL    HW236780   1.236   4.579   4.150 -1.2863 -2.1466 -0.7666
 8382SOL     OW36781   2.538   4.360   7.524  0.0255  0.0184  0.1700
 8382SOL    HW136782   2.534   4.386   7.616 -2.1643  3.1090 -0.7865
 8382SOL    HW236783   2.451   4.323   7.508 -0.1142 -0.3936  1.7917
 8383SOL     OW36784   0.636   0.149   7.796  0.5285  1.0480  0.5955
 8383SOL    HW136785   0.701   0.151   7.866  1.2232  0.5594 -0.0386
 8383SOL    HW236786   0.550   0.168   7.834  0.3191  2.7816 -0.7521
 8384SOL     OW36787   2.094   0.258   3.188  0.5600  0.3324 -0.3210
 8384SOL    HW136788   2.150   0.234   3.261 -0.8088 -0.2922  0.5183
 8384SOL    HW236789   2.009   0.266   3.231  0.8233 -1.4970  0.5087
 8385SOL     OW36790   2.975   3.913  17.518  0.4153  0.4404 -0.3697
 8385SOL    HW136791   3.018   3.830  17.496  0.5695  1.0300 -2.3489
 8385SOL    HW236792   3.033   3.966  17.462  3.3234 -1.1436  1.1497
 8386SOL     OW36793   2.535   0.880   4.984 -0.2820 -0.0037 -0.4990
 8386SOL    HW136794   2.498   0.804   5.030  0.4515 -0.1246 -0.1064
 8386SOL    HW236795   2.596   0.839   4.923  1.3660 -1.2253  1.9721
 8387SOL     OW36796   0.368   2.450   8.606  0.6088 -0.0413  0.3577
 8387SOL    HW136797   0.337   2.453   8.516 -0.6598 -0.9496  0.7536
 8387SOL    HW236798   0.374   2.542   8.630 -0.8298 -0.0179  0.6631
 8388SOL     OW36799   3.950   1.886   3.090  0.6629  0.1505  0.0704
 8388SOL    HW136800   3.957   1.928   3.005  2.9282  2.0083  1.1476
 8388SOL    HW236801   3.936   1.959   3.151 -1.7037  0.2591 -0.6234
 8389SOL     OW36802   4.141   2.823   9.181  0.0216 -0.1946 -1.0022
 8389SOL    HW136803   4.046   2.816   9.178 -0.0011 -0.7631  0.8741
 8389SOL    HW236804   4.167   2.905   9.223 -1.3083 -0.2200 -0.1268
 8390SOL     OW36805   0.242   3.554  13.541  0.1668  0.0522  0.8067
 8390SOL    HW136806   0.161   3.554  13.491 -0.8198 -2.4470  2.4272
 8390SOL    HW236807   0.252   3.644  13.574  1.5373  0.4568 -0.7099
 8391SOL     OW36808   3.722   4.544   5.309  0.4822 -0.5260 -0.2336
 8391SOL    HW136809   3.637   4.564   5.347  0.6652 -2.1065  1.0139
 8391SOL    HW236810   3.743   4.468   5.363  1.2926 -0.3145 -0.2371
 8392SOL     OW36811   0.761   3.802   7.724 -0.2835  0.2676 -0.2511
 8392SOL    HW136812   0.833   3.753   7.685  1.1346  0.7894  1.7625
 8392SOL    HW236813   0.807   3.871   7.771 -0.1532  0.5900 -0.8407
 8393SOL     OW36814   4.540   0.970   9.013  0.0593  0.6687 -0.3396
 8393SOL    HW136815   4.487   0.930   9.082  3.6143  0.5280  2.2879
 8393SOL    HW236816   4.487   1.048   8.994 -2.3113 -0.8404  0.0347
 8394SOL     OW36817   4.164   2.864   5.924  0.2694 -0.3318 -0.1793
 8394SOL    HW136818   4.111   2.824   5.993  0.4511 -0.9337 -0.3917
 8394SOL    HW236819   4.140   2.819   5.842  1.2371  0.1756 -0.7400
 8395SOL     OW36820   3.699   4.117   3.135 -0.0844 -0.4270 -0.2101
 8395SOL    HW136821   3.790   4.111   3.105  1.3305  0.2208  3.9582
 8395SOL    HW236822   3.706   4.091   3.227  0.9113 -1.1780 -0.4932
 8396SOL     OW36823   3.709   3.968   4.750  0.6684 -0.8265 -0.7050
 8396SOL    HW136824   3.777   4.035   4.757  1.3124 -1.7311  1.8345
 8396SOL    HW236825   3.754   3.903   4.697  0.7498 -0.0607 -1.5685
 8397SOL     OW36826   1.255   1.762   8.217  0.1838 -0.2157  0.1337
 8397SOL    HW136827   1.237   1.685   8.271 -0.2505 -1.7258 -2.1545
 8397SOL    HW236828   1.199   1.750   8.141  1.2897 -1.0201 -0.5497
 8398SOL     OW36829   4.494   2.113   1.100 -0.2470 -0.1583  0.0185
 8398SOL    HW136830   4.512   2.021   1.117 -0.6669  0.4935  3.8808
 8398SOL    HW236831   4.566   2.142   1.043  0.1562  1.0177  1.1221
 8399SOL     OW36832   1.569   3.218   2.206  0.0507  0.2767 -0.1273
 8399SOL    HW136833   1.476   3.227   2.184 -0.1053 -2.8097 -0.6161
 8399SOL    HW236834   1.579   3.133   2.248  0.1998  0.6514  0.5940
 8400SOL     OW36835   3.794   1.037   6.146  0.3536  0.4156 -0.0249
 8400SOL    HW136836   3.878   0.997   6.168  0.1170 -0.4409 -0.7104
 8400SOL    HW236837   3.751   1.017   6.230 -1.2981  1.2832 -0.6605
 8401SOL     OW36838   2.671   0.788   1.753 -0.1421 -0.0073  0.1518
 8401SOL    HW136839   2.643   0.829   1.835 -1.5589  0.7195 -0.7027
 8401SOL    HW236840   2.618   0.847   1.699  2.7882  1.1131 -1.5245
 8402SOL     OW36841   2.747   1.271   6.394  0.1073 -0.2070  0.1255
 8402SOL    HW136842   2.660   1.280   6.354 -0.7285 -2.0938  1.5268
 8402SOL    HW236843   2.715   1.216   6.465 -0.7864  0.1393 -0.0022
 8403SOL     OW36844   0.587   4.443   3.175  0.1877  0.5013  0.5250
 8403SOL    HW136845   0.567   4.526   3.132  1.5985  0.1758 -0.7774
 8403SOL    HW236846   0.503   4.405   3.200 -0.7364  3.3370  1.7894
 8404SOL     OW36847   2.203   3.052  17.550  0.4021 -0.1440 -0.4011
 8404SOL    HW136848   2.209   2.959  17.572  0.4575 -0.0124  0.1337
 8404SOL    HW236849   2.290   3.064  17.511  0.6554 -2.1421 -0.4621
 8405SOL     OW36850   0.318   2.445   1.994  0.1531  0.4483 -0.0802
 8405SOL    HW136851   0.282   2.412   1.912 -1.0066  2.1522 -0.2314
 8405SOL    HW236852   0.393   2.493   1.959  1.5832  0.1404  2.5194
 8406SOL     OW36853   0.427   0.129   9.637 -0.4362  0.0209  0.5284
 8406SOL    HW136854   0.482   0.051   9.626  0.3839  0.7876 -0.7439
 8406SOL    HW236855   0.407   0.117   9.730  1.2461 -0.2290  0.8654
 8407SOL     OW36856   4.342   0.112   5.802 -0.2128 -0.0850  0.5376
 8407SOL    HW136857   4.367   0.039   5.745 -0.2964 -0.5931  1.1440
 8407SOL    HW236858   4.404   0.177   5.769  0.1549 -0.6187  0.1758
 8408SOL     OW36859   1.254   3.931   3.865 -0.4830  0.0841  0.3430
 8408SOL    HW136860   1.228   4.023   3.856  0.8558  0.3552 -0.7536
 8408SOL    HW236861   1.186   3.910   3.929  0.2352  3.3961  2.2204
 8409SOL     OW36862   2.458   0.241  16.529 -0.1610 -0.2078 -0.1266
 8409SOL    HW136863   2.508   0.186  16.590  0.6803  0.0838 -0.5556
 8409SOL    HW236864   2.510   0.228  16.449  0.7048  4.4668 -0.2888
 8410SOL     OW36865   3.462   2.785   5.708 -0.9630 -0.6613 -0.4073
 8410SOL    HW136866   3.433   2.789   5.617 -1.3585 -0.1904 -0.2577
 8410SOL    HW236867   3.508   2.868   5.719  0.0735 -1.1070 -1.2874
 8411SOL     OW36868   0.168   0.686  12.994 -0.1198 -0.4000  0.2469
 8411SOL    HW136869   0.160   0.593  13.013  0.5512 -0.4722  0.1824
 8411SOL    HW236870   0.188   0.723  13.080 -1.3040 -2.1533  1.2895
 8412SOL     OW36871   0.556   3.767   6.804 -0.5557  0.0173 -0.4338
 8412SOL    HW136872   0.467   3.731   6.804  0.0474 -1.4857  0.2985
 8412SOL    HW236873   0.558   3.834   6.872 -0.9792 -1.5551  1.1232
 8413SOL     OW36874   3.350   3.989   6.968 -0.5054  0.2610  0.2370
 8413SOL    HW136875   3.389   4.026   6.889  0.5919 -0.2117  0.5649
 8413SOL    HW236876   3.397   4.042   7.032 -0.7553  1.0635 -0.2405
 8414SOL     OW36877   4.646   4.211   5.448 -0.1683 -0.0286 -0.0716
 8414SOL    HW136878   4.658   4.158   5.369 -1.1954 -2.1299  1.1691
 8414SOL    HW236879   4.717   4.189   5.508 -1.4582 -0.1083  1.4098
 8415SOL     OW36880   0.798   3.286  13.938 -0.0981 -0.2347  0.1189
 8415SOL    HW136881   0.852   3.334  14.001 -0.7656  0.0813  0.4509
 8415SOL    HW236882   0.819   3.340  13.862  1.4972  0.6545  1.1995
 8416SOL     OW36883   1.357   4.132   9.259 -0.8788 -0.1726 -0.2731
 8416SOL    HW136884   1.353   4.220   9.296 -2.8514  0.0970 -1.1585
 8416SOL    HW236885   1.276   4.136   9.209 -0.8617 -1.4201 -0.4043
 8417SOL     OW36886   3.825   2.697   2.431 -0.1974  0.1957 -0.5870
 8417SOL    HW136887   3.841   2.698   2.525  1.2504  0.1638 -0.8362
 8417SOL    HW236888   3.761   2.626   2.434 -0.2139  0.2803  1.0607
 8418SOL     OW36889   4.495   1.555  17.277 -0.3533  0.6508 -0.6170
 8418SOL    HW136890   4.520   1.463  17.273 -0.1705  0.6619  0.2735
 8418SOL    HW236891   4.550   1.588  17.348 -0.8025  1.0154 -0.4378
 8419SOL     OW36892   3.536   2.335   3.290 -0.1882  0.6004  0.2632
 8419SOL    HW136893   3.585   2.261   3.254 -1.9126 -0.0852 -0.6950
 8419SOL    HW236894   3.561   2.321   3.381  0.6340 -1.1696 -0.2258
 8420SOL     OW36895   2.663   1.206   9.093 -0.1274  0.3835  0.2555
 8420SOL    HW136896   2.735   1.166   9.140  0.6081  2.0913  0.5829
 8420SOL    HW236897   2.594   1.146   9.120 -0.4643 -0.3445 -2.1840
 8421SOL     OW36898   0.667   1.864   4.420 -0.5429 -0.1042 -0.2375
 8421SOL    HW136899   0.572   1.863   4.410 -1.1392 -2.4110  5.8155
 8421SOL    HW236900   0.675   1.934   4.355  1.6286 -0.5931 -0.5087
 8422SOL     OW36901   3.764   1.748   7.359  0.0765  0.5981  0.5870
 8422SOL    HW136902   3.704   1.673   7.361  0.2748  0.4225 -0.0287
 8422SOL    HW236903   3.852   1.712   7.352 -0.0197  0.6910 -1.1462
 8423SOL     OW36904   2.757   3.123  16.104  0.2123  0.1507  0.3191
 8423SOL    HW136905   2.662   3.124  16.094  0.0837 -2.7601  1.2160
 8423SOL    HW236906   2.787   3.054  16.044  0.8593 -1.1067  2.0779
 8424SOL     OW36907   3.374   4.685  16.459  0.5005 -0.1657 -0.1194
 8424SOL    HW136908   3.422   4.712  16.381  1.0633 -0.7769  0.0116
 8424SOL    HW236909   3.284   4.685  16.426  0.6897  0.7596 -0.6503
 8425SOL     OW36910   3.417   2.078   7.572  0.1890 -0.3045 -0.5355
 8425SOL    HW136911   3.383   2.049   7.656 -2.2569  2.0868 -0.7260
 8425SOL    HW236912   3.498   2.028   7.561  0.8783  1.5422 -3.8139
 8426SOL     OW36913   1.220   2.463   1.826 -0.2323  0.3836  0.3824
 8426SOL    HW136914   1.233   2.540   1.881 -1.8102  0.6738  0.3386
 8426SOL    HW236915   1.126   2.452   1.840 -0.3006  0.2868 -0.1329
 8427SOL     OW36916   2.698   0.919   9.469 -0.4087 -0.1688  0.4991
 8427SOL    HW136917   2.693   0.986   9.400 -1.9186 -1.1605 -0.3650
 8427SOL    HW236918   2.613   0.928   9.512 -0.6542 -0.7881  0.1485
 8428SOL     OW36919   0.521   3.553   8.238 -0.3803 -0.3296 -0.4315
 8428SOL    HW136920   0.502   3.531   8.147 -2.5598  2.7277 -0.6945
 8428SOL    HW236921   0.612   3.528   8.257  0.3979  2.2181 -0.8639
 8429SOL     OW36922   2.680   3.860   2.381  0.1479 -0.5502  0.4776
 8429SOL    HW136923   2.630   3.857   2.462 -1.0390 -1.2824 -0.2810
 8429SOL    HW236924   2.767   3.828   2.406  0.3119  0.2029  0.8612
 8430SOL     OW36925   2.489   3.259  16.259 -0.3922  0.1461 -0.7667
 8430SOL    HW136926   2.429   3.219  16.322 -0.1319 -2.0441 -1.9236
 8430SOL    HW236927   2.569   3.281  16.308 -2.4296  1.7622  1.8369
 8431SOL     OW36928   3.222   1.062   8.674 -0.0917 -0.7563 -0.1531
 8431SOL    HW136929   3.294   1.107   8.717  1.3435 -3.9514  0.8107
 8431SOL    HW236930   3.161   1.135   8.663  0.1812 -0.4026  0.6557
 8432SOL     OW36931   1.244   3.341  16.873  0.0476 -0.2689  0.2123
 8432SOL    HW136932   1.293   3.359  16.953  0.4025 -1.2991  0.2290
 8432SOL    HW236933   1.298   3.364  16.797  0.7350 -1.5648  0.3035
 8433SOL     OW36934   0.130   1.954   0.970  0.2461  0.1858  0.9839
 8433SOL    HW136935   0.187   1.899   1.024 -0.0239 -1.5764 -0.4834
 8433SOL    HW236936   0.168   2.041   0.966 -3.4599  1.7249 -0.9079
 8434SOL     OW36937   4.432   0.556   8.847 -0.4420 -0.2579 -0.8564
 8434SOL    HW136938   4.456   0.540   8.939 -1.3572  0.8406 -0.4230
 8434SOL    HW236939   4.515   0.549   8.801  0.1627  1.2429  0.0082
 8435SOL     OW36940   3.116   4.520  12.957  0.3154  0.0628 -0.3861
 8435SOL    HW136941   3.182   4.589  12.962 -0.3377  0.4805  2.7955
 8435SOL    HW236942   3.096   4.499  13.049 -2.1754 -0.9603 -1.1477
 8436SOL     OW36943   2.616   3.835   7.169 -0.6967  0.1118  0.3683
 8436SOL    HW136944   2.663   3.914   7.195 -2.9540  1.6417 -0.2011
 8436SOL    HW236945   2.678   3.762   7.164  2.5506  2.9904 -1.6143
 8437SOL     OW36946   1.789   1.417   1.461 -0.1603 -0.2078 -0.5441
 8437SOL    HW136947   1.796   1.512   1.450  0.6130 -0.1703  0.2849
 8437SOL    HW236948   1.771   1.414   1.555  0.7540 -1.1307 -0.4009
 8438SOL     OW36949   3.639   0.066   2.533 -0.0517  0.1397 -0.0049
 8438SOL    HW136950   3.725   0.043   2.498 -0.6022 -0.5129 -0.9350
 8438SOL    HW236951   3.616   0.137   2.474 -1.2352  0.5015  0.8722
 8439SOL     OW36952   3.168   1.458   2.862 -0.3940  0.1125  0.1551
 8439SOL    HW136953   3.167   1.554   2.870  1.7510  0.2071 -0.7623
 8439SOL    HW236954   3.094   1.438   2.806  0.9381 -0.7797 -1.2870
 8440SOL     OW36955   2.679   2.403  11.765  0.6192 -0.1850 -0.6333
 8440SOL    HW136956   2.592   2.441  11.750  0.6800  0.7172  1.4135
 8440SOL    HW236957   2.711   2.465  11.830  1.3178 -0.7072 -0.4706
 8441SOL     OW36958   1.132   1.087   1.038 -0.1593  0.0813  0.0050
 8441SOL    HW136959   1.147   1.025   1.110  3.0399 -1.6510 -2.1594
 8441SOL    HW236960   1.151   1.172   1.077  1.9694 -0.7170  0.6869
 8442SOL     OW36961   1.948   3.078   2.245  0.3736 -0.2558  0.6627
 8442SOL    HW136962   1.892   3.002   2.230  0.1466 -0.1546  0.9990
 8442SOL    HW236963   2.027   3.048   2.200 -0.8160 -2.5054  0.0772
 8443SOL     OW36964   4.489   3.060   8.647  0.0415 -0.4471  0.6102
 8443SOL    HW136965   4.496   2.964   8.650 -2.7980 -0.6398  0.9317
 8443SOL    HW236966   4.550   3.077   8.719  0.9615  0.4169 -0.3722
 8444SOL     OW36967   3.721   2.883   1.515  0.3852 -0.2646 -0.0364
 8444SOL    HW136968   3.682   2.843   1.593 -3.1457  0.6396 -1.3012
 8444SOL    HW236969   3.669   2.865   1.436 -0.2918 -1.7191  0.7336
 8445SOL     OW36970   0.807   0.668   5.597  0.2358  0.6226  0.1841
 8445SOL    HW136971   0.899   0.686   5.579  1.1398 -2.2451  1.8183
 8445SOL    HW236972   0.815   0.573   5.613  0.4893  0.7232  0.6699
 8446SOL     OW36973   1.939   2.975   1.140  0.6879 -1.1994 -0.2378
 8446SOL    HW136974   1.873   2.958   1.074 -0.8291 -1.4685  1.3443
 8446SOL    HW236975   1.887   3.039   1.190  1.2528 -0.7835 -0.1799
 8447SOL     OW36976   3.104   3.282  10.947 -0.5989  0.4787  0.1195
 8447SOL    HW136977   3.182   3.266  10.893  0.1198 -0.5151  1.4713
 8447SOL    HW236978   3.121   3.372  10.977  0.3789  0.0475  0.8609
 8448SOL     OW36979   0.642   0.085   5.333  0.1382  0.1801 -0.0435
 8448SOL    HW136980   0.678   0.101   5.246 -0.8938  1.6607 -0.1984
 8448SOL    HW236981   0.690   0.004   5.351 -1.8607 -1.4173 -1.8024
 8449SOL     OW36982   4.158   1.619  11.055 -0.5661  0.1974 -0.1960
 8449SOL    HW136983   4.153   1.527  11.080  2.1737 -0.4135 -1.8837
 8449SOL    HW236984   4.220   1.612  10.982  0.3308  2.9707  0.2753
 8450SOL     OW36985   2.639   2.217  14.511  0.5562 -0.3497  0.6772
 8450SOL    HW136986   2.545   2.213  14.491  0.6224 -0.4924  0.3798
 8450SOL    HW236987   2.668   2.143  14.457 -1.0910  0.2961 -1.0922
 8451SOL     OW36988   3.986   0.223   3.108 -0.0273 -0.6200  0.4610
 8451SOL    HW136989   3.972   0.190   3.019  0.5569 -1.0526  0.5284
 8451SOL    HW236990   3.900   0.203   3.145 -1.4352  2.2343 -1.2665
 8452SOL     OW36991   0.752   1.038   7.140  0.1662 -0.3030 -0.2730
 8452SOL    HW136992   0.744   1.127   7.176 -0.5608 -0.8114  0.8106
 8452SOL    HW236993   0.676   1.024   7.084 -0.7675 -0.6403  1.0894
 8453SOL     OW36994   3.964   3.783   3.921  0.4528 -0.7561  0.0730
 8453SOL    HW136995   4.049   3.825   3.906 -0.2072 -0.0930 -1.8254
 8453SOL    HW236996   3.928   3.862   3.962 -2.0116 -1.9861  0.2922
 8454SOL     OW36997   2.124   4.114   3.061  0.0882 -0.3060 -0.1537
 8454SOL    HW136998   2.034   4.107   3.029  0.5478  2.5531 -2.0341
 8454SOL    HW236999   2.102   4.170   3.136 -0.5399 -2.2257  1.1047
 8455SOL     OW37000   3.000   2.721   7.498  0.3265  0.5107 -0.7788
 8455SOL    HW137001   3.084   2.678   7.481 -1.2675 -2.3864 -1.3980
 8455SOL    HW237002   3.022   2.796   7.553 -0.1724  0.9418 -1.1733
 8456SOL     OW37003   1.130   1.292   1.900 -0.2180 -0.0165 -0.0852
 8456SOL    HW137004   1.146   1.385   1.917 -1.1601  0.0614  0.3502
 8456SOL    HW237005   1.036   1.292   1.883  0.2772  1.2663 -2.7816
 8457SOL     OW37006   3.833   4.403   8.626  0.6102  0.0646 -0.5153
 8457SOL    HW137007   3.906   4.462   8.642  0.3097  0.5303 -0.8554
 8457SOL    HW237008   3.766   4.443   8.681 -0.4098 -1.4827 -0.6242
 8458SOL     OW37009   4.506   2.197   3.085 -0.5585  0.0224  0.2782
 8458SOL    HW137010   4.428   2.161   3.127 -0.6587  0.1912  0.2386
 8458SOL    HW237011   4.535   2.132   3.021  0.8525  1.0182 -0.0686
 8459SOL     OW37012   4.613   1.703  14.707 -0.9314 -0.1883 -0.3921
 8459SOL    HW137013   4.568   1.713  14.791 -0.9682 -1.7376 -0.2420
 8459SOL    HW237014   4.699   1.738  14.731 -0.8292 -1.0286  0.4753
 8460SOL     OW37015   1.555   3.167   1.225 -0.0326 -0.1521  0.7373
 8460SOL    HW137016   1.552   3.081   1.182 -0.1005 -0.0025  0.4447
 8460SOL    HW237017   1.539   3.234   1.159  1.3134 -0.2095  0.3553
 8461SOL     OW37018   4.158   3.940   4.694 -0.1888  0.3674  0.4627
 8461SOL    HW137019   4.073   3.955   4.735 -0.2694 -0.4381  0.5845
 8461SOL    HW237020   4.141   3.875   4.626 -1.6481  1.3095 -0.0708
 8462SOL     OW37021   3.712   0.490   8.698  0.0362  0.1475  0.2749
 8462SOL    HW137022   3.747   0.578   8.687  1.1731 -0.3394  0.0741
 8462SOL    HW237023   3.776   0.444   8.752 -0.6935 -0.4476  0.6448
 8463SOL     OW37024   0.153   1.388   2.404  0.6938  0.5198  0.3427
 8463SOL    HW137025   0.213   1.350   2.340 -0.8710 -4.0657  1.6153
 8463SOL    HW237026   0.096   1.434   2.343  1.5381 -0.8693 -1.5023
 8464SOL     OW37027   0.379   3.070   7.450  0.2383 -0.6658  0.3773
 8464SOL    HW137028   0.388   2.976   7.434  2.5824 -0.0328 -1.9626
 8464SOL    HW237029   0.471   3.096   7.444  0.2565 -0.9692 -0.6559
 8465SOL     OW37030   4.332   4.264  17.289  0.4509  0.1093  0.3020
 8465SOL    HW137031   4.425   4.270  17.310  0.8224 -0.7686 -1.1422
 8465SOL    HW237032   4.314   4.313  17.369  0.9916 -0.7077  0.9239
 8466SOL     OW37033   2.563   3.493   2.536 -0.1425  0.0854 -0.3997
 8466SOL    HW137034   2.511   3.450   2.467  0.8264 -1.6516 -0.0435
 8466SOL    HW237035   2.646   3.502   2.489 -1.8237 -1.0507 -3.6035
 8467SOL     OW37036   2.723   3.565   1.587 -0.1414 -0.0197 -0.3002
 8467SOL    HW137037   2.741   3.498   1.521 -0.5140  1.2823 -1.7175
 8467SOL    HW237038   2.811   3.576   1.622 -0.6850  1.2443  0.6596
 8468SOL     OW37039   3.460   1.880   2.503 -0.0656 -0.3451  1.0475
 8468SOL    HW137040   3.475   1.791   2.533  1.6832 -0.6286 -0.6353
 8468SOL    HW237041   3.367   1.878   2.481  0.2820  1.2839 -0.5430
 8469SOL     OW37042   3.016   1.472   5.968  0.6603  0.7509  0.2003
 8469SOL    HW137043   2.928   1.501   5.990 -0.6881 -2.3755 -1.0221
 8469SOL    HW237044   3.007   1.377   5.961  1.6852  0.8406 -2.4240
 8470SOL     OW37045   4.676   0.631   8.071  0.1185 -0.1096  0.4789
 8470SOL    HW137046   4.633   0.563   8.019 -0.9742 -0.2589  1.5725
 8470SOL    HW237047   0.032   0.614   8.062  0.6840  2.6810  1.0644
 8471SOL     OW37048   4.700   2.140   4.205 -0.2431 -0.3120  0.2158
 8471SOL    HW137049   0.019   2.128   4.129 -0.0818 -0.6603  0.3909
 8471SOL    HW237050   4.646   2.215   4.182  0.9075 -0.3592 -2.6668
 8472SOL     OW37051   0.952   1.031   8.137 -0.3481 -0.4942  0.2802
 8472SOL    HW137052   0.860   1.006   8.132 -0.7494  0.8020  1.0578
 8472SOL    HW237053   0.947   1.125   8.120  0.9183 -0.4538  0.1378
 8473SOL     OW37054   2.358   2.289   3.043 -0.4400 -0.2666 -0.0912
 8473SOL    HW137055   2.411   2.280   3.122 -0.6733  1.1551  0.2351
 8473SOL    HW237056   2.363   2.384   3.034 -1.4629 -0.1194  0.7741
 8474SOL     OW37057   3.969   1.494   1.924  0.4644  0.5746 -0.3679
 8474SOL    HW137058   3.987   1.441   2.002  1.2159  0.2962 -0.7249
 8474SOL    HW237059   3.875   1.504   1.938  0.0990 -2.5329 -0.6915
 8475SOL     OW37060   2.383   3.597   6.832 -0.3614  0.4576  0.6083
 8475SOL    HW137061   2.398   3.611   6.926 -1.0510 -4.1658  1.3691
 8475SOL    HW237062   2.307   3.539   6.833  0.9413 -1.2744 -1.2935
 8476SOL     OW37063   2.286   0.114   2.949  0.5714 -0.5420 -0.3901
 8476SOL    HW137064   2.365   0.168   2.949 -0.0661  0.4083 -0.3654
 8476SOL    HW237065   2.218   0.168   2.991  0.7552 -0.6095 -0.0013
 8477SOL     OW37066   4.219   2.828  12.259 -0.0852  0.0473  0.2051
 8477SOL    HW137067   4.255   2.739  12.268  1.8711  0.7260 -0.8005
 8477SOL    HW237068   4.297   2.883  12.256  0.9187 -1.3452  0.5459
 8478SOL     OW37069   1.447   2.382   4.562  0.0379 -0.1023  0.2358
 8478SOL    HW137070   1.492   2.301   4.585 -0.6740  0.0828  2.2995
 8478SOL    HW237071   1.391   2.386   4.639 -2.9959  1.8819 -2.1079
 8479SOL     OW37072   0.831   2.541   0.622 -0.1537  0.3365 -0.8188
 8479SOL    HW137073   0.860   2.632   0.613  0.9918  0.0980  0.4190
 8479SOL    HW237074   0.914   2.494   0.637 -0.2386  0.0468 -1.2404
 8480SOL     OW37075   1.995   0.305   5.281 -0.0365  0.5389 -0.1214
 8480SOL    HW137076   1.990   0.276   5.372  1.9195  0.2262 -0.1232
 8480SOL    HW237077   2.073   0.360   5.277 -0.8274  1.6092 -0.8642
 8481SOL     OW37078   2.087   2.677  12.976 -0.7899  0.2697  0.1006
 8481SOL    HW137079   2.064   2.600  12.925  0.1332  0.3284 -0.4012
 8481SOL    HW237080   2.006   2.711  13.015 -0.2760  2.3851 -0.7092
 8482SOL     OW37081   3.601   1.916   3.746  0.1293 -0.1081 -0.0783
 8482SOL    HW137082   3.590   1.890   3.655 -1.4475 -1.1281  0.4091
 8482SOL    HW237083   3.524   1.888   3.796 -1.3899 -1.5697 -3.2284
 8483SOL     OW37084   3.595   2.651  16.764 -0.2234  0.3772  0.5848
 8483SOL    HW137085   3.680   2.675  16.728 -0.6710  0.7407 -0.2457
 8483SOL    HW237086   3.526   2.688  16.708 -1.2595  0.7200  2.0660
 8484SOL     OW37087   2.471   3.925  14.373  0.1439 -0.2575  0.2552
 8484SOL    HW137088   2.504   4.004  14.416  0.4549  0.1635 -0.7425
 8484SOL    HW237089   2.447   3.870  14.447  0.4360  1.5035  1.6442
 8485SOL     OW37090   1.541   2.062   2.126 -0.2235  0.3081 -0.0356
 8485SOL    HW137091   1.478   2.035   2.192  0.0022 -1.6621 -0.6467
 8485SOL    HW237092   1.492   2.134   2.085  0.5963  0.3700 -0.9071
 8486SOL     OW37093   0.067   1.251   1.918 -0.1918  0.3307 -0.5017
 8486SOL    HW137094   0.130   1.261   1.847  1.8330 -2.1514  0.9415
 8486SOL    HW237095   0.063   1.156   1.927  2.1097  0.4410  1.8329
 8487SOL     OW37096   1.213   0.489   9.874  0.1378 -0.7382  0.5110
 8487SOL    HW137097   1.185   0.400   9.852 -0.0601 -0.1775 -1.5446
 8487SOL    HW237098   1.127   0.514   9.909  0.6528  0.9623  0.5599
 8488SOL     OW37099   3.633   0.452   4.470 -0.1953 -0.1607 -0.3378
 8488SOL    HW137100   3.698   0.491   4.528 -1.6587  0.5952  0.8079
 8488SOL    HW237101   3.608   0.368   4.509  1.2504 -0.1516  0.5937
 8489SOL     OW37102   0.971   2.235  13.920 -0.2966 -0.8211 -0.2470
 8489SOL    HW137103   0.914   2.210  13.992 -0.3521 -4.8639 -1.6836
 8489SOL    HW237104   1.005   2.311  13.967  0.0198 -0.2975 -1.3222
 8490SOL     OW37105   1.409   0.279   4.554  0.0723  0.3685  0.2409
 8490SOL    HW137106   1.491   0.263   4.600  0.7665 -2.1529 -1.8805
 8490SOL    HW237107   1.350   0.312   4.621  1.6051  1.4047  1.0551
 8491SOL     OW37108   4.417   2.601   1.075  0.4605  0.7892  0.2753
 8491SOL    HW137109   4.477   2.553   1.018  0.7969  0.4941  0.8753
 8491SOL    HW237110   4.342   2.541   1.082  2.7496 -2.3043 -1.8959
 8492SOL     OW37111   3.622   0.038   9.654  0.1569  0.5211  0.3606
 8492SOL    HW137112   3.716   0.059   9.653  0.0230  1.0998 -0.6377
 8492SOL    HW237113   3.589   0.118   9.614 -1.3198 -1.1416 -1.7442
 8493SOL     OW37114   1.817   0.043   1.849 -0.0155 -0.8103  0.4265
 8493SOL    HW137115   1.772   0.103   1.908 -0.2568  0.6613 -1.2253
 8493SOL    HW237116   1.818   4.704   1.905 -0.6609 -0.4083  0.9956
 8494SOL     OW37117   3.923   4.275   7.684  0.4404 -0.1034  0.0900
 8494SOL    HW137118   3.996   4.321   7.725  0.5505 -0.8092  0.6822
 8494SOL    HW237119   3.948   4.281   7.592 -1.2061 -0.4703 -0.3831
 8495SOL     OW37120   1.975   0.163   2.764  0.6408  0.1844 -0.2232
 8495SOL    HW137121   1.976   0.258   2.765  1.0704  0.1927 -1.7760
 8495SOL    HW237122   1.895   0.147   2.814  0.7768  1.1890  0.3126
 8496SOL     OW37123   2.602   4.213  12.152 -0.3659  0.1916 -0.0247
 8496SOL    HW137124   2.570   4.123  12.163 -1.4606  0.8867  2.6079
 8496SOL    HW237125   2.561   4.221  12.066  0.4269  1.4378 -0.2685
 8497SOL     OW37126   4.423   3.809  14.389  0.0605 -0.2107 -0.2691
 8497SOL    HW137127   4.495   3.782  14.333  1.2621 -2.5538  2.3563
 8497SOL    HW237128   4.475   3.823  14.469  0.4277  1.3954 -0.7862
 8498SOL     OW37129   2.163   2.911  13.892 -0.3592 -0.0504 -0.2345
 8498SOL    HW137130   2.193   2.828  13.929  1.0709  0.0268 -1.2056
 8498SOL    HW237131   2.126   2.883  13.809 -0.6624  1.0400 -0.4687
 8499SOL     OW37132   1.771   4.470   6.103  0.2448 -0.0240 -0.3204
 8499SOL    HW137133   1.815   4.555   6.103 -1.7598  1.0069 -2.7331
 8499SOL    HW237134   1.690   4.478   6.053  1.0844 -2.7296 -2.1240
 8500SOL     OW37135   1.655   2.991  16.016  0.3451  0.5377 -0.2617
 8500SOL    HW137136   1.621   3.057  15.954  2.6145  1.2649 -0.7055
 8500SOL    HW237137   1.712   3.049  16.065  0.0373 -0.2571  1.0204
 8501SOL     OW37138   2.454   0.561  16.164 -0.2919 -0.4283  0.0238
 8501SOL    HW137139   2.525   0.537  16.224 -1.2020 -2.8472  0.1224
 8501SOL    HW237140   2.502   0.588  16.085  0.9373 -0.0757  0.8905
 8502SOL     OW37141   2.922   3.997  14.806 -0.4812  0.0399 -0.3995
 8502SOL    HW137142   2.911   3.911  14.848 -3.5303  1.0722  0.9560
 8502SOL    HW237143   3.015   4.013  14.795 -0.8402  2.6334  0.3111
 8503SOL     OW37144   4.205   4.418   8.287 -0.1127 -0.3372  0.8125
 8503SOL    HW137145   4.175   4.401   8.376 -2.3983 -1.1193 -0.1067
 8503SOL    HW237146   4.239   4.504   8.310  0.8281 -0.8190  1.1962
 8504SOL     OW37147   3.693   4.625  14.056  0.2301 -0.2031 -0.9455
 8504SOL    HW137148   3.673   4.611  13.964 -2.2278 -0.1221 -0.4225
 8504SOL    HW237149   3.657   4.711  14.079  0.1353  0.2403 -2.7641
 8505SOL     OW37150   0.925   3.158   7.498  0.1228  0.3775  0.7451
 8505SOL    HW137151   0.829   3.157   7.507 -0.1438 -1.3829 -2.2850
 8505SOL    HW237152   0.970   3.075   7.514 -1.2445 -0.2724  1.2684
 8506SOL     OW37153   4.348   1.952   2.987  1.0677 -0.2121  0.5524
 8506SOL    HW137154   4.279   2.001   3.031  0.1383 -0.4455 -0.6488
 8506SOL    HW237155   4.303   1.910   2.914  1.1485 -0.9401  0.9249
 8507SOL     OW37156   4.429   3.970   4.778 -0.1317 -0.3915 -0.1676
 8507SOL    HW137157   4.445   3.998   4.687 -1.5034 -1.3664 -0.7065
 8507SOL    HW237158   4.335   3.956   4.768 -0.0546 -2.6928  2.5625
 8508SOL     OW37159   2.027   3.400   3.044  0.2005 -0.1868  0.3126
 8508SOL    HW137160   2.072   3.434   2.966  0.1840 -3.2684 -1.0497
 8508SOL    HW237161   1.985   3.323   3.007  0.7385 -1.2351  1.9285
 8509SOL     OW37162   2.046   1.037  12.380 -0.2082  0.3408 -0.0270
 8509SOL    HW137163   2.131   1.017  12.420 -0.7463  1.7183  1.7989
 8509SOL    HW237164   2.070   1.046  12.288  1.2970  0.0382  0.3217
 8510SOL     OW37165   1.938   3.833   6.331 -0.1472 -0.2386  0.3308
 8510SOL    HW137166   2.014   3.795   6.288 -2.1521 -0.0886 -3.3355
 8510SOL    HW237167   1.987   3.883   6.396  0.2872 -1.0573  0.6235
 8511SOL     OW37168   0.928   0.902   6.887 -0.1039  0.1187  0.6112
 8511SOL    HW137169   0.968   0.923   6.803 -3.8548  0.8629 -0.9985
 8511SOL    HW237170   0.924   0.986   6.933  0.0296 -0.7986  2.3255
 8512SOL     OW37171   4.274   0.629   4.333 -0.3716  0.2124 -0.4265
 8512SOL    HW137172   4.230   0.556   4.288  0.7807 -1.1740  0.6673
 8512SOL    HW237173   4.323   0.670   4.262  1.8474  0.4819  1.2530
 8513SOL     OW37174   1.712   0.950   8.032 -0.2335 -0.4416 -0.5282
 8513SOL    HW137175   1.712   0.916   7.942  3.6835 -2.1123  0.0959
 8513SOL    HW237176   1.682   1.041   8.031  1.7943  0.2375  0.3895
 8514SOL     OW37177   4.445   3.116   3.273  0.2178 -0.3212  0.1106
 8514SOL    HW137178   4.401   3.071   3.201 -0.6478 -0.6548  0.8557
 8514SOL    HW237179   4.506   3.178   3.232  0.8256 -1.4691 -0.7135
 8515SOL     OW37180   3.972   4.032   3.126 -0.2128  0.5288  0.7674
 8515SOL    HW137181   4.046   4.078   3.085  2.4583 -2.9345  1.6678
 8515SOL    HW237182   4.003   3.980   3.200  1.5280  0.2560 -0.1311
 8516SOL     OW37183   3.765   1.182   4.876  0.2086 -0.5110  0.2302
 8516SOL    HW137184   3.809   1.216   4.798 -0.4343 -0.4011 -0.0852
 8516SOL    HW237185   3.841   1.171   4.934  0.2817  2.3625  0.6565
 8517SOL     OW37186   1.544   1.810  17.612  0.4822 -0.0089  0.5068
 8517SOL    HW137187   1.466   1.861  17.589  0.6844  0.7755  1.5638
 8517SOL    HW237188   1.611   1.871  17.583 -0.5364 -0.5758 -3.0547
 8518SOL     OW37189   1.581   3.624   5.741  0.0871  0.0390 -0.2330
 8518SOL    HW137190   1.604   3.542   5.785 -2.3270 -0.4675  0.1146
 8518SOL    HW237191   1.556   3.681   5.814 -0.1242 -1.8606  1.1952
 8519SOL     OW37192   0.697   1.203  13.415 -0.0515  0.2827 -0.2905
 8519SOL    HW137193   0.659   1.279  13.370 -0.3174 -0.2326 -0.9329
 8519SOL    HW237194   0.789   1.203  13.390 -0.4002  0.9776 -1.5424
 8520SOL     OW37195   3.137   3.190  12.595  0.9187  1.2075 -0.4000
 8520SOL    HW137196   3.214   3.137  12.576  0.7239  0.3284  1.2414
 8520SOL    HW237197   3.166   3.263  12.541  1.4358  0.5077 -1.0657
 8521SOL     OW37198   3.832   1.435   3.130  0.3918  0.6672  0.4238
 8521SOL    HW137199   3.836   1.522   3.089  0.3373  1.2928  1.7517
 8521SOL    HW237200   3.924   1.414   3.145  1.0034  2.7890 -0.3437
 8522SOL     OW37201   3.316   4.370   4.519  0.2461  0.1553  0.1560
 8522SOL    HW137202   3.344   4.293   4.568  0.6972 -1.3688 -2.4921
 8522SOL    HW237203   3.229   4.379   4.556  0.4667  1.0050  0.4816
 8523SOL     OW37204   2.213   1.606  14.917  0.5908 -0.0725  0.4368
 8523SOL    HW137205   2.243   1.516  14.904  0.2973  0.2025 -2.2142
 8523SOL    HW237206   2.277   1.647  14.976  0.1816  0.5368  0.4611
 8524SOL     OW37207   2.880   4.508   9.169 -0.0214  0.3977 -0.3863
 8524SOL    HW137208   2.846   4.475   9.253 -2.7410  0.4578 -1.4746
 8524SOL    HW237209   2.800   4.535   9.125 -0.0522 -0.2616 -0.7481
 8525SOL     OW37210   3.733   0.997   0.754  0.5059 -0.0762 -0.1043
 8525SOL    HW137211   3.742   1.087   0.723 -1.7702  0.0568 -0.3796
 8525SOL    HW237212   3.756   0.956   0.671 -1.6521 -0.9009 -0.2927
 8526SOL     OW37213   2.546   2.532   7.109 -0.2969  0.7988 -0.5289
 8526SOL    HW137214   2.493   2.476   7.053 -1.6149  1.6005 -0.0817
 8526SOL    HW237215   2.567   2.601   7.046 -2.0097  1.3377 -0.5140
 8527SOL     OW37216   1.603   0.031  12.941 -0.5112 -0.2398  0.2389
 8527SOL    HW137217   1.560   4.687  12.920 -0.6694 -0.2052  0.4283
 8527SOL    HW237218   1.660   0.047  12.866  0.1736  1.5817  1.1451
 8528SOL     OW37219   3.276   0.251   9.391  0.0300 -0.0086  0.6898
 8528SOL    HW137220   3.184   0.234   9.413 -0.1271 -1.7517 -1.2715
 8528SOL    HW237221   3.274   0.323   9.329 -1.7761  0.2647  1.0667
 8529SOL     OW37222   3.022   4.330   6.045 -0.4277 -0.3152 -0.0458
 8529SOL    HW137223   3.028   4.313   6.139  0.3589  1.8090  0.2890
 8529SOL    HW237224   2.997   4.240   6.023 -0.8551 -0.2942  0.3562
 8530SOL     OW37225   2.316   3.312  10.889 -0.6914  0.1680  0.5102
 8530SOL    HW137226   2.355   3.360  10.816  0.8804  0.6460  1.6472
 8530SOL    HW237227   2.320   3.382  10.954  0.6687 -1.3443  2.0498
 8531SOL     OW37228   1.881   4.058   4.190 -0.4901 -0.4108  0.0582
 8531SOL    HW137229   1.854   4.044   4.281  0.7699 -1.0435  0.3162
 8531SOL    HW237230   1.937   4.136   4.196  0.0268 -0.5862 -2.4325
 8532SOL     OW37231   1.475   0.824  11.754  0.2670  0.2671  0.9309
 8532SOL    HW137232   1.426   0.897  11.792  1.1073  0.7962  1.0088
 8532SOL    HW237233   1.486   0.855  11.664 -2.3330 -0.3107  0.4149
 8533SOL     OW37234   2.696   2.176   8.537  0.7782 -0.0512  0.0912
 8533SOL    HW137235   2.632   2.224   8.485  1.1181 -1.4921 -1.6473
 8533SOL    HW237236   2.735   2.250   8.582  0.5940  0.3496 -0.4133
 8534SOL     OW37237   0.125   0.316   2.855  0.1786  0.0525 -0.2452
 8534SOL    HW137238   0.106   0.227   2.886 -0.7865  1.1577  2.3207
 8534SOL    HW237239   0.045   0.342   2.810  0.0128 -1.0372 -0.5986
 8535SOL     OW37240   0.522   1.565   5.257  0.5933 -0.2597 -0.0678
 8535SOL    HW137241   0.499   1.524   5.173  2.3233  0.4439 -0.8833
 8535SOL    HW237242   0.605   1.610   5.241  1.3712 -0.7937  2.4514
 8536SOL     OW37243   4.412   1.512   2.585 -0.3081 -0.2648  0.0550
 8536SOL    HW137244   4.389   1.438   2.642 -0.8071  0.4370  0.7708
 8536SOL    HW237245   4.374   1.579   2.642  2.8280  0.3079  1.4704
 8537SOL     OW37246   2.996   3.841   4.178  0.2852 -0.6329  0.1433
 8537SOL    HW137247   2.902   3.828   4.171  0.0105  1.0017  0.9279
 8537SOL    HW237248   3.015   3.755   4.140  1.5794 -0.2063 -0.2025
 8538SOL     OW37249   1.494   1.295   6.496 -0.4819  0.3561  0.4744
 8538SOL    HW137250   1.579   1.337   6.510 -0.4523 -0.0689  1.6277
 8538SOL    HW237251   1.442   1.375   6.491 -1.5380 -0.3935 -0.3930
 8539SOL     OW37252   4.393   1.770   0.518 -0.0544  0.0572  0.1478
 8539SOL    HW137253   4.425   1.683   0.494  1.3085  0.5009  0.3220
 8539SOL    HW237254   4.355   1.756   0.605 -0.3719  0.7243  0.1166
 8540SOL     OW37255   0.789   4.316   9.997  0.1853  0.5463  0.3131
 8540SOL    HW137256   0.844   4.374   9.945  0.5269 -0.8334 -0.8879
 8540SOL    HW237257   0.822   4.227   9.983 -0.3276  0.4918 -0.5573
 8541SOL     OW37258   3.302   3.171   3.377 -0.4799 -0.0878 -0.2111
 8541SOL    HW137259   3.324   3.116   3.453  0.3314  0.9137  0.2826
 8541SOL    HW237260   3.293   3.108   3.306  1.0063 -2.1274  1.4169
 8542SOL     OW37261   4.082   0.048   7.869 -0.3473 -0.2037  0.1221
 8542SOL    HW137262   4.037   0.011   7.946  1.8759 -1.7732  0.6506
 8542SOL    HW237263   4.159   4.732   7.855 -0.2917 -0.0072 -0.3301
 8543SOL     OW37264   1.267   2.194  14.164 -0.2568  0.2403 -0.0979
 8543SOL    HW137265   1.258   2.173  14.257  0.9303 -3.6899 -0.8816
 8543SOL    HW237266   1.335   2.262  14.160 -0.2625  0.0034 -3.8577
 8544SOL     OW37267   2.728   2.403  11.346 -0.0265 -0.7143 -0.3904
 8544SOL    HW137268   2.653   2.421  11.403  0.2975 -0.7269  0.0408
 8544SOL    HW237269   2.778   2.349  11.407 -1.5671 -1.6592  0.0414
 8545SOL     OW37270   3.082   2.554   2.621 -0.2261 -0.4212 -0.0896
 8545SOL    HW137271   3.079   2.476   2.566 -0.6000 -0.1747 -0.4211
 8545SOL    HW237272   3.175   2.555   2.644 -0.0792  1.1624 -0.7274
 8546SOL     OW37273   0.597   1.197   7.779  0.0972  0.2823 -0.1163
 8546SOL    HW137274   0.515   1.244   7.798  0.9112  1.3929  0.6356
 8546SOL    HW237275   0.659   1.268   7.793  1.1828 -0.6116 -0.4083
 8547SOL     OW37276   1.296   1.722  14.203 -0.4544 -0.6768  0.4061
 8547SOL    HW137277   1.310   1.793  14.266 -0.3265 -0.0971 -0.2846
 8547SOL    HW237278   1.227   1.668  14.243 -1.8902  1.1974  0.4853
 8548SOL     OW37279   2.675   2.081  14.951 -0.1237  0.3177 -0.0891
 8548SOL    HW137280   2.745   2.089  14.886 -0.9064  0.6377 -0.8968
 8548SOL    HW237281   2.639   2.168  14.968  1.4541  0.7475  1.0931
 8549SOL     OW37282   2.265   4.237   7.002 -0.4310  0.8315 -0.3949
 8549SOL    HW137283   2.259   4.320   7.049 -4.1612 -0.4856  1.4599
 8549SOL    HW237284   2.290   4.181   7.076  2.6353 -0.9074 -2.7078
 8550SOL     OW37285   3.518   2.297   8.254  0.2744  0.1756 -0.1422
 8550SOL    HW137286   3.571   2.257   8.185  0.3786 -0.8663  0.5390
 8550SOL    HW237287   3.555   2.245   8.325 -0.1375  2.3411  1.6529
 8551SOL     OW37288   0.802   2.291   6.946 -0.6900  0.5057  0.2511
 8551SOL    HW137289   0.747   2.213   6.956  1.1915 -0.6298  1.6851
 8551SOL    HW237290   0.773   2.353   7.013 -1.3938  0.3104  0.1347
 8552SOL     OW37291   0.086   0.989   9.097  0.8476 -0.1739 -0.2295
 8552SOL    HW137292   0.127   0.990   9.010  0.2352 -0.9749 -0.5340
 8552SOL    HW237293   0.001   0.946   9.084  1.0589 -1.2299  1.9756
 8553SOL     OW37294   2.027   2.333   5.523 -0.0451  0.1740  0.2169
 8553SOL    HW137295   2.069   2.415   5.496  0.6169  0.0145  0.7725
 8553SOL    HW237296   2.054   2.341   5.614 -1.0265 -0.9018  0.6012
 8554SOL     OW37297   3.153   0.874  12.854 -0.3490 -0.4709  0.4704
 8554SOL    HW137298   3.212   0.938  12.814  0.3903 -2.8488 -2.1950
 8554SOL    HW237299   3.076   0.931  12.866 -0.3418  0.2224 -2.6536
 8555SOL     OW37300   2.470   4.671   7.655  0.4402  0.1326  0.3651
 8555SOL    HW137301   2.420   4.722   7.719 -0.8651 -0.7026 -0.0050
 8555SOL    HW237302   2.532   4.737   7.623 -0.4227 -0.6428 -2.9134
 8556SOL     OW37303   3.580   3.897   7.584 -0.3977 -0.1688 -0.1283
 8556SOL    HW137304   3.518   3.824   7.575 -1.8942  1.1340 -0.2838
 8556SOL    HW237305   3.640   3.851   7.643  1.2422  0.6815 -1.1332
 8557SOL     OW37306   3.082   2.640   3.526 -0.1183 -0.5038  0.4931
 8557SOL    HW137307   3.121   2.605   3.446 -2.3242 -0.4289 -0.5935
 8557SOL    HW237308   2.990   2.617   3.512  0.2201 -1.3306 -0.3931
 8558SOL     OW37309   2.647   3.567   3.490  0.1620  0.3024 -0.6170
 8558SOL    HW137310   2.686   3.504   3.430 -2.3248 -1.6791 -0.1476
 8558SOL    HW237311   2.639   3.509   3.565  2.8354  1.6601  0.7190
 8559SOL     OW37312   0.520   1.360  11.586  0.1612 -0.1031 -0.2179
 8559SOL    HW137313   0.610   1.327  11.590  0.3099  0.5668  1.6500
 8559SOL    HW237314   0.476   1.289  11.633 -0.7406  0.4461 -0.2470
 8560SOL     OW37315   2.790   3.526  11.386  0.3366 -0.7792  0.0877
 8560SOL    HW137316   2.762   3.455  11.444  0.3828 -0.3247  0.6672
 8560SOL    HW237317   2.883   3.507  11.369  0.6174 -0.5810  1.3801
 8561SOL     OW37318   4.492   3.173   9.365 -0.0956  0.3567  0.1596
 8561SOL    HW137319   4.409   3.221   9.363 -0.6866 -0.6912 -0.9179
 8561SOL    HW237320   4.521   3.207   9.450 -1.2809  0.1738  0.6391
 8562SOL     OW37321   2.718   3.223   4.721  0.2196  0.0971 -0.2724
 8562SOL    HW137322   2.732   3.301   4.775  2.1315 -0.9477  0.7474
 8562SOL    HW237323   2.627   3.238   4.697 -0.4075 -1.8930  0.9152
 8563SOL     OW37324   2.739   2.166   3.686 -0.3728  0.1623 -0.3707
 8563SOL    HW137325   2.773   2.249   3.720  1.5286  0.3012 -2.6050
 8563SOL    HW237326   2.824   2.123   3.695  0.1302  0.8717 -1.7868
 8564SOL     OW37327   4.102   4.180   6.558 -0.4618  0.1556  0.3973
 8564SOL    HW137328   4.036   4.119   6.525 -0.8781  0.2598  1.0385
 8564SOL    HW237329   4.041   4.247   6.589  2.2893  1.4830  2.9099
 8565SOL     OW37330   0.515   0.646   3.475 -0.1592 -0.2380  0.2533
 8565SOL    HW137331   0.505   0.728   3.524 -0.0529  0.5751 -1.0615
 8565SOL    HW237332   0.422   0.624   3.475 -0.4187  0.8533 -1.9005
 8566SOL     OW37333   3.320   1.138   0.865  0.0857  0.1824 -0.2333
 8566SOL    HW137334   3.395   1.082   0.885 -0.9261 -0.9969  0.2065
 8566SOL    HW237335   3.319   1.128   0.770  0.7298 -2.5592  0.0537
 8567SOL     OW37336   0.940   1.382   9.972 -0.0089 -0.2157 -0.3946
 8567SOL    HW137337   0.974   1.420  10.053 -2.2844 -0.3701  0.6208
 8567SOL    HW237338   0.968   1.448   9.908  2.6551  0.0305  1.0205
 8568SOL     OW37339   2.782   1.393  15.231  0.0019 -0.0660 -0.1580
 8568SOL    HW137340   2.875   1.410  15.249 -0.7235 -0.2863  3.7209
 8568SOL    HW237341   2.780   1.324  15.165 -0.0843 -1.3597  1.2188
 8569SOL     OW37342   1.526   4.101   2.671 -0.1961 -0.0517  0.6900
 8569SOL    HW137343   1.595   4.162   2.696  0.9297 -0.5776 -1.0572
 8569SOL    HW237344   1.578   4.020   2.674  0.9163  0.6254 -0.3705
 8570SOL     OW37345   1.683   2.407  13.155  0.2250  0.2319 -0.1481
 8570SOL    HW137346   1.662   2.372  13.242  2.9253  2.0605  1.2771
 8570SOL    HW237347   1.742   2.337  13.128 -1.7100 -1.3160 -0.2894
 8571SOL     OW37348   1.448   3.593  10.816 -0.2028  0.0119 -0.1938
 8571SOL    HW137349   1.508   3.541  10.870 -2.4540 -0.6991  1.6285
 8571SOL    HW237350   1.473   3.676  10.856  1.3252 -0.6866  0.2988
 8572SOL     OW37351   2.775   4.236  17.071  0.4161  0.3343  0.0272
 8572SOL    HW137352   2.766   4.141  17.062 -0.7693  0.6697 -2.4686
 8572SOL    HW237353   2.787   4.245  17.165 -0.8161  0.5733  0.1674
 8573SOL     OW37354   0.159   1.238   3.743 -0.0516  0.0371 -0.7822
 8573SOL    HW137355   0.129   1.195   3.663 -0.6446  2.1096 -1.6821
 8573SOL    HW237356   0.232   1.286   3.704 -1.0493  1.2415 -1.1607
 8574SOL     OW37357   0.053   3.798   4.839 -1.0664  0.0568 -0.7288
 8574SOL    HW137358   0.114   3.738   4.797  0.7364  2.1251 -1.0910
 8574SOL    HW237359   0.028   3.846   4.760 -2.1520 -2.1721 -1.7222
 8575SOL     OW37360   0.121   0.483   3.098 -0.2863  0.6363 -0.1699
 8575SOL    HW137361   0.103   0.423   3.026 -2.7064  2.4704 -1.1096
 8575SOL    HW237362   0.201   0.528   3.071 -0.4860  1.3766  0.4686
 8576SOL     OW37363   2.961   0.242   7.477  0.1046 -0.2221  0.5748
 8576SOL    HW137364   2.887   0.287   7.518 -0.2291 -1.0693  0.9164
 8576SOL    HW237365   2.966   0.277   7.388 -1.8549 -0.8148  0.2346
 8577SOL     OW37366   0.487   1.279   8.480  0.1889 -0.0630 -0.3526
 8577SOL    HW137367   0.572   1.234   8.480  1.4125  2.2917  0.4145
 8577SOL    HW237368   0.446   1.229   8.551  0.7836  0.0311  0.0532
 8578SOL     OW37369   1.502   4.130   5.159 -0.0568  0.3823  0.0350
 8578SOL    HW137370   1.475   4.085   5.079 -1.4035  1.1534  0.0584
 8578SOL    HW237371   1.595   4.108   5.150 -0.6065 -1.8825 -0.1096
 8579SOL     OW37372   3.921   3.749   3.448  0.0317 -0.3546  0.4995
 8579SOL    HW137373   3.922   3.844   3.452 -1.1599 -0.3425  0.3849
 8579SOL    HW237374   3.878   3.717   3.527  0.7589 -0.6168  0.7940
 8580SOL     OW37375   3.848   2.493   5.701  0.6092  0.3509  0.7127
 8580SOL    HW137376   3.806   2.554   5.761 -0.8548  0.1112 -0.0844
 8580SOL    HW237377   3.787   2.422   5.718  0.8833  0.0973  0.6419
 8581SOL     OW37378   3.608   1.300   7.943  0.3848 -0.0575 -0.2141
 8581SOL    HW137379   3.632   1.390   7.965  1.2187 -0.3717  0.1616
 8581SOL    HW237380   3.556   1.288   8.023 -1.4175  0.2621 -1.3580
 8582SOL     OW37381   2.391   0.401  16.739 -0.6613  0.2939  0.6848
 8582SOL    HW137382   2.409   0.363  16.654 -0.2841  0.2165  0.8019
 8582SOL    HW237383   2.479   0.429  16.766 -1.0414  0.0920  2.1537
 8583SOL     OW37384   1.567   2.280   6.779 -0.1590 -0.4356  0.5266
 8583SOL    HW137385   1.488   2.230   6.803 -1.2395  1.2159  0.4488
 8583SOL    HW237386   1.622   2.211   6.743  0.7381  0.6169 -0.1109
 8584SOL     OW37387   3.228   2.816   5.855 -0.4609  0.5554  0.3575
 8584SOL    HW137388   3.315   2.825   5.815  0.4311 -2.7325  1.5801
 8584SOL    HW237389   3.212   2.909   5.869 -1.6560  0.5607 -0.9977
 8585SOL     OW37390   2.167   2.276   3.343 -0.5748  0.1072 -0.0829
 8585SOL    HW137391   2.147   2.347   3.404  0.6026  1.6187 -1.4478
 8585SOL    HW237392   2.256   2.295   3.313 -0.7250  1.1923  0.1537
 8586SOL     OW37393   2.338   4.108   9.540  0.0838 -0.2140 -0.2006
 8586SOL    HW137394   2.244   4.114   9.553  0.1140  1.8061 -0.8408
 8586SOL    HW237395   2.348   4.107   9.444 -4.0352  2.6816 -0.6509
 8587SOL     OW37396   1.729   4.719   5.847  0.0426  0.4953 -0.2315
 8587SOL    HW137397   1.662   4.659   5.880  0.9236  0.3943  1.3457
 8587SOL    HW237398   1.772   0.002   5.930 -2.8471 -0.0288  1.4172
 8588SOL     OW37399   2.835   1.143   5.190  0.2087  0.1234  0.1095
 8588SOL    HW137400   2.818   1.119   5.281 -0.4709 -1.9970 -0.5748
 8588SOL    HW237401   2.930   1.134   5.194  0.0297 -0.6787  2.1263
 8589SOL     OW37402   1.293   2.643   8.379 -0.3268 -0.2444 -0.2992
 8589SOL    HW137403   1.273   2.618   8.470  2.7016 -1.8086 -0.0649
 8589SOL    HW237404   1.256   2.731   8.381 -0.2531 -0.2012 -0.9795
 8590SOL     OW37405   4.352   2.750   8.448  0.1965 -0.4557  0.5067
 8590SOL    HW137406   4.415   2.756   8.520 -1.2775 -2.8980  2.0126
 8590SOL    HW237407   4.415   2.787   8.387  0.5972  0.2680  1.3589
 8591SOL     OW37408   0.173   1.067   0.256  0.4722  0.0208  0.7972
 8591SOL    HW137409   0.199   1.010   0.184 -0.6583  0.5346 -0.0209
 8591SOL    HW237410   0.255   1.116   0.265  0.2525  0.6238 -0.4934
 8592SOL     OW37411   3.505   1.858   9.665  0.6046 -0.3443 -0.2447
 8592SOL    HW137412   3.579   1.884   9.720 -0.1034  4.2675 -1.4417
 8592SOL    HW237413   3.483   1.938   9.617  2.5471 -0.0997 -0.7154
 8593SOL     OW37414   3.535   0.852   7.678 -0.2304 -0.0951 -0.3929
 8593SOL    HW137415   3.454   0.850   7.730 -1.0721  0.0261 -1.6987
 8593SOL    HW237416   3.519   0.777   7.621  1.6736 -0.2602 -0.6897
 8594SOL     OW37417   2.335   2.650   7.318 -0.5081 -0.1173 -0.0576
 8594SOL    HW137418   2.391   2.633   7.393 -1.0018  1.5045  0.6767
 8594SOL    HW237419   2.343   2.569   7.268 -0.0988 -0.6907  0.9353
 8595SOL     OW37420   3.872   0.815   2.135 -0.1721  0.6285 -0.2604
 8595SOL    HW137421   3.926   0.738   2.118  1.4355  2.1092 -1.9347
 8595SOL    HW237422   3.783   0.781   2.137 -0.1455  0.4918 -1.1692
 8596SOL     OW37423   2.786   3.427   4.080  0.4012  0.3453 -0.7866
 8596SOL    HW137424   2.705   3.441   4.032  1.8089  1.1857 -2.8950
 8596SOL    HW237425   2.762   3.353   4.137  2.0100 -1.6339 -2.6381
 8597SOL     OW37426   3.339   2.816   4.567 -0.6688  0.0942  0.3483
 8597SOL    HW137427   3.296   2.771   4.494 -0.0948  1.2137 -0.6724
 8597SOL    HW237428   3.405   2.864   4.518  0.6533  0.3598  2.3596
 8598SOL     OW37429   0.821   3.127   6.227 -0.0702  0.1856  0.8423
 8598SOL    HW137430   0.818   3.041   6.186  1.3570  0.6215 -0.1493
 8598SOL    HW237431   0.767   3.123   6.306  1.1188 -4.4443  1.4057
 8599SOL     OW37432   4.722   4.149   4.903  0.1064 -0.8691 -0.5350
 8599SOL    HW137433   4.709   4.221   4.965 -2.0169 -1.4580 -0.2872
 8599SOL    HW237434   4.651   4.087   4.921 -1.6839  0.6094 -2.4928
 8600SOL     OW37435   4.365   4.464   3.066 -0.3029 -0.2926 -0.2832
 8600SOL    HW137436   4.407   4.385   3.100 -4.5962 -2.2631  0.3687
 8600SOL    HW237437   4.273   4.441   3.057  0.5968 -3.6112 -0.9889
 8601SOL     OW37438   4.109   2.900   4.776 -0.2539 -0.2550 -0.4982
 8601SOL    HW137439   4.155   2.820   4.749  0.3917 -0.2345  0.5284
 8601SOL    HW237440   4.162   2.928   4.850 -1.0601 -0.1037  0.0080
 8602SOL     OW37441   3.379   2.412   5.175 -0.0951  0.8586 -0.2485
 8602SOL    HW137442   3.355   2.505   5.175  0.6834  1.0709  1.9764
 8602SOL    HW237443   3.363   2.385   5.265 -3.0112 -0.9414 -1.3164
 8603SOL     OW37444   1.223   0.429   8.018 -0.2297  0.1225  0.1167
 8603SOL    HW137445   1.286   0.493   8.051 -0.1457  0.3046 -0.3980
 8603SOL    HW237446   1.255   0.420   7.928 -1.3912 -4.3183  0.1456
 8604SOL     OW37447   3.408   1.240  13.322 -0.2721 -0.8606  0.1146
 8604SOL    HW137448   3.398   1.153  13.360  0.5373 -0.2926  1.5872
 8604SOL    HW237449   3.395   1.227  13.228 -1.9924 -1.5431  0.4351
 8605SOL     OW37450   3.072   0.620   7.196 -0.1924 -0.2867 -0.7489
 8605SOL    HW137451   3.053   0.701   7.243  0.1482 -0.4709 -0.3021
 8605SOL    HW237452   3.124   0.570   7.258 -0.1881  1.1270  0.3897
 8606SOL     OW37453   1.922   2.595  11.323  0.2162  0.3914 -0.8268
 8606SOL    HW137454   1.945   2.534  11.253 -1.7645  0.0963 -1.2269
 8606SOL    HW237455   1.878   2.666  11.277 -0.3040  0.3122 -0.4502
 8607SOL     OW37456   3.470   2.260   1.758  0.4198 -0.1487  0.5062
 8607SOL    HW137457   3.502   2.284   1.844  2.8107 -0.8649 -0.1790
 8607SOL    HW237458   3.375   2.245   1.762  0.5584 -0.9568  0.8237
 8608SOL     OW37459   2.740   0.109  16.459 -0.4425  0.4384 -0.2235
 8608SOL    HW137460   2.676   0.081  16.524 -0.6074  1.2491 -0.0290
 8608SOL    HW237461   2.725   0.049  16.386  2.2197  1.3747 -1.5629
 8609SOL     OW37462   4.498   3.967   6.863 -0.3229 -0.2955  0.2965
 8609SOL    HW137463   4.582   4.013   6.863 -0.3494 -0.2392 -0.6331
 8609SOL    HW237464   4.445   4.040   6.829  0.1559 -0.2690 -0.3985
 8610SOL     OW37465   0.833   4.606   7.639  0.1613  0.3668  0.4436
 8610SOL    HW137466   0.834   4.607   7.544 -0.8912  0.0575  0.4286
 8610SOL    HW237467   0.861   4.696   7.650  0.4891  0.4780 -1.2735
 8611SOL     OW37468   1.679   2.083   3.797  0.4147  0.0912 -0.7744
 8611SOL    HW137469   1.714   2.171   3.812 -0.2062 -0.1770  2.3547
 8611SOL    HW237470   1.585   2.101   3.789  0.1718 -0.8128  0.0458
 8612SOL     OW37471   2.384   1.771  16.506 -0.2520 -0.4867 -0.4824
 8612SOL    HW137472   2.363   1.864  16.517 -0.8606 -0.8089  1.0270
 8612SOL    HW237473   2.382   1.736  16.595 -2.0721 -1.6065 -0.9608
 8613SOL     OW37474   2.754   1.312   9.744  0.0843 -0.4585  0.1621
 8613SOL    HW137475   2.789   1.374   9.680  2.5297  0.0876  2.0044
 8613SOL    HW237476   2.815   1.239   9.749 -1.2321 -1.4681  1.5347
 8614SOL     OW37477   1.982   4.132   2.356  0.5081 -0.2215 -0.2615
 8614SOL    HW137478   2.027   4.200   2.406  0.5826 -0.4943  0.0436
 8614SOL    HW237479   1.894   4.137   2.393  1.1010 -2.6711  1.4616
 8615SOL     OW37480   2.618   3.529   2.795 -0.0784 -0.1578  0.0214
 8615SOL    HW137481   2.584   3.521   2.706  0.0942  0.5426 -0.1091
 8615SOL    HW237482   2.713   3.539   2.790 -0.0952  0.2875  0.5714
 8616SOL     OW37483   1.662   4.212   1.569 -0.3510 -0.0298 -0.3338
 8616SOL    HW137484   1.594   4.146   1.586 -1.0274  0.9780  0.8079
 8616SOL    HW237485   1.675   4.188   1.477 -0.7919 -1.6518  0.0258
 8617SOL     OW37486   0.081   4.497   4.318 -0.0868 -0.0697 -0.0494
 8617SOL    HW137487   0.096   4.540   4.234  2.7884 -1.9062 -0.4695
 8617SOL    HW237488   0.082   4.569   4.381  1.3672 -1.2860  1.3073
 8618SOL     OW37489   0.941   1.593   0.625  0.7096  0.4030 -0.2079
 8618SOL    HW137490   0.931   1.583   0.719  1.3434  1.1668 -0.0585
 8618SOL    HW237491   0.981   1.679   0.613 -1.2030  1.7512  3.3982
 8619SOL     OW37492   0.627   4.230   4.820 -0.0122 -0.8700  0.4708
 8619SOL    HW137493   0.714   4.235   4.861  0.7064  1.8556 -1.3795
 8619SOL    HW237494   0.572   4.209   4.895  0.1128 -1.2467  0.4570
 8620SOL     OW37495   4.477   2.710  17.543 -0.3107  0.1745  0.8624
 8620SOL    HW137496   4.560   2.677  17.578  0.6882  0.3292 -1.4071
 8620SOL    HW237497   4.454   2.773  17.612 -1.8087  2.0438 -1.3553
 8621SOL     OW37498   1.980   2.210   0.273 -0.0135  0.3067  0.1189
 8621SOL    HW137499   1.942   2.178   0.355  1.3105 -4.0569 -0.9239
 8621SOL    HW237500   1.948   2.141   0.214 -0.9544  2.3316 -1.7235
 8622SOL     OW37501   0.695   1.789   6.980 -0.1388 -0.3046  0.2843
 8622SOL    HW137502   0.714   1.719   6.917 -0.5855 -0.6887  0.5767
 8622SOL    HW237503   0.721   1.744   7.060 -0.1312  2.1561  1.6515
 8623SOL     OW37504   4.637   3.047  10.474 -0.5782 -0.0860  0.0758
 8623SOL    HW137505   4.610   3.120  10.419  0.0373  2.0909  2.6152
 8623SOL    HW237506   4.655   3.087  10.560 -0.4594  2.2431 -1.0319
 8624SOL     OW37507   3.098   4.456  13.215  0.4365  0.7017 -0.9308
 8624SOL    HW137508   3.120   4.386  13.277 -0.9764  1.8290  0.8587
 8624SOL    HW237509   3.030   4.512  13.252  0.5040  0.6768 -0.7650
 8625SOL     OW37510   4.302   3.109  11.612  0.0451  0.0086  0.6188
 8625SOL    HW137511   4.212   3.101  11.580 -0.4914  1.4473  1.7833
 8625SOL    HW237512   4.296   3.172  11.684  2.2808  2.7849 -1.6178
 8626SOL     OW37513   4.616   0.130   5.570  0.6103  0.2831  0.3856
 8626SOL    HW137514   4.617   0.205   5.629  0.1495  0.5543  0.0606
 8626SOL    HW237515   4.638   0.056   5.625  0.8604 -0.5460 -0.8193
 8627SOL     OW37516   1.828   2.454   2.183  0.3849 -0.2942  0.3167
 8627SOL    HW137517   1.810   2.540   2.221 -0.5301  1.3466 -3.8624
 8627SOL    HW237518   1.909   2.425   2.224  0.3920 -2.1237 -0.9941
 8628SOL     OW37519   1.613   1.987   8.962  0.2461 -0.0068 -0.0061
 8628SOL    HW137520   1.577   1.911   9.008  0.4705 -0.0576  0.0892
 8628SOL    HW237521   1.635   2.044   9.036 -2.5815 -1.6090  2.0675
 8629SOL     OW37522   0.593   2.849  10.695  0.0464  0.4964 -0.4664
 8629SOL    HW137523   0.532   2.890  10.634  1.0780  2.3966 -0.2096
 8629SOL    HW237524   0.620   2.918  10.755 -1.0304  1.1336 -0.7288
 8630SOL     OW37525   3.327   2.831   8.645 -0.1092 -0.1947  0.3634
 8630SOL    HW137526   3.361   2.858   8.731  0.4462 -0.6206  0.2758
 8630SOL    HW237527   3.398   2.858   8.587 -0.3529 -1.6192 -0.5915
 8631SOL     OW37528   4.728   1.525   2.234 -0.0376  0.2633 -0.0373
 8631SOL    HW137529   4.641   1.546   2.267 -0.1246 -0.0055 -0.0997
 8631SOL    HW237530   4.709   1.502   2.143 -0.5886 -1.0457  0.4181
 8632SOL     OW37531   2.484   0.023   8.591  0.3189 -0.6948  0.4304
 8632SOL    HW137532   2.532   4.686   8.557 -0.8270 -0.9412 -0.6245
 8632SOL    HW237533   2.518   0.090   8.532 -1.5372  1.0358  1.3017
 8633SOL     OW37534   2.034   2.027   7.190  0.5147  0.6448 -0.0075
 8633SOL    HW137535   1.951   2.055   7.227  0.0209  1.8654 -2.0716
 8633SOL    HW237536   2.053   1.951   7.245  2.7771  0.8283 -0.5277
 8634SOL     OW37537   0.632   0.368  16.594  0.7830  0.1389  0.8955
 8634SOL    HW137538   0.703   0.375  16.530  0.0815 -1.5773 -0.0635
 8634SOL    HW237539   0.670   0.333  16.675  0.8425 -0.5904  0.5497
 8635SOL     OW37540   0.201   4.108  13.669  0.2053 -0.0998 -0.4094
 8635SOL    HW137541   0.143   4.061  13.609 -2.0475  1.6897  0.3493
 8635SOL    HW237542   0.177   4.077  13.757  2.1303  1.8665  0.8204
 8636SOL     OW37543   4.047   3.452   0.326 -0.8730  0.0568 -0.1555
 8636SOL    HW137544   4.136   3.424   0.302 -0.4214  0.6542  0.7808
 8636SOL    HW237545   4.011   3.486   0.245 -0.1306  1.1074 -0.0565
 8637SOL     OW37546   0.202   0.241   6.965  0.0217 -0.6950 -0.7873
 8637SOL    HW137547   0.279   0.241   6.908  0.5050  1.9422 -0.1204
 8637SOL    HW237548   0.186   0.146   6.960  0.9268 -0.9406  0.9692
 8638SOL     OW37549   3.706   2.280   7.795 -0.0898  0.4452 -0.4148
 8638SOL    HW137550   3.690   2.334   7.718  0.4909 -1.9192 -2.1856
 8638SOL    HW237551   3.727   2.199   7.749 -1.5141 -0.4420  0.4903
 8639SOL     OW37552   1.615   4.125  10.800  0.2070  0.2331 -0.2343
 8639SOL    HW137553   1.614   4.133  10.895  1.8807  0.3773 -0.2216
 8639SOL    HW237554   1.533   4.170  10.782  2.0001  2.6129 -2.3004
 8640SOL     OW37555   2.294   2.451   4.323 -0.3532 -0.2328  0.0424
 8640SOL    HW137556   2.268   2.527   4.271 -0.9972 -0.0304  0.6639
 8640SOL    HW237557   2.378   2.470   4.364 -0.0370  0.3596 -0.8844
 8641SOL     OW37558   1.262   3.582   5.148  0.0182 -0.4432 -0.6117
 8641SOL    HW137559   1.203   3.657   5.134 -0.4293 -0.8456 -0.8831
 8641SOL    HW237560   1.347   3.626   5.141  0.1942 -0.5834  0.6269
 8642SOL     OW37561   2.367   3.513   5.052  0.1867  0.4024  0.4600
 8642SOL    HW137562   2.418   3.432   5.058 -1.3123 -0.7935 -3.2712
 8642SOL    HW237563   2.299   3.494   5.117 -1.4514  0.6547 -1.1745
 8643SOL     OW37564   0.354   1.765   5.597  0.1044 -0.2010  0.1488
 8643SOL    HW137565   0.277   1.801   5.554 -0.7972 -1.9845  0.2998
 8643SOL    HW237566   0.343   1.796   5.687  2.9418 -0.8151  0.7193
 8644SOL     OW37567   3.377   2.139  16.696 -0.0399  0.6018 -0.6535
 8644SOL    HW137568   3.446   2.194  16.661  1.7571 -2.0331 -1.2718
 8644SOL    HW237569   3.338   2.199  16.760 -0.7931 -0.2770 -0.2806
 8645SOL     OW37570   4.244   0.848  12.804  0.1830  0.7425 -0.1872
 8645SOL    HW137571   4.227   0.766  12.850 -1.7434  0.5631 -1.2057
 8645SOL    HW237572   4.231   0.910  12.876 -2.2934  1.2898 -1.0719
 8646SOL     OW37573   3.002   2.471   6.440  0.2262 -0.1705 -0.2766
 8646SOL    HW137574   3.014   2.382   6.474 -1.0825 -0.1049  0.3726
 8646SOL    HW237575   2.954   2.456   6.358  1.0153 -0.3656 -0.6999
 8647SOL     OW37576   1.239   2.617   2.351 -0.1104  0.0618  0.0212
 8647SOL    HW137577   1.162   2.627   2.407 -0.5626  2.5578 -1.0675
 8647SOL    HW237578   1.301   2.575   2.412 -0.3296  1.4279  1.1916
 8648SOL     OW37579   2.030   3.056   8.160 -0.1815  0.5309 -0.1477
 8648SOL    HW137580   2.013   2.971   8.119  1.8142 -0.8959  2.0213
 8648SOL    HW237581   2.033   3.025   8.250 -0.1223 -0.3109 -0.4358
 8649SOL     OW37582   4.234   1.177   9.377 -0.0487 -0.5640  0.6007
 8649SOL    HW137583   4.248   1.272   9.386 -0.7457 -0.4335  0.2957
 8649SOL    HW237584   4.146   1.163   9.410  0.0268 -0.7740  0.7059
 8650SOL     OW37585   3.273   3.910   1.912  0.0642  0.1664  0.1514
 8650SOL    HW137586   3.325   3.986   1.883  0.9309  0.2552  1.9599
 8650SOL    HW237587   3.333   3.853   1.960 -0.7853 -1.1534 -0.3696
 8651SOL     OW37588   3.205   3.280   7.904 -0.1680  0.4767  0.9710
 8651SOL    HW137589   3.155   3.206   7.869  1.0742  0.0938  0.0174
 8651SOL    HW237590   3.149   3.313   7.974  1.3518  0.3417  2.2496
 8652SOL     OW37591   2.351   0.374   5.375 -0.6406  0.8349 -0.3262
 8652SOL    HW137592   2.338   0.283   5.350  0.6085  0.2147  1.2509
 8652SOL    HW237593   2.395   0.417   5.302  0.6043 -0.5774 -0.4252
 8653SOL     OW37594   4.280   0.334  16.331 -0.4507 -0.0464  0.0647
 8653SOL    HW137595   4.311   0.421  16.357 -0.5150  0.4149 -1.3663
 8653SOL    HW237596   4.316   0.330  16.242 -0.3552 -2.0351  0.2088
 8654SOL     OW37597   1.657   2.528   2.880 -0.0403 -0.3210  0.6793
 8654SOL    HW137598   1.718   2.593   2.844 -0.1903  0.7156  2.2676
 8654SOL    HW237599   1.718   2.464   2.916  0.6104  0.0854  0.2951
 8655SOL     OW37600   4.582   2.794  14.601  0.6994 -0.1849 -0.2454
 8655SOL    HW137601   4.605   2.804  14.509 -0.4781 -1.4813 -0.6856
 8655SOL    HW237602   4.613   2.704  14.610 -0.5110 -0.5174  0.6462
 8656SOL     OW37603   3.240   1.603  14.238  0.3617 -0.4527 -0.3367
 8656SOL    HW137604   3.153   1.643  14.239  0.3694 -0.4434 -0.0557
 8656SOL    HW237605   3.302   1.672  14.217 -0.3315  0.4337  0.4714
 8657SOL     OW37606   1.746   0.158   4.782 -0.1851  0.7210  0.2443
 8657SOL    HW137607   1.664   0.198   4.811  1.2509  1.9345  2.6539
 8657SOL    HW237608   1.752   0.187   4.691 -0.3155  1.6150  0.5215
 8658SOL     OW37609   3.733   4.541   9.513 -0.1559  0.2345  0.3123
 8658SOL    HW137610   3.687   4.459   9.532  0.7229 -0.8738 -2.4188
 8658SOL    HW237611   3.663   4.604   9.530 -0.0730  0.7248 -1.1852
 8659SOL     OW37612   2.143   2.544   1.195  0.2130  0.2612  0.2652
 8659SOL    HW137613   2.226   2.523   1.238  0.3743 -1.4455 -0.8873
 8659SOL    HW237614   2.127   2.471   1.135  0.4738  0.3475  0.0918
 8660SOL     OW37615   0.075   2.473   8.452 -0.3666 -0.1934  0.1048
 8660SOL    HW137616   0.018   2.485   8.377 -1.3646  2.4075  1.2916
 8660SOL    HW237617   0.019   2.416   8.505 -1.4541  1.7863  1.0855
 8661SOL     OW37618   3.017   4.592   5.941 -0.0975 -0.1342  0.7144
 8661SOL    HW137619   3.011   4.497   5.952  0.9103 -0.3659 -0.6874
 8661SOL    HW237620   2.923   4.605   5.944  0.1757  1.5302  2.4368
 8662SOL     OW37621   3.631   3.038   4.666 -0.0417  0.0707  0.1703
 8662SOL    HW137622   3.627   3.004   4.577 -2.3767 -2.2091  1.1776
 8662SOL    HW237623   3.541   3.042   4.696  0.5237 -0.1881  1.9078
 8663SOL     OW37624   1.844   0.123  13.069  0.0777  0.1401  0.1040
 8663SOL    HW137625   1.888   0.074  12.999 -0.2273 -2.4497  1.7432
 8663SOL    HW237626   1.750   0.132  13.054 -0.0277  1.1310  1.4049
 8664SOL     OW37627   3.950   0.094  16.189  0.0972 -0.2959 -0.3998
 8664SOL    HW137628   3.990   0.064  16.108 -0.8091  0.0268 -0.9648
 8664SOL    HW237629   3.862   0.095  16.152 -0.0863 -5.2650 -0.1705
 8665SOL     OW37630   1.895   0.445   2.503  0.1138 -0.1046 -0.3443
 8665SOL    HW137631   1.820   0.448   2.562  0.4371 -1.9087  0.1613
 8665SOL    HW237632   1.849   0.411   2.427 -1.9398 -0.1918  0.9554
 8666SOL     OW37633   0.605   2.929   4.283  0.3791  0.4150 -0.2038
 8666SOL    HW137634   0.532   2.984   4.310  1.4415  1.5826  0.2999
 8666SOL    HW237635   0.615   2.945   4.189  1.1966  0.5748 -0.0932
 8667SOL     OW37636   2.649   4.240   2.841 -0.3542 -0.4468 -0.0990
 8667SOL    HW137637   2.576   4.182   2.862 -0.4801  0.4124  1.8595
 8667SOL    HW237638   2.644   4.297   2.918 -1.8307 -1.0111  0.2190
 8668SOL     OW37639   0.522   3.880   2.909 -0.6797 -0.4041 -0.7323
 8668SOL    HW137640   0.525   3.968   2.946  0.3844  0.7050 -3.4352
 8668SOL    HW237641   0.566   3.887   2.824 -1.2490  0.3518 -0.9677
 8669SOL     OW37642   0.603   1.338   6.477  0.4832  0.9935  0.3527
 8669SOL    HW137643   0.590   1.324   6.383 -1.1767 -0.0636  0.7434
 8669SOL    HW237644   0.606   1.434   6.478 -1.6982  1.0491  3.5924
 8670SOL     OW37645   2.239   2.148   7.467  0.0502  0.3943 -0.0397
 8670SOL    HW137646   2.325   2.181   7.495 -0.1482  2.6098 -1.9781
 8670SOL    HW237647   2.189   2.221   7.502 -1.1521 -0.9115  0.9404
 8671SOL     OW37648   3.582   2.808   6.318  0.0983 -0.4094  0.5748
 8671SOL    HW137649   3.589   2.815   6.413 -0.2360 -0.1610  0.5819
 8671SOL    HW237650   3.551   2.719   6.304  0.5875 -0.3383 -0.8877
 8672SOL     OW37651   0.656   1.858   5.003  0.8503 -0.3500  0.8859
 8672SOL    HW137652   0.705   1.857   4.921  1.2949  0.0526  1.1421
 8672SOL    HW237653   0.604   1.938   4.996  2.2949  0.4316 -1.0631
 8673SOL     OW37654   3.997   0.253   4.702 -0.2291 -0.2170  0.2046
 8673SOL    HW137655   4.059   0.181   4.687 -0.0973 -0.4454  1.8799
 8673SOL    HW237656   4.029   0.330   4.655  1.9731 -1.9542 -1.2195
 8674SOL     OW37657   3.929   0.447   3.801  0.2628  0.2863 -0.0576
 8674SOL    HW137658   3.872   0.372   3.821  0.1075  0.2241 -0.7272
 8674SOL    HW237659   3.887   0.510   3.858 -1.6695 -2.8240  1.9798
 8675SOL     OW37660   1.512   2.716  14.544  0.5914  0.4697 -0.0801
 8675SOL    HW137661   1.554   2.799  14.524  1.3164 -0.1769 -1.2425
 8675SOL    HW237662   1.574   2.672  14.603 -0.4749 -1.0437 -0.0711
 8676SOL     OW37663   0.790   3.574  12.262  0.2248  0.4634  0.4362
 8676SOL    HW137664   0.816   3.660  12.229  3.1364 -1.2624 -1.8344
 8676SOL    HW237665   0.708   3.590  12.308 -0.3092 -0.3743 -0.2213
 8677SOL     OW37666   1.658   1.990  16.354  0.3594  0.3096 -0.2950
 8677SOL    HW137667   1.728   1.995  16.289  1.2417 -0.8466  0.5564
 8677SOL    HW237668   1.582   1.974  16.298  0.9619  0.3736 -1.1293
 8678SOL     OW37669   0.333   3.614  16.179  0.6662 -0.3335  0.0351
 8678SOL    HW137670   0.259   3.654  16.133 -0.7444 -0.4762  2.1772
 8678SOL    HW237671   0.405   3.675  16.164  1.0831 -0.6386  0.7944
 8679SOL     OW37672   2.253   0.852   3.529  0.2728  0.5436  0.3667
 8679SOL    HW137673   2.241   0.758   3.513 -0.1463  0.7523 -0.5310
 8679SOL    HW237674   2.311   0.855   3.605 -0.8613  1.3591  1.2033
 8680SOL     OW37675   1.369   4.556   5.678  0.1083  0.1145 -0.4671
 8680SOL    HW137676   1.275   4.560   5.692  0.4223 -0.3328  1.7585
 8680SOL    HW237677   1.392   4.470   5.715 -1.3422 -0.5696 -1.1458
 8681SOL     OW37678   1.223   3.024   2.614 -0.4510 -0.2483  0.3494
 8681SOL    HW137679   1.133   2.996   2.632 -0.5673 -0.6223 -0.8188
 8681SOL    HW237680   1.271   2.966   2.674 -1.4453 -1.6818 -0.2455
 8682SOL     OW37681   0.690   0.409   6.230 -0.5471 -0.2607 -0.1181
 8682SOL    HW137682   0.668   0.408   6.137 -1.7365 -0.7538  0.1649
 8682SOL    HW237683   0.769   0.464   6.222  0.6228 -1.7931  0.9339
 8683SOL     OW37684   2.259   4.171  11.923  0.1433 -0.2133 -0.4059
 8683SOL    HW137685   2.309   4.215  11.855 -0.3756  1.9888  0.6568
 8683SOL    HW237686   2.172   4.192  11.890  0.1015 -1.2275 -0.9375
 8684SOL     OW37687   0.621   3.401  12.480  0.2488 -0.1517  0.2690
 8684SOL    HW137688   0.660   3.357  12.405  0.0950 -1.1292  0.7604
 8684SOL    HW237689   0.531   3.367  12.483  0.4094 -0.5999 -0.0615
 8685SOL     OW37690   0.347   3.997   3.963  0.0853 -0.1535  0.0261
 8685SOL    HW137691   0.440   4.015   3.979  0.9397 -3.9454 -0.6240
 8685SOL    HW237692   0.326   3.941   4.038 -0.2812  1.6277  1.2607
 8686SOL     OW37693   1.797   1.974   8.320  0.0394 -0.1722 -0.3340
 8686SOL    HW137694   1.839   2.047   8.366  0.9261 -1.6562  1.2027
 8686SOL    HW237695   1.759   1.934   8.398 -0.0192  0.2954 -0.1232
 8687SOL     OW37696   0.166   0.891   9.345 -0.2958  0.0388  0.5796
 8687SOL    HW137697   0.086   0.923   9.387  0.5612 -0.8689  2.8730
 8687SOL    HW237698   0.138   0.913   9.256  2.0492 -1.3173 -0.5054
 8688SOL     OW37699   0.478   3.550   2.262  0.3069 -0.1684  0.2432
 8688SOL    HW137700   0.423   3.542   2.340  0.6942 -1.2333  0.4046
 8688SOL    HW237701   0.455   3.467   2.219  1.2108 -2.1121  3.4863
 8689SOL     OW37702   2.944   4.725   9.008  0.6316  1.0049 -0.7927
 8689SOL    HW137703   2.932   4.659   9.077 -3.0887  0.8033 -1.6515
 8689SOL    HW237704   2.855   0.003   8.976 -0.7499 -1.4764  1.8113
 8690SOL     OW37705   3.521   0.086   3.521 -0.2767 -0.0123 -0.2632
 8690SOL    HW137706   3.432   0.052   3.527 -0.7066  1.1857  0.0797
 8690SOL    HW237707   3.571   0.017   3.566 -1.7444 -0.6340  0.3944
 8691SOL     OW37708   4.476   2.519   4.822 -0.1678  0.9604 -0.1090
 8691SOL    HW137709   4.517   2.585   4.878  1.4936 -0.9276  0.8855
 8691SOL    HW237710   4.502   2.435   4.860  2.0195  0.1001 -3.5196
 8692SOL     OW37711   3.505   0.863  16.666  0.0309  0.2940 -0.1591
 8692SOL    HW137712   3.436   0.818  16.715 -1.8591  1.8040 -1.4651
 8692SOL    HW237713   3.521   0.943  16.717 -0.7288  1.0970 -1.1906
 8693SOL     OW37714   2.540   1.603   8.197 -0.4213 -0.3087  0.0466
 8693SOL    HW137715   2.566   1.666   8.129  1.4846 -0.3799  0.7066
 8693SOL    HW237716   2.488   1.660   8.253 -0.9195 -0.4374 -0.2832
 8694SOL     OW37717   3.778   4.484   8.939 -0.1201  0.0467 -0.6271
 8694SOL    HW137718   3.844   4.553   8.947  0.6248 -0.5631 -1.4573
 8694SOL    HW237719   3.734   4.492   9.024  0.6786  0.8152 -0.2812
 8695SOL     OW37720   4.548   4.509   4.664 -0.6321  0.2260  0.0446
 8695SOL    HW137721   4.502   4.569   4.605  0.0502 -1.0747 -1.8021
 8695SOL    HW237722   4.620   4.471   4.613  0.7071  0.7833  1.5117
 8696SOL     OW37723   3.387   1.691  12.484 -0.1483 -0.2935 -0.1408
 8696SOL    HW137724   3.411   1.738  12.563  1.3820 -1.2640 -0.0308
 8696SOL    HW237725   3.433   1.749  12.424  0.7231  0.8469  1.6368
 8697SOL     OW37726   3.542   1.790   6.689 -0.1109  0.1602 -0.0629
 8697SOL    HW137727   3.465   1.736   6.706 -0.3928  0.5483 -0.1240
 8697SOL    HW237728   3.612   1.734   6.723  0.3290 -0.4194 -1.9280
 8698SOL     OW37729   0.316   3.185  10.706  0.1201 -0.7951  0.1179
 8698SOL    HW137730   0.336   3.094  10.682  2.5844 -0.0593 -0.6094
 8698SOL    HW237731   0.269   3.214  10.628  2.5513  0.6874 -0.7886
 8699SOL     OW37732   2.270   0.777   1.269  0.4118  0.4094 -0.5002
 8699SOL    HW137733   2.210   0.811   1.335 -0.4477  0.5132 -1.3425
 8699SOL    HW237734   2.218   0.797   1.192  1.4795 -1.8123 -1.8055
 8700SOL     OW37735   4.015   1.584   6.866 -0.0901  0.2739  0.5046
 8700SOL    HW137736   4.059   1.571   6.950  0.4327 -1.0922  0.0209
 8700SOL    HW237737   4.041   1.508   6.814 -1.4652 -0.2133  0.5219
 8701SOL     OW37738   3.098   2.032   7.055  0.4462  0.1966  0.0261
 8701SOL    HW137739   3.055   2.029   6.969  0.9875  2.0945 -0.3117
 8701SOL    HW237740   3.019   2.029   7.109  1.7374  2.5024  1.9873
 8702SOL     OW37741   1.805   3.762   8.673 -0.1355  0.4533 -0.3232
 8702SOL    HW137742   1.892   3.802   8.678 -0.7926  1.5602  2.4372
 8702SOL    HW237743   1.793   3.711   8.753  1.6779  1.3261  0.5256
 8703SOL     OW37744   2.205   4.673   1.882  0.3360 -0.3100  0.2320
 8703SOL    HW137745   2.179   4.718   1.801 -0.6232  1.3734  1.4775
 8703SOL    HW237746   2.230   0.011   1.936  0.6892  1.3875 -2.3051
 8704SOL     OW37747   2.429   1.310   4.600 -0.7856  0.1915  0.1074
 8704SOL    HW137748   2.511   1.298   4.649  0.2629  0.4507 -1.5913
 8704SOL    HW237749   2.361   1.265   4.650 -0.4806 -1.1082 -0.6674
 8705SOL     OW37750   2.572   4.705  15.526  0.4076  0.4179 -0.2601
 8705SOL    HW137751   2.613   4.655  15.597  2.3120 -0.2190 -1.8084
 8705SOL    HW237752   2.620   0.049  15.534  0.4262  0.0963  3.2384
 8706SOL     OW37753   0.289   0.681   9.017  0.3527 -0.3061  0.4589
 8706SOL    HW137754   0.300   0.696   9.111  0.6260 -2.9318  0.8441
 8706SOL    HW237755   0.340   0.601   9.005  1.2260  0.3207 -0.0601
 8707SOL     OW37756   1.215   3.292   3.590  0.4971  0.1061  0.5632
 8707SOL    HW137757   1.205   3.387   3.580  0.7893  0.1894  1.0324
 8707SOL    HW237758   1.126   3.257   3.584  0.4994 -0.0479  1.3460
 8708SOL     OW37759   1.929   4.532   0.636 -0.3386 -0.4210 -0.0353
 8708SOL    HW137760   1.857   4.556   0.577 -2.0593  0.0863  2.2426
 8708SOL    HW237761   1.998   4.517   0.572  0.3585 -2.0463  1.1230
 8709SOL     OW37762   2.906   0.265   5.608  0.1291 -0.3055  0.0767
 8709SOL    HW137763   2.861   0.310   5.680  1.3368 -0.2081  0.7852
 8709SOL    HW237764   2.845   0.283   5.537 -0.4573 -1.6120  0.2708
 8710SOL     OW37765   1.129   0.843   7.998  0.3187  0.0688 -0.2646
 8710SOL    HW137766   1.066   0.905   8.037 -0.3355 -1.1692  0.6301
 8710SOL    HW237767   1.077   0.814   7.922  2.0918  0.7613 -1.7415
 8711SOL     OW37768   3.150   2.429   7.083  0.1844 -0.7174 -0.8868
 8711SOL    HW137769   3.060   2.429   7.118  1.3061 -0.2112  2.0079
 8711SOL    HW237770   3.180   2.343   7.114 -0.1078 -1.4951 -2.7905
 8712SOL     OW37771   1.482   2.768   2.528 -0.3583  0.6348  0.2551
 8712SOL    HW137772   1.465   2.674   2.522 -0.1877  0.5694  0.8338
 8712SOL    HW237773   1.394   2.794   2.558  0.0675 -1.2953  3.1732
 8713SOL     OW37774   4.233   1.469  15.905 -0.7536  0.4137 -0.6972
 8713SOL    HW137775   4.242   1.554  15.862  2.8693  0.6696  0.6340
 8713SOL    HW237776   4.142   1.448  15.882 -1.8066  2.5106  1.6026
 8714SOL     OW37777   2.133   1.268   2.891  0.2739  0.0527  0.1178
 8714SOL    HW137778   2.193   1.343   2.892  0.2591  0.0695 -0.4645
 8714SOL    HW237779   2.191   1.193   2.881  1.1262  0.3812  2.6045
 8715SOL     OW37780   1.256   3.203   0.813  0.2530 -0.4225  0.4184
 8715SOL    HW137781   1.328   3.247   0.768 -2.1609 -1.6142 -4.5863
 8715SOL    HW237782   1.227   3.142   0.745 -2.0053  0.5665  0.4678
 8716SOL     OW37783   3.160   3.147   8.548 -0.2994  0.4919  0.3378
 8716SOL    HW137784   3.204   3.171   8.630 -1.6906  1.9978  0.6528
 8716SOL    HW237785   3.144   3.235   8.514 -1.5843 -0.0172 -0.3473
 8717SOL     OW37786   4.688   0.806   4.086 -0.4720 -0.5473 -0.7881
 8717SOL    HW137787   0.004   0.823   4.163 -0.3511 -0.5572 -0.8696
 8717SOL    HW237788   4.612   0.862   4.098 -0.1833 -0.2965 -0.1437
 8718SOL     OW37789   0.286   3.398  12.875  0.2598 -0.3733 -0.9413
 8718SOL    HW137790   0.230   3.403  12.953  0.0509 -2.4343 -0.9773
 8718SOL    HW237791   0.250   3.474  12.829 -1.7400 -0.7648 -0.0311
 8719SOL     OW37792   3.819   4.233   6.836  0.2711  0.8723 -0.3839
 8719SOL    HW137793   3.762   4.170   6.880  1.8591 -0.1568  0.2212
 8719SOL    HW237794   3.903   4.188   6.850  0.3359  0.3562 -2.4098
 8720SOL     OW37795   3.803   3.167   6.198 -0.0914  0.5363  0.0635
 8720SOL    HW137796   3.780   3.110   6.125  0.1319  0.5861 -0.0434
 8720SOL    HW237797   3.792   3.256   6.163 -1.4171  0.6266  0.6688
 8721SOL     OW37798   2.921   3.433   3.549 -0.3569  0.1814 -0.4292
 8721SOL    HW137799   2.845   3.389   3.588  0.2865 -2.0343 -1.6803
 8721SOL    HW237800   2.950   3.364   3.489  1.0288  0.6625 -0.3194
 8722SOL     OW37801   2.343   0.731  16.972 -0.2245  0.0989  0.1772
 8722SOL    HW137802   2.322   0.725  16.879  1.6730 -0.6645 -0.1951
 8722SOL    HW237803   2.261   0.750  17.018 -1.0027  0.8654 -1.5057
 8723SOL     OW37804   1.666   0.576   1.639 -0.0494 -0.1385 -0.6112
 8723SOL    HW137805   1.720   0.501   1.663  0.4571  0.2372 -0.5835
 8723SOL    HW237806   1.610   0.565   1.716 -1.6660 -1.1574 -1.9228
 8724SOL     OW37807   1.538   1.368   3.176  0.4913  0.6344 -0.2261
 8724SOL    HW137808   1.585   1.439   3.220 -0.6112  1.1266  0.1547
 8724SOL    HW237809   1.477   1.341   3.245  3.3079 -1.8597  1.2829
 8725SOL     OW37810   2.325   0.951   2.098 -0.4239  0.9849 -0.2463
 8725SOL    HW137811   2.335   0.881   2.162 -0.6820 -0.3292 -1.6407
 8725SOL    HW237812   2.306   1.032   2.144 -1.5323 -0.7560  2.3167
 8726SOL     OW37813   4.421   2.633   5.506  0.1793  0.1719  0.9653
 8726SOL    HW137814   4.346   2.689   5.524  0.3710 -0.0951  2.5676
 8726SOL    HW237815   4.492   2.692   5.478 -1.5552  0.6770 -2.3457
 8727SOL     OW37816   2.892   0.297  11.558  0.6548  0.2309 -0.1928
 8727SOL    HW137817   2.955   0.368  11.549  0.0235  0.9943  1.3388
 8727SOL    HW237818   2.864   0.298  11.466  2.8069  1.2915 -0.8262
 8728SOL     OW37819   3.913   4.558   7.143  0.9608 -0.0879 -0.8499
 8728SOL    HW137820   3.885   4.615   7.214 -1.0170 -1.8241 -0.2359
 8728SOL    HW237821   3.988   4.525   7.192  0.7426 -0.5273 -0.8111
 8729SOL     OW37822   1.815   1.877   3.666 -0.3642 -0.8325  0.1972
 8729SOL    HW137823   1.778   1.959   3.698  3.4138 -0.6933  4.1747
 8729SOL    HW237824   1.907   1.902   3.660 -0.1721 -1.6502 -0.2854
 8730SOL     OW37825   4.211   1.640   3.493  0.1794  0.3691 -0.1966
 8730SOL    HW137826   4.125   1.647   3.535  1.2934 -0.3141  2.1999
 8730SOL    HW237827   4.199   1.683   3.409 -1.7092 -1.3896 -0.8555
 8731SOL     OW37828   0.370   0.607  11.973 -0.1998 -0.4552  0.1057
 8731SOL    HW137829   0.368   0.588  11.879 -1.5920 -2.7682  0.6058
 8731SOL    HW237830   0.456   0.577  12.003 -0.5155  0.5787  2.0369
 8732SOL     OW37831   2.712   2.966   3.366 -0.6791  0.7590  0.1217
 8732SOL    HW137832   2.713   3.059   3.389  2.3066 -0.1576  3.7366
 8732SOL    HW237833   2.637   2.938   3.419 -1.2834 -1.0125 -1.6789
 8733SOL     OW37834   3.051   3.645  10.201  0.1000 -0.3268 -0.3524
 8733SOL    HW137835   3.134   3.677  10.235  0.0892  0.0697 -0.7023
 8733SOL    HW237836   3.022   3.607  10.284 -1.6583 -0.2578 -0.9267
 8734SOL     OW37837   1.384   3.587   1.605 -0.1162 -0.5262  0.0639
 8734SOL    HW137838   1.422   3.501   1.625  0.0064 -0.2924  0.8122
 8734SOL    HW237839   1.448   3.622   1.543 -1.7242  2.4427  0.0666
 8735SOL     OW37840   3.981   0.095   7.582  0.0968  0.3391  0.4349
 8735SOL    HW137841   3.953   0.185   7.594  0.3914  0.4937 -0.0301
 8735SOL    HW237842   4.002   0.063   7.670  0.2638  0.0882  0.3045
 8736SOL     OW37843   4.320   0.970   4.934  0.9934  0.4317  0.4526
 8736SOL    HW137844   4.304   1.019   4.853  1.1868 -0.1364  0.0689
 8736SOL    HW237845   4.356   0.885   4.907 -1.1204 -0.9741  2.0973
 8737SOL     OW37846   2.481   1.043   7.570  0.1444 -0.7784  0.0505
 8737SOL    HW137847   2.572   1.040   7.540 -0.3348  0.6295 -1.5751
 8737SOL    HW237848   2.498   1.085   7.654  1.7231 -0.2479 -0.5327
 8738SOL     OW37849   3.296   1.306   9.099 -0.3990  0.3916 -0.4074
 8738SOL    HW137850   3.245   1.283   9.021 -1.5323  0.9596  0.1594
 8738SOL    HW237851   3.243   1.248   9.154 -0.3332 -0.9275 -1.7178
 8739SOL     OW37852   0.255   4.727   4.032  0.0956  0.0567  0.2401
 8739SOL    HW137853   0.207   0.071   4.043 -0.5455 -0.0858 -1.4274
 8739SOL    HW237854   0.334   4.737   4.084  1.0946 -2.5023 -0.8045
 8740SOL     OW37855   3.211   0.472   8.834  0.0196  0.4171 -0.2794
 8740SOL    HW137856   3.234   0.563   8.816 -0.2019 -0.0924 -3.1617
 8740SOL    HW237857   3.137   0.476   8.895 -1.3161 -1.9419 -1.7662
 8741SOL     OW37858   1.339   2.908   2.110 -0.0976  0.3518  0.4436
 8741SOL    HW137859   1.339   2.907   2.206  0.2764 -1.6025  0.4335
 8741SOL    HW237860   1.339   3.002   2.095 -1.5860  0.4350  1.0289
 8742SOL     OW37861   3.408   4.236   7.489 -0.3700  0.1378  0.1936
 8742SOL    HW137862   3.503   4.237   7.472 -0.5076  0.2324 -0.5990
 8742SOL    HW237863   3.408   4.192   7.574 -2.7014 -2.2335 -1.0096
 8743SOL     OW37864   3.202   1.776   7.326  0.3600  0.3046 -0.3195
 8743SOL    HW137865   3.131   1.719   7.356 -0.2515  0.3647 -1.6373
 8743SOL    HW237866   3.175   1.867   7.340 -0.0937  0.1040  0.0971
 8744SOL     OW37867   4.012   2.204  12.546 -0.4070 -0.1991  0.1571
 8744SOL    HW137868   3.931   2.255  12.547 -1.7563 -2.3590  0.0181
 8744SOL    HW237869   4.035   2.203  12.453  0.0676  0.1914  0.2704
 8745SOL     OW37870   4.124   2.642   7.047  0.2968  0.5131 -0.1344
 8745SOL    HW137871   4.215   2.669   7.045  0.4936 -0.1516 -0.0618
 8745SOL    HW237872   4.130   2.616   6.955 -1.1320 -2.3667  0.5842
 8746SOL     OW37873   0.681   1.338   6.949 -0.2045  0.2833  0.3905
 8746SOL    HW137874   0.684   1.363   7.042  0.8954  0.9849  0.1698
 8746SOL    HW237875   0.653   1.420   6.910 -0.2440 -0.3322 -0.8671
 8747SOL     OW37876   1.471   2.652   3.383 -0.3793 -0.0790  0.1362
 8747SOL    HW137877   1.455   2.634   3.476 -2.6865 -1.1167 -0.4599
 8747SOL    HW237878   1.475   2.563   3.347 -0.6855  0.0325 -0.1698
 8748SOL     OW37879   2.464   1.201   8.508  0.4680  0.4099 -0.0298
 8748SOL    HW137880   2.548   1.156   8.515 -0.0641 -0.9431 -2.2349
 8748SOL    HW237881   2.431   1.179   8.595  2.9853  0.0917  0.8628
 8749SOL     OW37882   1.622   0.252   9.223 -0.8266 -0.0275 -0.8110
 8749SOL    HW137883   1.644   0.247   9.315 -2.1315 -0.6628 -0.5235
 8749SOL    HW237884   1.661   0.177   9.177  0.4884 -0.2954  0.7785
 8750SOL     OW37885   3.440   2.879   8.894  0.3685 -0.3560  0.2883
 8750SOL    HW137886   3.469   2.810   8.953  2.5258 -0.7048 -1.1665
 8750SOL    HW237887   3.527   2.899   8.859  0.6485 -1.2438  0.4727
 8751SOL     OW37888   0.599   2.343  15.278  0.3354 -0.0252  0.2982
 8751SOL    HW137889   0.640   2.306  15.357  1.9234 -0.9753 -0.9695
 8751SOL    HW237890   0.656   2.303  15.213 -0.1137  1.0575 -0.7555
 8752SOL     OW37891   2.859   4.283   8.844  0.6049  0.1387 -0.3710
 8752SOL    HW137892   2.856   4.253   8.935  0.8384  0.8665 -0.1207
 8752SOL    HW237893   2.949   4.257   8.821  1.6664  3.4398  0.1010
 8753SOL     OW37894   2.605   2.695  12.873 -0.2434  0.0749  0.2494
 8753SOL    HW137895   2.610   2.765  12.938 -0.1177 -0.0962  0.4215
 8753SOL    HW237896   2.516   2.661  12.873  0.1422 -0.9826 -0.9432
 8754SOL     OW37897   0.116   0.116  17.724 -0.0586 -0.1983 -0.3651
 8754SOL    HW137898   0.090   0.024  17.730 -2.3796  0.4101 -1.0644
 8754SOL    HW237899   0.067   0.161  17.656 -0.2646  1.6850  1.0467
 8755SOL     OW37900   1.943   1.254  17.308 -0.0863 -0.0221  0.0112
 8755SOL    HW137901   1.860   1.269  17.354  1.2086 -0.0856  2.3463
 8755SOL    HW237902   1.911   1.235  17.219 -1.3066  1.1220  0.2102
 8756SOL     OW37903   2.567   3.723  14.225  0.3211 -0.5442 -0.1156
 8756SOL    HW137904   2.552   3.808  14.267 -2.4611 -0.6076 -0.9777
 8756SOL    HW237905   2.520   3.737  14.143  1.9693  0.7652 -0.8210
 8757SOL     OW37906   3.374   1.722   8.045 -0.0002 -0.1478 -0.3862
 8757SOL    HW137907   3.430   1.798   8.059  0.5357 -0.4766 -0.7860
 8757SOL    HW237908   3.284   1.755   8.052 -0.7601 -2.1161 -0.8415
 8758SOL     OW37909   1.923   4.697   6.113  0.1846 -0.2441 -0.3452
 8758SOL    HW137910   1.905   0.053   6.121 -2.1952 -0.6161 -1.1908
 8758SOL    HW237911   1.941   4.678   6.205 -0.8811  0.9446  0.1071
 8759SOL     OW37912   0.562   4.600   2.833  0.0558  0.0014 -0.4513
 8759SOL    HW137913   0.489   4.659   2.851  1.4915  1.5873  0.1539
 8759SOL    HW237914   0.617   4.648   2.896 -0.9652  1.5823 -0.7625
 8760SOL     OW37915   0.571   2.685   6.546  0.8188  0.9545  0.4662
 8760SOL    HW137916   0.644   2.727   6.499  2.1210 -0.3902  1.2906
 8760SOL    HW237917   0.490   2.722   6.512  0.5757 -0.0900 -0.0900
 8761SOL     OW37918   1.780   2.501   8.054 -0.0570  0.1294 -0.1936
 8761SOL    HW137919   1.769   2.484   8.148 -2.5302 -2.0500 -0.9050
 8761SOL    HW237920   1.717   2.573   8.051 -0.6585 -0.4267 -0.7165
 8762SOL     OW37921   4.033   4.548   6.622  0.5599 -0.3288 -0.3022
 8762SOL    HW137922   3.983   4.482   6.574  0.6346  0.3774 -1.3671
 8762SOL    HW237923   4.033   4.620   6.559  0.2800  0.3792  0.5087
 8763SOL     OW37924   3.212   4.342   2.580  0.0279  0.1278  0.5807
 8763SOL    HW137925   3.212   4.382   2.493  4.6969 -0.3128  0.3834
 8763SOL    HW237926   3.274   4.393   2.632 -0.6882 -0.9173  2.4434
 8764SOL     OW37927   4.450   0.502  17.428 -0.6817 -0.2010 -0.1629
 8764SOL    HW137928   4.509   0.441  17.385 -0.3457  0.4181 -0.5899
 8764SOL    HW237929   4.406   0.526  17.347 -1.3344 -0.8818  0.0005
 8765SOL     OW37930   3.604   3.962   6.521  0.1163 -0.0866  0.3466
 8765SOL    HW137931   3.546   3.903   6.474  0.0124  1.3018 -1.2664
 8765SOL    HW237932   3.579   4.045   6.480  1.3415  0.5712  0.8932
 8766SOL     OW37933   0.882   3.554   5.395 -0.9119  0.4295 -0.6200
 8766SOL    HW137934   0.956   3.602   5.434 -1.2900  0.8865 -0.4705
 8766SOL    HW237935   0.884   3.469   5.440  2.8477  1.2968  0.8728
 8767SOL     OW37936   2.014   2.953   2.490 -0.0502 -0.5263 -0.3139
 8767SOL    HW137937   1.927   2.934   2.455  0.5596  0.5490 -2.4012
 8767SOL    HW237938   2.040   3.031   2.441  2.9489  0.9326  3.6255
 8768SOL     OW37939   0.365   0.501   6.230 -0.3083 -0.1788 -0.5735
 8768SOL    HW137940   0.428   0.572   6.240 -0.1595 -0.4006  0.0096
 8768SOL    HW237941   0.332   0.532   6.145 -0.1618 -2.7074 -1.5477
 8769SOL     OW37942   2.777   3.157   6.282 -0.2829 -0.7563  0.5429
 8769SOL    HW137943   2.687   3.132   6.264 -0.0197 -1.0446 -0.3789
 8769SOL    HW237944   2.803   3.151   6.190 -0.0411 -0.3894  0.5865
 8770SOL     OW37945   3.825   3.409   4.768  0.3754 -0.0668  0.4659
 8770SOL    HW137946   3.848   3.464   4.842  1.5014  0.4583 -0.2842
 8770SOL    HW237947   3.819   3.472   4.696  0.5741 -2.3953 -1.6139
 8771SOL     OW37948   1.939   2.593   7.673  0.0434 -0.0114 -0.3561
 8771SOL    HW137949   1.994   2.639   7.609  1.4840  0.5146  1.2715
 8771SOL    HW237950   1.859   2.585   7.620  1.7477  1.8229 -3.2480
 8772SOL     OW37951   0.899   3.094   8.575  0.0831 -0.5902  0.1428
 8772SOL    HW137952   0.841   3.055   8.641 -3.1578  1.0538 -1.7039
 8772SOL    HW237953   0.979   3.112   8.624 -0.0169  1.9974 -0.6369
 8773SOL     OW37954   0.042   4.655  14.455 -0.4536 -0.3115 -0.7815
 8773SOL    HW137955   0.086   4.616  14.531 -0.0012 -3.3371 -2.5912
 8773SOL    HW237956   0.041   0.010  14.476 -2.2377 -0.3337 -0.8157
 8774SOL     OW37957   3.262   0.943  11.596  0.2584 -0.0898 -0.5174
 8774SOL    HW137958   3.269   0.897  11.680  0.1570  3.8033  1.6249
 8774SOL    HW237959   3.350   0.923  11.562  0.0755  0.2298 -1.1787
 8775SOL     OW37960   4.179   0.526  12.667  0.4348  0.5883 -0.4098
 8775SOL    HW137961   4.159   0.433  12.682  1.3630 -0.0272 -2.9139
 8775SOL    HW237962   4.093   0.554  12.637  1.1286  2.7312 -0.3904
 8776SOL     OW37963   3.739   3.179   2.984 -0.2053  0.3074  0.1580
 8776SOL    HW137964   3.724   3.246   2.918 -1.9977 -0.2504  0.0053
 8776SOL    HW237965   3.828   3.153   2.962 -0.1043  0.0486  0.8488
 8777SOL     OW37966   3.598   0.719  12.168 -0.3433  0.4200  0.3888
 8777SOL    HW137967   3.681   0.766  12.173 -0.0712 -0.1876  1.8400
 8777SOL    HW237968   3.596   0.705  12.074 -0.9708  0.1415  0.4435
 8778SOL     OW37969   4.236   3.381   5.791 -0.0561  0.3988  0.0604
 8778SOL    HW137970   4.188   3.387   5.873  1.1249  1.2554  0.6812
 8778SOL    HW237971   4.218   3.290   5.769 -1.2407  0.8455 -0.8584
 8779SOL     OW37972   2.516   0.230   9.093  0.6611  0.4646  0.3404
 8779SOL    HW137973   2.575   0.266   9.027 -0.1431  1.8208  0.3388
 8779SOL    HW237974   2.433   0.273   9.071 -0.0368 -0.9969  0.1422
 8780SOL     OW37975   2.384   1.191  14.687  0.4563  0.6426  0.6603
 8780SOL    HW137976   2.346   1.116  14.732 -0.7075  0.9960  0.2637
 8780SOL    HW237977   2.329   1.187  14.608  1.9676  1.3947 -0.4241
 8781SOL     OW37978   2.634   2.285  17.138  0.3722 -0.5051 -0.7942
 8781SOL    HW137979   2.700   2.216  17.148 -1.9841 -2.3971  1.7448
 8781SOL    HW237980   2.613   2.292  17.232  1.2816 -1.7215 -0.5047
 8782SOL     OW37981   0.979   3.603  13.477 -0.0814 -0.0339  0.5898
 8782SOL    HW137982   0.977   3.605  13.572  2.1771  1.7647  0.5943
 8782SOL    HW237983   0.914   3.534  13.461  0.6052 -0.3026 -1.1165
 8783SOL     OW37984   3.814   3.488   8.201  0.0529 -0.0301 -0.3793
 8783SOL    HW137985   3.776   3.468   8.115 -3.9876  1.7513  1.0068
 8783SOL    HW237986   3.845   3.398   8.212  1.5125  0.4687 -0.5301
 8784SOL     OW37987   4.205   2.799   2.881 -0.2642  0.5318  0.4989
 8784SOL    HW137988   4.252   2.744   2.944 -1.9910 -0.3665  1.0154
 8784SOL    HW237989   4.277   2.853   2.849  0.2305  0.9067  2.2213
 8785SOL     OW37990   4.275   4.134   8.909 -0.5875  0.1160  0.4526
 8785SOL    HW137991   4.244   4.071   8.845 -0.0414  2.9651 -2.6480
 8785SOL    HW237992   4.197   4.185   8.930 -0.6114  0.9676 -1.6359
 8786SOL     OW37993   2.977   3.125   6.670  0.1660 -0.0445 -0.5241
 8786SOL    HW137994   3.070   3.104   6.672  0.0865 -0.5386 -2.3381
 8786SOL    HW237995   2.948   3.069   6.599  2.0525 -1.5377 -0.1289
 8787SOL     OW37996   4.365   0.771  15.189 -0.0459  0.2242 -0.1285
 8787SOL    HW137997   4.361   0.790  15.096 -0.9762  1.9519  0.2565
 8787SOL    HW237998   4.370   0.676  15.198  1.7123  0.4696  1.5328
 8788SOL     OW37999   1.397   1.439  11.874  0.5453 -0.1877  0.1012
 8788SOL    HW138000   1.333   1.489  11.824 -1.2335 -0.5059  2.0564
 8788SOL    HW238001   1.464   1.501  11.901 -0.3381  0.6818  0.2718
 8789SOL     OW38002   3.573   3.015   2.162  0.8638 -0.0268 -0.7563
 8789SOL    HW138003   3.624   2.937   2.188  0.4226  1.1820  3.7973
 8789SOL    HW238004   3.529   3.021   2.247 -0.2423 -0.5880 -1.2940
 8790SOL     OW38005   2.430   3.924   9.069  0.1022  0.0365 -0.0674
 8790SOL    HW138006   2.359   3.949   9.009  0.7005  1.1323 -0.3248
 8790SOL    HW238007   2.391   3.844   9.104  0.8945  0.0924  0.9182
 8791SOL     OW38008   1.157   1.527  16.173 -0.4202  0.2849 -0.1158
 8791SOL    HW138009   1.141   1.478  16.254 -3.3783 -0.0384 -0.8780
 8791SOL    HW238010   1.068   1.528  16.137 -0.1402  0.9364 -0.7843
 8792SOL     OW38011   2.320   0.285   9.430  0.2445 -0.2098 -0.3838
 8792SOL    HW138012   2.334   0.223   9.502 -3.0942  0.2749  0.6597
 8792SOL    HW238013   2.360   0.364   9.464  0.5660 -0.9986  1.0488
 8793SOL     OW38014   2.278   3.731  11.087 -0.2930 -0.3921  0.0457
 8793SOL    HW138015   2.288   3.788  11.010 -1.3339 -2.3565 -1.5230
 8793SOL    HW238016   2.202   3.761  11.137  0.8602 -0.9097  2.1015
 8794SOL     OW38017   1.303   4.361   2.062  0.1743 -0.2690  0.0978
 8794SOL    HW138018   1.375   4.338   2.003  0.3423 -2.0851  1.0205
 8794SOL    HW238019   1.341   4.436   2.108  0.5257 -0.9581  0.9285
 8795SOL     OW38020   3.727   2.726   4.347 -0.1589 -0.1835  0.1620
 8795SOL    HW138021   3.701   2.752   4.259  0.7371  3.5281  0.9782
 8795SOL    HW238022   3.699   2.635   4.354 -0.8337  0.0162  0.0188
 8796SOL     OW38023   1.691   3.510   6.189  0.3438 -0.3031  0.5120
 8796SOL    HW138024   1.667   3.571   6.119  1.5228 -0.2598  0.1428
 8796SOL    HW238025   1.765   3.464   6.149 -0.0734 -1.3448  0.9535
 8797SOL     OW38026   4.653   2.434   3.042 -0.1930  0.3688 -0.7226
 8797SOL    HW138027   4.647   2.472   3.130  0.9081  0.3163 -0.6249
 8797SOL    HW238028   4.611   2.349   3.056  0.7683  0.1022  0.5296
 8798SOL     OW38029   3.313   1.491   4.797 -0.4062 -0.1953  0.1667
 8798SOL    HW138030   3.283   1.407   4.761 -1.4445 -0.5843  1.9625
 8798SOL    HW238031   3.407   1.475   4.791 -0.4203  0.0682 -0.7520
 8799SOL     OW38032   0.300   4.713  10.250 -0.4994 -0.3062 -0.1070
 8799SOL    HW138033   0.211   0.011  10.242 -0.2387  1.2914  4.2242
 8799SOL    HW238034   0.323   4.718  10.342  1.5437 -1.7648 -0.5408
 8800SOL     OW38035   3.493   0.262   6.511  0.6247 -1.0651  0.0505
 8800SOL    HW138036   3.519   0.244   6.601  0.1643  0.2224  0.4356
 8800SOL    HW238037   3.409   0.306   6.525  0.4585 -0.7116 -1.9948
 8801SOL     OW38038   0.596   0.649   1.562 -0.8653  0.1704 -0.4671
 8801SOL    HW138039   0.559   0.677   1.479  1.3069  0.3590 -1.3668
 8801SOL    HW238040   0.528   0.588   1.591 -2.3634  1.6888 -0.7890
 8802SOL     OW38041   1.923   4.241   5.276  0.0164  0.6010 -0.1642
 8802SOL    HW138042   1.989   4.291   5.323 -1.5563  0.7662  1.8545
 8802SOL    HW238043   1.955   4.151   5.285  0.1511  0.6124 -0.5263
 8803SOL     OW38044   3.557   2.098   6.615  0.1876  0.2536  0.1889
 8803SOL    HW138045   3.467   2.083   6.585  0.3654 -0.3113 -0.0511
 8803SOL    HW238046   3.576   2.007   6.635 -0.3827 -0.0658 -0.7184
 8804SOL     OW38047   3.488   3.995   8.757 -0.2104  0.3684  0.2051
 8804SOL    HW138048   3.516   4.083   8.733 -1.2095 -0.0190 -2.3203
 8804SOL    HW238049   3.400   4.000   8.720 -0.0007 -2.2500 -0.6830
 8805SOL     OW38050   0.280   3.353  16.171 -0.7080  0.5094 -0.1579
 8805SOL    HW138051   0.281   3.447  16.189 -0.4751  0.7255 -1.2741
 8805SOL    HW238052   0.263   3.299  16.248  1.4434 -0.6381 -0.4970
 8806SOL     OW38053   4.598   1.413   1.696 -0.2527  0.0314  0.2219
 8806SOL    HW138054   4.648   1.402   1.615 -1.3899 -0.1337 -0.4563
 8806SOL    HW238055   4.518   1.441   1.651 -0.0455  0.0648 -0.1256
 8807SOL     OW38056   2.537   3.233   1.086 -0.4411  0.1054  0.5155
 8807SOL    HW138057   2.616   3.284   1.075 -0.9312  1.2476  2.3531
 8807SOL    HW238058   2.549   3.160   1.024  2.0646  1.0028 -0.0446
 8808SOL     OW38059   0.293   0.682   2.187  0.7868  1.0479  0.0151
 8808SOL    HW138060   0.357   0.611   2.177 -1.7963 -1.1864 -0.7976
 8808SOL    HW238061   0.220   0.647   2.135  1.9199 -2.2612  0.6578
 8809SOL     OW38062   3.419   0.261   1.587 -0.4983 -0.4204 -0.4860
 8809SOL    HW138063   3.449   0.248   1.677 -0.9719 -2.1413 -0.5780
 8809SOL    HW238064   3.477   0.204   1.536  0.8104 -0.1305  0.6621
 8810SOL     OW38065   2.775   2.102  11.812 -0.1965  0.1440 -0.0652
 8810SOL    HW138066   2.743   2.012  11.817  1.1902 -0.3244  0.4581
 8810SOL    HW238067   2.750   2.142  11.895  1.9868 -3.3857  2.3126
 8811SOL     OW38068   4.053   2.529  16.734  0.2018  0.3502  0.1975
 8811SOL    HW138069   4.115   2.487  16.794  2.2244  0.0675 -2.0990
 8811SOL    HW238070   4.070   2.623  16.740 -0.9277  0.7614 -2.8811
 8812SOL     OW38071   2.627   4.622   4.424  0.0849 -0.2229 -0.0637
 8812SOL    HW138072   2.653   4.632   4.332 -0.4339  1.1067 -0.0590
 8812SOL    HW238073   2.574   4.700   4.439 -0.7967 -0.2006 -3.1862
 8813SOL     OW38074   4.206   2.244   5.481  0.3467 -0.4173 -0.0476
 8813SOL    HW138075   4.282   2.275   5.531 -0.2705 -0.7836  1.1145
 8813SOL    HW238076   4.127   2.293   5.503  0.3036 -0.9061  0.8988
 8814SOL     OW38077   1.039   0.145   2.109  0.4455  0.0859 -0.1545
 8814SOL    HW138078   1.038   0.067   2.055 -0.6029 -1.0483  1.5065
 8814SOL    HW238079   0.978   0.120   2.179  1.9743 -2.2048  0.3425
 8815SOL     OW38080   1.279   1.209  14.048 -0.1734  0.5411 -0.5077
 8815SOL    HW138081   1.212   1.267  14.085 -0.3005 -1.2348  1.9847
 8815SOL    HW238082   1.320   1.271  13.987  0.5890 -0.3298 -0.8850
 8816SOL     OW38083   4.652   4.301   9.827 -0.5563  0.1086  0.2614
 8816SOL    HW138084   4.605   4.220   9.849  2.3454 -0.5733  3.9548
 8816SOL    HW238085   4.717   4.311   9.896  1.7280 -0.2166 -1.8369
 8817SOL     OW38086   2.323   4.379   3.851 -0.1949  0.0387 -0.7185
 8817SOL    HW138087   2.347   4.301   3.801  0.1854 -0.5404  0.3647
 8817SOL    HW238088   2.305   4.432   3.774 -2.4364 -2.0115 -1.5760
 8818SOL     OW38089   1.535   3.816  10.936  0.1331  0.0090  0.7213
 8818SOL    HW138090   1.466   3.878  10.913 -0.9029 -1.0183  1.0555
 8818SOL    HW238091   1.581   3.863  11.005  0.1689 -0.6260  1.1359
 8819SOL     OW38092   4.658   3.023   6.059 -0.4600  0.4839 -0.4566
 8819SOL    HW138093   0.010   3.044   6.035  0.4700 -2.0067  0.8022
 8819SOL    HW238094   4.612   3.080   5.998  2.5703  2.8593 -0.5535
 8820SOL     OW38095   4.369   3.310   7.848  0.1478  0.2915 -0.1155
 8820SOL    HW138096   4.423   3.246   7.895 -1.0834  0.6669  1.8217
 8820SOL    HW238097   4.366   3.380   7.912 -2.7194  0.9135 -0.9231
 8821SOL     OW38098   0.905   0.864   7.318  0.4572  0.5441 -0.1537
 8821SOL    HW138099   0.932   0.941   7.369  0.1061 -1.2702  2.7096
 8821SOL    HW238100   0.856   0.906   7.247 -0.2655  1.2089  0.7318
 8822SOL     OW38101   2.273   1.187  17.551  0.0922  0.2753 -0.1866
 8822SOL    HW138102   2.367   1.179  17.568 -0.1209 -3.3321 -0.8129
 8822SOL    HW238103   2.261   1.197  17.456 -1.6766 -1.9464 -0.1782
 8823SOL     OW38104   0.966   3.519   6.301 -0.3534 -0.0883  0.4970
 8823SOL    HW138105   0.944   3.584   6.368  0.2117 -0.5083  1.0815
 8823SOL    HW238106   1.061   3.533   6.306 -0.0916 -1.6028 -0.2499
 8824SOL     OW38107   4.221   4.536   0.264  0.6607  0.2540 -0.5300
 8824SOL    HW138108   4.244   4.605   0.327 -1.8066  2.1372 -1.6924
 8824SOL    HW238109   4.129   4.554   0.246  0.6236  1.2646  0.6107
 8825SOL     OW38110   1.261   0.689   5.308 -0.3934  0.3322 -0.1575
 8825SOL    HW138111   1.339   0.685   5.363  0.0316 -1.2441 -0.8751
 8825SOL    HW238112   1.259   0.778   5.273 -0.9717 -0.2503 -1.6111
 8826SOL     OW38113   0.366   3.527   8.004 -0.7651  0.2017  0.2486
 8826SOL    HW138114   0.332   3.558   7.920 -2.2130 -2.6313 -0.2467
 8826SOL    HW238115   0.285   3.505   8.051 -0.5754  0.4112  0.6686
 8827SOL     OW38116   4.267   3.800   5.626 -0.0212  0.8047  0.1218
 8827SOL    HW138117   4.289   3.872   5.686  0.7589  0.7772 -0.1234
 8827SOL    HW238118   4.287   3.728   5.687 -0.7611  0.5749  0.0814
 8828SOL     OW38119   4.704   2.512  14.054  0.3671 -0.2518 -0.1203
 8828SOL    HW138120   4.649   2.458  14.111 -0.3487 -0.5369 -1.0734
 8828SOL    HW238121   4.653   2.525  13.974 -1.2868 -0.8236  0.8426
 8829SOL     OW38122   0.965   0.110   4.533  0.0654 -0.1892  0.4110
 8829SOL    HW138123   1.059   0.111   4.518  0.1234 -0.6745  0.7368
 8829SOL    HW238124   0.941   0.027   4.491  1.9266 -0.1122 -0.7911
 8830SOL     OW38125   4.193   3.821   4.209 -1.0278  0.8637 -0.0616
 8830SOL    HW138126   4.266   3.857   4.260 -0.2971  0.8721 -1.1025
 8830SOL    HW238127   4.195   3.732   4.245 -1.1103 -0.0053 -2.2109
 8831SOL     OW38128   0.097   0.373   9.297 -0.4554  0.3377 -0.0831
 8831SOL    HW138129   0.073   0.415   9.379 -0.5459  0.8419 -0.3691
 8831SOL    HW238130   0.186   0.350   9.325 -0.3803 -0.2642 -0.8224
 8832SOL     OW38131   0.720   0.497   8.694 -0.0994  0.3304 -0.0806
 8832SOL    HW138132   0.707   0.526   8.604  0.5647 -1.2984 -0.7014
 8832SOL    HW238133   0.676   0.414   8.676 -1.6155  1.5947 -2.1937
 8833SOL     OW38134   2.809   3.530   8.510  0.0022  0.2275 -0.4778
 8833SOL    HW138135   2.744   3.563   8.572 -1.1878 -2.2399 -0.4028
 8833SOL    HW238136   2.818   3.613   8.462 -1.1365  0.6738  0.0904
 8834SOL     OW38137   0.666   2.352   3.676  0.3477  0.1059 -0.1707
 8834SOL    HW138138   0.744   2.307   3.643  0.2984 -0.5643  0.6225
 8834SOL    HW238139   0.615   2.298   3.736  1.6895 -0.8530  0.0826
 8835SOL     OW38140   3.232   1.650   2.124 -0.0821 -0.5340 -0.2601
 8835SOL    HW138141   3.250   1.663   2.217 -0.1760 -1.9066 -0.0454
 8835SOL    HW238142   3.200   1.560   2.129  2.6452 -1.4409  0.4776
 8836SOL     OW38143   3.431   2.230   0.220  0.6539 -0.4446 -0.0911
 8836SOL    HW138144   3.379   2.255   0.296 -1.7291 -0.7289 -1.6469
 8836SOL    HW238145   3.361   2.196   0.166  0.2511  1.7959 -0.9873
 8837SOL     OW38146   3.466   2.537   5.790 -0.0219  0.0546  0.1978
 8837SOL    HW138147   3.467   2.631   5.769  3.3028 -0.1765 -0.7020
 8837SOL    HW238148   3.441   2.551   5.881 -2.1616 -1.1257 -0.1853
 8838SOL     OW38149   0.548   3.601   5.418 -0.0826  0.1596  0.0734
 8838SOL    HW138150   0.585   3.598   5.507  1.8984 -2.6891 -0.8190
 8838SOL    HW238151   0.623   3.632   5.368 -0.0052  1.9322  1.2915
 8839SOL     OW38152   2.111   1.751   5.944  0.7429 -0.1967 -0.3360
 8839SOL    HW138153   2.018   1.729   5.949  0.5645  0.7110  0.4209
 8839SOL    HW238154   2.104   1.838   5.984 -1.5898 -1.0298  1.0665
 8840SOL     OW38155   4.219   3.028   9.347 -0.4827  0.3918  0.2005
 8840SOL    HW138156   4.145   3.084   9.322 -0.5224  0.1368 -0.2510
 8840SOL    HW238157   4.244   3.062   9.433 -0.3253 -0.1442  0.3653
 8841SOL     OW38158   3.955   0.498   9.056  0.5850  0.5563 -0.1531
 8841SOL    HW138159   3.934   0.543   8.975 -0.8310  0.8797  0.3931
 8841SOL    HW238160   3.868   0.472   9.088  0.4964  2.1553  0.9240
 8842SOL     OW38161   0.496   2.806   1.422 -0.8468  0.0302 -0.4299
 8842SOL    HW138162   0.586   2.783   1.445 -0.3644  0.4991 -1.8623
 8842SOL    HW238163   0.511   2.865   1.349  0.4376 -2.6339 -2.3407
 8843SOL     OW38164   1.753   0.631   6.895  0.0966  0.0045 -0.3317
 8843SOL    HW138165   1.726   0.606   6.983 -1.0584 -1.8048 -1.1992
 8843SOL    HW238166   1.689   0.698   6.871  1.8663  1.2493 -1.5611
 8844SOL     OW38167   2.005   3.490   8.747  0.1950  0.3246  0.7826
 8844SOL    HW138168   2.000   3.518   8.656 -0.6604 -3.2022 -0.2395
 8844SOL    HW238169   2.084   3.437   8.740  2.7937  4.1419  0.8013
 8845SOL     OW38170   2.148   2.447   5.774 -0.7126  0.3488 -0.6879
 8845SOL    HW138171   2.228   2.401   5.800 -0.0795  0.6607 -2.0672
 8845SOL    HW238172   2.117   2.498   5.848  2.3288 -0.8803  1.4450
 8846SOL     OW38173   2.795   4.583   7.361  0.4487  0.4609  0.0207
 8846SOL    HW138174   2.867   4.619   7.413  0.4182 -0.6692  0.8310
 8846SOL    HW238175   2.756   4.517   7.419  1.1370  0.0736  0.0384
 8847SOL     OW38176   4.062   3.574   2.038  0.0937  0.1451 -0.4546
 8847SOL    HW138177   4.079   3.493   2.086  0.8839 -0.0141 -1.0079
 8847SOL    HW238178   3.990   3.546   1.980 -1.4757  2.9715  0.1280
 8848SOL     OW38179   4.735   1.530   9.645  0.4580  0.3472  0.0084
 8848SOL    HW138180   0.087   1.512   9.617  1.5183  1.1815  2.8526
 8848SOL    HW238181   4.699   1.580   9.572  0.1613  0.6153  0.3416
 8849SOL     OW38182   4.263   1.259   1.997  0.7427  0.1048 -0.7238
 8849SOL    HW138183   4.309   1.199   1.939  0.0520 -1.1068 -0.0204
 8849SOL    HW238184   4.191   1.198   2.012  0.7732  1.5193  5.4391
 8850SOL     OW38185   3.592   2.432   0.084 -0.2418  0.4372  0.0529
 8850SOL    HW138186   3.671   2.380   0.075 -2.0743 -2.4624  0.8328
 8850SOL    HW238187   3.546   2.373   0.144  2.7747 -2.0507 -0.1291
 8851SOL     OW38188   3.352   4.303   4.242  0.5910 -0.0843  0.2822
 8851SOL    HW138189   3.406   4.226   4.223 -0.2866 -0.2819 -1.4518
 8851SOL    HW238190   3.368   4.305   4.336  0.9270  0.1756  0.2186
 8852SOL     OW38191   1.658   2.409   2.585 -0.3395  0.3169  0.0129
 8852SOL    HW138192   1.662   2.487   2.640  2.6614  0.2558 -0.1370
 8852SOL    HW238193   1.751   2.395   2.570 -0.6081 -1.1838 -0.2297
 8853SOL     OW38194   0.820   0.823   1.522 -0.0594  0.1235  0.2004
 8853SOL    HW138195   0.741   0.770   1.533 -0.2379  0.3316 -0.0967
 8853SOL    HW238196   0.810   0.843   1.429  0.7140 -2.3176 -0.4247
 8854SOL     OW38197   4.549   1.225   2.948 -0.1260  0.2555  0.0656
 8854SOL    HW138198   4.594   1.143   2.928 -3.6724 -0.7486 -3.9474
 8854SOL    HW238199   4.524   1.248   2.858 -2.8738  0.3923  0.8500
 8855SOL     OW38200   3.471   2.127   2.849  0.2322  0.5137 -0.1549
 8855SOL    HW138201   3.417   2.180   2.908 -1.9365  2.8048 -4.2403
 8855SOL    HW238202   3.486   2.052   2.906  0.7241  0.1686 -0.7465
 8856SOL     OW38203   2.275   2.127  17.738 -0.1818  0.2339  0.5355
 8856SOL    HW138204   2.248   2.060  17.675  0.1538 -0.0219  0.6665
 8856SOL    HW238205   2.365   2.097  17.744 -1.1638 -2.5521  1.4670
 8857SOL     OW38206   4.703   2.458   2.135 -0.4246 -0.9736 -0.5285
 8857SOL    HW138207   4.646   2.535   2.142 -0.7223 -1.4040  1.7167
 8857SOL    HW238208   4.651   2.379   2.144 -0.5199 -0.9459 -0.8424
 8858SOL     OW38209   4.047   3.455   9.546 -0.6879 -0.1605 -0.9959
 8858SOL    HW138210   4.042   3.549   9.534 -2.9822 -0.0790  0.5944
 8858SOL    HW238211   4.051   3.445   9.641  0.2624  1.5301 -0.8609
 8859SOL     OW38212   4.538   2.425   2.458  0.1735  0.5471  0.4480
 8859SOL    HW138213   4.595   2.451   2.530  0.6642 -2.9671  1.3286
 8859SOL    HW238214   4.508   2.511   2.431  1.4547  1.1726  1.0150
 8860SOL     OW38215   3.799   3.330   1.781 -0.4582 -0.4872  1.1524
 8860SOL    HW138216   3.761   3.287   1.704  0.2418  0.8617  0.0386
 8860SOL    HW238217   3.880   3.357   1.738 -1.7362 -0.0529 -1.0130
 8861SOL     OW38218   1.238   0.951   5.204 -0.2928  1.0570  0.0326
 8861SOL    HW138219   1.150   0.964   5.238 -0.5192  3.1324 -1.3369
 8861SOL    HW238220   1.233   0.983   5.114  0.0764  0.6276 -0.1432
 8862SOL     OW38221   0.522   4.674  15.352 -0.0386  0.2288 -0.0762
 8862SOL    HW138222   0.515   4.581  15.332 -0.3148  0.3490 -0.5409
 8862SOL    HW238223   0.571   4.678  15.434  0.8084  0.2424 -0.5906
 8863SOL     OW38224   3.765   0.465  11.939  0.8386 -0.2086  0.1973
 8863SOL    HW138225   3.692   0.520  11.967  1.0312  0.9387 -1.5602
 8863SOL    HW238226   3.845   0.515  11.955 -0.9207  2.0106  1.9804
 8864SOL     OW38227   1.290   3.961   0.354 -0.1411  0.1379  0.1997
 8864SOL    HW138228   1.274   3.899   0.282 -0.5158 -0.3360  0.6824
 8864SOL    HW238229   1.288   4.041   0.303  0.1049  0.1638  0.2313
 8865SOL     OW38230   2.017   2.249   0.664 -0.0884 -0.3824 -0.3732
 8865SOL    HW138231   2.049   2.337   0.646  1.1098 -1.1795 -2.1956
 8865SOL    HW238232   2.006   2.215   0.576  0.1423 -1.0493 -0.1458
 8866SOL     OW38233   4.731   4.140   0.597  0.3418  0.0252 -0.3454
 8866SOL    HW138234   0.056   4.069   0.587 -0.1921 -0.5587  0.4527
 8866SOL    HW238235   0.059   4.206   0.581  0.3059  0.8455  3.0295
 8867SOL     OW38236   4.586   3.919   4.994 -0.1047  0.1249 -0.2745
 8867SOL    HW138237   4.638   3.848   4.955  0.7954  0.6934 -0.1162
 8867SOL    HW238238   4.517   3.926   4.928  0.1690 -1.8871 -0.7627
 8868SOL     OW38239   0.942   3.036   8.916  0.4077  0.4286 -0.0057
 8868SOL    HW138240   0.863   2.984   8.929  0.7908  0.1334  1.1570
 8868SOL    HW238241   0.948   3.091   8.994  3.7802 -0.7935  0.5784
 8869SOL     OW38242   4.004   3.123   9.637  0.0422  0.1015  0.0128
 8869SOL    HW138243   3.944   3.127   9.563 -0.0436  2.6104  0.2319
 8869SOL    HW238244   3.973   3.046   9.685  3.2958  0.1059  2.0822
 8870SOL     OW38245   1.679   2.343   9.094 -0.1320 -0.1302  0.3488
 8870SOL    HW138246   1.682   2.248   9.098  1.1815 -0.2929 -4.1130
 8870SOL    HW238247   1.665   2.365   9.002 -1.4185  0.0795  0.5964
 8871SOL     OW38248   4.272   4.491  10.894 -0.2543 -0.4170  0.1149
 8871SOL    HW138249   4.320   4.490  10.977  0.5334 -1.6244 -0.3602
 8871SOL    HW238250   4.199   4.544  10.926  0.5548  2.2171 -2.3861
 8872SOL     OW38251   3.568   0.326  16.355 -0.2770 -0.2581  0.6649
 8872SOL    HW138252   3.655   0.322  16.396  0.0658  0.9688  0.0403
 8872SOL    HW238253   3.551   0.231  16.358 -1.9480  0.0630  1.3624
 8873SOL     OW38254   3.162   3.476  15.128 -0.2863  0.2055  0.2443
 8873SOL    HW138255   3.096   3.520  15.074  0.3972 -1.6672 -2.1201
 8873SOL    HW238256   3.187   3.401  15.073  1.3104 -1.5453  3.3516
 8874SOL     OW38257   3.331   0.212  14.387  0.3760  0.4602 -0.4552
 8874SOL    HW138258   3.415   0.189  14.348  0.9964  0.3221  1.0085
 8874SOL    HW238259   3.281   0.139  14.349 -0.5485  0.5096  0.6971
 8875SOL     OW38260   1.094   1.868  14.432 -0.1111 -0.7345  0.7187
 8875SOL    HW138261   1.012   1.844  14.475 -0.0834 -3.7959 -0.9599
 8875SOL    HW238262   1.067   1.900  14.347 -1.3761  0.9919  1.7724
 8876SOL     OW38263   3.538   0.945   2.644 -0.2061  0.2380 -0.0111
 8876SOL    HW138264   3.558   0.988   2.561  1.4753 -1.3960 -0.4570
 8876SOL    HW238265   3.449   0.979   2.651  0.7266  2.5531  0.6986
 8877SOL     OW38266   2.815   0.285   4.740 -0.0678  0.0329 -0.5820
 8877SOL    HW138267   2.908   0.304   4.748  0.1059 -0.2175 -2.0022
 8877SOL    HW238268   2.807   0.273   4.646  0.8672  2.2143 -0.9353
 8878SOL     OW38269   0.782   1.707  17.054  0.0336  0.3084  0.7131
 8878SOL    HW138270   0.766   1.660  17.136  0.5445 -1.0708  0.0110
 8878SOL    HW238271   0.870   1.679  17.028 -0.0221  0.9869 -0.1989
 8879SOL     OW38272   0.310   3.830   4.160 -0.3816 -0.2015  0.4511
 8879SOL    HW138273   0.351   3.754   4.201  0.0340 -0.4330 -0.3897
 8879SOL    HW238274   0.229   3.795   4.122 -0.2001  1.8183 -1.7665
 8880SOL     OW38275   1.619   0.346   7.010  0.0158 -0.4133  0.6835
 8880SOL    HW138276   1.713   0.355   6.992  0.0146 -0.6400  0.5528
 8880SOL    HW238277   1.598   0.437   7.030  0.0201 -0.1765 -0.3890
 8881SOL     OW38278   2.418   3.511  11.069 -0.4103  0.0740  0.2490
 8881SOL    HW138279   2.483   3.549  11.128  0.3207 -2.7356  1.2084
 8881SOL    HW238280   2.361   3.587  11.056  0.8769  0.6436 -2.0141
 8882SOL     OW38281   3.972   2.711   4.479  0.2926  0.0025  0.0921
 8882SOL    HW138282   3.913   2.743   4.547 -0.9356  1.6045 -1.6992
 8882SOL    HW238283   3.907   2.724   4.409 -1.6108 -2.0586  1.4871
 8883SOL     OW38284   2.745   0.540   3.930 -0.3571  0.1442 -0.0358
 8883SOL    HW138285   2.755   0.447   3.909 -0.2261 -0.2194  1.6547
 8883SOL    HW238286   2.655   0.540   3.963 -1.0536  1.4292 -1.9089
 8884SOL     OW38287   0.727   2.865   8.974  0.2507 -0.1553  0.0017
 8884SOL    HW138288   0.701   2.777   9.001  1.7194 -0.6139 -0.0739
 8884SOL    HW238289   0.642   2.908   8.968 -1.1779 -2.5623  3.1460
 8885SOL     OW38290   0.707   2.766   2.663  0.3887  0.2667 -0.4638
 8885SOL    HW138291   0.705   2.676   2.629 -1.2072  0.2268 -0.2611
 8885SOL    HW238292   0.615   2.792   2.671  0.2060 -0.7005  0.7095
 8886SOL     OW38293   1.199   1.095   5.902 -0.4219  0.0403  0.2706
 8886SOL    HW138294   1.232   1.145   5.827 -2.0582  0.9014  0.1246
 8886SOL    HW238295   1.254   1.018   5.917  0.9640  1.3004  1.6160
 8887SOL     OW38296   1.732   2.792   3.379 -0.0240 -0.3834 -0.2943
 8887SOL    HW138297   1.825   2.774   3.389  0.4830  2.0589 -0.5963
 8887SOL    HW238298   1.699   2.719   3.327 -1.8631 -0.9951  1.7607
 8888SOL     OW38299   4.626   1.949  13.356 -0.4098 -0.0953  0.4382
 8888SOL    HW138300   4.685   1.944  13.281 -0.4428  2.5501  0.2191
 8888SOL    HW238301   4.674   1.917  13.432  1.4032  1.3377 -0.1231
 8889SOL     OW38302   4.042   2.444  12.040  0.7424  0.0222 -0.4337
 8889SOL    HW138303   4.073   2.522  12.086  0.4745  0.6573 -1.3398
 8889SOL    HW238304   4.062   2.459  11.948  0.5062 -1.7985 -0.7679
 8890SOL     OW38305   4.632   1.971   2.925 -0.2670  0.1125 -0.1607
 8890SOL    HW138306   4.606   1.927   2.844  1.0748  0.9062 -1.0146
 8890SOL    HW238307   4.617   1.906   2.994 -0.4538  0.7257  0.3740
 8891SOL     OW38308   2.354   1.490   4.846 -0.3162  0.4443 -0.5354
 8891SOL    HW138309   2.373   1.434   4.770  1.2804  0.8470 -0.4143
 8891SOL    HW238310   2.426   1.463   4.903 -1.7212 -2.7273 -0.2291
 8892SOL     OW38311   4.212   1.159   4.313  0.0926 -0.5265 -0.1423
 8892SOL    HW138312   4.302   1.172   4.345  0.6658 -0.9672 -1.6079
 8892SOL    HW238313   4.231   1.178   4.222  2.3070 -3.2008 -0.2191
 8893SOL     OW38314   0.100   0.400   6.235  0.1615 -0.5952 -0.0397
 8893SOL    HW138315   0.180   0.426   6.280 -0.9023  1.4250  0.7033
 8893SOL    HW238316   0.025   0.445   6.274  1.5998  0.9007  1.0024
 8894SOL     OW38317   2.973   3.698   7.788 -0.2144 -0.2630 -0.7589
 8894SOL    HW138318   2.973   3.661   7.876  1.6104  2.4899  0.3822
 8894SOL    HW238319   2.976   3.792   7.802  1.0368 -0.3748 -0.2721
 8895SOL     OW38320   2.345   4.122   3.746  0.4857 -0.2241 -0.0511
 8895SOL    HW138321   2.341   4.043   3.801 -0.0896 -0.2983 -0.2006
 8895SOL    HW238322   2.253   4.141   3.727  0.3600 -1.0798 -0.2949
 8896SOL     OW38323   4.027   1.457  11.653  0.5631 -0.1179  0.1830
 8896SOL    HW138324   4.015   1.362  11.650  0.2153 -0.0901  0.9173
 8896SOL    HW238325   3.962   1.490  11.591  0.1185  0.8465  1.1734
 8897SOL     OW38326   1.805   2.010   4.673  0.1683 -0.0847 -0.0147
 8897SOL    HW138327   1.757   1.959   4.738 -1.5194  1.9385  0.3356
 8897SOL    HW238328   1.813   1.955   4.595  0.6219 -1.1093  0.7588
 8898SOL     OW38329   4.654   3.560   7.778  0.6088 -0.4528 -0.5771
 8898SOL    HW138330   4.583   3.516   7.731 -0.4339 -0.7425  1.2643
 8898SOL    HW238331   4.719   3.580   7.710  1.9581  2.5718  1.5822
 8899SOL     OW38332   4.717   1.928   8.066 -0.3310  0.5406  0.2855
 8899SOL    HW138333   4.700   1.872   7.990 -0.3737  0.3396  0.4443
 8899SOL    HW238334   4.643   1.907   8.123 -0.8959 -0.7445 -0.9261
 8900SOL     OW38335   1.795   1.258   4.963  0.1085  0.8211  0.0266
 8900SOL    HW138336   1.864   1.313   4.926 -0.3942  1.7526  0.4767
 8900SOL    HW238337   1.814   1.280   5.054 -0.1898 -2.6140  0.9141
 8901SOL     OW38338   1.188   4.660   3.091  0.2951 -0.3757 -0.4143
 8901SOL    HW138339   1.150   4.738   3.131  0.2151 -0.1275 -0.9679
 8901SOL    HW238340   1.147   4.656   3.004 -0.1363  0.4320 -0.2446
 8902SOL     OW38341   2.292   3.897   3.139 -0.1518  0.2035  0.9178
 8902SOL    HW138342   2.305   3.934   3.227 -0.6130 -0.0959  1.1146
 8902SOL    HW238343   2.251   3.975   3.101  1.9961  0.6957 -0.3508
 8903SOL     OW38344   1.166   2.129   6.298  0.1395 -0.3226  0.5516
 8903SOL    HW138345   1.091   2.176   6.335  0.0431 -0.2119  0.2087
 8903SOL    HW238346   1.230   2.199   6.291  0.2058 -0.7677 -3.2945
 8904SOL     OW38347   4.679   4.453   9.488  0.2072 -0.0690  0.5684
 8904SOL    HW138348   0.006   4.488   9.549  0.0802 -1.2353  1.3681
 8904SOL    HW238349   4.702   4.361   9.501 -1.9362 -0.5542  1.0568
 8905SOL     OW38350   2.840   1.267   6.026  0.0972  0.2731 -0.1937
 8905SOL    HW138351   2.771   1.302   6.084 -2.2052 -2.5539 -1.2053
 8905SOL    HW238352   2.850   1.180   6.066  1.7578  0.0849 -1.0597
 8906SOL     OW38353   3.321   2.864   6.821  0.6050 -0.0987 -0.5390
 8906SOL    HW138354   3.249   2.818   6.865  0.7165 -0.6949 -0.9774
 8906SOL    HW238355   3.401   2.835   6.867  0.6594  1.6247  0.4576
 8907SOL     OW38356   3.686   4.548   2.353 -0.5701 -0.4942 -0.4270
 8907SOL    HW138357   3.714   4.633   2.388 -1.1884 -0.3012 -0.3893
 8907SOL    HW238358   3.756   4.533   2.290  0.4360 -0.5596  0.7183
 8908SOL     OW38359   1.796   0.375   5.114  0.1592  0.9351  0.3464
 8908SOL    HW138360   1.873   0.370   5.171  0.6648  0.4865 -0.3821
 8908SOL    HW238361   1.822   0.313   5.046  0.7547  0.8846  0.6160
 8909SOL     OW38362   2.880   2.683  16.495  0.6536 -0.2398 -0.0890
 8909SOL    HW138363   2.969   2.704  16.524  0.6475 -1.9244  1.1477
 8909SOL    HW238364   2.901   2.686  16.402  0.3434 -0.0302 -0.1519
 8910SOL     OW38365   1.655   0.532  12.879 -0.1933  0.2438 -0.3806
 8910SOL    HW138366   1.660   0.463  12.812 -3.0796  0.2537 -0.5993
 8910SOL    HW238367   1.747   0.558  12.877 -0.7040  2.1178  1.1641
 8911SOL     OW38368   0.020   1.026   5.979  0.5980 -0.2346 -0.1688
 8911SOL    HW138369   0.083   0.964   5.943  0.6327 -2.5165  3.7272
 8911SOL    HW238370   4.724   0.976   6.053 -1.9192 -0.6211 -1.5952
 8912SOL     OW38371   4.334   3.081  11.998  0.2301 -0.0423 -0.0441
 8912SOL    HW138372   4.295   3.132  12.069  1.0874  0.8636 -0.2211
 8912SOL    HW238373   4.404   3.037  12.048 -0.0730  1.3451  1.6175
 8913SOL     OW38374   4.288   0.701  10.146 -0.9812 -0.0518 -0.4494
 8913SOL    HW138375   4.351   0.742  10.086  0.0087  0.3366  0.8475
 8913SOL    HW238376   4.327   0.717  10.232  0.8775 -0.1917 -1.2660
 8914SOL     OW38377   3.196   2.251   2.693  0.8492  0.5158 -0.4650
 8914SOL    HW138378   3.278   2.299   2.706  0.5293  0.9092  0.1247
 8914SOL    HW238379   3.178   2.261   2.600 -0.3969 -3.2539 -0.6093
 8915SOL     OW38380   1.226   3.781   3.365 -0.5270 -0.0914  0.2635
 8915SOL    HW138381   1.207   3.712   3.430  1.8408 -1.3738 -0.4104
 8915SOL    HW238382   1.232   3.866   3.408  0.7656  1.0665 -2.2343
 8916SOL     OW38383   2.915   2.006   9.068  0.2962  0.4524  0.3911
 8916SOL    HW138384   2.837   1.955   9.092 -0.2464  0.9737 -0.2720
 8916SOL    HW238385   2.887   2.090   9.105 -0.7427 -0.8315  2.5637
 8917SOL     OW38386   1.717   1.887   4.918  0.4230 -0.2287  0.0607
 8917SOL    HW138387   1.809   1.859   4.925  0.3137 -0.9022 -1.1659
 8917SOL    HW238388   1.682   1.833   4.988  0.7292  0.4507  0.7356
 8918SOL     OW38389   4.432   1.149   0.128  0.1679 -0.1125  0.0436
 8918SOL    HW138390   4.510   1.158   0.182  1.1003  2.3793 -1.7245
 8918SOL    HW238391   4.433   1.233   0.082  1.8918  0.1888  0.6474
 8919SOL     OW38392   0.829   0.998   3.504  0.0376  0.1056 -0.7944
 8919SOL    HW138393   0.873   0.955   3.430  0.9349  2.5370 -1.6532
 8919SOL    HW238394   0.892   1.064   3.533  0.3362  0.6941 -2.8006
 8920SOL     OW38395   2.649   2.611  17.551 -0.1815  0.3525  0.1122
 8920SOL    HW138396   2.701   2.657  17.485  2.6105 -1.4410  1.0762
 8920SOL    HW238397   2.558   2.629  17.526 -0.1383 -2.2127 -1.8535
 8921SOL     OW38398   0.506   4.094  16.289  0.4481 -0.0759 -0.2240
 8921SOL    HW138399   0.559   4.046  16.226  0.9995 -0.1639  0.3046
 8921SOL    HW238400   0.445   4.024  16.313  0.9004  0.0170  1.2276
 8922SOL     OW38401   0.680   3.409  10.944  0.0699  0.0963 -0.1781
 8922SOL    HW138402   0.710   3.435  11.031  1.8784  3.2576 -1.7369
 8922SOL    HW238403   0.748   3.346  10.920 -0.0510 -0.0686 -0.0885
 8923SOL     OW38404   0.317   2.754   6.533  0.7677 -0.0980  0.0155
 8923SOL    HW138405   0.290   2.836   6.574 -0.0600 -0.2834 -0.1597
 8923SOL    HW238406   0.233   2.708   6.535  2.1277 -2.3151  4.6939
 8924SOL     OW38407   1.653   1.401   3.508  0.1612  0.5715 -0.0166
 8924SOL    HW138408   1.657   1.482   3.458  2.0481  0.4802  0.0111
 8924SOL    HW238409   1.739   1.395   3.549  0.2756  1.3629 -0.1480
 8925SOL     OW38410   3.273   3.065  13.535 -0.2453 -0.6186  0.5330
 8925SOL    HW138411   3.336   3.018  13.590  1.6658 -0.4355 -1.5178
 8925SOL    HW238412   3.325   3.061  13.454  1.1637  2.1514  1.3024
 8926SOL     OW38413   1.280   1.668   5.380  0.0554 -0.3626  0.1097
 8926SOL    HW138414   1.204   1.662   5.321 -1.2849 -1.5960  1.9655
 8926SOL    HW238415   1.297   1.576   5.397 -0.7646 -0.3969  0.7645
 8927SOL     OW38416   1.069   2.672  12.619  0.6620  0.1241  0.3332
 8927SOL    HW138417   1.110   2.724  12.688 -0.2630 -0.4508  1.3220
 8927SOL    HW238418   1.149   2.641  12.575  0.1252 -0.5506 -0.1591
 8928SOL     OW38419   1.173   2.190   4.121 -0.5390 -0.4105  0.4102
 8928SOL    HW138420   1.232   2.118   4.101 -0.2613 -0.4002  1.1859
 8928SOL    HW238421   1.097   2.162   4.070 -0.8200  0.9746  0.0591
 8929SOL     OW38422   1.013   3.535   3.174 -0.6575 -0.2575 -0.2813
 8929SOL    HW138423   1.062   3.561   3.096 -0.9803  1.5996  0.1428
 8929SOL    HW238424   1.002   3.442   3.151 -0.2352 -0.3118 -0.2669
 8930SOL     OW38425   3.779   1.439   8.541 -0.1425 -0.0313 -0.2484
 8930SOL    HW138426   3.842   1.376   8.507  0.2006 -0.0517  0.4209
 8930SOL    HW238427   3.755   1.484   8.460 -2.0842 -0.7190 -0.0415
 8931SOL     OW38428   2.075   0.754   8.783  0.0954 -0.6169 -0.1278
 8931SOL    HW138429   2.031   0.717   8.706  0.5131  1.6787 -1.4486
 8931SOL    HW238430   2.162   0.768   8.747 -0.5866  0.9415 -1.1259
 8932SOL     OW38431   1.473   3.935   4.381 -0.0972  0.0644  0.1917
 8932SOL    HW138432   1.479   3.979   4.297  0.1358  1.7636  1.0908
 8932SOL    HW238433   1.498   3.849   4.349  1.2112 -0.1360  1.7561
 8933SOL     OW38434   2.674   0.923   8.067  0.1087 -0.0127  0.1110
 8933SOL    HW138435   2.657   0.937   8.160  1.5391  1.3761  0.1696
 8933SOL    HW238436   2.595   0.872   8.048  1.4094 -2.0645  0.2481
 8934SOL     OW38437   2.567   1.376   7.642  0.1952  0.3764  0.5082
 8934SOL    HW138438   2.476   1.406   7.639 -0.4336 -1.5232  0.5099
 8934SOL    HW238439   2.564   1.303   7.703 -0.9102  0.7195  0.8685
 8935SOL     OW38440   2.539   2.601   5.614 -0.4962 -0.5175 -0.1359
 8935SOL    HW138441   2.497   2.528   5.660  0.7992  0.4961  2.6951
 8935SOL    HW238442   2.630   2.572   5.607  0.0154  0.8744  0.6766
 8936SOL     OW38443   2.222   4.078  11.585 -0.1598  0.0777  0.3402
 8936SOL    HW138444   2.154   4.021  11.620  0.6428 -2.1747 -1.7080
 8936SOL    HW238445   2.290   4.064  11.651 -0.3833  1.1663  0.7914
 8937SOL     OW38446   4.425   0.436   9.379 -0.4175 -0.4177  0.3019
 8937SOL    HW138447   4.465   0.364   9.428  0.2875 -0.4825 -0.3787
 8937SOL    HW238448   4.466   0.516   9.412 -2.3574  1.1369 -1.1102
 8938SOL     OW38449   2.595   1.363  15.446  0.0462  0.2290 -0.1906
 8938SOL    HW138450   2.567   1.454  15.447 -2.1446 -0.4598 -0.6076
 8938SOL    HW238451   2.661   1.368  15.377  0.3265  1.9219  0.2117
 8939SOL     OW38452   1.280   1.599   7.908 -0.3464  0.6404 -0.1403
 8939SOL    HW138453   1.214   1.539   7.873 -1.1245 -0.3487  3.0291
 8939SOL    HW238454   1.285   1.571   7.999 -2.6823  0.0799 -0.1915
 8940SOL     OW38455   0.924   0.575  11.246 -0.0616  0.3839 -0.6354
 8940SOL    HW138456   0.879   0.537  11.321 -2.2879 -1.2261 -2.7999
 8940SOL    HW238457   0.942   0.669  11.252  0.4912  0.1515  1.2085
 8941SOL     OW38458   0.627   1.750   8.285  0.0872 -0.2374 -0.3789
 8941SOL    HW138459   0.535   1.737   8.306  0.4277 -2.8565 -0.4583
 8941SOL    HW238460   0.632   1.845   8.274  1.3049  0.1173  3.2717
 8942SOL     OW38461   4.568   0.759   6.749  0.2263 -0.0596  0.2839
 8942SOL    HW138462   4.615   0.835   6.783  2.8280 -1.3184 -0.4861
 8942SOL    HW238463   4.545   0.718   6.832  0.8556 -1.7766 -0.3827
 8943SOL     OW38464   4.706   1.569   2.591 -0.0452  0.2261 -0.1514
 8943SOL    HW138465   4.636   1.509   2.567  1.3471 -1.0196 -1.1169
 8943SOL    HW238466   0.039   1.512   2.563  1.0278  1.0115  0.9687
 8944SOL     OW38467   0.847   4.215  16.777 -0.2471 -0.2406  0.5128
 8944SOL    HW138468   0.854   4.310  16.778 -0.1528 -0.2204 -3.3295
 8944SOL    HW238469   0.818   4.202  16.687  1.7833 -0.9807 -0.0363
 8945SOL     OW38470   4.432   3.470   7.629 -0.0248 -0.0355  1.1682
 8945SOL    HW138471   4.343   3.458   7.596  0.3204  1.6424 -0.3498
 8945SOL    HW238472   4.441   3.403   7.697 -0.6372 -1.4584 -0.1653
 8946SOL     OW38473   0.672   3.167   7.611  0.0500  0.1556  0.3830
 8946SOL    HW138474   0.681   3.073   7.598  1.0526  0.3068 -0.0906
 8946SOL    HW238475   0.733   3.180   7.683  1.3595 -1.6438 -0.4023
 8947SOL     OW38476   3.870   1.398   8.932 -0.2268  0.1721 -0.7295
 8947SOL    HW138477   3.785   1.439   8.910 -0.7124 -0.4332  0.0430
 8947SOL    HW238478   3.858   1.345   9.010  3.2516 -1.7860 -1.5516
 8948SOL     OW38479   4.167   4.080  14.235  0.2053 -0.1979  0.0512
 8948SOL    HW138480   4.180   4.166  14.195  2.6846  0.5712  2.5479
 8948SOL    HW238481   4.086   4.089  14.285 -0.2727 -0.6618 -0.6455
 8949SOL     OW38482   2.273   3.213   8.396  0.8552 -1.3371 -0.2028
 8949SOL    HW138483   2.203   3.160   8.434  0.0889 -0.3280 -0.2219
 8949SOL    HW238484   2.252   3.229   8.304  0.7021  1.8909  0.4061
 8950SOL     OW38485   0.037   2.183   2.885 -0.2217  0.0336  0.1469
 8950SOL    HW138486   4.730   2.098   2.882 -1.1210  0.4921  0.6582
 8950SOL    HW238487   0.051   2.196   2.979  0.7844  0.2590 -0.0298
 8951SOL     OW38488   2.126   3.394   7.281  0.8991 -0.9063 -0.5024
 8951SOL    HW138489   2.132   3.351   7.366 -2.7193  0.7456  0.6167
 8951SOL    HW238490   2.210   3.363   7.248  2.8336  0.5635  3.0071
 8952SOL     OW38491   0.379   4.463   7.160  0.2768 -0.6598 -0.2375
 8952SOL    HW138492   0.411   4.552   7.171 -0.0242 -0.6087  0.2445
 8952SOL    HW238493   0.456   4.407   7.153 -0.2739 -1.3036 -1.1962
 8953SOL     OW38494   1.893   1.381   3.002 -0.4878 -0.4603 -0.0035
 8953SOL    HW138495   1.975   1.338   2.979 -0.8115 -0.2883 -1.5266
 8953SOL    HW238496   1.833   1.308   2.987  2.4016 -2.5758 -1.2774
 8954SOL     OW38497   3.238   2.636   0.321 -0.6848  0.3873 -0.4232
 8954SOL    HW138498   3.149   2.620   0.291 -0.6583 -0.0191 -0.2806
 8954SOL    HW238499   3.232   2.582   0.400  0.1072  1.0666  0.1064
 8955SOL     OW38500   0.174   0.067   2.525 -0.2605 -0.4143 -0.7422
 8955SOL    HW138501   0.247   0.006   2.526  0.7695  0.7828 -2.3588
 8955SOL    HW238502   0.211   0.148   2.561 -1.9011  0.4265 -0.9013
 8956SOL     OW38503   4.101   3.238   2.772 -0.3591  0.4842 -0.1563
 8956SOL    HW138504   4.169   3.178   2.803 -0.7817 -1.3790 -2.8554
 8956SOL    HW238505   4.148   3.314   2.808  0.6024 -0.9894  1.6970
 8957SOL     OW38506   0.555   2.651  15.529  0.4379 -0.9414 -0.3182
 8957SOL    HW138507   0.616   2.707  15.481 -0.3132 -0.8721 -1.1757
 8957SOL    HW238508   0.467   2.684  15.511  1.6297  3.4835  1.9642
 8958SOL     OW38509   4.188   3.031  12.644  0.5154 -0.2551 -0.4463
 8958SOL    HW138510   4.270   3.022  12.596  1.4133 -0.0844  1.0754
 8958SOL    HW238511   4.168   2.946  12.683 -2.5510 -0.2180 -1.9556
 8959SOL     OW38512   1.141   4.400   1.764 -0.0254 -0.2632  0.2234
 8959SOL    HW138513   1.210   4.335   1.768  0.5944  0.4705  1.3476
 8959SOL    HW238514   1.063   4.348   1.783 -1.2398  1.0933 -0.9674
 8960SOL     OW38515   1.006   4.367  15.149  0.1456  0.1841 -0.3341
 8960SOL    HW138516   0.923   4.357  15.196 -0.6181  0.7738 -1.5731
 8960SOL    HW238517   1.037   4.452  15.180  2.7989 -0.8855 -0.1015
 8961SOL     OW38518   1.049   2.699  16.819  0.7791 -0.4274  0.1418
 8961SOL    HW138519   0.968   2.725  16.775  0.5487 -1.4045 -0.0122
 8961SOL    HW238520   1.121   2.754  16.788 -1.6246  2.4101 -0.4131
 8962SOL     OW38521   0.004   2.568   2.636  0.5407 -0.0101  0.7582
 8962SOL    HW138522   0.032   2.477   2.627  1.1828  0.1755  0.9299
 8962SOL    HW238523   0.087   2.611   2.619 -0.8999  1.2820 -2.9663
 8963SOL     OW38524   2.923   1.034   8.074 -0.0216  0.2717 -0.6702
 8963SOL    HW138525   2.933   1.027   8.168  1.2253  0.7188 -0.7693
 8963SOL    HW238526   2.834   1.002   8.062 -0.5051  1.4266 -0.1461
 8964SOL     OW38527   0.141   2.811   7.269 -0.2614  0.5944  0.2902
 8964SOL    HW138528   0.125   2.790   7.361  1.1573 -0.8201  0.2053
 8964SOL    HW238529   0.226   2.854   7.262 -0.1118 -0.4549 -4.2327
 8965SOL     OW38530   1.530   2.371  14.682  0.0003 -0.3032 -0.1153
 8965SOL    HW138531   1.570   2.331  14.604  1.0704  1.3871 -0.4224
 8965SOL    HW238532   1.571   2.457  14.687 -0.4759  0.0788 -2.5885
 8966SOL     OW38533   4.356   3.079  17.490 -0.4173  0.1117 -0.1560
 8966SOL    HW138534   4.355   3.040  17.402  0.4711  0.4563 -0.3181
 8966SOL    HW238535   4.449   3.100  17.497 -0.3588  0.0712 -0.7566
 8967SOL     OW38536   3.674   0.517  17.270  0.0204 -0.1626  0.2729
 8967SOL    HW138537   3.634   0.431  17.258  1.9908 -0.7092 -2.4259
 8967SOL    HW238538   3.762   0.491  17.243 -0.0559  1.5030 -1.5924
 8968SOL     OW38539   1.184   0.664   1.021 -0.3711 -0.2414  0.8536
 8968SOL    HW138540   1.151   0.673   0.932 -0.8160  1.2628  1.1748
 8968SOL    HW238541   1.272   0.627   1.011  0.5107  2.1336 -0.0795
 8969SOL     OW38542   0.723   2.543   5.198  0.6605  0.0704  0.6655
 8969SOL    HW138543   0.681   2.458   5.181 -3.4673  1.7874  2.3083
 8969SOL    HW238544   0.650   2.604   5.190  2.0877  1.6714 -0.0418
 8970SOL     OW38545   3.779   3.493   5.887 -0.2624 -0.3798 -0.3512
 8970SOL    HW138546   3.705   3.524   5.939 -0.2318  0.0314 -0.5562
 8970SOL    HW238547   3.789   3.571   5.833  0.3765  0.8713  1.5823
 8971SOL     OW38548   3.993   2.833   7.322 -0.2846 -0.3853  0.1191
 8971SOL    HW138549   4.054   2.897   7.359 -1.3969  0.6740  0.1051
 8971SOL    HW238550   3.990   2.849   7.227 -1.5679 -0.2074  0.1826
 8972SOL     OW38551   1.766   2.100   6.715  0.2563  0.5513 -0.2715
 8972SOL    HW138552   1.825   2.125   6.644  1.3322  1.7769  1.0520
 8972SOL    HW238553   1.814   2.066   6.790  1.2500 -1.3255 -1.7431
 8973SOL     OW38554   4.629   4.655   1.462 -0.1324 -0.1374  0.2430
 8973SOL    HW138555   4.690   4.629   1.532 -0.1953 -1.6993 -0.2761
 8973SOL    HW238556   4.657   4.590   1.398 -0.5604  0.3178 -0.4033
 8974SOL     OW38557   3.368   1.504  17.057 -0.6488 -0.4927  0.0468
 8974SOL    HW138558   3.339   1.511  17.148 -1.1775  2.3054 -0.3403
 8974SOL    HW238559   3.426   1.579  17.051  1.1005 -1.7001  1.8147
 8975SOL     OW38560   2.232   0.392   4.886 -0.4126  0.1156 -0.3453
 8975SOL    HW138561   2.303   0.410   4.824 -1.6334 -1.1720 -2.0985
 8975SOL    HW238562   2.244   0.299   4.901 -0.9668  0.4370  2.1727
 8976SOL     OW38563   4.503   1.268  12.476  0.3478 -0.0890 -0.2130
 8976SOL    HW138564   4.589   1.277  12.435 -0.1396  1.5019 -0.8767
 8976SOL    HW238565   4.467   1.347  12.435 -0.2024 -1.2010 -1.8815
 8977SOL     OW38566   3.779   0.396   1.194 -0.0859 -0.2217 -0.6006
 8977SOL    HW138567   3.760   0.390   1.288 -0.8210  0.4442 -0.6976
 8977SOL    HW238568   3.697   0.357   1.163  1.5114 -1.8309 -2.7263
 8978SOL     OW38569   0.014   3.082  15.518  0.4033 -0.4054 -0.6859
 8978SOL    HW138570   0.086   3.051  15.573  0.7010 -0.1725 -0.9439
 8978SOL    HW238571   0.019   3.025  15.442 -0.5272 -2.2222  0.6069
 8979SOL     OW38572   0.678   0.723   6.444  0.3784 -0.0354  0.1341
 8979SOL    HW138573   0.629   0.724   6.362 -0.1935 -2.3368  0.4570
 8979SOL    HW238574   0.739   0.650   6.430 -0.4824 -0.2413 -2.4873
 8980SOL     OW38575   3.767   4.148   8.720  0.2909  0.1214  0.2984
 8980SOL    HW138576   3.768   4.083   8.650 -1.3956 -0.4989  0.8418
 8980SOL    HW238577   3.685   4.192   8.702  0.5236  0.8908  1.1187
 8981SOL     OW38578   3.156   2.096   0.635  0.6027  0.1751  0.3188
 8981SOL    HW138579   3.106   2.048   0.569  2.3685 -2.4255  0.8578
 8981SOL    HW238580   3.224   2.133   0.577  0.8548  0.0919  0.5594
 8982SOL     OW38581   3.241   3.531  11.926  0.7222 -0.4380 -0.5765
 8982SOL    HW138582   3.217   3.554  11.837 -2.4484  0.5987  0.5445
 8982SOL    HW238583   3.257   3.620  11.956 -2.7730  0.3423 -1.0997
 8983SOL     OW38584   0.186   3.729   3.396 -0.5761  0.3024  0.1499
 8983SOL    HW138585   0.264   3.682   3.368 -0.2616  1.4788 -0.9587
 8983SOL    HW238586   0.150   3.772   3.319  0.5158  0.1691 -0.4324
 8984SOL     OW38587   3.336   3.328   2.473  0.1120  0.4468  0.3381
 8984SOL    HW138588   3.328   3.240   2.437  1.3697 -0.3372  1.9741
 8984SOL    HW238589   3.342   3.367   2.386  3.6256  0.2135  0.4575
 8985SOL     OW38590   0.490   2.274   4.682 -0.5763 -0.0197 -0.8765
 8985SOL    HW138591   0.538   2.270   4.599 -0.9677 -0.5033 -1.0798
 8985SOL    HW238592   0.407   2.308   4.647 -1.7886 -1.3553  0.6865
 8986SOL     OW38593   1.641   0.692  11.915  0.6700 -0.1404  0.0933
 8986SOL    HW138594   1.575   0.735  11.860  0.6163 -0.8593 -0.3932
 8986SOL    HW238595   1.672   0.623  11.856 -1.4701 -1.0733  0.0968
 8987SOL     OW38596   1.659   2.789   6.226 -0.1424  0.0868  0.3297
 8987SOL    HW138597   1.708   2.752   6.299  1.2575 -1.7621 -1.5485
 8987SOL    HW238598   1.597   2.842   6.276  0.8766  0.8585  0.7673
 8988SOL     OW38599   1.875   4.727   5.257  0.2271 -0.2982 -0.0948
 8988SOL    HW138600   1.849   0.060   5.317 -0.0058  0.1388 -0.7155
 8988SOL    HW238601   1.901   4.665   5.325  1.6200 -1.1905 -1.4635
 8989SOL     OW38602   0.157   0.858  12.217 -0.1965  0.0038  0.0762
 8989SOL    HW138603   0.147   0.809  12.299 -3.5591  2.1182  0.9151
 8989SOL    HW238604   0.218   0.926  12.247 -0.7628 -0.2152  1.7351
 8990SOL     OW38605   2.504   2.887   5.642  0.2399  1.0741 -0.8280
 8990SOL    HW138606   2.416   2.893   5.607  0.1472  0.9760 -0.6140
 8990SOL    HW238607   2.522   2.793   5.640  3.3382  1.6218  1.2052
 8991SOL     OW38608   2.363   1.978   1.531  0.7120  0.7168 -0.3371
 8991SOL    HW138609   2.457   1.965   1.548  0.5087  0.4104  0.5428
 8991SOL    HW238610   2.326   1.919   1.596  0.3797 -1.0868 -2.1714
 8992SOL     OW38611   0.857   2.217  10.731 -0.3503  0.4206 -0.0039
 8992SOL    HW138612   0.822   2.296  10.771  3.6106  1.3828  1.5219
 8992SOL    HW238613   0.791   2.158  10.767  1.3259 -0.4506  1.6644
 8993SOL     OW38614   2.377   3.167   4.479  0.1083  0.1647  0.2674
 8993SOL    HW138615   2.360   3.253   4.520  0.0389  1.3098 -2.1578
 8993SOL    HW238616   2.407   3.122   4.557  0.4764  0.6479  0.4071
 8994SOL     OW38617   2.298   3.281   3.017  1.1589 -0.5624 -0.6069
 8994SOL    HW138618   2.350   3.202   2.998  1.2639 -0.6945  0.2344
 8994SOL    HW238619   2.216   3.261   2.972 -0.7302 -1.0728  3.0555
 8995SOL     OW38620   2.681   4.645   2.445  0.5739 -0.0813  0.1046
 8995SOL    HW138621   2.687   4.588   2.522  1.3059 -0.8475 -0.5253
 8995SOL    HW238622   2.768   4.622   2.412  0.8826  0.4810  0.5327
 8996SOL     OW38623   1.460   4.716  16.917  0.2092 -0.2798  0.0470
 8996SOL    HW138624   1.540   0.014  16.955  0.2628 -0.8201  0.4342
 8996SOL    HW238625   1.449   0.045  16.849  0.6643 -1.2471 -0.9883
 8997SOL     OW38626   2.527   2.041  11.053  0.3453 -0.0105  0.0820
 8997SOL    HW138627   2.528   1.946  11.042 -1.2220 -0.1629  1.1424
 8997SOL    HW238628   2.543   2.063  10.961 -0.1393  2.3839  0.5649
 8998SOL     OW38629   1.541   1.467  14.500  0.1106  0.0171 -0.2668
 8998SOL    HW138630   1.496   1.468  14.416 -0.0098  0.7591 -0.1855
 8998SOL    HW238631   1.503   1.390  14.544 -2.0210  1.4483  0.3693
 8999SOL     OW38632   2.235   0.781   4.933 -0.3974 -0.1393 -0.1017
 8999SOL    HW138633   2.281   0.753   5.012  0.4986 -0.1362 -0.6160
 8999SOL    HW238634   2.147   0.781   4.969  0.0528  0.5570  0.9919
 9000SOL     OW38635   2.409   2.586   6.729  0.2519  0.2874 -0.0683
 9000SOL    HW138636   2.337   2.633   6.770 -0.4580 -0.3903 -0.5279
 9000SOL    HW238637   2.374   2.590   6.640  0.5411  1.0128 -0.1468
 9001SOL     OW38638   2.725   3.977   5.084  0.6856  0.8281  0.6028
 9001SOL    HW138639   2.802   4.025   5.114 -0.1663  0.3849  3.4718
 9001SOL    HW238640   2.661   4.043   5.109  1.6137  3.1040 -3.0818
 9002SOL     OW38641   1.525   1.759   0.160  0.1140 -0.1615  0.4377
 9002SOL    HW138642   1.585   1.790   0.093 -0.6704  1.5846  0.5489
 9002SOL    HW238643   1.447   1.751   0.104 -0.0236 -0.2146  0.6376
 9003SOL     OW38644   3.926   1.861   2.244 -0.2067 -0.4521  0.1126
 9003SOL    HW138645   3.891   1.772   2.243 -0.4614 -0.3479 -0.0910
 9003SOL    HW238646   3.871   1.895   2.315  0.1251  0.0604  0.1308
 9004SOL     OW38647   2.920   4.246  10.543  0.2093  0.4177  0.6922
 9004SOL    HW138648   2.848   4.197  10.503  0.5595 -1.4519  2.3372
 9004SOL    HW238649   2.975   4.171  10.564 -0.7678 -0.5100 -0.0798
 9005SOL     OW38650   2.950   1.658   7.367 -0.1969  0.7683  0.3819
 9005SOL    HW138651   2.897   1.658   7.287 -0.3220 -1.3547  0.4716
 9005SOL    HW238652   2.880   1.626   7.424  0.3549 -0.8822  0.1269
 9006SOL     OW38653   0.848   3.270   3.927  0.1018  0.6371 -0.0640
 9006SOL    HW138654   0.881   3.247   3.840 -2.0220 -1.2838 -0.3501
 9006SOL    HW238655   0.921   3.285   3.987 -0.3968 -0.5136  0.8260
 9007SOL     OW38656   4.335   4.321   9.925 -0.7384  0.0335 -0.1860
 9007SOL    HW138657   4.381   4.320   9.842 -0.8999  0.4608 -0.2844
 9007SOL    HW238658   4.340   4.409   9.964  0.5699 -1.4081  2.8552
 9008SOL     OW38659   4.124   0.311   7.780  0.3263 -0.3437  0.3831
 9008SOL    HW138660   4.102   0.220   7.799 -0.7977  0.0056  0.7546
 9008SOL    HW238661   4.168   0.336   7.861  1.6662 -1.5502  0.0097
 9009SOL     OW38662   3.529   4.070   2.108  0.8328 -0.1330 -0.3702
 9009SOL    HW138663   3.575   4.151   2.127  1.0442 -0.1446 -0.8433
 9009SOL    HW238664   3.463   4.098   2.045 -0.8359 -0.3430  1.3036
 9010SOL     OW38665   0.076   3.605   5.041 -0.6414  1.2941  0.6182
 9010SOL    HW138666   0.091   3.532   4.981 -1.8773  0.0495  1.8347
 9010SOL    HW238667   0.045   3.665   4.973 -1.7785  0.6351  0.5562
 9011SOL     OW38668   0.708   2.085   2.630  0.2338 -0.5492  0.0957
 9011SOL    HW138669   0.657   2.120   2.558  0.4836  0.4615  0.4114
 9011SOL    HW238670   0.658   2.005   2.647 -0.9151 -0.4693 -3.0162
 9012SOL     OW38671   0.902   3.796   3.803 -0.3446  0.4681 -0.8825
 9012SOL    HW138672   0.895   3.804   3.898 -0.7293  0.4724 -0.9137
 9012SOL    HW238673   0.821   3.839   3.779 -1.0068 -0.7744 -0.8740
 9013SOL     OW38674   2.872   2.987  12.263  0.2442  0.2378 -0.1762
 9013SOL    HW138675   2.903   3.054  12.201  0.6811 -1.6981 -2.0281
 9013SOL    HW238676   2.783   2.970  12.233  0.7819 -1.9456 -0.5165
 9014SOL     OW38677   2.396   4.393  12.227 -0.4183 -0.3458 -0.0381
 9014SOL    HW138678   2.388   4.403  12.322 -0.9155  1.5430 -0.2869
 9014SOL    HW238679   2.469   4.331  12.219  0.7200  1.1807 -1.4211
 9015SOL     OW38680   0.109   2.682   7.960  0.1839 -0.5025 -0.3675
 9015SOL    HW138681   0.136   2.771   7.982 -1.0459  0.2097 -1.8280
 9015SOL    HW238682   0.017   2.695   7.939  1.1446  1.7450 -3.0939
 9016SOL     OW38683   3.824   2.456  16.610 -0.2101  0.4228  0.4407
 9016SOL    HW138684   3.851   2.488  16.524  0.4473  2.1488  1.2849
 9016SOL    HW238685   3.898   2.493  16.659 -0.6904  1.5522  0.2930
 9017SOL     OW38686   1.239   1.256  13.175  0.0131 -0.2746 -0.3643
 9017SOL    HW138687   1.198   1.170  13.167 -1.8044  0.4983  0.6099
 9017SOL    HW238688   1.284   1.249  13.091  2.2632 -0.1689  0.8343
 9018SOL     OW38689   4.145   4.498   7.284 -0.3662  0.1080 -0.4712
 9018SOL    HW138690   4.191   4.485   7.201 -2.5172 -2.4479 -1.2647
 9018SOL    HW238691   4.217   4.536   7.335  1.1574 -2.0787 -1.0126
 9019SOL     OW38692   3.626   2.581   0.786  0.2026 -0.1445  0.5028
 9019SOL    HW138693   3.704   2.627   0.818  0.9038  0.1912 -1.7370
 9019SOL    HW238694   3.619   2.612   0.696 -1.8204  0.3206  0.8183
 9020SOL     OW38695   3.825   0.517   5.790 -0.2828 -0.0145 -0.1291
 9020SOL    HW138696   3.801   0.490   5.879 -0.2297 -1.7754 -0.6428
 9020SOL    HW238697   3.885   0.589   5.808  0.7195 -0.8301 -0.2434
 9021SOL     OW38698   0.226   1.000   3.963  0.0652 -0.0970 -0.1314
 9021SOL    HW138699   0.177   0.996   4.045  2.2326 -0.3178  1.1679
 9021SOL    HW238700   0.173   1.053   3.903  1.3945  0.6083 -0.6879
 9022SOL     OW38701   0.080   2.454   5.692 -0.2734 -0.5060  0.3584
 9022SOL    HW138702   0.044   2.366   5.702 -4.4334  1.2015  0.5324
 9022SOL    HW238703   0.029   2.483   5.617 -0.8185 -0.9558  0.5556
 9023SOL     OW38704   2.526   2.956  17.146  0.8744  0.5988  0.0653
 9023SOL    HW138705   2.515   3.001  17.062  0.9784 -0.8604 -0.7139
 9023SOL    HW238706   2.505   3.030  17.205 -0.2124  0.4016 -0.0781
 9024SOL     OW38707   2.980   4.162  15.336  0.0485 -0.7898  0.1779
 9024SOL    HW138708   2.988   4.114  15.254 -0.9599 -1.8280  0.6907
 9024SOL    HW238709   2.896   4.126  15.364 -0.4057  0.2003  0.0702
 9025SOL     OW38710   2.438   3.188   1.491 -0.5378  0.0673 -0.3168
 9025SOL    HW138711   2.412   3.277   1.466 -1.5993 -0.2551 -0.3638
 9025SOL    HW238712   2.367   3.140   1.449 -0.0484  0.2199 -1.3337
 9026SOL     OW38713   1.714   2.322   7.861 -0.2607  0.2499 -0.2513
 9026SOL    HW138714   1.742   2.374   7.936 -1.0366 -0.5192  0.5802
 9026SOL    HW238715   1.621   2.344   7.865  0.2066  2.1435 -0.0341
 9027SOL     OW38716   1.605   3.554   8.084 -0.0813 -0.7086  0.1847
 9027SOL    HW138717   1.598   3.517   7.996  2.7740  1.2278 -0.8530
 9027SOL    HW238718   1.641   3.639   8.060  0.6994 -0.9299  0.5447
 9028SOL     OW38719   3.490   1.125   6.284 -0.2639 -0.3957 -0.2866
 9028SOL    HW138720   3.498   1.218   6.304 -0.7763 -0.0098 -1.8926
 9028SOL    HW238721   3.480   1.127   6.189  0.4856  0.9435 -0.3266
 9029SOL     OW38722   4.712   3.934   5.991 -0.0269  0.0568 -0.3438
 9029SOL    HW138723   0.058   3.890   5.976 -0.6696 -1.2702 -0.0408
 9029SOL    HW238724   4.664   3.907   5.913  1.5151 -2.1298 -0.5492
 9030SOL     OW38725   0.462   0.206  15.743 -0.1815 -0.2010  1.1171
 9030SOL    HW138726   0.422   0.288  15.771 -0.4085  0.1761 -0.2965
 9030SOL    HW238727   0.438   0.192  15.651 -1.6744 -1.0580  1.6402
 9031SOL     OW38728   0.953   2.423   6.400  0.7837 -0.1438 -0.3772
 9031SOL    HW138729   1.038   2.459   6.427 -0.9938  1.9384  2.5532
 9031SOL    HW238730   0.898   2.478   6.457 -1.0887 -1.1585 -1.2045
 9032SOL     OW38731   3.596   2.719   1.704 -0.3171 -0.1729 -0.0036
 9032SOL    HW138732   3.512   2.675   1.709  0.3553 -1.6396 -1.6533
 9032SOL    HW238733   3.655   2.644   1.717 -1.1946 -1.1011 -1.3646
 9033SOL     OW38734   3.577   2.239   6.126  0.4530  0.7583  0.2822
 9033SOL    HW138735   3.618   2.321   6.101 -2.5566  2.2533  0.3394
 9033SOL    HW238736   3.638   2.176   6.086  0.3410  2.2887 -2.2823
 9034SOL     OW38737   1.994   2.880   3.526 -0.5373  0.2547  0.0612
 9034SOL    HW138738   2.080   2.840   3.511 -0.4808  0.3199  0.2151
 9034SOL    HW238739   2.006   2.969   3.494  1.2468 -0.7109 -1.9842
 9035SOL     OW38740   3.836   0.167   5.369  0.0206  0.1787  0.8184
 9035SOL    HW138741   3.822   0.225   5.294 -1.7399 -0.0664  0.9785
 9035SOL    HW238742   3.753   0.151   5.413 -1.7907  1.0558 -2.2855
 9036SOL     OW38743   3.739   1.608  11.064  0.1235  0.1614 -0.3714
 9036SOL    HW138744   3.796   1.672  11.022  0.8876 -0.0439  0.3267
 9036SOL    HW238745   3.816   1.564  11.102 -0.1470  1.3231  1.5290
 9037SOL     OW38746   3.850   0.682  14.566 -0.2413 -0.0710  0.2721
 9037SOL    HW138747   3.817   0.765  14.531 -0.0803 -0.2215 -0.2277
 9037SOL    HW238748   3.935   0.678  14.522 -1.0054  0.9449 -1.3115
 9038SOL     OW38749   4.145   0.117   3.865 -0.0332  0.0797 -0.4054
 9038SOL    HW138750   4.221   0.060   3.857  0.4949  0.7321 -0.0105
 9038SOL    HW238751   4.107   0.112   3.778  0.0025 -1.1848 -0.3494
 9039SOL     OW38752   1.920   1.728   1.559 -0.2073 -0.0775  0.1625
 9039SOL    HW138753   1.843   1.772   1.523  0.4968 -0.1051 -1.3680
 9039SOL    HW238754   1.983   1.755   1.493 -1.8375 -0.5515 -1.5987
 9040SOL     OW38755   1.292   3.382   8.046  0.7399  0.2089  0.1031
 9040SOL    HW138756   1.368   3.327   8.067  1.4785  0.7810 -1.0497
 9040SOL    HW238757   1.220   3.325   8.020  1.9910 -0.8358 -1.0807
 9041SOL     OW38758   4.585   2.101   3.374  0.2885 -0.2315 -0.2703
 9041SOL    HW138759   4.620   2.119   3.287 -2.0373  1.6620 -0.8307
 9041SOL    HW238760   4.553   2.187   3.403  2.9229  0.5381  0.2829
 9042SOL     OW38761   2.578   1.152   7.799  0.2575  0.1216  0.4676
 9042SOL    HW138762   2.672   1.167   7.799  0.5542 -1.8004 -4.0359
 9042SOL    HW238763   2.574   1.176   7.892  1.3939 -0.8069  0.7555
 9043SOL     OW38764   3.951   3.127  17.069  0.5996  0.0240  0.0094
 9043SOL    HW138765   4.014   3.100  17.003  2.5022  1.0109  1.4372
 9043SOL    HW238766   3.992   3.081  17.142 -0.8850 -0.7435  0.3754
 9044SOL     OW38767   2.493   4.467   6.843 -0.6639  0.2832  0.5397
 9044SOL    HW138768   2.538   4.393   6.884 -0.0221  0.3321 -0.0779
 9044SOL    HW238769   2.490   4.523   6.921  1.6077 -0.0353  0.8750
 9045SOL     OW38770   1.128   3.621  10.600  0.1363 -0.1008 -0.0387
 9045SOL    HW138771   1.221   3.613  10.577  0.5571  1.8151  1.0757
 9045SOL    HW238772   1.095   3.646  10.513 -0.1549 -0.0373  0.0909
 9046SOL     OW38773   3.146   0.100   7.991  0.2248 -0.3176 -0.4994
 9046SOL    HW138774   3.151   0.149   7.909 -1.0477 -1.7975 -1.4716
 9046SOL    HW238775   3.238   0.076   8.005  0.5792  0.6434 -1.1672
 9047SOL     OW38776   1.395   0.103   3.454 -0.0945 -0.2523  0.4989
 9047SOL    HW138777   1.328   0.040   3.428 -1.2195  0.6752  1.1177
 9047SOL    HW238778   1.407   0.076   3.544  0.4727 -1.0247  0.1841
 9048SOL     OW38779   0.978   1.866   6.433  0.1182 -0.3572  0.2308
 9048SOL    HW138780   1.029   1.785   6.430  1.9078  0.7439  0.7805
 9048SOL    HW238781   1.047   1.931   6.448  0.8372 -1.3411  1.1945
 9049SOL     OW38782   4.459   0.695   2.702 -0.3470  0.0618 -0.5048
 9049SOL    HW138783   4.462   0.641   2.780 -1.4585 -1.1053 -1.2741
 9049SOL    HW238784   4.466   0.628   2.634  0.3912  0.1367 -0.5085
 9050SOL     OW38785   3.908   2.655   6.612  0.2553  0.0634  0.4768
 9050SOL    HW138786   3.964   2.686   6.541 -1.5640  0.3086 -0.8493
 9050SOL    HW238787   3.942   2.568   6.629  1.3270  0.8823  2.4389
 9051SOL     OW38788   0.778   3.951   5.022  0.2686 -0.4795  0.2534
 9051SOL    HW138789   0.686   3.976   5.021  0.2411 -0.5220  2.0957
 9051SOL    HW238790   0.821   4.037   5.022 -1.8978  0.6022  0.1463
 9052SOL     OW38791   1.272   2.149   8.613 -0.2621  0.5589  0.0085
 9052SOL    HW138792   1.291   2.123   8.523 -1.4562 -1.0376  0.2183
 9052SOL    HW238793   1.209   2.219   8.603  1.2770  1.9920  0.3254
 9053SOL     OW38794   3.828   4.583  13.789  0.1661 -0.1421  0.1629
 9053SOL    HW138795   3.797   4.497  13.819  1.4976 -0.3454  0.9259
 9053SOL    HW238796   3.910   4.562  13.744  0.8858  0.2614  1.2922
 9054SOL     OW38797   2.642   3.845   3.334  0.1938  0.1048 -0.2484
 9054SOL    HW138798   2.627   3.801   3.251  2.3218 -1.7476  0.3552
 9054SOL    HW238799   2.646   3.768   3.391 -1.1162 -0.2693 -0.6804
 9055SOL     OW38800   3.010   0.469   9.628 -0.1667 -0.2229 -0.2549
 9055SOL    HW138801   3.062   0.395   9.658  2.1393  0.8181 -1.6987
 9055SOL    HW238802   2.925   0.426   9.615 -1.7277  2.0676  2.2213
 9056SOL     OW38803   1.976   3.262   1.342  0.2796  0.1691 -0.2719
 9056SOL    HW138804   1.991   3.335   1.282  1.0515 -0.6401 -1.0591
 9056SOL    HW238805   2.066   3.231   1.350 -0.3595 -2.0312 -1.7731
 9057SOL     OW38806   0.073   4.236   6.539  0.2038 -0.3045  0.0413
 9057SOL    HW138807   0.024   4.301   6.589 -0.8895  0.3511 -1.8549
 9057SOL    HW238808   0.005   4.191   6.489 -0.6145  1.0025 -0.0397
 9058SOL     OW38809   4.703   4.529  14.759 -0.4966 -0.6772  0.4970
 9058SOL    HW138810   4.685   4.554  14.849 -0.1715  0.9365  0.1185
 9058SOL    HW238811   4.623   4.545  14.710 -0.0661 -1.6109 -0.5074
 9059SOL     OW38812   0.450   0.469   2.162 -0.2586  0.9067  0.2694
 9059SOL    HW138813   0.522   0.516   2.205  0.5942  1.1366 -1.3998
 9059SOL    HW238814   0.423   0.405   2.227 -0.2973  0.1103 -0.5282
 9060SOL     OW38815   0.613   3.051   7.248 -0.9675  0.0806 -0.5722
 9060SOL    HW138816   0.692   3.046   7.194 -1.3745  2.5908 -1.4123
 9060SOL    HW238817   0.592   3.145   7.252  2.1292  0.7480 -0.1125
 9061SOL     OW38818   3.357   3.513   7.741  0.5116 -0.7436  0.0753
 9061SOL    HW138819   3.296   3.457   7.788 -1.2905  1.1778  0.0593
 9061SOL    HW238820   3.420   3.542   7.808 -0.0653 -1.0452  0.7548
 9062SOL     OW38821   4.627   4.066   8.666  0.4362  0.3972 -0.0565
 9062SOL    HW138822   4.638   4.032   8.577  1.2652 -0.9585  0.5749
 9062SOL    HW238823   4.562   4.132   8.641 -1.8710 -1.6114  0.7005
 9063SOL     OW38824   1.838   4.457  13.991  0.1279 -0.0605  0.0114
 9063SOL    HW138825   1.756   4.499  14.015  0.8033  0.1201  2.0402
 9063SOL    HW238826   1.815   4.377  13.945  1.0849 -0.6606  0.5487
 9064SOL     OW38827   2.916   1.047  10.614  0.3127 -0.0055  0.6430
 9064SOL    HW138828   2.944   0.957  10.599 -2.2101 -0.7074  0.3096
 9064SOL    HW238829   2.823   1.039  10.630  0.5226 -2.2544  0.6454
 9065SOL     OW38830   4.146   0.436   3.006 -0.7747 -0.1687  0.0598
 9065SOL    HW138831   4.105   0.353   3.033 -0.9689  0.1203  0.6619
 9065SOL    HW238832   4.236   0.410   3.024 -0.1561  1.0311 -1.3085
 9066SOL     OW38833   3.970   0.850   2.755  0.2349 -0.2472  0.4976
 9066SOL    HW138834   4.065   0.856   2.742  0.0897  1.5627  0.3120
 9066SOL    HW238835   3.961   0.763   2.795  1.1536  0.1560  1.6155
 9067SOL     OW38836   3.842   1.471   3.430 -0.2671  0.5802  0.3925
 9067SOL    HW138837   3.893   1.418   3.491 -1.2730 -0.2073  0.5406
 9067SOL    HW238838   3.806   1.409   3.366 -0.9767  2.3654 -0.9197
 9068SOL     OW38839   2.914   3.759   3.579 -0.0175 -0.4976  0.7299
 9068SOL    HW138840   2.889   3.667   3.596 -2.5010 -0.0283 -0.3390
 9068SOL    HW238841   2.827   3.789   3.551  1.0452  1.6700 -0.1950
 9069SOL     OW38842   0.607   2.296   4.436 -0.2591  0.4424 -0.8840
 9069SOL    HW138843   0.678   2.246   4.396  1.1545 -0.7845  3.2039
 9069SOL    HW238844   0.644   2.382   4.415 -0.2862  0.0035 -2.7460
 9070SOL     OW38845   0.552   4.244   5.775  0.4939 -0.1891 -0.2687
 9070SOL    HW138846   0.594   4.178   5.720  1.1135  0.1733 -0.2326
 9070SOL    HW238847   0.462   4.211   5.768  0.7380 -0.9511  0.2980
 9071SOL     OW38848   4.144   0.272  12.762  0.4224 -0.0893  0.6403
 9071SOL    HW138849   4.180   0.185  12.745  3.0163  0.9094  1.0057
 9071SOL    HW238850   4.181   0.288  12.849 -0.9396 -2.4500  1.6380
 9072SOL     OW38851   1.885   1.083   4.617 -0.0177 -0.6958  0.3864
 9072SOL    HW138852   1.855   1.173   4.603  1.2005 -0.1511  1.2896
 9072SOL    HW238853   1.854   1.068   4.706 -0.1590 -1.1644  0.2627
 9073SOL     OW38854   2.582   1.250   6.984  0.0799  0.2881  0.2241
 9073SOL    HW138855   2.495   1.212   6.972  0.1235 -0.1335  1.2268
 9073SOL    HW238856   2.566   1.328   6.931 -2.2777 -1.6487 -1.8907
 9074SOL     OW38857   2.722   4.168   1.720  0.1782 -0.1986 -0.3435
 9074SOL    HW138858   2.651   4.221   1.755  1.5687  1.2643  0.2562
 9074SOL    HW238859   2.742   4.208   1.635  0.3217  0.0040 -0.2138
 9075SOL     OW38860   3.782   2.423   9.297  0.3491 -0.3056 -0.1557
 9075SOL    HW138861   3.726   2.390   9.225  1.4555 -1.7026 -0.3822
 9075SOL    HW238862   3.795   2.343   9.348 -1.6111  0.8341  2.1119
 9076SOL     OW38863   1.228   2.264  14.439  0.0016  0.1800  0.4300
 9076SOL    HW138864   1.159   2.294  14.498 -0.8819  0.2390 -0.6393
 9076SOL    HW238865   1.251   2.353  14.411  0.8413 -1.4056 -3.9004
 9077SOL     OW38866   1.569   1.065   9.174  0.3240  0.2688 -0.0728
 9077SOL    HW138867   1.519   1.040   9.252 -1.4904 -1.7017 -1.8915
 9077SOL    HW238868   1.580   1.159   9.188  1.9414 -0.0316  0.6809
 9078SOL     OW38869   1.132   4.446   5.035 -0.5905 -0.2637 -0.4539
 9078SOL    HW138870   1.123   4.524   4.981  1.0068  0.6103  0.5382
 9078SOL    HW238871   1.203   4.398   4.992 -2.1689 -0.4703 -2.7627
 9079SOL     OW38872   4.370   2.160   6.389 -0.3052 -0.6939  0.0696
 9079SOL    HW138873   4.278   2.135   6.376 -0.1892 -0.3990 -1.3660
 9079SOL    HW238874   4.382   2.119   6.475  0.8572  1.2140  0.7918
 9080SOL     OW38875   2.384   3.372   7.194  0.0303 -0.6733  0.3313
 9080SOL    HW138876   2.455   3.311   7.214 -0.0661 -1.0452 -0.4705
 9080SOL    HW238877   2.407   3.421   7.116  1.0729  0.6779  1.4889
 9081SOL     OW38878   2.115   3.853   4.617 -0.6179 -0.0337 -0.3421
 9081SOL    HW138879   2.172   3.914   4.571  0.4484 -0.0072  1.0295
 9081SOL    HW238880   2.085   3.897   4.697 -0.0037  0.8797 -0.6193
 9082SOL     OW38881   1.339   0.129  12.509 -0.5548  0.5102  0.5205
 9082SOL    HW138882   1.371   0.195  12.570 -1.0053  2.4836 -1.3644
 9082SOL    HW238883   1.293   0.189  12.450 -2.9854 -1.2224  0.6649
 9083SOL     OW38884   0.074   4.043  17.494 -0.5750  0.4793 -0.0570
 9083SOL    HW138885   0.145   4.023  17.556 -2.0117 -1.4964  0.9536
 9083SOL    HW238886   4.733   4.011  17.536 -0.7422  0.3796 -0.4512
 9084SOL     OW38887   1.884   3.261   5.735 -0.0626  0.0078  0.1695
 9084SOL    HW138888   1.895   3.249   5.640  2.7745 -0.0248  0.4918
 9084SOL    HW238889   1.918   3.177   5.766  0.7869  1.0292  1.9715
 9085SOL     OW38890   2.795   1.471  11.536 -0.2227  0.4943 -0.0427
 9085SOL    HW138891   2.766   1.509  11.619  1.2637 -0.8686  1.1050
 9085SOL    HW238892   2.881   1.436  11.560  1.5846  3.9556 -1.5328
 9086SOL     OW38893   3.005   2.759   4.564  0.1604  0.8560  0.6806
 9086SOL    HW138894   2.918   2.795   4.580  0.0972  1.2836 -0.6392
 9086SOL    HW238895   3.027   2.698   4.634 -3.0880 -0.4666  0.5607
 9087SOL     OW38896   2.969   2.744  12.230 -0.3815 -0.1173 -0.0221
 9087SOL    HW138897   2.921   2.720  12.309 -1.4270  1.0402 -0.3075
 9087SOL    HW238898   2.955   2.839  12.226  0.3363 -0.0161 -0.0814
 9088SOL     OW38899   3.184   3.773   7.131 -0.0106  0.1864  0.7808
 9088SOL    HW138900   3.201   3.847   7.072  2.2376  0.2481  1.5193
 9088SOL    HW238901   3.247   3.802   7.197 -0.3159  0.2669  1.0343
 9089SOL     OW38902   0.926   0.428   1.675 -0.3961 -0.2799 -0.1163
 9089SOL    HW138903   0.959   0.374   1.746 -2.2236  0.6104  1.4167
 9089SOL    HW238904   0.859   0.476   1.724 -0.2752 -1.6980  1.3947
 9090SOL     OW38905   4.486   3.539   9.705  0.1326  0.0889  0.5582
 9090SOL    HW138906   4.458   3.539   9.797 -1.1442  0.1409  0.1724
 9090SOL    HW238907   4.521   3.628   9.697  2.1301 -0.6133  1.6013
 9091SOL     OW38908   4.331   3.619  10.474  0.0664  0.9819  0.0138
 9091SOL    HW138909   4.297   3.530  10.462  1.0606  0.4981  0.8139
 9091SOL    HW238910   4.354   3.612  10.566 -0.7949 -1.1397  0.0640
 9092SOL     OW38911   2.511   2.802   0.830 -0.1147 -0.0611 -0.2694
 9092SOL    HW138912   2.568   2.753   0.770  0.7293 -0.1124  0.5631
 9092SOL    HW238913   2.485   2.742   0.900  0.2495  1.7677  1.4213
 9093SOL     OW38914   2.666   3.203   3.064 -0.1903 -0.0322 -1.0155
 9093SOL    HW138915   2.613   3.194   2.985 -0.2816  1.4456 -1.1163
 9093SOL    HW238916   2.692   3.112   3.077 -0.7785 -0.4637 -2.8275
 9094SOL     OW38917   2.908   2.554  15.472 -0.1614 -0.0753  0.3028
 9094SOL    HW138918   2.882   2.493  15.404  0.5808  0.7688 -0.7384
 9094SOL    HW238919   2.910   2.639  15.428  0.2638 -1.3521 -2.1067
 9095SOL     OW38920   0.168   2.359   7.024  0.3874 -0.2872  0.4709
 9095SOL    HW138921   0.156   2.277   6.975  1.0220  0.2036 -0.5094
 9095SOL    HW238922   0.124   2.423   6.968  0.2172 -0.3747  0.5034
 9096SOL     OW38923   0.594   4.003  14.519  0.3236  0.7119  0.2221
 9096SOL    HW138924   0.599   3.916  14.480 -0.1330 -0.0197  1.8111
 9096SOL    HW238925   0.514   4.023  14.471 -0.9778  0.2690  2.2200
 9097SOL     OW38926   2.948   1.357  12.612  0.9869 -0.2410  0.4260
 9097SOL    HW138927   3.043   1.356  12.626  1.1778  0.2686 -0.8059
 9097SOL    HW238928   2.924   1.410  12.688 -2.1848  0.0105 -0.7627
 9098SOL     OW38929   2.417   4.300   6.581 -0.6505  1.3160  0.0055
 9098SOL    HW138930   2.367   4.279   6.659  0.1786  1.1573  0.4860
 9098SOL    HW238931   2.363   4.274   6.506  0.3808  2.7598 -1.2487
 9099SOL     OW38932   4.258   1.762   6.513  0.3358  0.2322 -0.2684
 9099SOL    HW138933   4.268   1.697   6.582 -1.0618  1.4784  1.1080
 9099SOL    HW238934   4.257   1.841   6.568  0.9751 -0.5214  0.8328
 9100SOL     OW38935   2.441   0.669  10.348  0.5785 -0.4173 -0.2402
 9100SOL    HW138936   2.460   0.649  10.256  0.4928 -3.2252  0.3779
 9100SOL    HW238937   2.481   0.756  10.348  0.3094 -0.2927 -0.6899
 9101SOL     OW38938   1.388   4.253  10.689 -0.3791  0.4573  0.3531
 9101SOL    HW138939   1.417   4.344  10.684  2.1361 -0.3235  1.0302
 9101SOL    HW238940   1.301   4.278  10.722  0.8677  2.3837  2.1680
 9102SOL     OW38941   1.669   2.421   1.677 -0.0640  0.3072 -0.0910
 9102SOL    HW138942   1.705   2.341   1.638  1.1551  0.7289  0.1763
 9102SOL    HW238943   1.576   2.410   1.656 -0.4944  0.3454  1.7974
 9103SOL     OW38944   3.175   0.382   5.769 -0.0576 -0.1486 -0.3401
 9103SOL    HW138945   3.241   0.314   5.780  1.3052  1.3648  1.0250
 9103SOL    HW238946   3.114   0.328   5.719  2.9440 -2.2317 -1.6792
 9104SOL     OW38947   0.726   2.470   8.858  0.0598 -0.4810 -0.3407
 9104SOL    HW138948   0.698   2.390   8.903 -1.0759  0.6949  1.0529
 9104SOL    HW238949   0.690   2.456   8.770  1.1764 -1.4456 -0.6430
 9105SOL     OW38950   3.428   3.722   3.871  0.1339 -0.0126  0.1068
 9105SOL    HW138951   3.482   3.769   3.934 -1.9157  0.8392  1.1985
 9105SOL    HW238952   3.371   3.793   3.843 -0.2441 -0.2157  0.3576
 9106SOL     OW38953   2.698   2.888   6.738 -0.2624 -0.2146 -0.0603
 9106SOL    HW138954   2.777   2.916   6.692  2.1373 -3.4730  2.0647
 9106SOL    HW238955   2.671   2.960   6.795  2.1551 -0.3060  1.1914
 9107SOL     OW38956   3.942   3.813  13.247  0.0185 -0.4960  0.1928
 9107SOL    HW138957   3.868   3.781  13.195  0.7134  1.2032 -1.8606
 9107SOL    HW238958   3.960   3.897  13.205 -3.1570  0.4113  0.6681
 9108SOL     OW38959   2.744   0.130   5.322 -0.5334 -0.3085  0.1545
 9108SOL    HW138960   2.832   0.116   5.286 -1.1313 -2.4278 -0.4726
 9108SOL    HW238961   2.731   0.071   5.396  0.3778 -2.5006 -1.4644
 9109SOL     OW38962   0.301   4.238   6.970  0.4552 -0.3391 -0.0351
 9109SOL    HW138963   0.311   4.333   6.972  0.8851 -0.3670 -1.1275
 9109SOL    HW238964   0.252   4.218   7.050  1.6262  1.1153  1.0566
 9110SOL     OW38965   4.628   3.084  10.988 -0.3454  0.0330  0.2818
 9110SOL    HW138966   4.666   2.997  10.997 -0.2748  0.1363  1.0371
 9110SOL    HW238967   4.696   3.135  11.033 -0.7466 -0.5937  1.6066
 9111SOL     OW38968   3.499   0.865  16.241 -0.0425  0.0573  0.5690
 9111SOL    HW138969   3.573   0.904  16.195 -0.0320 -0.0603  0.4868
 9111SOL    HW238970   3.533   0.866  16.331 -0.0858 -1.0356  0.5983
 9112SOL     OW38971   3.699   3.833   6.733  0.3965  0.3120 -0.4350
 9112SOL    HW138972   3.670   3.885   6.658  3.2017  1.0296 -1.0358
 9112SOL    HW238973   3.627   3.772   6.747  0.5299  0.3894  0.5921
 9113SOL     OW38974   3.461   4.664   0.449  0.6236 -0.4763  0.5264
 9113SOL    HW138975   3.554   4.647   0.434  0.4516 -0.5184 -0.4719
 9113SOL    HW238976   3.422   4.666   0.362 -0.9582  0.9344  1.2722
 9114SOL     OW38977   2.331   3.675   8.879 -0.0544  0.2153  0.8190
 9114SOL    HW138978   2.237   3.667   8.895 -0.4761  0.7271 -1.3971
 9114SOL    HW238979   2.360   3.585   8.867  1.9541  0.8308  1.0121
 9115SOL     OW38980   1.822   1.201   9.531 -0.1445 -0.0401  0.1290
 9115SOL    HW138981   1.825   1.132   9.465 -0.6678 -1.1482  1.2729
 9115SOL    HW238982   1.913   1.197   9.559 -0.9486  1.0002  2.9465
 9116SOL     OW38983   0.481   4.694  15.852 -0.6580  0.1350  0.1671
 9116SOL    HW138984   0.493   0.048  15.827  1.8373  0.1334  1.3740
 9116SOL    HW238985   0.475   4.656  15.764 -0.5061 -0.4483  0.4165
 9117SOL     OW38986   0.813   2.687   4.149 -0.3973 -0.1189  0.0684
 9117SOL    HW138987   0.752   2.721   4.083  0.0555 -0.3904 -0.4952
 9117SOL    HW238988   0.847   2.769   4.184  0.7549  0.0939 -1.5331
 9118SOL     OW38989   0.828   3.727   2.373 -0.3736 -0.0387 -0.5013
 9118SOL    HW138990   0.848   3.788   2.301 -0.9105 -0.5367 -1.0737
 9118SOL    HW238991   0.867   3.780   2.441 -0.3573 -0.5044 -0.1474
 9119SOL     OW38992   1.235   2.745  14.643 -0.2815 -0.8155  0.1853
 9119SOL    HW138993   1.240   2.726  14.737  0.3564  0.4932  0.4134
 9119SOL    HW238994   1.323   2.718  14.617 -0.8967  0.3606 -3.0965
 9120SOL     OW38995   3.720   2.291   8.062 -0.0999  0.5665  0.4161
 9120SOL    HW138996   3.705   2.286   7.967  1.2595  2.7532  0.0859
 9120SOL    HW238997   3.789   2.357   8.070 -0.0076  0.5755 -0.4820
 9121SOL     OW38998   2.361   3.433  16.842 -0.5464  0.1694  0.3630
 9121SOL    HW138999   2.340   3.388  16.760  1.4109 -1.5873  0.8166
 9121SOL    HW239000   2.321   3.519  16.833 -0.6991 -0.1894 -2.4172
 9122SOL     OW39001   1.502   2.529   3.897  0.0781  0.1530 -0.8221
 9122SOL    HW139002   1.443   2.521   3.973  1.2845 -1.2002 -0.0394
 9122SOL    HW239003   1.586   2.534   3.941  0.2479  1.1790 -1.2497
 9123SOL     OW39004   0.703   1.122   8.504  0.1964  0.7309 -0.4108
 9123SOL    HW139005   0.788   1.105   8.544  0.3897  0.3356 -0.9864
 9123SOL    HW239006   0.660   1.038   8.522  1.6212 -0.0936 -0.8854
 9124SOL     OW39007   0.044   0.042   5.015  0.0705  0.2183 -0.3470
 9124SOL    HW139008   0.076   4.715   4.953 -1.5877 -0.3845 -0.5700
 9124SOL    HW239009   0.024   0.120   4.963 -1.1663 -0.9468 -1.5977
 9125SOL     OW39010   3.707   1.083  11.599  0.2328  0.1961  0.0816
 9125SOL    HW139011   3.677   1.047  11.516  1.3963  0.8572 -0.6257
 9125SOL    HW239012   3.664   1.039  11.672 -0.9017  3.9852  1.7267
 9126SOL     OW39013   1.894   0.556   7.255 -0.0243  0.3739 -0.7135
 9126SOL    HW139014   1.909   0.630   7.196  0.6133 -0.5655 -1.7204
 9126SOL    HW239015   1.918   0.493   7.187 -1.3412 -0.3983 -0.4631
 9127SOL     OW39016   4.618   0.179   5.863 -0.3721 -0.1773 -0.0458
 9127SOL    HW139017   4.679   0.170   5.936  0.0456 -2.7960 -0.7384
 9127SOL    HW239018   4.634   0.093   5.826  1.2647  0.0100  0.2381
 9128SOL     OW39019   3.578   0.179   5.494 -0.0223  0.4283  0.0176
 9128SOL    HW139020   3.585   0.103   5.551 -0.0503 -1.2180 -2.1664
 9128SOL    HW239021   3.485   0.192   5.477  0.2998  2.2350 -0.3365
 9129SOL     OW39022   3.098   4.627  15.437 -0.1484 -0.8471  0.3876
 9129SOL    HW139023   3.012   4.640  15.397 -1.2416 -1.0077  2.7033
 9129SOL    HW239024   3.074   4.553  15.492 -2.7090 -0.2562  0.0860
 9130SOL     OW39025   2.755   2.616   4.429 -0.9151 -0.0757 -0.2615
 9130SOL    HW139026   2.774   2.642   4.519  0.2878 -2.8142  0.2648
 9130SOL    HW239027   2.706   2.689   4.391 -0.0543  0.2439 -0.7605
 9131SOL     OW39028   1.384   1.605  17.518 -0.3139 -0.1006  0.5027
 9131SOL    HW139029   1.381   1.521  17.565 -2.0011 -0.3401 -0.0223
 9131SOL    HW239030   1.429   1.663  17.579  1.1043  3.0543 -3.5799
 9132SOL     OW39031   3.205   4.475   4.021 -0.0148  0.1749  0.0978
 9132SOL    HW139032   3.129   4.531   4.034  0.6462  0.8163  1.3110
 9132SOL    HW239033   3.253   4.485   4.103 -2.0851  0.3797  1.2742
 9133SOL     OW39034   1.706   0.330   9.498 -0.9637 -0.3588 -0.7989
 9133SOL    HW139035   1.674   0.341   9.588 -0.2553  0.1961 -0.6126
 9133SOL    HW239036   1.763   0.256   9.518 -0.0115  0.0943 -1.8311
 9134SOL     OW39037   1.170   1.334   4.789  0.2593 -0.0762  0.1540
 9134SOL    HW139038   1.151   1.353   4.697  0.1095  0.6369  0.3333
 9134SOL    HW239039   1.087   1.340   4.836 -0.5061  1.7659 -1.4714
 9135SOL     OW39040   3.662   2.783   6.996 -0.2075  0.1614  0.2668
 9135SOL    HW139041   3.694   2.694   7.007 -2.4594 -0.4718  1.6916
 9135SOL    HW239042   3.581   2.781   7.047  0.1981  1.2727  0.9425
 9136SOL     OW39043   1.774   4.621   2.173  0.5646  0.0868 -0.4611
 9136SOL    HW139044   1.861   4.583   2.155  0.7592  0.0847  0.4612
 9136SOL    HW239045   1.725   4.613   2.092 -1.9760 -0.1073  1.0994
 9137SOL     OW39046   1.329   3.594  10.278  0.3690 -0.3383  0.2113
 9137SOL    HW139047   1.332   3.596  10.373  2.4526  0.5453  0.1147
 9137SOL    HW239048   1.308   3.502  10.259  0.8691 -0.5044  0.4650
 9138SOL     OW39049   4.520   1.723   3.792  0.1307  0.0123  0.0220
 9138SOL    HW139050   4.522   1.696   3.701 -1.5963 -2.4473  0.7054
 9138SOL    HW239051   4.444   1.781   3.796 -1.0321 -1.3938 -1.7507
 9139SOL     OW39052   0.433   0.909   8.736 -0.8056  0.3028 -0.4684
 9139SOL    HW139053   0.489   0.855   8.792 -0.9513 -1.1359 -1.6985
 9139SOL    HW239054   0.461   0.873   8.651  3.3878 -0.7941  1.3911
 9140SOL     OW39055   4.258   3.096   4.047  0.3050 -0.3886 -0.2047
 9140SOL    HW139056   4.267   3.153   3.971 -3.6161  1.0861  0.4452
 9140SOL    HW239057   4.179   3.127   4.091 -1.3874 -4.1961 -0.5351
 9141SOL     OW39058   2.488   3.003  16.116  0.4057  0.1457 -0.2114
 9141SOL    HW139059   2.452   3.029  16.200  0.9643  0.1736  0.0219
 9141SOL    HW239060   2.569   2.956  16.136  0.9044  1.5304  1.0467
 9142SOL     OW39061   2.568   2.223  17.407 -0.3212  0.0639  0.0291
 9142SOL    HW139062   2.524   2.277  17.473  1.0347  1.3253 -0.1073
 9142SOL    HW239063   2.497   2.182  17.357  1.1808 -1.1644 -1.0731
 9143SOL     OW39064   3.353   1.336   3.382  0.1268 -0.0948  0.2913
 9143SOL    HW139065   3.439   1.306   3.352 -0.9681 -2.9165  0.0295
 9143SOL    HW239066   3.290   1.282   3.334  0.1743 -1.2393  1.5149
 9144SOL     OW39067   1.188   3.731  13.355 -0.4318 -0.4983 -0.1551
 9144SOL    HW139068   1.114   3.708  13.411  0.8505 -0.6806  1.4734
 9144SOL    HW239069   1.158   3.688  13.275  0.8751 -5.1744  1.8695
 9145SOL     OW39070   2.097   1.570   0.004 -0.5398 -0.6168  0.1539
 9145SOL    HW139071   2.033   1.612  17.697  0.7312  1.4794  0.2675
 9145SOL    HW239072   2.050   1.529   0.077  0.9990  0.0758  1.5174
 9146SOL     OW39073   0.839   0.654   4.975 -0.1567  0.2113  0.7455
 9146SOL    HW139074   0.898   0.708   5.028  1.5875  0.0702 -1.0720
 9146SOL    HW239075   0.783   0.713   4.926  0.9767  1.5004  0.9982
 9147SOL     OW39076   1.848   1.401   6.034  0.2393 -0.0361 -0.5134
 9147SOL    HW139077   1.892   1.458   6.097  0.3820 -1.7653  0.9702
 9147SOL    HW239078   1.882   1.422   5.947  0.0573 -1.2361 -0.8750
 9148SOL     OW39079   3.347   2.248   5.966 -0.2797 -0.0314  0.6948
 9148SOL    HW139080   3.422   2.233   6.024  0.4560 -1.1541 -0.5563
 9148SOL    HW239081   3.353   2.344   5.966  1.8069 -0.1639  2.6534
 9149SOL     OW39082   0.177   1.155  15.265  0.4328  0.1427  0.2447
 9149SOL    HW139083   0.240   1.125  15.331 -0.2581 -2.8028 -0.4008
 9149SOL    HW239084   0.217   1.099  15.198 -2.6055 -1.5725 -0.1409
 9150SOL     OW39085   0.713   4.685  17.013 -0.3838 -0.3915  0.8369
 9150SOL    HW139086   0.780   4.668  17.079  1.5082 -1.1656 -1.2844
 9150SOL    HW239087   0.696   4.600  16.973 -1.7381 -0.3028  1.2406
 9151SOL     OW39088   3.152   1.398  14.058  0.5909 -0.6490 -0.3618
 9151SOL    HW139089   3.133   1.448  14.137  1.2342 -1.6496  0.4261
 9151SOL    HW239090   3.238   1.436  14.044  0.7447  0.8768  4.8781
 9152SOL     OW39091   3.901   2.431   4.619 -0.8690  0.4830  0.4851
 9152SOL    HW139092   3.994   2.412   4.635 -1.0002 -0.1063  0.5602
 9152SOL    HW239093   3.908   2.490   4.544 -1.1919 -0.5244 -0.3452
 9153SOL     OW39094   2.370   4.490   4.238  0.2290 -0.1924 -0.2182
 9153SOL    HW139095   2.383   4.413   4.181 -1.7887 -1.6981  1.3888
 9153SOL    HW239096   2.457   4.530   4.243  1.0046 -1.7526 -0.8092
 9154SOL     OW39097   0.309   1.286   2.217 -0.1034  0.2638 -0.1758
 9154SOL    HW139098   0.365   1.245   2.150  1.5986 -0.5361  1.7418
 9154SOL    HW239099   0.303   1.371   2.175 -0.3113  0.4890  0.3121
 9155SOL     OW39100   3.757   2.690   8.619  0.3657 -0.3290  0.1507
 9155SOL    HW139101   3.751   2.704   8.713 -0.4074 -2.4663  0.4229
 9155SOL    HW239102   3.839   2.641   8.610 -0.8472 -2.2176 -0.5723
 9156SOL     OW39103   3.748   2.028   6.074  0.4278 -0.1926 -0.5770
 9156SOL    HW139104   3.731   2.020   6.167 -0.3941  0.4636 -0.6754
 9156SOL    HW239105   3.814   1.962   6.053 -0.5036 -1.1967 -0.3056
 9157SOL     OW39106   1.638   4.664   5.605 -0.1289  0.1928 -0.2800
 9157SOL    HW139107   1.681   4.698   5.683 -0.2642  0.7786 -0.4617
 9157SOL    HW239108   1.554   4.634   5.640  0.6042 -0.1476  1.1893
 9158SOL     OW39109   1.156   4.533   8.788 -0.0807  0.0700 -0.4213
 9158SOL    HW139110   1.218   4.571   8.849  1.0005  0.3512 -1.7025
 9158SOL    HW239111   1.095   4.604   8.765 -0.1514 -0.8549 -3.1000
 9159SOL     OW39112   0.129   3.129   7.346  0.5831  0.0767  0.1122
 9159SOL    HW139113   0.207   3.097   7.390  0.4459 -1.8185 -1.0310
 9159SOL    HW239114   0.156   3.217   7.319  0.0134  0.3639  0.4604
 9160SOL     OW39115   2.476   3.605  13.761  0.3832  0.0969  0.1395
 9160SOL    HW139116   2.391   3.577  13.795  1.1438 -0.9109  1.2499
 9160SOL    HW239117   2.467   3.699  13.745  0.1885  0.2302  1.0304
 9161SOL     OW39118   1.724   3.255   1.957  0.2495  0.1602 -0.4322
 9161SOL    HW139119   1.743   3.349   1.949  0.4167 -0.0536 -2.5377
 9161SOL    HW239120   1.690   3.256   2.047  0.4841  3.9429 -0.3618
 9162SOL     OW39121   2.142   4.697   3.877  0.7232 -0.3171  0.0365
 9162SOL    HW139122   2.121   4.615   3.832 -1.7978 -0.5118  1.6057
 9162SOL    HW239123   2.056   4.726   3.906  1.5202  0.1792  1.8417
 9163SOL     OW39124   1.822   3.588  15.957 -0.0901  0.4914 -0.6953
 9163SOL    HW139125   1.910   3.610  15.929 -0.1170  0.6026 -0.6937
 9163SOL    HW239126   1.812   3.612  16.049 -1.2063  1.3003 -1.0146
 9164SOL     OW39127   0.389   1.751   4.264  0.1315 -0.4868  0.2764
 9164SOL    HW139128   0.343   1.819   4.214  2.0170 -0.7118 -1.7863
 9164SOL    HW239129   0.440   1.708   4.195 -0.9197 -0.8901 -0.2559
 9165SOL     OW39130   1.369   0.183   2.196 -0.4561  0.3144  0.1608
 9165SOL    HW139131   1.355   0.124   2.269 -0.3665 -0.1708 -0.2113
 9165SOL    HW239132   1.279   0.177   2.162 -0.8979 -0.7935  1.5378
 9166SOL     OW39133   4.176   0.665   0.128 -0.5868  0.0679  0.4657
 9166SOL    HW139134   4.171   0.626   0.041  0.5301  1.4185 -0.2144
 9166SOL    HW239135   4.193   0.759   0.120 -1.6349  0.1540 -0.7600
 9167SOL     OW39136   1.415   4.298   5.859  0.1716 -0.2299 -0.5075
 9167SOL    HW139137   1.457   4.246   5.791 -0.5872  0.0751 -1.2147
 9167SOL    HW239138   1.325   4.266   5.845  0.8341 -2.2471 -0.1481
 9168SOL     OW39139   2.912   2.961   6.483  0.3778 -0.4806  0.3825
 9168SOL    HW139140   2.866   2.985   6.402 -2.9103 -2.7819  1.5604
 9168SOL    HW239141   2.964   2.885   6.459  0.7267 -0.3455  0.7209
 9169SOL     OW39142   3.768   0.135  15.569  0.3105  0.3225  0.4354
 9169SOL    HW139143   3.702   0.072  15.539 -1.5278  1.2657  2.4646
 9169SOL    HW239144   3.748   0.214  15.518  0.3537 -1.8087 -2.8646
 9170SOL     OW39145   0.498   4.488   4.492 -0.3220 -0.0008  0.5183
 9170SOL    HW139146   0.446   4.495   4.572 -0.1557 -0.1573  0.6405
 9170SOL    HW239147   0.537   4.403   4.512  2.2317  1.2332  0.8636
 9171SOL     OW39148   2.819   1.887   7.606 -0.0385 -0.5245 -0.1456
 9171SOL    HW139149   2.859   1.802   7.622 -0.3940 -0.8187 -0.7874
 9171SOL    HW239150   2.810   1.870   7.512 -1.7740  1.9291 -0.4446
 9172SOL     OW39151   2.606   0.552   9.625  0.3380  0.1624 -0.3679
 9172SOL    HW139152   2.681   0.492   9.624  0.1223 -0.0896 -2.6189
 9172SOL    HW239153   2.654   0.627   9.659 -2.3625  1.0198  1.4664
 9173SOL     OW39154   0.619   0.881  12.578  0.3736 -0.3989  0.1762
 9173SOL    HW139155   0.582   0.857  12.493  0.2838 -0.6392  0.2827
 9173SOL    HW239156   0.691   0.820  12.583 -0.2315 -0.9530  2.2397
 9174SOL     OW39157   3.705   3.231   5.897 -0.6189  0.6638 -0.0259
 9174SOL    HW139158   3.733   3.323   5.897 -1.0106  0.7840 -0.7831
 9174SOL    HW239159   3.616   3.240   5.932 -0.4877  1.1683  0.1863
 9175SOL     OW39160   2.608   3.766   5.205 -0.3453 -0.4925 -0.0877
 9175SOL    HW139161   2.522   3.765   5.164 -0.4910  0.2104  0.2077
 9175SOL    HW239162   2.649   3.835   5.153 -1.9376  0.7574  0.3162
 9176SOL     OW39163   2.596   1.527  17.406  0.0351 -0.1886  0.1968
 9176SOL    HW139164   2.532   1.550  17.474  2.1425 -0.5810  2.3355
 9176SOL    HW239165   2.679   1.540  17.452 -0.7626 -1.1329  1.8931
 9177SOL     OW39166   0.553   3.221   5.673 -0.2607 -0.4120 -0.0793
 9177SOL    HW139167   0.480   3.159   5.668 -2.1948  1.6954  2.4042
 9177SOL    HW239168   0.585   3.241   5.585  0.8390  0.1335  0.4412
 9178SOL     OW39169   4.611   0.134   3.544  0.3047 -0.7021 -0.2585
 9178SOL    HW139170   4.633   0.056   3.494  1.0000 -1.1105  0.6882
 9178SOL    HW239171   4.530   0.103   3.585  0.8639 -2.0276 -0.1680
 9179SOL     OW39172   0.468   3.706   5.837  0.0771 -0.4320  0.3811
 9179SOL    HW139173   0.425   3.704   5.922  3.0636 -0.5350  1.9058
 9179SOL    HW239174   0.465   3.616   5.805 -0.2655  0.8899 -3.3269
 9180SOL     OW39175   3.615   4.566   6.359 -0.0677  0.5814  0.2717
 9180SOL    HW139176   3.601   4.503   6.429  0.5499  0.3143  0.1510
 9180SOL    HW239177   3.529   4.607   6.360  0.1588  1.0655  0.3104
 9181SOL     OW39178   4.502   0.562   3.975  0.2450  0.4994 -0.1219
 9181SOL    HW139179   4.443   0.625   4.015  1.5718  1.3450  0.4971
 9181SOL    HW239180   4.513   0.603   3.890 -1.2609 -1.8360 -1.4641
 9182SOL     OW39181   2.575   2.027   5.649  0.1975  0.6310 -0.3503
 9182SOL    HW139182   2.582   2.020   5.554 -2.3601  0.5236 -0.5393
 9182SOL    HW239183   2.497   2.081   5.656  1.2768  2.0708  0.4349
 9183SOL     OW39184   4.631   1.536   8.949 -0.1782  0.4623  0.2079
 9183SOL    HW139185   4.542   1.566   8.931  0.7562  3.5852  0.7653
 9183SOL    HW239186   4.622   1.466   9.014 -1.4294 -0.6995 -1.2264
 9184SOL     OW39187   0.293   1.867   6.239  0.0807  0.0506  0.3735
 9184SOL    HW139188   0.227   1.923   6.280 -2.9553 -1.5750 -2.2936
 9184SOL    HW239189   0.244   1.787   6.224 -0.9335  0.5692  0.8912
 9185SOL     OW39190   2.565   2.410  12.657  0.0996 -0.3428  0.7909
 9185SOL    HW139191   2.622   2.337  12.685 -0.2273 -0.4155  1.2727
 9185SOL    HW239192   2.487   2.393  12.709 -0.4434  0.5994  0.2703
 9186SOL     OW39193   1.916   0.957  10.954  0.0187  0.1979  0.3032
 9186SOL    HW139194   1.934   1.049  10.935  1.1946  0.1808  1.3252
 9186SOL    HW239195   2.001   0.914  10.947  0.1493  0.4592  0.2626
 9187SOL     OW39196   1.265   1.266   6.280 -0.0234 -1.0178  0.1992
 9187SOL    HW139197   1.224   1.186   6.313  1.4792 -0.6355  2.9883
 9187SOL    HW239198   1.192   1.327   6.293  2.9878  2.7030 -0.3032
 9188SOL     OW39199   0.352   2.152  10.302  0.2272  0.1412  0.0147
 9188SOL    HW139200   0.287   2.083  10.315 -2.5492  2.4990 -1.3625
 9188SOL    HW239201   0.355   2.193  10.389  0.7448 -0.4950  0.2996
 9189SOL     OW39202   3.000   2.318   2.127 -0.0903 -0.3818 -0.0280
 9189SOL    HW139203   3.003   2.230   2.090  1.1423 -1.0509  1.6742
 9189SOL    HW239204   2.923   2.322   2.183  0.1872 -0.8064  0.3838
 9190SOL     OW39205   0.114   3.017  12.252 -0.3539 -0.6769  0.4085
 9190SOL    HW139206   0.041   2.998  12.194  0.1435 -0.1000 -0.4080
 9190SOL    HW239207   0.116   2.939  12.307  1.2362 -2.8448 -2.7337
 9191SOL     OW39208   3.723   3.966  10.609  0.4612 -0.2792 -0.1141
 9191SOL    HW139209   3.758   3.917  10.535  1.5990 -0.4543  0.5393
 9191SOL    HW239210   3.802   3.985  10.660 -0.0330  1.8934 -0.1495
 9192SOL     OW39211   2.216   0.746   7.694  0.7117 -0.3688 -0.1564
 9192SOL    HW139212   2.212   0.665   7.643  0.9671 -1.2483  1.2207
 9192SOL    HW239213   2.142   0.734   7.754  0.4905  0.8404 -0.1822
 9193SOL     OW39214   4.401   1.145  10.705  0.0300  0.3005 -0.6541
 9193SOL    HW139215   4.481   1.184  10.669  0.0026  2.4809  1.6119
 9193SOL    HW239216   4.334   1.167  10.640  1.2130  1.3747 -1.5117
 9194SOL     OW39217   0.935   3.977   7.866 -0.2643 -0.3276  0.3164
 9194SOL    HW139218   0.979   4.051   7.907 -1.8472  0.9958 -0.3803
 9194SOL    HW239219   1.013   3.921   7.870 -1.1454 -1.7141 -2.0409
 9195SOL     OW39220   2.367   2.274   1.493 -0.1512 -0.4263  0.1256
 9195SOL    HW139221   2.328   2.268   1.580 -0.9801 -0.0229 -0.2099
 9195SOL    HW239222   2.366   2.182   1.470 -0.5539 -0.9827  2.3382
 9196SOL     OW39223   0.544   1.037  16.813 -0.5657 -0.2151 -0.6813
 9196SOL    HW139224   0.460   1.026  16.769  0.2208 -1.4703 -1.8877
 9196SOL    HW239225   0.595   1.089  16.751  1.1501  0.5769  1.4051
 9197SOL     OW39226   4.538   0.780  16.381  0.3717 -0.5825  0.4884
 9197SOL    HW139227   4.619   0.730  16.377  0.6391 -0.1447  0.4382
 9197SOL    HW239228   4.570   0.864  16.414 -2.6560  0.2449  1.3642
 9198SOL     OW39229   0.669   1.646   4.577  0.3481 -0.1060 -0.1104
 9198SOL    HW139230   0.641   1.697   4.501  1.6377  0.7246 -0.0295
 9198SOL    HW239231   0.675   1.566   4.526  0.3338 -1.1372  1.5114
 9199SOL     OW39232   1.838   1.192  17.054 -0.2295 -0.2975  0.0280
 9199SOL    HW139233   1.765   1.133  17.037 -1.0341  0.5174  0.6861
 9199SOL    HW239234   1.808   1.265  17.000 -0.6759  0.1528  0.8942
 9200SOL     OW39235   2.983   3.232   1.590  0.4086 -0.4010 -0.4140
 9200SOL    HW139236   2.929   3.164   1.550 -1.4093 -0.1480  1.6196
 9200SOL    HW239237   2.976   3.303   1.526  2.2930 -0.4806 -0.7268
 9201SOL     OW39238   4.020   4.637   1.684  0.5584  0.3247  0.0240
 9201SOL    HW139239   3.955   4.637   1.614  1.4643 -0.2886 -0.8178
 9201SOL    HW239240   4.080   4.564   1.667 -0.9878 -0.1932 -3.0545
 9202SOL     OW39241   3.811   1.768   2.756  0.2688 -0.0629  0.4219
 9202SOL    HW139242   3.861   1.714   2.694  1.0926 -0.0104  1.0276
 9202SOL    HW239243   3.774   1.837   2.702  1.5950  0.7068  0.5076
 9203SOL     OW39244   2.379   4.207   8.342  0.0413 -0.2116  0.7956
 9203SOL    HW139245   2.470   4.235   8.347 -0.7334  2.7730 -1.1863
 9203SOL    HW239246   2.371   4.174   8.431 -1.5310 -0.0523  0.7196
 9204SOL     OW39247   1.398   2.278   1.999  0.4961 -0.1148  0.2991
 9204SOL    HW139248   1.359   2.292   2.085 -0.6089 -3.0532  0.2695
 9204SOL    HW239249   1.349   2.340   1.945  0.2594  0.2993  0.9900
 9205SOL     OW39250   2.663   3.367  16.439  0.2436 -0.2269  0.4382
 9205SOL    HW139251   2.727   3.385  16.370 -1.2397  0.6336 -0.6892
 9205SOL    HW239252   2.705   3.289  16.477  0.0997 -0.3645  0.3126
 9206SOL     OW39253   4.684   2.433  12.013  0.4737  0.3532  0.1320
 9206SOL    HW139254   4.736   2.368  12.060 -0.4676 -0.8296 -0.4486
 9206SOL    HW239255   4.692   2.501  12.080  0.2708  0.5644 -0.0564
 9207SOL     OW39256   0.303   2.782   7.492  0.2874 -0.1633 -0.0283
 9207SOL    HW139257   0.303   2.721   7.419 -0.0890 -0.1304 -0.0568
 9207SOL    HW239258   0.372   2.738   7.541  1.1603 -0.0933 -1.1966
 9208SOL     OW39259   3.101   1.593   5.230 -0.1604 -0.1660  0.3154
 9208SOL    HW139260   3.022   1.618   5.182 -1.7946 -3.1357  1.4963
 9208SOL    HW239261   3.134   1.529   5.166 -0.3295 -0.6995  0.7653
 9209SOL     OW39262   2.100   0.393   2.318  0.3335  0.4634 -0.5148
 9209SOL    HW139263   2.033   0.399   2.386  0.2088 -1.3957 -0.4604
 9209SOL    HW239264   2.182   0.426   2.356 -0.3617  2.4827 -0.8049
 9210SOL     OW39265   1.487   1.016   5.012 -0.3894 -0.0949  0.6104
 9210SOL    HW139266   1.520   1.006   5.101  1.1997  3.2514  0.3773
 9210SOL    HW239267   1.503   0.933   4.967  1.2395 -0.6608  2.2032
 9211SOL     OW39268   4.319   3.437   7.338 -0.0741  0.1805  0.2991
 9211SOL    HW139269   4.310   3.451   7.244  2.2142  0.4635  0.1195
 9211SOL    HW239270   4.413   3.422   7.346  0.1683  1.6498  0.0971
 9212SOL     OW39271   1.795   2.406  10.924  0.2899  0.5300 -0.4050
 9212SOL    HW139272   1.713   2.366  10.897  0.2074  0.1116  0.4533
 9212SOL    HW239273   1.856   2.366  10.862 -0.4052 -1.4088  0.1572
 9213SOL     OW39274   2.004   1.768   7.558  0.4190 -0.1138  0.4328
 9213SOL    HW139275   1.984   1.684   7.600  0.6079 -0.2718  0.2137
 9213SOL    HW239276   1.944   1.755   7.485  0.4839  1.8002  0.0475
 9214SOL     OW39277   0.695   1.253   5.507  0.2454  0.1589 -0.5213
 9214SOL    HW139278   0.693   1.158   5.523 -3.2483  0.4321  0.7222
 9214SOL    HW239279   0.700   1.260   5.412  0.7475  3.7789 -0.2104
 9215SOL     OW39280   1.734   1.345   7.111 -0.0732  0.3706 -0.2282
 9215SOL    HW139281   1.796   1.405   7.152 -0.3054  0.1612  0.4366
 9215SOL    HW239282   1.679   1.405   7.061  1.1417  2.3559  0.8121
 9216SOL     OW39283   0.530   0.480   6.700  0.4910  0.2082 -0.2336
 9216SOL    HW139284   0.537   0.443   6.612 -2.1556  0.3491 -0.4770
 9216SOL    HW239285   0.609   0.439   6.738  0.0277 -0.5518 -0.0907
 9217SOL     OW39286   2.106   3.947  10.143 -0.0288  0.3718 -0.2919
 9217SOL    HW139287   2.104   3.997  10.061  0.4376 -0.2514 -0.6846
 9217SOL    HW239288   2.145   3.868  10.104 -1.5369  0.5515 -2.1984
 9218SOL     OW39289   4.288   4.529   2.302 -0.2690  0.3742  0.3622
 9218SOL    HW139290   4.376   4.559   2.325  0.4973 -1.4843 -0.1193
 9218SOL    HW239291   4.319   4.457   2.247 -1.0602 -0.4011  0.9290
 9219SOL     OW39292   3.486   1.225   8.193  0.3642  0.6801 -0.5784
 9219SOL    HW139293   3.446   1.173   8.263  0.9696 -1.6392 -1.9672
 9219SOL    HW239294   3.474   1.315   8.225 -3.4409 -1.0863  3.0786
 9220SOL     OW39295   3.104   2.895   7.889  0.3383  0.1548  0.3877
 9220SOL    HW139296   3.058   2.915   7.807  1.5066  1.2171 -0.0008
 9220SOL    HW239297   3.169   2.829   7.864  1.2552  1.1795  0.0523
 9221SOL     OW39298   1.236   1.913   9.079  0.3234 -0.1532 -0.2274
 9221SOL    HW139299   1.273   1.998   9.053 -3.1450  1.2384 -0.6044
 9221SOL    HW239300   1.144   1.914   9.052  0.2225  0.4301  0.1459
 9222SOL     OW39301   2.952   2.069   6.302  0.0843  0.2709  0.3324
 9222SOL    HW139302   3.030   2.069   6.247 -0.7411  1.9443 -0.8547
 9222SOL    HW239303   2.982   2.123   6.376 -0.2363 -1.0522  1.4260
 9223SOL     OW39304   1.267   2.847   1.815  0.2721 -0.4401 -0.0709
 9223SOL    HW139305   1.314   2.775   1.774  1.2036  0.3515 -0.3919
 9223SOL    HW239306   1.308   2.865   1.899  1.5722 -1.3523 -0.5158
 9224SOL     OW39307   4.433   3.612   5.262 -0.0179  0.1651  0.0786
 9224SOL    HW139308   4.379   3.536   5.280 -0.3755  0.3249 -0.3213
 9224SOL    HW239309   4.422   3.610   5.167 -0.6662  0.3366  0.1529
 9225SOL     OW39310   0.848   1.013  15.937  0.6635  0.2202  0.1677
 9225SOL    HW139311   0.896   1.023  16.019 -0.7560 -4.2129  1.5748
 9225SOL    HW239312   0.911   0.973  15.877  0.7406  0.2761  0.2115
 9226SOL     OW39313   2.039   1.904   2.360  0.5396 -0.0826  0.1742
 9226SOL    HW139314   1.998   1.898   2.274  0.3625 -1.6860  0.3706
 9226SOL    HW239315   1.971   1.847   2.397 -0.2433 -0.1953 -1.4416
 9227SOL     OW39316   0.410   2.539  14.644  0.4056  0.0415  0.2817
 9227SOL    HW139317   0.480   2.561  14.583  1.0684 -0.7664  0.7436
 9227SOL    HW239318   0.448   2.590  14.716  0.1707  1.2252 -0.4267
 9228SOL     OW39319   0.103   0.188   4.166 -0.4934  0.5648  0.1814
 9228SOL    HW139320   0.038   0.119   4.178 -0.5111  0.2424 -1.6781
 9228SOL    HW239321   0.038   0.257   4.183  1.2112  2.3359 -0.4756
 9229SOL     OW39322   0.757   0.315   4.541 -0.6929 -0.2660 -0.8320
 9229SOL    HW139323   0.716   0.280   4.621  0.0940  1.2775  0.2510
 9229SOL    HW239324   0.834   0.259   4.536 -0.4225  0.2453 -2.1769
 9230SOL     OW39325   3.027   4.720   2.611 -0.0499 -0.2343  0.2245
 9230SOL    HW139326   3.013   0.075   2.596 -1.4232 -0.8640 -2.4397
 9230SOL    HW239327   3.003   4.680   2.527  0.0169 -0.9154  0.5262
 9231SOL     OW39328   1.539   3.769   6.720  0.5260  0.4290  0.5559
 9231SOL    HW139329   1.605   3.784   6.652  0.2932  1.5191  0.5625
 9231SOL    HW239330   1.502   3.858   6.723  0.4358  0.3901  0.6018
 9232SOL     OW39331   3.226   3.671   5.859 -0.2443  0.3132  0.0975
 9232SOL    HW139332   3.244   3.595   5.914  0.1932  1.1089  1.0533
 9232SOL    HW239333   3.154   3.634   5.808 -1.5333  2.1224  0.5953
 9233SOL     OW39334   2.807   2.973  15.899  0.2647  0.1334 -0.6620
 9233SOL    HW139335   2.847   2.887  15.887 -2.7144 -1.6508  2.1320
 9233SOL    HW239336   2.719   2.949  15.869  1.1628 -1.7509 -1.7980
 9234SOL     OW39337   0.733   0.762   3.657 -0.3531  0.1076  0.6800
 9234SOL    HW139338   0.712   0.810   3.737  0.6883  0.7427  0.5733
 9234SOL    HW239339   0.762   0.833   3.600  1.9858  0.2747  2.0921
 9235SOL     OW39340   2.151   2.227   4.095  0.4460 -0.1729  0.5629
 9235SOL    HW139341   2.074   2.189   4.053  1.2763 -1.2040 -0.0147
 9235SOL    HW239342   2.113   2.281   4.164  0.6942  0.3885  0.2583
 9236SOL     OW39343   0.196   2.975   7.936 -0.2046 -0.4055  0.1517
 9236SOL    HW139344   0.245   3.057   7.934  2.1747 -1.8562 -0.5737
 9236SOL    HW239345   0.192   2.954   7.843  0.8966  2.8680 -0.6123
 9237SOL     OW39346   4.676   0.986   9.452  0.0983  0.2022 -0.8195
 9237SOL    HW139347   4.588   0.974   9.487  0.4015 -0.8907 -0.4433
 9237SOL    HW239348   4.715   1.047   9.516 -0.0063  2.1715 -2.6318
 9238SOL     OW39349   4.490   2.086   5.514 -0.0370 -0.1963  0.1414
 9238SOL    HW139350   4.500   2.045   5.428  0.8171  1.0369 -0.3556
 9238SOL    HW239351   4.475   2.010   5.569 -1.4581  2.4375  3.4007
 9239SOL     OW39352   0.467   3.021  15.519  0.1160 -0.2814 -0.8068
 9239SOL    HW139353   0.393   3.004  15.578 -1.8655  3.0538 -2.3327
 9239SOL    HW239354   0.431   2.977  15.441  1.6685  0.7329 -2.0910
 9240SOL     OW39355   3.271   2.290   0.462  0.0453  0.1680  0.0515
 9240SOL    HW139356   3.304   2.357   0.522 -1.0565 -0.6686  1.5900
 9240SOL    HW239357   3.192   2.325   0.421 -1.5612 -1.4160  1.7933
 9241SOL     OW39358   2.956   0.244  16.210 -0.1296 -0.2596  0.6520
 9241SOL    HW139359   2.926   0.261  16.300 -0.2225 -0.4202  0.6503
 9241SOL    HW239360   2.906   0.303  16.154 -1.1495 -0.7696  1.0341
 9242SOL     OW39361   1.902   0.345   7.587 -0.3283  0.2850 -0.1689
 9242SOL    HW139362   1.916   0.262   7.541 -0.9824  0.4880 -0.7427
 9242SOL    HW239363   1.877   0.319   7.676 -1.1191 -0.8491 -0.7098
 9243SOL     OW39364   0.353   4.190  13.243  0.6820  0.2785 -0.4453
 9243SOL    HW139365   0.386   4.102  13.262  1.7227  0.3396 -2.0479
 9243SOL    HW239366   0.338   4.223  13.332  1.3809  0.9087 -0.5639
 9244SOL     OW39367   2.704   4.081   0.496  0.2822 -0.1763  0.6077
 9244SOL    HW139368   2.657   3.999   0.510 -0.3850 -0.3040 -2.3726
 9244SOL    HW239369   2.709   4.078   0.401 -0.3117  0.5839  0.5474
 9245SOL     OW39370   3.400   4.151   4.958 -0.9726 -0.8655 -0.9165
 9245SOL    HW139371   3.315   4.184   4.928 -0.4478 -0.3886 -1.8671
 9245SOL    HW239372   3.385   4.142   5.052  1.6974  1.5759 -0.2735
 9246SOL     OW39373   3.256   1.341   5.907 -0.3920  0.0449 -0.3937
 9246SOL    HW139374   3.330   1.367   5.962 -2.1639  0.6146  1.7254
 9246SOL    HW239375   3.190   1.396   5.949  1.3319  2.5122 -0.8761
 9247SOL     OW39376   1.236   4.674   9.594  0.4909 -0.2510  0.3049
 9247SOL    HW139377   1.284   4.715   9.666  1.1951 -1.8943  0.7712
 9247SOL    HW239378   1.268   4.585   9.601  1.7715 -0.1222 -3.8347
 9248SOL     OW39379   2.387   0.819   8.412  0.4560  0.3573  0.4172
 9248SOL    HW139380   2.390   0.838   8.506  0.4363  0.8319  0.3220
 9248SOL    HW239381   2.293   0.814   8.392  0.8547 -1.2311 -0.9455
 9249SOL     OW39382   1.704   4.465   2.750 -0.2642 -0.2768  0.1470
 9249SOL    HW139383   1.679   4.490   2.839  1.0568 -0.1386  0.4657
 9249SOL    HW239384   1.641   4.510   2.693  0.1295  1.3886  1.0231
 9250SOL     OW39385   2.994   0.580   1.851  0.0055  0.5890  0.2718
 9250SOL    HW139386   2.941   0.571   1.772  1.0542 -1.1195 -0.2335
 9250SOL    HW239387   2.953   0.517   1.911 -0.2315  0.5335  0.0495
 9251SOL     OW39388   0.301   1.800  14.646  0.0239  0.0456  0.3372
 9251SOL    HW139389   0.242   1.785  14.720  1.5356  1.8043  1.8952
 9251SOL    HW239390   0.295   1.895  14.638 -0.5796 -0.0132  0.0873
 9252SOL     OW39391   2.530   0.133   2.536  0.1067  0.0988  0.2638
 9252SOL    HW139392   2.579   0.206   2.499  0.2570  0.1653  0.6047
 9252SOL    HW239393   2.573   0.060   2.491  2.4355 -0.2022  3.0413
 9253SOL     OW39394   2.609   0.589   1.260  0.2619 -0.1216  0.1371
 9253SOL    HW139395   2.592   0.545   1.343  0.8574 -2.5608 -1.0373
 9253SOL    HW239396   2.620   0.677   1.296  1.7624  0.0283 -0.7106
 9254SOL     OW39397   1.514   4.179   2.258 -0.3614  0.3999  0.3401
 9254SOL    HW139398   1.589   4.170   2.201 -1.1603  0.0065 -0.6359
 9254SOL    HW239399   1.523   4.271   2.284 -0.3298  0.6792 -0.6699
 9255SOL     OW39400   4.613   2.410   5.174  0.1423  0.0750 -0.1937
 9255SOL    HW139401   4.547   2.409   5.243  0.6296 -0.3202  0.2717
 9255SOL    HW239402   4.613   2.318   5.145  0.4791  0.4312 -1.3218
 9256SOL     OW39403   2.236   1.611   5.734  0.0649  0.4110  0.4283
 9256SOL    HW139404   2.308   1.673   5.721 -0.0102  0.6494  1.1511
 9256SOL    HW239405   2.186   1.658   5.801 -2.2716 -1.5665  0.0667
 9257SOL     OW39406   4.479   0.765   5.411 -0.2694  0.4635  0.2686
 9257SOL    HW139407   4.478   0.825   5.336 -3.5785  1.4177  1.0524
 9257SOL    HW239408   4.402   0.711   5.392 -1.2134  1.9591 -0.2095
 9258SOL     OW39409   3.958   1.381   2.164  0.2247 -0.4244 -0.5090
 9258SOL    HW139410   3.952   1.293   2.203 -0.5721 -0.5546 -0.9232
 9258SOL    HW239411   4.018   1.426   2.223 -1.9124  1.2990  0.3501
 9259SOL     OW39412   0.253   4.541  10.603  0.1944  0.1098  0.2001
 9259SOL    HW139413   0.273   4.634  10.616 -0.4843  0.6473 -2.4786
 9259SOL    HW239414   0.341   4.508  10.621 -0.8810 -2.2005  1.2473
 9260SOL     OW39415   1.145   0.701  14.027  0.5146  0.6440  0.1000
 9260SOL    HW139416   1.212   0.637  14.005 -0.0809 -0.1550  0.5817
 9260SOL    HW239417   1.113   0.720  13.938  1.7790 -2.2947 -1.0009
 9261SOL     OW39418   1.074   1.138   2.370  0.6955  0.5224  0.4475
 9261SOL    HW139419   1.029   1.216   2.404 -1.5053 -1.2908  1.7374
 9261SOL    HW239420   1.150   1.135   2.427  0.8072 -2.0716  0.1560
 9262SOL     OW39421   4.129   4.621   4.127  0.3822 -0.0746 -0.3410
 9262SOL    HW139422   4.119   4.602   4.034  1.2389  2.1228 -0.8940
 9262SOL    HW239423   4.172   4.706   4.127  1.5579 -0.6743  1.2467
 9263SOL     OW39424   4.013   2.846  12.082  0.6641  0.5174  0.2436
 9263SOL    HW139425   3.939   2.870  12.137 -0.8023  2.6639 -2.6603
 9263SOL    HW239426   4.092   2.842  12.136  0.2134  0.7890  0.9128
 9264SOL     OW39427   3.614   0.374   8.440 -0.5409  0.1207  0.1400
 9264SOL    HW139428   3.580   0.444   8.384 -1.1358  1.1389  1.7921
 9264SOL    HW239429   3.652   0.431   8.507 -0.4362 -1.2182  1.2171
 9265SOL     OW39430   3.926   2.262   9.019  0.4241  0.0775  0.2316
 9265SOL    HW139431   3.931   2.202   9.093  0.3704 -1.2884 -0.8811
 9265SOL    HW239432   3.834   2.244   8.999  1.3072 -1.2057 -2.5800
 9266SOL     OW39433   1.948   4.364  10.140  0.0514  0.1150 -0.3156
 9266SOL    HW139434   1.909   4.309  10.208  1.7941  1.7412  1.9779
 9266SOL    HW239435   1.887   4.437  10.149  0.5554  0.6407 -1.1070
 9267SOL     OW39436   2.272   4.474   3.329 -0.5761  0.7776  0.7745
 9267SOL    HW139437   2.314   4.410   3.271 -0.4032  1.4417  0.1774
 9267SOL    HW239438   2.315   4.556   3.307 -1.4032  0.6276 -1.3505
 9268SOL     OW39439   0.004   1.037  15.444 -0.0480  0.0922 -0.0799
 9268SOL    HW139440   0.068   1.067  15.380  1.5808  1.0985  2.0200
 9268SOL    HW239441   4.668   1.031  15.384  0.0664  2.6829 -0.4874
 9269SOL     OW39442   4.351   1.898  14.914  0.4220 -0.6804 -0.1169
 9269SOL    HW139443   4.329   1.971  14.973  0.2002  1.4340 -2.8379
 9269SOL    HW239444   4.445   1.889  14.930  0.3854  0.8057  0.9076
 9270SOL     OW39445   2.907   0.611   8.448 -0.2392 -0.2754  0.5052
 9270SOL    HW139446   2.836   0.586   8.389  1.9719  0.0442 -2.2910
 9270SOL    HW239447   2.930   0.523   8.478  0.1562 -0.6236 -0.7795
 9271SOL     OW39448   3.422   1.720   7.481 -1.0154  0.3723  0.5710
 9271SOL    HW139449   3.369   1.734   7.403  0.2752  1.7623 -0.0691
 9271SOL    HW239450   3.369   1.749   7.555 -3.5856 -0.0239 -1.1128
 9272SOL     OW39451   2.862   2.320  10.414  0.2740  0.1859  0.3823
 9272SOL    HW139452   2.920   2.257  10.456  1.9024  1.1749 -0.3712
 9272SOL    HW239453   2.884   2.287  10.327 -1.1051 -0.6429  0.3408
 9273SOL     OW39454   3.574   1.386   4.795 -0.2212  0.1955 -0.7522
 9273SOL    HW139455   3.655   1.408   4.749 -1.4686  1.8141 -2.1900
 9273SOL    HW239456   3.580   1.291   4.807 -2.3830  0.2410  0.7221
 9274SOL     OW39457   3.935   3.661   1.803  0.4069  0.1304  0.3000
 9274SOL    HW139458   3.928   3.711   1.722 -0.1479 -1.9821 -0.9399
 9274SOL    HW239459   3.974   3.578   1.777 -0.5286 -0.0653 -0.4722
 9275SOL     OW39460   0.609   2.342   8.666  0.3211  0.3150  0.1287
 9275SOL    HW139461   0.619   2.322   8.573  0.0039  0.2469  0.1116
 9275SOL    HW239462   0.522   2.381   8.670  0.9937  1.8269  0.1697
 9276SOL     OW39463   0.204   2.813  12.386  0.1949 -0.2135  0.3065
 9276SOL    HW139464   0.247   2.753  12.325  0.8581 -0.8340  1.3815
 9276SOL    HW239465   0.281   2.853  12.428 -0.0444 -0.0932  0.6283
 9277SOL     OW39466   3.547   0.991   0.967 -0.2033 -0.8254  0.1619
 9277SOL    HW139467   3.603   0.989   0.890  0.6098  2.3492  0.6917
 9277SOL    HW239468   3.554   0.898   0.992  0.5424 -1.5002 -2.5211
 9278SOL     OW39469   3.927   3.527   1.382  0.5892  0.1565  0.0025
 9278SOL    HW139470   3.949   3.434   1.374 -0.3495 -0.3452  3.5295
 9278SOL    HW239471   3.898   3.557   1.296 -0.6467 -1.2976 -0.0920
 9279SOL     OW39472   1.524   3.054   1.868 -0.0835  0.2379  0.8331
 9279SOL    HW139473   1.463   3.096   1.929 -0.4979 -0.1048  0.6498
 9279SOL    HW239474   1.597   3.116   1.863 -0.0378  0.0186 -1.2911
 9280SOL     OW39475   3.102   2.992   7.557 -0.4345  0.4361 -0.6166
 9280SOL    HW139476   3.088   3.080   7.590 -0.1331 -0.1449  1.0509
 9280SOL    HW239477   3.197   3.001   7.568 -0.1372 -1.9773 -1.1679
 9281SOL     OW39478   3.359   0.961   7.907 -0.3936 -0.8593 -0.5446
 9281SOL    HW139479   3.374   1.028   7.840 -0.3143  0.9188  1.2538
 9281SOL    HW239480   3.432   0.965   7.969 -0.5349  2.3062 -0.5700
 9282SOL     OW39481   0.118   3.013   2.645 -0.2150  0.3467 -0.2522
 9282SOL    HW139482   0.128   3.014   2.740 -2.3848 -1.1599 -0.0016
 9282SOL    HW239483   0.128   2.921   2.620 -0.7878  0.7831 -2.1219
 9283SOL     OW39484   2.000   1.752   1.802 -0.2249  0.1780  0.3334
 9283SOL    HW139485   1.931   1.818   1.811 -0.5320  0.3121 -2.9670
 9283SOL    HW239486   1.966   1.726   1.716 -2.8417  1.2179  1.0363
 9284SOL     OW39487   0.782   3.418  14.284 -0.4805  0.7183 -0.1858
 9284SOL    HW139488   0.835   3.400  14.207  0.4500  1.0438  0.3878
 9284SOL    HW239489   0.830   3.495  14.314  2.1246  0.2762 -3.2975
 9285SOL     OW39490   4.197   3.705  14.465 -0.6217  0.5829  0.4901
 9285SOL    HW139491   4.224   3.629  14.412 -2.1366  0.1531  0.3402
 9285SOL    HW239492   4.271   3.761  14.441 -0.0957 -0.8904 -1.3461
 9286SOL     OW39493   1.833   1.575   5.036  0.1298  0.5741  0.5344
 9286SOL    HW139494   1.763   1.601   5.096 -0.8119  0.3827 -0.4606
 9286SOL    HW239495   1.861   1.664   5.014  1.2334 -0.7634 -3.5221
 9287SOL     OW39496   3.274   4.124   9.398  0.2616 -0.3968 -0.6055
 9287SOL    HW139497   3.266   4.110   9.304 -2.3817  3.5540 -0.9665
 9287SOL    HW239498   3.182   4.127   9.425  0.1736 -0.3502 -0.9115
 9288SOL     OW39499   4.249   1.084   3.751 -0.5567  0.0287 -0.2484
 9288SOL    HW139500   4.160   1.118   3.758 -0.3229 -0.2426  4.2058
 9288SOL    HW239501   4.235   1.035   3.670 -2.1023  0.0624 -0.0051
 9289SOL     OW39502   0.943   4.540   6.329 -0.0119  0.2052  0.0682
 9289SOL    HW139503   0.852   4.523   6.302 -0.1774  1.4005 -0.1448
 9289SOL    HW239504   0.923   4.553   6.422  2.2124 -3.3689  1.0404
 9290SOL     OW39505   0.985   3.343  10.541 -0.3399 -0.0023 -0.7764
 9290SOL    HW139506   1.044   3.320  10.469  2.3799  0.9756  1.1369
 9290SOL    HW239507   1.012   3.429  10.572  3.1095 -1.0387 -0.9114
 9291SOL     OW39508   0.826   1.980   1.292 -0.0349 -0.5292 -0.8252
 9291SOL    HW139509   0.752   2.040   1.302  2.0618  2.0433 -0.6365
 9291SOL    HW239510   0.810   1.914   1.359  0.5920 -2.3233 -2.4643
 9292SOL     OW39511   4.145   4.120   9.971  0.2932  0.2288  0.5978
 9292SOL    HW139512   4.094   4.121   9.890  0.6977  2.1956  0.3699
 9292SOL    HW239513   4.217   4.179   9.952 -0.1494  1.4115  2.6644
 9293SOL     OW39514   4.022   3.320   2.133 -0.2682  0.3191 -0.1931
 9293SOL    HW139515   3.938   3.290   2.170  0.3218 -1.2061 -0.0750
 9293SOL    HW239516   4.046   3.235   2.098 -1.5514  0.4482 -1.3774
 9294SOL     OW39517   1.087   4.699   8.187 -0.7021 -0.5222 -0.8113
 9294SOL    HW139518   1.109   0.042   8.141 -0.7120 -0.3956 -0.5935
 9294SOL    HW239519   1.077   4.639   8.113 -0.2900 -0.8280 -0.6252
 9295SOL     OW39520   0.792   2.237  15.440  0.2573  0.3624  0.1665
 9295SOL    HW139521   0.832   2.151  15.454  0.9224  0.5598 -0.5182
 9295SOL    HW239522   0.863   2.301  15.429 -0.7192  1.7570  1.8986
 9296SOL     OW39523   3.438   0.459   2.337 -0.3511 -0.0345  0.1902
 9296SOL    HW139524   3.347   0.435   2.321 -0.6830  0.8323  0.7589
 9296SOL    HW239525   3.449   0.545   2.295  1.5987 -0.9169 -1.1133
 9297SOL     OW39526   4.389   1.275   5.044  0.2615 -0.6487  0.4134
 9297SOL    HW139527   4.481   1.298   5.055  0.8959 -3.7759  1.8232
 9297SOL    HW239528   4.400   1.207   4.977  0.2249  0.5217 -0.7837
 9298SOL     OW39529   2.804   1.348  13.020 -0.5504  0.0579 -0.4532
 9298SOL    HW139530   2.846   1.414  13.074 -0.0092  0.6042 -1.5393
 9298SOL    HW239531   2.711   1.350  13.040 -0.5700  1.1583 -0.6484
 9299SOL     OW39532   3.994   2.238  12.225  0.2439 -0.0652  0.4551
 9299SOL    HW139533   4.011   2.316  12.172  0.9205  0.3380  1.2558
 9299SOL    HW239534   3.914   2.196  12.196  0.0204  0.5946  0.1261
 9300SOL     OW39535   3.128   2.027   9.394  0.4988  0.2275 -0.0881
 9300SOL    HW139536   3.173   2.062   9.317 -0.7376  1.7665 -0.1163
 9300SOL    HW239537   3.139   2.102   9.452 -0.2743  0.0355  0.3001
 9301SOL     OW39538   2.639   0.723   4.546 -0.5426 -0.3322  0.1184
 9301SOL    HW139539   2.686   0.695   4.625  0.7949 -0.6237 -0.7663
 9301SOL    HW239540   2.630   0.818   4.545  2.0782 -0.0780  0.2902
 9302SOL     OW39541   3.712   3.733   0.249  0.2364 -0.4345 -0.1050
 9302SOL    HW139542   3.667   3.669   0.303  1.8493 -0.9659  0.5721
 9302SOL    HW239543   3.802   3.736   0.280 -0.3965 -0.4018  1.6965
 9303SOL     OW39544   2.576   3.452   7.689  0.2086  0.2846 -0.0243
 9303SOL    HW139545   2.587   3.466   7.783 -2.2507  1.1616  0.1551
 9303SOL    HW239546   2.667   3.469   7.665  0.5830 -1.0643  0.4309
 9304SOL     OW39547   4.574   4.054   6.460 -0.6033  0.9577 -0.0017
 9304SOL    HW139548   4.587   3.978   6.517  0.7292 -1.3276 -3.3572
 9304SOL    HW239549   4.487   4.071   6.495 -0.4211  0.5765  0.6408
 9305SOL     OW39550   1.246   0.851   4.766 -0.1543  0.2924  0.2608
 9305SOL    HW139551   1.188   0.775   4.753  0.4895 -0.4667  1.7173
 9305SOL    HW239552   1.329   0.818   4.802  0.4409  1.1652 -0.3273
 9306SOL     OW39553   4.171   1.773   2.463  0.1850 -0.6301  0.0178
 9306SOL    HW139554   4.194   1.784   2.556  1.1285 -1.6931 -0.0907
 9306SOL    HW239555   4.182   1.858   2.420  2.1220 -0.0546  1.6149
 9307SOL     OW39556   3.973   3.165  16.330 -0.1417  0.0351 -0.2985
 9307SOL    HW139557   4.047   3.172  16.269  2.2485 -0.1103  2.5620
 9307SOL    HW239558   4.014   3.102  16.390 -2.1715  1.2874  2.3550
 9308SOL     OW39559   3.968   1.749   4.628 -0.5245 -0.3237 -0.0015
 9308SOL    HW139560   3.973   1.839   4.594 -0.8364 -0.0742  0.6196
 9308SOL    HW239561   3.932   1.761   4.716  1.3479 -0.3000  0.7558
 9309SOL     OW39562   3.058   4.640   2.886  0.5163 -0.1342  0.2490
 9309SOL    HW139563   2.977   4.615   2.931 -0.0913  3.0855  0.9309
 9309SOL    HW239564   3.032   4.643   2.793 -2.7023 -0.2819  1.1374
 9310SOL     OW39565   1.073   3.508   9.356  0.3416  0.0839  0.1818
 9310SOL    HW139566   1.117   3.566   9.418  0.9416 -0.6737  0.4549
 9310SOL    HW239567   1.136   3.488   9.287  0.1225  1.7941 -0.5237
 9311SOL     OW39568   1.413   0.950   5.437 -0.5237  0.5313  0.1372
 9311SOL    HW139569   1.355   0.911   5.502 -0.1944 -1.6327 -0.8538
 9311SOL    HW239570   1.346   0.975   5.373  0.3419  1.2940 -0.4729
 9312SOL     OW39571   3.891   3.372   8.846 -0.0643  0.0000 -0.3024
 9312SOL    HW139572   3.830   3.389   8.774 -0.1105 -1.1656 -0.5375
 9312SOL    HW239573   3.902   3.277   8.841 -0.0474 -0.0743  1.1596
 9313SOL     OW39574   2.880   2.514   6.937 -0.2569 -0.1877  0.4060
 9313SOL    HW139575   2.823   2.583   6.903  0.5890  0.9411  1.3057
 9313SOL    HW239576   2.864   2.519   7.031  1.0910 -1.4039  0.7031
 9314SOL     OW39577   3.213   2.178  10.897  0.5874 -0.1018 -0.4139
 9314SOL    HW139578   3.131   2.218  10.869  0.9261 -0.2498 -1.6545
 9314SOL    HW239579   3.262   2.189  10.815 -0.9520  0.2455 -1.2950
 9315SOL     OW39580   0.396   1.359   3.445  0.3810  0.1285 -0.7250
 9315SOL    HW139581   0.457   1.308   3.392 -0.0303  0.8787 -1.9093
 9315SOL    HW239582   0.319   1.358   3.389 -0.8183  2.4111  0.8637
 9316SOL     OW39583   3.620   0.913   6.949 -0.5409  0.3611  0.2506
 9316SOL    HW139584   3.576   0.832   6.976 -0.2935  0.1776  0.0925
 9316SOL    HW239585   3.683   0.919   7.020  0.9860  0.0736 -1.0856
 9317SOL     OW39586   1.610   3.168  15.805  0.5756  0.1151  0.7766
 9317SOL    HW139587   1.523   3.207  15.797  1.4912  2.0466  0.1812
 9317SOL    HW239588   1.632   3.175  15.712 -0.3537 -1.5131  0.4283
 9318SOL     OW39589   1.086   3.391   6.709 -0.0428  0.8123  0.3806
 9318SOL    HW139590   1.138   3.315   6.685 -0.8900  1.1068 -2.3408
 9318SOL    HW239591   1.150   3.463   6.711  1.0937 -0.1385 -1.8810
 9319SOL     OW39592   2.425   0.440  15.125  0.0092 -0.2402 -0.4871
 9319SOL    HW139593   2.476   0.483  15.193 -0.0334  0.9506 -1.1880
 9319SOL    HW239594   2.351   0.501  15.121  0.3972  0.3457  1.4109
 9320SOL     OW39595   2.170   2.538   6.148  0.0586  0.0390  0.4050
 9320SOL    HW139596   2.133   2.545   6.236  0.9893 -0.2705  0.8140
 9320SOL    HW239597   2.160   2.629   6.122 -0.5116 -0.0359  0.3554
 9321SOL     OW39598   3.476   1.752   3.474 -0.0571  0.2026  0.0873
 9321SOL    HW139599   3.392   1.727   3.436 -0.8893 -0.9467  2.6786
 9321SOL    HW239600   3.469   1.702   3.555  1.6415 -2.1849 -1.2188
 9322SOL     OW39601   3.598   0.490   5.135  0.0686 -0.1673  0.6007
 9322SOL    HW139602   3.591   0.564   5.196 -0.1343  0.1983  0.1349
 9322SOL    HW239603   3.639   0.536   5.062 -1.2071  0.4589  0.2804
 9323SOL     OW39604   3.613   3.290  15.924  0.5913 -0.0407  0.5385
 9323SOL    HW139605   3.611   3.385  15.931 -0.5029 -0.0955  0.9488
 9323SOL    HW239606   3.554   3.283  15.849  0.1175 -0.4751  0.9514
 9324SOL     OW39607   3.211   4.254   3.401 -0.2670  0.8541  0.3799
 9324SOL    HW139608   3.125   4.234   3.364 -0.3558 -1.8811  2.0528
 9324SOL    HW239609   3.259   4.201   3.338  0.2226  0.3674  1.1654
 9325SOL     OW39610   2.664   4.021   0.254 -0.2775 -0.2881 -0.9517
 9325SOL    HW139611   2.724   3.954   0.221  0.6819  0.3653 -0.5421
 9325SOL    HW239612   2.592   4.013   0.192 -2.0879 -2.2704  1.4054
 9326SOL     OW39613   0.471   2.803  11.173 -0.6534  0.1069  0.2164
 9326SOL    HW139614   0.409   2.829  11.105  0.3293  1.7569 -0.0561
 9326SOL    HW239615   0.500   2.722  11.131 -2.5039 -1.2203  1.4940
 9327SOL     OW39616   4.512   3.986   1.515  0.3508  0.3873  0.2630
 9327SOL    HW139617   4.420   3.979   1.541  0.7418 -1.8817  1.0902
 9327SOL    HW239618   4.540   4.047   1.582 -1.1976 -0.4223  1.6545
 9328SOL     OW39619   0.282   3.954  17.682  0.0428 -0.0446  0.2921
 9328SOL    HW139620   0.331   3.937   0.012  1.5184 -3.0590 -1.2350
 9328SOL    HW239621   0.310   3.874  17.637  0.2905  0.8007 -1.0536
 9329SOL     OW39622   3.553   2.382   2.733 -0.2310 -0.3496  0.0969
 9329SOL    HW139623   3.569   2.296   2.695  0.2898 -0.7646  1.2683
 9329SOL    HW239624   3.580   2.367   2.823 -0.0590 -2.9815 -0.3934
 9330SOL     OW39625   0.545   2.767   6.948  0.0310  0.1758 -0.2403
 9330SOL    HW139626   0.513   2.688   6.903 -0.7340 -0.0262  0.6648
 9330SOL    HW239627   0.524   2.836   6.886 -0.9842  0.3992  0.3628
 9331SOL     OW39628   2.658   0.838   9.163 -0.1042  0.0705 -0.0877
 9331SOL    HW139629   2.565   0.861   9.156  0.5300  2.7340  0.2171
 9331SOL    HW239630   2.658   0.743   9.152  1.5521  0.0861 -0.1093
 9332SOL     OW39631   2.777   0.308   9.673 -0.0839  0.2246 -0.1245
 9332SOL    HW139632   2.792   0.297   9.579 -0.2597 -0.4906 -0.0669
 9332SOL    HW239633   2.787   0.215   9.695  2.7805  0.5418 -0.0128
 9333SOL     OW39634   3.995   1.705   1.070  0.0730 -0.3894 -0.6424
 9333SOL    HW139635   4.039   1.790   1.072  2.3647 -1.6717  2.2042
 9333SOL    HW239636   4.069   1.652   1.098 -1.0404 -0.7808  1.5256
 9334SOL     OW39637   0.530   1.210   3.222  0.1233 -0.0663  0.3735
 9334SOL    HW139638   0.619   1.179   3.204  0.5367  1.2264  0.1992
 9334SOL    HW239639   0.471   1.154   3.172 -1.9358  1.4012  1.1584
 9335SOL     OW39640   2.700   3.310   9.255 -0.8097  0.2802  0.4049
 9335SOL    HW139641   2.670   3.220   9.241  0.6438 -0.2905  0.9777
 9335SOL    HW239642   2.713   3.325   9.349 -1.3351  2.4005  0.1278
 9336SOL     OW39643   0.849   1.752  11.796  0.1044 -0.0645  0.2181
 9336SOL    HW139644   0.889   1.722  11.878 -0.2870  2.2951  1.2521
 9336SOL    HW239645   0.758   1.725  11.809 -0.9623  3.1510 -0.5790
 9337SOL     OW39646   1.211   0.894  16.082 -0.1301  0.1149  0.3792
 9337SOL    HW139647   1.240   0.861  15.997 -0.1537 -1.0543  0.8288
 9337SOL    HW239648   1.142   0.836  16.113 -0.8224  0.2023 -0.9949
 9338SOL     OW39649   4.447   0.199   2.655  0.5220 -0.1814 -0.0447
 9338SOL    HW139650   4.487   0.136   2.595 -0.0000 -0.2470 -0.3285
 9338SOL    HW239651   4.352   0.186   2.652  0.7744 -2.0138 -0.4602
 9339SOL     OW39652   1.280   3.236   7.724  0.2166 -0.2382  0.5013
 9339SOL    HW139653   1.331   3.315   7.706  4.4341 -2.7420  1.6529
 9339SOL    HW239654   1.193   3.275   7.738  1.0625  2.3909 -1.5357
 9340SOL     OW39655   3.167   0.305   1.732 -0.4981  0.1818  0.0835
 9340SOL    HW139656   3.223   0.314   1.655  1.6239 -1.2744  1.4768
 9340SOL    HW239657   3.087   0.329   1.686  0.5049 -0.7144 -2.1414
 9341SOL     OW39658   1.092   4.600   4.011 -0.3433 -0.0771  0.2942
 9341SOL    HW139659   1.162   4.601   3.945 -1.5383 -1.3181 -0.9948
 9341SOL    HW239660   1.031   4.535   3.976 -1.6357  1.2688  0.0414
 9342SOL     OW39661   1.808   1.169   7.816 -0.1152  0.4041  0.4345
 9342SOL    HW139662   1.795   1.134   7.728 -1.0618  1.4270  0.1635
 9342SOL    HW239663   1.731   1.223   7.837 -2.1194 -1.8506 -1.1980
 9343SOL     OW39664   3.331   0.652   6.670 -0.9562 -0.7324 -0.1799
 9343SOL    HW139665   3.305   0.738   6.702  1.5476  0.8119 -2.2171
 9343SOL    HW239666   3.304   0.658   6.579 -1.4040 -0.2223 -0.0159
 9344SOL     OW39667   4.044   1.969  11.080  0.5181  0.9104 -0.3293
 9344SOL    HW139668   4.044   1.926  11.166 -0.3307  1.5119 -0.0235
 9344SOL    HW239669   4.120   2.026  11.092 -0.1266  1.9686 -1.2709
 9345SOL     OW39670   0.148   3.157   8.251 -0.0012 -0.3986  0.6658
 9345SOL    HW139671   0.181   3.124   8.167  0.3937  0.8997  0.3016
 9345SOL    HW239672   0.197   3.239   8.256 -1.5453  0.4945  1.0764
 9346SOL     OW39673   1.590   2.161   4.957  0.3584 -0.0413 -0.2067
 9346SOL    HW139674   1.638   2.088   4.919  0.3580  0.3656 -0.9910
 9346SOL    HW239675   1.663   2.183   5.015  0.3509  0.3672 -0.3555
 9347SOL     OW39676   1.437   1.502  16.531  0.0122  0.2436  0.5181
 9347SOL    HW139677   1.402   1.586  16.502  0.1166  0.3671  0.7483
 9347SOL    HW239678   1.517   1.529  16.576 -0.7397 -0.7044  2.4275
 9348SOL     OW39679   1.235   4.227   8.076  0.4776 -0.3734  0.0440
 9348SOL    HW139680   1.265   4.294   8.137  1.1393 -0.0935 -0.5946
 9348SOL    HW239681   1.265   4.256   7.990  0.1267  0.2736  0.1353
 9349SOL     OW39682   1.533   2.890   4.360  0.4841 -0.4280  0.2537
 9349SOL    HW139683   1.612   2.921   4.406 -0.4975 -0.6147  2.0452
 9349SOL    HW239684   1.524   2.810   4.410  0.5591  0.3269  1.4786
 9350SOL     OW39685   4.061   4.550   8.679  0.2239  0.0884  0.7462
 9350SOL    HW139686   4.126   4.499   8.630  1.9250  1.4619  1.5849
 9350SOL    HW239687   4.112   4.561   8.760 -0.2137  1.2877  0.8547
 9351SOL     OW39688   0.020   4.600   0.051 -0.1711  0.1620  0.4173
 9351SOL    HW139689   0.015   4.509   0.079  0.1688  0.2806  0.8736
 9351SOL    HW239690   4.683   4.601  17.743  0.8850 -1.5657 -0.9699
 9352SOL     OW39691   4.375   3.299   6.614 -0.2124  0.1775  0.5617
 9352SOL    HW139692   4.303   3.262   6.563  0.9222  0.0839 -0.9750
 9352SOL    HW239693   4.440   3.232   6.594 -0.6136 -0.5438  1.6520
 9353SOL     OW39694   4.309   3.288   3.855 -0.1561  0.0643  0.1443
 9353SOL    HW139695   4.314   3.328   3.942 -1.3313  1.4039 -0.4072
 9353SOL    HW239696   4.251   3.347   3.808 -0.7137 -1.1198 -0.6518
 9354SOL     OW39697   3.223   0.668  14.305  0.2542 -0.3320 -0.3977
 9354SOL    HW139698   3.129   0.681  14.319  0.1472 -0.1052 -1.3268
 9354SOL    HW239699   3.228   0.575  14.285  0.3911 -0.8912  2.2706
 9355SOL     OW39700   1.705   1.211   2.834  0.0420 -0.2992  0.6311
 9355SOL    HW139701   1.635   1.274   2.850  0.2023  0.3019 -1.0835
 9355SOL    HW239702   1.667   1.126   2.857  0.0130 -0.1848  1.0064
 9356SOL     OW39703   2.372   1.950   0.299  0.1741 -0.0678  0.1286
 9356SOL    HW139704   2.306   1.886   0.272  0.8053 -0.8338  0.3893
 9356SOL    HW239705   2.415   1.902   0.370 -0.0904 -1.9364 -0.9974
 9357SOL     OW39706   4.634   2.194   7.986  0.5424 -0.0796 -0.7171
 9357SOL    HW139707   4.697   2.223   8.053  0.7444  1.4891 -1.5777
 9357SOL    HW239708   4.653   2.101   7.996 -2.5544 -0.5618  0.6265
 9358SOL     OW39709   3.720   3.680   1.227 -0.2428 -0.4192 -0.2517
 9358SOL    HW139710   3.780   3.754   1.214 -0.9627  0.5732  2.0911
 9358SOL    HW239711   3.650   3.714   1.283  0.2249  1.7847 -0.9916
 9359SOL     OW39712   2.704   3.859   6.853  0.3529  0.7479  0.2405
 9359SOL    HW139713   2.769   3.863   6.922 -1.5966  1.4386  2.0426
 9359SOL    HW239714   2.689   3.765   6.843 -0.1669  0.9077 -0.5888
 9360SOL     OW39715   3.365   2.504   1.663  0.0529 -0.0770 -0.3051
 9360SOL    HW139716   3.281   2.459   1.669 -0.3315  0.7022  0.0863
 9360SOL    HW239717   3.424   2.429   1.674  0.5019  0.1442 -1.2604
 9361SOL     OW39718   2.808   1.109   4.896  0.2638  0.0152 -0.0253
 9361SOL    HW139719   2.801   1.014   4.901  1.2405 -0.0856 -0.6784
 9361SOL    HW239720   2.849   1.124   4.981  0.2875 -0.3605  0.0282
 9362SOL     OW39721   2.997   4.271   2.405 -0.3730 -0.0565  0.3553
 9362SOL    HW139722   3.047   4.251   2.326  0.1453  0.4436  0.5522
 9362SOL    HW239723   3.051   4.233   2.475 -0.6553  0.1612  0.6910
 9363SOL     OW39724   3.887   3.387   7.306 -0.1151 -0.2346 -0.0360
 9363SOL    HW139725   3.820   3.374   7.239  0.7509  0.7664 -1.0731
 9363SOL    HW239726   3.944   3.315   7.280 -1.0817 -1.0703  0.1231
 9364SOL     OW39727   3.909   4.206   1.962 -0.0890  0.1914  0.2343
 9364SOL    HW139728   3.819   4.240   1.962 -0.6090 -1.1486 -0.3229
 9364SOL    HW239729   3.931   4.195   2.055  3.6331  0.7626 -0.5985
 9365SOL     OW39730   0.084   2.376   6.402 -0.4550  0.0263  0.0781
 9365SOL    HW139731   0.148   2.305   6.411  1.1172  1.3668 -0.5421
 9365SOL    HW239732   0.015   2.334   6.352 -1.5455  2.6211 -0.5811
 9366SOL     OW39733   3.505   3.467   6.216  0.3691 -0.5112  0.0155
 9366SOL    HW139734   3.506   3.411   6.293 -1.7388  1.5832  1.5714
 9366SOL    HW239735   3.589   3.510   6.229 -1.3975  2.7371  0.6465
 9367SOL     OW39736   2.700   3.808   4.193 -0.9241  0.2470 -0.0871
 9367SOL    HW139737   2.672   3.867   4.263  0.7124 -1.7360  2.2496
 9367SOL    HW239738   2.638   3.736   4.191 -0.3950 -0.3174  3.2929
 9368SOL     OW39739   2.137   3.988   6.462  0.3069  0.2834 -0.0952
 9368SOL    HW139740   2.210   3.953   6.512 -2.0723 -0.1789  3.0406
 9368SOL    HW239741   2.187   4.047   6.405  0.1108  0.4269 -0.1211
 9369SOL     OW39742   4.108   3.119   3.098 -0.1532 -0.2846 -0.3153
 9369SOL    HW139743   4.171   3.125   3.026  0.9994  1.2555  0.8254
 9369SOL    HW239744   4.099   3.212   3.120 -0.9792 -0.4266 -0.0536
 9370SOL     OW39745   1.085   1.119   6.955 -0.3909 -0.3680  0.5728
 9370SOL    HW139746   1.039   1.165   7.025 -2.2091 -1.0928 -0.1346
 9370SOL    HW239747   1.091   1.180   6.881 -1.9089  1.6404  2.1324
 9371SOL     OW39748   1.425   4.070  13.422  0.1127 -0.2671  0.4922
 9371SOL    HW139749   1.380   4.074  13.337 -0.4364 -0.0538  0.7926
 9371SOL    HW239750   1.474   4.153  13.419 -1.2567  0.5266  0.0257
 9372SOL     OW39751   3.359   3.595   2.753  0.6133  0.2761  0.4283
 9372SOL    HW139752   3.338   3.600   2.847 -1.5539 -0.8079 -0.0007
 9372SOL    HW239753   3.329   3.679   2.721  0.8527  0.6305  1.1250
 9373SOL     OW39754   2.569   3.708  10.299 -0.1222 -0.0603  0.2743
 9373SOL    HW139755   2.572   3.694  10.394 -1.4030 -1.3339  0.1153
 9373SOL    HW239756   2.542   3.800  10.306  0.9065  0.1843  1.2851
 9374SOL     OW39757   2.902   2.624   8.130 -0.0769 -0.3310  0.4247
 9374SOL    HW139758   2.951   2.686   8.184 -0.7867  0.6241 -0.0094
 9374SOL    HW239759   2.835   2.599   8.193 -0.8102  0.5727  0.0036
 9375SOL     OW39760   3.571   1.310   2.310  0.2109  0.2728 -0.7925
 9375SOL    HW139761   3.625   1.320   2.389  1.2820  0.3689 -1.5272
 9375SOL    HW239762   3.539   1.400   2.307  0.2145  0.3039  0.2293
 9376SOL     OW39763   2.705   3.532  13.915 -0.0675 -0.0275  0.0057
 9376SOL    HW139764   2.666   3.445  13.901  1.5850 -0.0856 -4.2116
 9376SOL    HW239765   2.652   3.574  13.846  0.7259  1.5071  0.3489
 9377SOL     OW39766   1.232   3.933   6.857  0.4351 -0.0947 -0.4687
 9377SOL    HW139767   1.238   3.842   6.887 -1.3561 -0.5503 -1.4916
 9377SOL    HW239768   1.317   3.972   6.878 -0.7908  2.4016 -0.0596
 9378SOL     OW39769   1.957   0.153   8.910 -0.0066 -0.1183 -0.2490
 9378SOL    HW139770   2.041   0.113   8.888 -0.2124  0.2637 -1.7171
 9378SOL    HW239771   1.975   0.206   8.988 -0.8707 -1.4069  0.8257
 9379SOL     OW39772   4.007   0.020  15.673  0.5751  0.2527  0.5635
 9379SOL    HW139773   3.924   0.045  15.632  1.3054 -0.1148 -1.1611
 9379SOL    HW239774   4.045   0.105  15.693  0.9302  0.6135 -1.6169
 9380SOL     OW39775   1.311   0.444   7.139  0.6976 -0.7042 -0.0442
 9380SOL    HW139776   1.335   0.458   7.048  1.1165  1.9550  0.4936
 9380SOL    HW239777   1.335   0.528   7.179  0.4412 -1.4543  1.6948
 9381SOL     OW39778   0.850   1.079   1.663 -0.0763 -0.1985 -0.1570
 9381SOL    HW139779   0.871   1.003   1.608  1.2192 -0.0156  0.0858
 9381SOL    HW239780   0.835   1.137   1.588 -1.2228  1.0720  1.0447
 9382SOL     OW39781   3.813   4.282   5.515  0.5472  0.0491  0.0775
 9382SOL    HW139782   3.840   4.318   5.599  2.7696  0.6121 -0.8681
 9382SOL    HW239783   3.754   4.212   5.544  0.8561 -1.2711 -2.4732
 9383SOL     OW39784   2.812   3.105   6.909 -0.0640 -0.4587 -0.2419
 9383SOL    HW139785   2.874   3.042   6.946  0.2572 -0.3544 -0.6001
 9383SOL    HW239786   2.845   3.123   6.821 -0.0680 -0.8999 -0.3315
 9384SOL     OW39787   3.577   2.314   0.759  0.6436 -0.2233 -0.0491
 9384SOL    HW139788   3.590   2.265   0.840  0.4425  1.2295  0.8717
 9384SOL    HW239789   3.593   2.402   0.793  0.7604  0.1784 -1.1520
 9385SOL     OW39790   2.682   1.259   3.557 -0.1894  0.3079 -0.0079
 9385SOL    HW139791   2.722   1.266   3.470  0.7863 -0.3890  0.3909
 9385SOL    HW239792   2.761   1.264   3.610  0.1105  0.0263 -0.4255
 9386SOL     OW39793   2.338   4.089   5.362 -0.1548  0.2972  0.4867
 9386SOL    HW139794   2.395   4.015   5.385 -1.7876 -0.2381  2.7439
 9386SOL    HW239795   2.337   4.149   5.436  0.3082  0.1228  0.6394
 9387SOL     OW39796   3.221   4.598  16.895 -0.1098  0.5287 -1.0314
 9387SOL    HW139797   3.165   4.620  16.821 -1.1317 -2.3672 -1.1231
 9387SOL    HW239798   3.307   4.628  16.865 -0.5486  1.4297 -1.4009
 9388SOL     OW39799   4.216   1.522  17.569 -0.6348 -0.4001  0.2092
 9388SOL    HW139800   4.212   1.428  17.552 -0.6632 -0.2697 -0.4831
 9388SOL    HW239801   4.126   1.551  17.555 -0.3707 -0.7654 -2.3016
 9389SOL     OW39802   3.385   0.780   7.270 -0.1092 -0.1253  0.8845
 9389SOL    HW139803   3.447   0.731   7.324 -0.8192 -0.3641  1.4915
 9389SOL    HW239804   3.425   0.761   7.185 -0.3347  0.6115  0.6151
 9390SOL     OW39805   0.841   3.420   2.576 -0.1284 -0.1752 -0.6017
 9390SOL    HW139806   0.832   3.472   2.497 -0.7595 -0.6801 -0.8599
 9390SOL    HW239807   0.909   3.473   2.618 -0.0863 -0.5616 -0.1821
 9391SOL     OW39808   3.528   4.306   5.331  0.8368 -0.2138 -0.5046
 9391SOL    HW139809   3.501   4.215   5.319  0.1680 -0.1522  0.5357
 9391SOL    HW239810   3.510   4.315   5.424  0.4641  0.3756 -0.6298
 9392SOL     OW39811   0.814   4.620   8.929 -0.0271 -0.8026  0.9511
 9392SOL    HW139812   0.726   4.591   8.955 -0.2201 -1.1032 -0.0543
 9392SOL    HW239813   0.792   4.697   8.876  1.3156  2.0110  4.4044
 9393SOL     OW39814   2.694   4.087  10.532  0.1345 -0.0528  0.3646
 9393SOL    HW139815   2.681   4.084  10.627 -0.7263 -1.4974  0.2093
 9393SOL    HW239816   2.602   4.070  10.513  0.0631  2.3179 -1.4234
 9394SOL     OW39817   2.045   4.355   7.370 -0.2578 -0.3257 -0.0643
 9394SOL    HW139818   1.952   4.344   7.352 -0.4765  0.0168  0.8745
 9394SOL    HW239819   2.053   4.387   7.460  0.8592 -3.0231  0.8147
 9395SOL     OW39820   4.460   0.186   9.528  0.3235  0.5174 -0.3147
 9395SOL    HW139821   4.466   0.125   9.454  0.6294 -0.2237  0.3181
 9395SOL    HW239822   4.402   0.141   9.589 -0.5312 -0.5633 -1.9360
 9396SOL     OW39823   4.393   0.470   4.637  0.5964 -0.4339 -0.2120
 9396SOL    HW139824   4.350   0.555   4.638  0.4465 -0.5040 -1.0285
 9396SOL    HW239825   4.353   0.426   4.712  0.1875 -1.2392 -0.9115
 9397SOL     OW39826   2.563   2.688   1.975  0.2621  0.0373 -0.2710
 9397SOL    HW139827   2.624   2.752   2.012 -1.0815  1.5416 -0.6225
 9397SOL    HW239828   2.621   2.627   1.930 -0.2079  0.1978 -1.1008
 9398SOL     OW39829   3.729   4.103   3.749  0.2128  0.1202 -0.1421
 9398SOL    HW139830   3.645   4.143   3.771 -0.5783 -0.2084 -2.5608
 9398SOL    HW239831   3.694   4.017   3.725 -1.7442  0.5372  1.1314
 9399SOL     OW39832   4.573   3.354   7.356  0.0617  0.8855  0.2032
 9399SOL    HW139833   4.627   3.311   7.422 -0.8601 -0.5264  0.0201
 9399SOL    HW239834   4.642   3.402   7.311  0.1619 -1.6593 -2.3165
 9400SOL     OW39835   3.647   3.713   8.133  0.4611  0.1032  0.0491
 9400SOL    HW139836   3.736   3.692   8.105 -0.5598  0.3028 -3.2736
 9400SOL    HW239837   3.595   3.725   8.054  0.6316 -2.9141 -0.4949
 9401SOL     OW39838   4.678   2.620   8.726  0.1989  0.7494 -0.1208
 9401SOL    HW139839   4.727   2.630   8.808 -0.7272  3.5610  0.0654
 9401SOL    HW239840   4.719   2.538   8.698 -0.0770  0.4692  0.2992
 9402SOL     OW39841   3.266   0.016   4.857 -0.0233 -0.4726 -0.1066
 9402SOL    HW139842   3.348   0.020   4.807 -1.9303 -2.5181 -3.4473
 9402SOL    HW239843   3.274   0.091   4.915 -2.2803 -2.1463  2.3758
 9403SOL     OW39844   0.805   3.659   8.882 -0.0708 -0.2590  0.2985
 9403SOL    HW139845   0.711   3.651   8.867 -0.1565 -2.0025  1.8413
 9403SOL    HW239846   0.818   3.616   8.966  1.2337 -0.6533 -0.0997
 9404SOL     OW39847   3.371   4.392   6.409 -0.4384 -0.5623 -0.2637
 9404SOL    HW139848   3.308   4.463   6.395 -1.6050 -1.6490 -0.5650
 9404SOL    HW239849   3.328   4.314   6.371  1.3301 -3.7539  4.3356
 9405SOL     OW39850   3.082   4.055   4.014  0.4900  0.1927  0.5803
 9405SOL    HW139851   3.060   3.990   4.080 -1.1800 -1.1086 -1.2609
 9405SOL    HW239852   3.177   4.042   4.006  0.4271  1.3094 -2.1461
 9406SOL     OW39853   4.579   4.346   0.711  0.1708  0.2443 -0.4458
 9406SOL    HW139854   4.489   4.334   0.682 -0.9197  1.6644  2.3464
 9406SOL    HW239855   4.625   4.305   0.638  0.4600 -0.3098  0.0504
 9407SOL     OW39856   3.906   1.667   2.516 -0.5739 -0.6097 -0.5858
 9407SOL    HW139857   3.859   1.654   2.434 -0.2248 -0.4415 -0.8091
 9407SOL    HW239858   3.986   1.710   2.487  0.8216 -4.0758 -1.7696
 9408SOL     OW39859   3.609   0.591  16.255 -0.0063 -0.4400 -0.2902
 9408SOL    HW139860   3.576   0.505  16.283 -1.9966  0.1007 -0.9730
 9408SOL    HW239861   3.546   0.629  16.193  0.2234  1.2172  0.5189
 9409SOL     OW39862   3.068   3.082   4.451 -0.1432 -0.2310  0.5132
 9409SOL    HW139863   2.973   3.095   4.455 -0.1079 -0.2110  1.2768
 9409SOL    HW239864   3.087   2.990   4.471 -1.8213 -0.7365 -0.1475
 9410SOL     OW39865   0.701   0.279   6.865 -0.2666  0.1819  0.5323
 9410SOL    HW139866   0.757   0.290   6.941 -1.8199  1.8691  1.4327
 9410SOL    HW239867   0.650   0.204   6.898 -2.0210  1.6790  1.2302
 9411SOL     OW39868   1.469   4.476   7.887 -0.9592  0.1402 -0.3737
 9411SOL    HW139869   1.536   4.496   7.952 -0.9499 -1.8210  0.2295
 9411SOL    HW239870   1.491   4.546   7.826 -1.2385  1.5311  1.1199
 9412SOL     OW39871   2.472   0.306   6.512  0.1421  0.2767  0.0330
 9412SOL    HW139872   2.384   0.296   6.474  0.2379 -0.6311  0.0492
 9412SOL    HW239873   2.525   0.339   6.440  1.8105  0.5821  1.4129
 9413SOL     OW39874   0.645   3.541   4.763 -0.6325  0.4292 -0.3039
 9413SOL    HW139875   0.599   3.502   4.838  0.1180 -0.2832 -0.2060
 9413SOL    HW239876   0.705   3.596   4.814 -1.3154  1.1229 -0.2459
 9414SOL     OW39877   0.539   0.104   2.376  0.2962  0.2417 -0.0678
 9414SOL    HW139878   0.624   0.065   2.355 -0.0360  0.2034 -1.3463
 9414SOL    HW239879   0.514   0.045   2.448 -1.3122  0.9348 -0.0591
 9415SOL     OW39880   3.286   2.207   7.152  0.0341 -0.0443 -0.0619
 9415SOL    HW139881   3.372   2.168   7.168  0.2437 -0.5104 -2.4013
 9415SOL    HW239882   3.249   2.126   7.117 -1.3954 -0.4666  2.4401
 9416SOL     OW39883   1.862   2.491   7.199  0.7038  0.3015  0.3563
 9416SOL    HW139884   1.826   2.414   7.155 -0.1917  0.9917 -0.1067
 9416SOL    HW239885   1.901   2.447   7.275  2.2495 -0.4471 -0.8631
 9417SOL     OW39886   1.092   1.555  14.301 -0.5419  0.7807 -0.5481
 9417SOL    HW139887   1.079   1.478  14.246 -1.5355 -0.0941  0.9069
 9417SOL    HW239888   1.011   1.555  14.352 -0.2227 -0.2738 -0.0404
 9418SOL     OW39889   0.945   1.523   1.686  0.5961 -0.5083 -0.3216
 9418SOL    HW139890   0.907   1.485   1.607 -1.0490 -0.8490  0.6185
 9418SOL    HW239891   0.920   1.455   1.749 -0.3645  0.3315  0.2104
 9419SOL     OW39892   2.444   1.900   7.807 -0.3069  0.1274  0.2727
 9419SOL    HW139893   2.463   1.818   7.761 -3.0796 -0.6748  0.5674
 9419SOL    HW239894   2.510   1.961   7.773 -0.4948 -0.3411 -0.9191
 9420SOL     OW39895   4.209   1.355   3.889  0.1603 -0.1705  0.0781
 9420SOL    HW139896   4.299   1.377   3.865  0.4087 -1.0432  0.2120
 9420SOL    HW239897   4.234   1.271   3.927  3.3048  0.8924  0.3623
 9421SOL     OW39898   1.159   3.150   6.924  0.2264  0.2154  0.1819
 9421SOL    HW139899   1.146   3.244   6.925 -2.6082 -0.1833  0.1545
 9421SOL    HW239900   1.108   3.129   7.002 -0.6809 -0.5577 -0.6166
 9422SOL     OW39901   2.004   2.756   0.881  0.1749  0.2572 -0.2613
 9422SOL    HW139902   2.074   2.729   0.821  1.6465  1.8017  0.7440
 9422SOL    HW239903   2.057   2.805   0.945 -0.6382 -0.1248  0.7058
 9423SOL     OW39904   2.849   4.152   9.105 -0.2086  0.3115 -0.0833
 9423SOL    HW139905   2.788   4.087   9.071  0.0545 -0.3796  0.7652
 9423SOL    HW239906   2.799   4.180   9.182  1.0550  0.6968  0.6049
 9424SOL     OW39907   2.286   0.794   3.219  0.3952 -0.3132  0.5806
 9424SOL    HW139908   2.216   0.833   3.165 -0.3407 -1.6295  0.5930
 9424SOL    HW239909   2.332   0.872   3.249 -0.2848  0.8763 -1.3867
 9425SOL     OW39910   4.200   2.419  17.218 -0.1236  0.2422 -0.0049
 9425SOL    HW139911   4.291   2.419  17.188 -1.0627  0.5679 -2.8676
 9425SOL    HW239912   4.212   2.438  17.311 -1.1210 -0.1447  0.1964
 9426SOL     OW39913   4.269   0.949   0.113  0.3914 -0.3283  0.2440
 9426SOL    HW139914   4.340   0.886   0.099  0.4666 -0.1147 -0.3215
 9426SOL    HW239915   4.318   1.030   0.125 -1.1624  0.0847  3.8152
 9427SOL     OW39916   1.043   0.906  15.778 -0.7919  0.6666 -0.7800
 9427SOL    HW139917   1.058   0.864  15.694  1.7760 -0.0982  0.0699
 9427SOL    HW239918   1.118   0.964  15.791  0.6572 -1.2211 -0.7475
 9428SOL     OW39919   0.997   3.743   6.768  0.6527 -0.2498 -1.0673
 9428SOL    HW139920   1.092   3.742   6.767  0.6339 -2.6167  0.6143
 9428SOL    HW239921   0.973   3.779   6.854 -1.5538  1.9717 -2.5904
 9429SOL     OW39922   2.166   1.253   7.220  0.1044  0.0354  0.4297
 9429SOL    HW139923   2.240   1.250   7.281  0.6717 -1.2752 -0.3006
 9429SOL    HW239924   2.107   1.183   7.249 -0.8079  1.4592  1.9966
 9430SOL     OW39925   0.545   2.207   1.656 -0.2536 -0.4051  1.2178
 9430SOL    HW139926   0.519   2.153   1.581 -0.0045  0.1719  0.7090
 9430SOL    HW239927   0.511   2.289   1.618  1.5221 -0.4588 -0.5120
 9431SOL     OW39928   1.555   1.505  16.043 -0.4524 -0.3444  0.2545
 9431SOL    HW139929   1.512   1.485  16.126  0.0267 -2.8265 -0.1107
 9431SOL    HW239930   1.617   1.568  16.080 -1.6526  0.2352  1.2672
 9432SOL     OW39931   3.046   2.197  11.796  0.4628 -0.1170  0.1935
 9432SOL    HW139932   3.025   2.291  11.795 -5.0358 -1.4198 -1.4580
 9432SOL    HW239933   2.957   2.167  11.813  0.7663  0.1379  2.2568
 9433SOL     OW39934   3.755   3.626   9.370 -0.0022 -0.6037 -0.0001
 9433SOL    HW139935   3.827   3.662   9.421 -1.9341  2.0963  0.8257
 9433SOL    HW239936   3.755   3.531   9.383 -5.3606 -0.5964 -0.0107
 9434SOL     OW39937   0.123   3.408   4.863 -0.6196 -0.4313 -0.1372
 9434SOL    HW139938   0.135   3.462   4.784 -1.5027 -0.0580 -0.0151
 9434SOL    HW239939   0.191   3.344   4.842 -0.0751  0.4853 -1.2094
 9435SOL     OW39940   2.422   1.230  10.554  0.8319  0.1907 -0.3894
 9435SOL    HW139941   2.388   1.284  10.626  0.5730 -0.0218 -0.3537
 9435SOL    HW239942   2.375   1.274  10.483 -4.2589 -2.1075  1.5617
 9436SOL     OW39943   0.625   1.580   8.086  0.3904  0.3740  0.2376
 9436SOL    HW139944   0.620   1.645   8.155 -0.7618 -0.4915  0.9777
 9436SOL    HW239945   0.584   1.505   8.129  0.0773 -0.3053 -1.2129
 9437SOL     OW39946   0.883   0.806  13.467 -0.6673  0.0032  0.2426
 9437SOL    HW139947   0.901   0.718  13.433 -0.4618  0.5107 -0.9412
 9437SOL    HW239948   0.963   0.858  13.466  0.4192 -1.5935  1.8443
 9438SOL     OW39949   4.466   0.863  12.661 -0.0437 -0.3015  0.0041
 9438SOL    HW139950   4.541   0.857  12.720  0.5570 -0.8541 -0.8153
 9438SOL    HW239951   4.389   0.846  12.717 -0.7859  1.1676 -0.5708
 9439SOL     OW39952   2.802   4.645  15.365  0.1509  0.2129  0.3340
 9439SOL    HW139953   2.714   4.641  15.404  0.1442 -2.8962  0.0634
 9439SOL    HW239954   2.829   4.553  15.361  2.6595  0.9461  0.3997
 9440SOL     OW39955   1.322   2.462   8.762 -0.0584  0.3167 -0.2654
 9440SOL    HW139956   1.310   2.525   8.691 -0.4127  0.5752  0.0254
 9440SOL    HW239957   1.232   2.435   8.780 -0.1703 -0.5838 -2.2364
 9441SOL     OW39958   3.381   1.091   8.420 -0.0896  0.2211 -0.3702
 9441SOL    HW139959   3.396   0.998   8.401 -1.0281 -0.0524  0.2734
 9441SOL    HW239960   3.326   1.089   8.498 -0.5116  1.9664 -0.6353
 9442SOL     OW39961   0.032   3.570   3.559  0.1358 -0.5151  0.3041
 9442SOL    HW139962   4.681   3.582   3.526 -0.3048  2.1426  2.4737
 9442SOL    HW239963   0.075   3.626   3.494 -1.0342 -1.1669 -1.0465
 9443SOL     OW39964   4.205   0.868   2.664  0.0663  0.3092  0.0149
 9443SOL    HW139965   4.287   0.826   2.689  0.0766 -0.9752 -2.1537
 9443SOL    HW239966   4.225   0.954   2.625  0.0616 -0.2090 -1.1301
 9444SOL     OW39967   1.297   1.834   7.094  0.1674 -0.2788  0.4079
 9444SOL    HW139968   1.268   1.847   7.004 -1.0627  1.5152  1.0869
 9444SOL    HW239969   1.318   1.924   7.119 -0.7779 -0.2823  1.1997
 9445SOL     OW39970   4.190   3.985  12.821  0.3852 -0.1447  0.4257
 9445SOL    HW139971   4.160   4.002  12.911 -3.1578  0.4739 -0.8482
 9445SOL    HW239972   4.208   3.894  12.845  1.0495  0.3313  1.7484
 9446SOL     OW39973   0.759   4.572   2.656 -0.3980 -0.2082  0.1209
 9446SOL    HW139974   0.689   4.579   2.720 -0.1560 -2.1342  0.5964
 9446SOL    HW239975   0.816   4.505   2.695 -1.3230 -0.1970  1.4852
 9447SOL     OW39976   0.368   0.459   5.209 -0.4645 -0.2336 -0.0471
 9447SOL    HW139977   0.278   0.470   5.180 -0.6605 -1.7571 -0.0202
 9447SOL    HW239978   0.358   0.460   5.304 -2.0073 -0.4577 -0.2116
 9448SOL     OW39979   4.346   1.673   4.064  0.6823  0.1290  0.2795
 9448SOL    HW139980   4.406   1.747   4.076  1.9358 -0.8226 -0.0869
 9448SOL    HW239981   4.307   1.696   3.980 -0.3491 -0.9130  0.4729
 9449SOL     OW39982   3.809   2.105   4.334 -0.7687  0.1715  0.6025
 9449SOL    HW139983   3.800   2.046   4.259 -2.1721 -1.2870  1.9036
 9449SOL    HW239984   3.730   2.087   4.386 -0.8362 -0.6559  0.2210
 9450SOL     OW39985   2.122   0.027   5.132 -0.4039  0.3824  0.1486
 9450SOL    HW139986   2.107   0.030   5.038  2.0403  1.2302 -0.1934
 9450SOL    HW239987   2.033   0.028   5.168 -0.4560 -1.0004  0.0826
 9451SOL     OW39988   2.249   2.352  10.829 -0.2537  0.6062 -0.3441
 9451SOL    HW139989   2.329   2.400  10.808 -0.2647  0.5245 -0.5761
 9451SOL    HW239990   2.274   2.322  10.916 -2.6862  1.2213  0.5636
 9452SOL     OW39991   3.984   0.821   5.558 -0.4371  0.1009 -0.0054
 9452SOL    HW139992   3.994   0.873   5.639 -0.9016  0.1877 -0.0058
 9452SOL    HW239993   3.899   0.846   5.522 -0.2178  0.9796  0.0868
 9453SOL     OW39994   1.711   1.738   6.440  0.6081  0.0651  0.2379
 9453SOL    HW139995   1.719   1.645   6.422  0.0679 -0.2768  1.7142
 9453SOL    HW239996   1.738   1.768   6.353 -3.3245  0.4021 -0.8521
 9454SOL     OW39997   0.985   1.206   3.578 -0.0860  0.7136  0.0243
 9454SOL    HW139998   0.993   1.281   3.519 -1.2353  1.5749  0.9621
 9454SOL    HW239999   1.070   1.204   3.622  0.3498 -0.5993 -0.8841
 9455SOL     OW40000   2.387   2.369   6.969  0.0432  0.4723  0.1666
 9455SOL    HW140001   2.359   2.371   6.878 -0.2204  0.1172  0.2384
 9455SOL    HW240002   2.319   2.323   7.018 -1.1818  0.2979 -1.7199
 9456SOL     OW40003   1.621   1.801  12.308  0.1078 -0.7255 -0.0289
 9456SOL    HW140004   1.712   1.773  12.310 -0.2140 -1.7662  0.0007
 9456SOL    HW240005   1.634   1.895  12.326 -2.3204 -0.6841  1.4889
 9457SOL     OW40006   4.148   1.835  14.739 -0.1838  0.5842 -0.7124
 9457SOL    HW140007   4.114   1.920  14.768 -3.2716 -0.3965 -1.3814
 9457SOL    HW240008   4.223   1.820  14.796 -1.2312  1.1639  0.8201
 9458SOL     OW40009   4.013   1.845  13.693  0.0228  0.5677  0.2642
 9458SOL    HW140010   4.023   1.920  13.635  1.6388  1.8470  2.2254
 9458SOL    HW240011   3.979   1.883  13.774 -0.7185 -1.0713  0.7383
 9459SOL     OW40012   2.976   4.485   7.127 -0.4274  0.2929 -0.2878
 9459SOL    HW140013   2.899   4.503   7.072 -0.5788 -0.3411 -0.2840
 9459SOL    HW240014   2.935   4.520   7.205 -1.3598 -2.8639  0.6351
 9460SOL     OW40015   1.149   0.140   6.980 -0.0328  0.1121 -0.7917
 9460SOL    HW140016   1.228   0.190   6.961  0.3099 -1.2325 -2.8846
 9460SOL    HW240017   1.101   0.194   6.917 -0.5452  0.5163 -0.0533
 9461SOL     OW40018   2.815   3.174  16.572  0.5135 -0.1971  0.2437
 9461SOL    HW140019   2.870   3.169  16.494  1.2753 -0.2029  0.7850
 9461SOL    HW240020   2.881   3.203  16.634  0.1062 -0.8746  0.9936
 9462SOL     OW40021   1.576   4.535   9.033 -0.1286 -0.1748  0.3829
 9462SOL    HW140022   1.591   4.621   8.995 -0.1889 -0.7976 -1.0410
 9462SOL    HW240023   1.545   4.497   8.951  1.0897 -0.0642 -0.1378
 9463SOL     OW40024   3.346   2.720   1.485  0.1475 -0.2189  0.3668
 9463SOL    HW140025   3.366   2.668   1.563  0.6781 -3.0588 -1.6708
 9463SOL    HW240026   3.386   2.804   1.507 -0.4959  0.1746  0.0130
 9464SOL     OW40027   1.210   1.113   0.774 -0.2036 -1.3551  0.0025
 9464SOL    HW140028   1.216   1.208   0.763 -0.0206 -1.3651  0.0047
 9464SOL    HW240029   1.179   1.094   0.863 -0.5737  0.3191  0.2425
 9465SOL     OW40030   0.075   0.106   6.637 -0.3393 -0.8456 -0.0030
 9465SOL    HW140031   0.005   0.105   6.702 -0.1610  1.7958  0.2361
 9465SOL    HW240032   0.129   0.030   6.659  1.0728 -0.2142 -1.2663
 9466SOL     OW40033   0.624   3.061   8.666 -0.3100 -0.9281  0.3687
 9466SOL    HW140034   0.580   3.001   8.728 -0.4936  0.9725  2.0666
 9466SOL    HW240035   0.549   3.084   8.611 -0.7946  0.2054  1.5124
 9467SOL     OW40036   2.299   1.609   1.370  0.3107 -0.8883  0.0036
 9467SOL    HW140037   2.323   1.657   1.449 -0.6073  1.1416 -0.9534
 9467SOL    HW240038   2.284   1.518   1.397 -0.6273  0.1216  2.7943
 9468SOL     OW40039   3.057   3.036   3.841 -0.2969 -0.4737 -0.1870
 9468SOL    HW140040   3.090   3.083   3.917  0.7091  0.3462 -1.1304
 9468SOL    HW240041   3.090   3.090   3.769 -1.9421 -0.5763 -1.0225
 9469SOL     OW40042   3.641   1.933   1.350  0.9122 -0.3356  0.2874
 9469SOL    HW140043   3.736   1.935   1.336  0.7407 -1.3137 -0.9961
 9469SOL    HW240044   3.631   1.928   1.445 -1.3374 -0.2752  0.0476
 9470SOL     OW40045   3.668   1.185   9.594  0.0051 -0.0019 -0.0386
 9470SOL    HW140046   3.605   1.235   9.542  1.3408 -0.7652 -2.3787
 9470SOL    HW240047   3.730   1.258   9.602 -2.5423  2.1084  0.4562
 9471SOL     OW40048   0.588   0.015   4.459 -0.4606  0.1899  0.2801
 9471SOL    HW140049   0.550   4.665   4.462  0.4475 -0.1441  1.5056
 9471SOL    HW240050   0.623   0.020   4.547 -0.2800  2.1860  0.0970
 9472SOL     OW40051   2.669   0.837   1.403  0.4630  0.5826  0.0387
 9472SOL    HW140052   2.624   0.877   1.478  1.2150 -0.0784  0.8388
 9472SOL    HW240053   2.725   0.903   1.361  0.6477  1.5495  1.7579
 9473SOL     OW40054   4.718   4.619   7.324  0.0936 -0.2359  0.1105
 9473SOL    HW140055   0.043   4.688   7.340 -0.1324  0.1502 -0.7122
 9473SOL    HW240056   0.043   4.548   7.338 -1.1087 -1.4389 -0.5836
 9474SOL     OW40057   0.205   0.903   8.867  0.2130  0.3091 -0.5854
 9474SOL    HW140058   0.214   0.828   8.924  0.2016  1.7581  1.3246
 9474SOL    HW240059   0.283   0.890   8.814  0.7656 -1.2136  0.6319
 9475SOL     OW40060   1.358   0.828   7.458  0.3845  0.1051 -0.5448
 9475SOL    HW140061   1.311   0.772   7.520 -1.1550  2.8326  0.7231
 9475SOL    HW240062   1.448   0.844   7.485  0.7333 -0.3035 -1.4512
 9476SOL     OW40063   2.039   3.846   7.817  0.7698 -0.4030 -0.3563
 9476SOL    HW140064   1.954   3.864   7.777  0.0512 -0.0032  1.3260
 9476SOL    HW240065   2.032   3.763   7.864  2.1427 -1.5697 -2.2188
 9477SOL     OW40066   0.093   1.161  10.544  0.1459 -0.7361 -0.2021
 9477SOL    HW140067   0.169   1.110  10.514  0.7615  0.9558 -1.5250
 9477SOL    HW240068   0.069   1.118  10.626 -1.1409  1.4071  0.5271
 9478SOL     OW40069   0.103   0.701   3.889 -0.4134  0.0145  0.1038
 9478SOL    HW140070   0.169   0.652   3.937 -0.5019 -0.4895 -0.2994
 9478SOL    HW240071   0.046   0.739   3.957 -0.9748  0.4554 -0.6172
 9479SOL     OW40072   2.422   2.873   1.815 -0.0686 -0.2237  0.2922
 9479SOL    HW140073   2.439   2.793   1.866 -0.2852 -0.2882  0.2616
 9479SOL    HW240074   2.492   2.870   1.750  0.6497  0.4903  1.0376
 9480SOL     OW40075   4.381   3.325   0.417 -0.1843  0.4007  0.3695
 9480SOL    HW140076   4.338   3.313   0.333 -0.8143  2.4597  0.4080
 9480SOL    HW240077   4.460   3.370   0.385 -0.1898 -0.6530 -1.1132
 9481SOL     OW40078   1.314   0.489  13.934 -1.0670 -0.4935  0.1967
 9481SOL    HW140079   1.379   0.457  13.871  0.7031  2.3361  0.5859
 9481SOL    HW240080   1.366   0.492  14.014 -1.4923  1.8883  0.3878
 9482SOL     OW40081   0.074   2.184   0.081 -0.1595  0.3051 -0.0160
 9482SOL    HW140082   4.722   2.208   0.104  0.2216  0.5335  1.2428
 9482SOL    HW240083   0.058   2.159  17.741 -1.8645  0.5900  0.2151
 9483SOL     OW40084   1.610   0.763   1.448 -0.6289  0.7864  0.3272
 9483SOL    HW140085   1.635   0.841   1.497  0.3107  0.7702 -0.1112
 9483SOL    HW240086   1.627   0.698   1.516  0.8993  0.1350 -0.6609
 9484SOL     OW40087   2.697   3.563  13.581 -0.2989 -0.8208  0.5545
 9484SOL    HW140088   2.739   3.493  13.631  2.7011 -0.5206 -1.4945
 9484SOL    HW240089   2.628   3.591  13.641 -0.5018 -1.7033  0.7372
 9485SOL     OW40090   3.469   0.411  10.972  0.1587  0.0061  0.0218
 9485SOL    HW140091   3.532   0.478  10.946 -0.2311 -0.0652 -1.0898
 9485SOL    HW240092   3.511   0.374  11.050 -0.5377  0.7526  0.7587
 9486SOL     OW40093   4.493   0.859   5.690  0.6780 -0.3519 -0.2455
 9486SOL    HW140094   4.575   0.811   5.690  1.1112  0.3855  0.4643
 9486SOL    HW240095   4.479   0.851   5.595 -1.0958  1.8318 -0.1750
 9487SOL     OW40096   3.526   2.364  14.994 -0.2088 -0.0843 -0.4001
 9487SOL    HW140097   3.600   2.424  14.992  0.7815 -1.3339 -1.0585
 9487SOL    HW240098   3.476   2.407  14.924 -2.2048 -0.7300  0.6123
 9488SOL     OW40099   4.572   0.965   0.427  0.2872 -0.6409  0.1029
 9488SOL    HW140100   4.511   0.913   0.374 -0.0576  0.3238 -0.4355
 9488SOL    HW240101   4.533   0.961   0.515 -1.7443  1.4284 -0.7003
 9489SOL     OW40102   4.031   3.369   0.575 -0.1106  0.3713  0.5091
 9489SOL    HW140103   4.050   3.399   0.486  0.9229  0.3045  0.6994
 9489SOL    HW240104   3.987   3.284   0.568  1.8613 -0.7214  1.1540
 9490SOL     OW40105   1.499   0.596   2.382  0.0403 -0.0836 -0.0246
 9490SOL    HW140106   1.411   0.604   2.345  1.0715  0.5062 -2.3646
 9490SOL    HW240107   1.519   0.503   2.383 -0.5624 -0.2208 -0.3713
 9491SOL     OW40108   4.395   3.041  16.428 -0.8006 -0.5528 -0.1833
 9491SOL    HW140109   4.358   3.092  16.356  1.1204  0.7942 -0.1970
 9491SOL    HW240110   4.457   2.983  16.384 -0.2212  1.1800 -1.6562
 9492SOL     OW40111   0.626   1.809   3.749 -0.1325  0.2684  0.3631
 9492SOL    HW140112   0.575   1.731   3.726 -1.2193  0.9857  0.3400
 9492SOL    HW240113   0.555   1.872   3.759  0.3547  1.0736 -1.2599
 9493SOL     OW40114   2.824   1.127   3.789  0.0076  0.7874  0.3372
 9493SOL    HW140115   2.847   1.100   3.877 -0.1291  0.6124  0.3187
 9493SOL    HW240116   2.879   1.205   3.781  0.2788  0.5660  0.0757
 9494SOL     OW40117   3.406   3.161   1.955  0.4313 -0.0447  0.4736
 9494SOL    HW140118   3.465   3.139   1.883 -0.3805  0.0661 -0.2277
 9494SOL    HW240119   3.457   3.137   2.033  1.1727 -1.5070 -0.4626
 9495SOL     OW40120   1.821   1.056   2.513 -0.2492  0.3276  0.6393
 9495SOL    HW140121   1.859   1.144   2.509  0.3337  0.0249 -0.7816
 9495SOL    HW240122   1.779   1.065   2.427  0.4643 -0.2840  0.2249
 9496SOL     OW40123   1.931   3.023  17.581  0.1310 -0.3720 -0.2807
 9496SOL    HW140124   1.908   3.060  17.496 -0.6305 -1.8562 -0.7329
 9496SOL    HW240125   2.017   3.063  17.592 -0.3742  1.1420 -1.8045
 9497SOL     OW40126   0.748   0.685   3.024  0.3858  0.1537 -0.7659
 9497SOL    HW140127   0.795   0.730   2.953 -0.6206  3.2557  0.5059
 9497SOL    HW240128   0.677   0.630   2.990  0.9714 -1.3291  0.4655
 9498SOL     OW40129   2.461   1.564  16.362  0.5755 -0.0378  0.4809
 9498SOL    HW140130   2.428   1.646  16.398  0.7577 -0.2467  1.1119
 9498SOL    HW240131   2.553   1.563  16.388  0.6538 -0.1578  0.2064
 9499SOL     OW40132   1.212   1.833   4.437 -0.5078  0.2496 -0.4383
 9499SOL    HW140133   1.130   1.788   4.455  0.2812 -0.9131  0.3107
 9499SOL    HW240134   1.246   1.825   4.526  0.3950  0.4862 -0.7631
 9500SOL     OW40135   2.262   0.555   3.580 -0.3354  0.6411 -0.4893
 9500SOL    HW140136   2.257   0.506   3.663 -1.1904  0.3378 -0.7227
 9500SOL    HW240137   2.329   0.507   3.531 -0.2645  1.5658 -1.2755
 9501SOL     OW40138   0.990   2.477  14.028 -0.3822  0.1429  0.3651
 9501SOL    HW140139   1.020   2.480  14.119 -1.6129  0.4571  0.7528
 9501SOL    HW240140   0.927   2.549  14.027  0.5754  0.9516 -2.2174
 9502SOL     OW40141   4.027   4.416   2.333  0.5354  0.1021 -0.1730
 9502SOL    HW140142   4.114   4.417   2.294  0.5846 -0.3350 -0.0633
 9502SOL    HW240143   3.981   4.491   2.295  0.3108  0.7705  1.4037
 9503SOL     OW40144   2.013   0.477   2.808  0.0014 -0.3833 -0.3314
 9503SOL    HW140145   2.012   0.488   2.713 -1.2169  2.6024  0.0324
 9503SOL    HW240146   1.937   0.528   2.835 -0.9833 -1.9101 -0.2480
 9504SOL     OW40147   1.378   1.464   4.879 -0.5021  0.0992 -0.0228
 9504SOL    HW140148   1.303   1.415   4.844  1.3926 -1.9702 -1.1266
 9504SOL    HW240149   1.441   1.393   4.867 -1.9842 -1.3934  0.9689
 9505SOL     OW40150   4.465   0.473   9.111  0.2089  0.1434 -0.5706
 9505SOL    HW140151   4.468   0.491   9.205 -0.0483 -2.4726 -0.0757
 9505SOL    HW240152   4.501   0.385   9.101 -2.9566 -1.2471  0.3831
 9506SOL     OW40153   4.500   0.226   4.049 -0.2889  0.3374  0.1822
 9506SOL    HW140154   4.569   0.280   4.088  0.3276  1.2207 -2.1501
 9506SOL    HW240155   4.459   0.294   3.997 -0.2626 -0.8235 -1.3541
 9507SOL     OW40156   2.086   1.467  17.404 -0.3156  0.3345  0.3309
 9507SOL    HW140157   2.018   1.501  17.463  0.9213  0.6317  1.5652
 9507SOL    HW240158   2.045   1.386  17.375  0.0655  0.7928 -1.5131
 9508SOL     OW40159   0.970   1.966  14.209 -0.3122 -0.0697  0.3817
 9508SOL    HW140160   0.956   2.057  14.235  2.3960  1.0980 -2.3180
 9508SOL    HW240161   1.033   1.966  14.137  0.5025 -1.9019  1.1079
 9509SOL     OW40162   3.610   0.130   1.928  0.2736 -0.1819  0.3123
 9509SOL    HW140163   3.704   0.134   1.945  0.4273  1.4332 -0.9530
 9509SOL    HW240164   3.581   0.221   1.935  1.1798 -0.0022  1.6754
 9510SOL     OW40165   0.359   0.883  15.795  0.3774  0.1029 -0.1592
 9510SOL    HW140166   0.288   0.893  15.731  0.5397 -1.5211 -0.5898
 9510SOL    HW240167   0.418   0.815  15.762  0.7472 -0.0900  0.9145
 9511SOL     OW40168   4.660   0.926   2.937  1.4905  0.2414  0.1841
 9511SOL    HW140169   0.001   0.889   2.975  0.6079 -2.7556 -0.8737
 9511SOL    HW240170   4.653   0.876   2.856  1.4497  1.0835 -0.3241
 9512SOL     OW40171   0.387   0.303   7.314 -0.1603 -0.5548  0.1215
 9512SOL    HW140172   0.455   0.345   7.367 -0.1789 -0.8750  0.4031
 9512SOL    HW240173   0.434   0.300   7.231  1.2873 -0.9080  0.9419
 9513SOL     OW40174   1.498   3.165  13.232  0.0264  0.0730  0.0833
 9513SOL    HW140175   1.577   3.122  13.201  0.3707 -0.2466  1.4519
 9513SOL    HW240176   1.532   3.255  13.235  0.6433 -0.1797  0.4839
 9514SOL     OW40177   1.439   0.157  10.871  1.1729  0.2954 -0.1612
 9514SOL    HW140178   1.417   0.229  10.930  1.1546 -1.3928  1.8725
 9514SOL    HW240179   1.447   0.189  10.781 -0.9020  0.2056 -0.3730
 9515SOL     OW40180   1.467   4.193   6.122  0.2495  0.0566 -0.2566
 9515SOL    HW140181   1.412   4.127   6.080 -1.4611  1.0615  0.4329
 9515SOL    HW240182   1.446   4.265   6.062 -1.0093 -1.1295 -1.2448
 9516SOL     OW40183   2.905   3.686   9.138 -0.5570  0.4106 -0.1870
 9516SOL    HW140184   2.886   3.650   9.225 -1.1214 -1.9902 -1.2937
 9516SOL    HW240185   2.881   3.614   9.080 -1.5334  1.9324 -1.6473
 9517SOL     OW40186   3.127   0.962   3.596 -0.5752 -0.3398 -0.2143
 9517SOL    HW140187   3.137   0.912   3.514 -2.0102 -1.0637  0.0534
 9517SOL    HW240188   3.213   0.943   3.634 -1.4240 -1.9891  0.8991
 9518SOL     OW40189   1.764   0.778   4.089  0.2850  0.2103 -0.4092
 9518SOL    HW140190   1.777   0.854   4.146 -0.5000 -0.1679  0.2936
 9518SOL    HW240191   1.787   0.812   4.003  0.0539  0.7458 -0.2618
 9519SOL     OW40192   4.148   3.827   9.678  0.8750 -0.1180  0.0191
 9519SOL    HW140193   4.106   3.910   9.655  0.8541  0.0280  0.5851
 9519SOL    HW240194   4.188   3.848   9.762  1.4232 -0.4886 -0.1503
 9520SOL     OW40195   2.161   2.146   5.816 -0.1356 -0.4075 -0.4212
 9520SOL    HW140196   2.220   2.213   5.851 -2.5912  1.5537 -0.0591
 9520SOL    HW240197   2.200   2.128   5.730  1.7390  2.0560 -0.0779
 9521SOL     OW40198   3.478   3.696   7.422  0.6969  0.0413  0.0781
 9521SOL    HW140199   3.433   3.620   7.457  1.3814 -0.3374  0.1343
 9521SOL    HW240200   3.566   3.660   7.415  0.9627  0.9814 -1.3498
 9522SOL     OW40201   2.445   2.794   2.878  0.2271  0.3702  0.3531
 9522SOL    HW140202   2.374   2.730   2.882  1.1946 -0.6830  0.4491
 9522SOL    HW240203   2.506   2.736   2.834 -0.3232 -0.1215  0.2310
 9523SOL     OW40204   4.289   2.030   4.412  0.1373 -0.1233  0.2900
 9523SOL    HW140205   4.338   2.038   4.494 -0.4430 -0.2053  0.6501
 9523SOL    HW240206   4.318   1.944   4.381  0.8492  0.2623 -0.1001
 9524SOL     OW40207   1.134   4.038   0.592 -0.3153 -0.2317 -0.2409
 9524SOL    HW140208   1.201   4.038   0.660  1.4750 -0.0334 -2.0242
 9524SOL    HW240209   1.190   4.039   0.515  1.4291 -0.3132  1.0385
 9525SOL     OW40210   2.776   0.703   7.220  0.2586  0.0712  0.0496
 9525SOL    HW140211   2.806   0.625   7.173  1.8568  2.0038 -2.0857
 9525SOL    HW240212   2.811   0.683   7.307 -2.4050  0.6039  1.2388
 9526SOL     OW40213   1.213   3.863   4.908 -0.0706  0.2480 -0.4412
 9526SOL    HW140214   1.149   3.831   4.972  0.3208 -1.1156 -0.7319
 9526SOL    HW240215   1.154   3.935   4.885  1.2184  0.9357 -1.6303
 9527SOL     OW40216   4.460   4.579  15.222  0.1121  0.1436  0.3587
 9527SOL    HW140217   4.508   4.563  15.141 -1.5669  1.3535 -0.8497
 9527SOL    HW240218   4.533   4.616  15.273 -0.9426  1.3270  1.0349
 9528SOL     OW40219   4.239   2.161   1.037 -0.0630 -0.4139  0.1091
 9528SOL    HW140220   4.214   2.253   1.039  0.5103 -0.2567  0.0084
 9528SOL    HW240221   4.332   2.169   1.056  0.2727  1.3199 -2.2345
 9529SOL     OW40222   3.805   1.339   4.649 -0.4685  0.2439  0.9638
 9529SOL    HW140223   3.742   1.291   4.595  0.6369 -0.7798  0.6022
 9529SOL    HW240224   3.839   1.404   4.588 -0.1490 -1.0611 -0.2261
 9530SOL     OW40225   0.156   2.461   2.904 -0.0673  0.3927 -0.3653
 9530SOL    HW140226   0.064   2.437   2.917 -0.2821  1.2494 -0.2751
 9530SOL    HW240227   0.192   2.471   2.992 -0.1837  0.7736 -0.3598
 9531SOL     OW40228   0.405   0.987   9.790  0.0743 -0.4277  0.7585
 9531SOL    HW140229   0.364   0.922   9.847 -1.4237 -0.9644 -0.9535
 9531SOL    HW240230   0.443   0.922   9.731  0.6466  2.4102 -2.0123
 9532SOL     OW40231   3.514   2.221   8.759  0.3447  0.2055 -0.0947
 9532SOL    HW140232   3.526   2.316   8.760 -0.1710  0.2895 -1.7813
 9532SOL    HW240233   3.420   2.216   8.774  0.7608 -1.5595  1.9092
 9533SOL     OW40234   1.503   3.260   8.153 -0.4035  0.2271 -0.5017
 9533SOL    HW140235   1.476   3.193   8.216  0.9621 -0.1802 -0.3680
 9533SOL    HW240236   1.556   3.317   8.208 -0.3703 -1.4361  1.2003
 9534SOL     OW40237   1.202   4.002   7.400  0.3329 -0.1390 -0.1391
 9534SOL    HW140238   1.175   3.945   7.328  1.1094  3.2714 -3.1162
 9534SOL    HW240239   1.136   3.973   7.463  1.7326 -0.0499  1.3652
 9535SOL     OW40240   1.470   1.370   2.889 -0.4573 -0.0837  0.6585
 9535SOL    HW140241   1.377   1.354   2.901 -0.4118  0.2131  1.4202
 9535SOL    HW240242   1.486   1.380   2.983  1.3015  2.6288  0.0923
 9536SOL     OW40243   1.727   4.155   2.114 -0.4102  0.3748  0.4679
 9536SOL    HW140244   1.816   4.189   2.108  0.5103 -2.6157 -2.9165
 9536SOL    HW240245   1.743   4.065   2.140  1.0509 -0.2041 -2.5428
 9537SOL     OW40246   1.954   4.602   4.414 -0.1161 -0.3459 -0.3651
 9537SOL    HW140247   1.867   4.614   4.375 -0.6106 -1.4849  0.3842
 9537SOL    HW240248   1.961   4.507   4.425  2.4734 -0.0547  0.4807
 9538SOL     OW40249   2.412   1.161  15.100 -0.0293 -0.1564 -0.4752
 9538SOL    HW140250   2.350   1.105  15.053  1.4998  0.1650 -2.8704
 9538SOL    HW240251   2.482   1.169  15.035  1.0405  0.8253  0.8135
 9539SOL     OW40252   3.385   2.814  14.485 -0.0216 -0.4872 -0.4263
 9539SOL    HW140253   3.294   2.843  14.491 -0.2736 -2.4534  4.5757
 9539SOL    HW240254   3.374   2.757  14.408 -1.5051  2.4695 -2.4173
 9540SOL     OW40255   1.687   3.740  13.770  0.1159 -0.6227 -0.4447
 9540SOL    HW140256   1.600   3.699  13.769  0.7152 -1.8482 -1.4883
 9540SOL    HW240257   1.707   3.753  13.863  1.4768 -1.7181 -0.5816
 9541SOL     OW40258   1.380   0.524   8.419  0.2306  0.5654 -0.3701
 9541SOL    HW140259   1.300   0.472   8.407  1.3814 -1.9454  2.9481
 9541SOL    HW240260   1.342   0.609   8.398  0.0441  0.1144 -1.9042
 9542SOL     OW40261   1.844   1.480  14.445 -0.0176  0.3373 -0.3702
 9542SOL    HW140262   1.754   1.472  14.474  0.4373  1.4065  1.2959
 9542SOL    HW240263   1.846   1.542  14.372  0.3975 -1.0713 -1.5606
 9543SOL     OW40264   4.708   3.914  16.718  0.5827 -0.3909 -0.6879
 9543SOL    HW140265   0.034   3.846  16.699 -0.3819 -1.7527  1.0735
 9543SOL    HW240266   4.670   3.918  16.630  0.8373  0.4286 -0.7623
 9544SOL     OW40267   2.233   3.532   4.326 -0.4544  0.5499 -0.1072
 9544SOL    HW140268   2.255   3.604   4.385  3.0033 -0.4254 -0.2148
 9544SOL    HW240269   2.152   3.576   4.297 -0.1773  1.1706  0.0590
 9545SOL     OW40270   3.563   4.267   9.037 -0.8004  0.3872  0.3040
 9545SOL    HW140271   3.487   4.249   8.981  1.0398 -0.3294 -1.9226
 9545SOL    HW240272   3.625   4.292   8.968  1.0418 -1.5447  1.2754
 9546SOL     OW40273   3.918   3.814   4.284  0.0229  0.2367 -0.2745
 9546SOL    HW140274   3.886   3.760   4.212 -2.6176  0.6695  0.5498
 9546SOL    HW240275   4.007   3.833   4.256  0.0511 -1.3535 -1.2205
 9547SOL     OW40276   3.019   2.778   6.335  0.2768 -0.2620 -0.1565
 9547SOL    HW140277   3.068   2.857   6.313 -0.3009  0.2092  0.2328
 9547SOL    HW240278   3.061   2.711   6.282 -0.7348 -0.9112 -0.1513
 9548SOL     OW40279   4.736   0.897   4.800 -0.2151 -0.6647 -0.1488
 9548SOL    HW140280   0.018   0.808   4.828 -2.1855 -1.6095 -1.6669
 9548SOL    HW240281   0.076   0.903   4.745 -0.9258  0.0127 -1.0979
 9549SOL     OW40282   3.778   2.967  12.240  0.2773 -0.3641  0.5390
 9549SOL    HW140283   3.797   3.054  12.275  0.9741 -0.0748 -0.5400
 9549SOL    HW240284   3.683   2.968  12.248  0.4437 -2.8766  2.6091
 9550SOL     OW40285   4.235   1.027  11.515 -0.3653  0.5527  0.4770
 9550SOL    HW140286   4.144   1.018  11.543 -1.5325 -2.1129 -4.1892
 9550SOL    HW240287   4.239   0.991  11.427 -1.1453 -1.8647  1.4465
 9551SOL     OW40288   1.531   0.501   6.462 -0.0222  0.1668  0.1989
 9551SOL    HW140289   1.553   0.452   6.383 -1.5632  0.7256 -0.5778
 9551SOL    HW240290   1.472   0.439   6.504 -1.2892  0.7127 -0.7868
 9552SOL     OW40291   3.043   4.622  16.690  0.0360  0.1717 -0.2832
 9552SOL    HW140292   3.045   4.662  16.603  4.0426  0.6017  0.0082
 9552SOL    HW240293   3.005   4.542  16.654 -0.0431 -0.1740  0.5779
 9553SOL     OW40294   2.979   4.583   7.652  0.2187  0.0180 -0.3119
 9553SOL    HW140295   2.967   4.552   7.741 -1.3398  0.2299 -0.4593
 9553SOL    HW240296   2.960   4.675   7.670 -0.5663  0.1375 -1.7679
 9554SOL     OW40297   3.801   0.312   7.686  0.2272 -0.7185 -0.3936
 9554SOL    HW140298   3.841   0.318   7.773 -0.1948  2.1047 -0.4042
 9554SOL    HW240299   3.726   0.261   7.715  0.2819 -0.4406  0.2274
 9555SOL     OW40300   1.944   2.334   2.761  0.4283 -0.1073 -0.5657
 9555SOL    HW140301   1.976   2.259   2.711  0.8349  0.3337 -0.9619
 9555SOL    HW240302   2.015   2.399   2.766 -0.4612  0.9476 -2.0337
 9556SOL     OW40303   0.891   4.370   2.790 -0.2582 -0.7604 -0.4573
 9556SOL    HW140304   0.957   4.304   2.770 -0.4399 -0.6681 -1.3685
 9556SOL    HW240305   0.854   4.336   2.872  0.1021 -0.1603 -0.0435
 9557SOL     OW40306   1.689   2.207   7.245 -0.4762  0.2642  0.0274
 9557SOL    HW140307   1.736   2.134   7.286 -1.3442  0.2644  1.0087
 9557SOL    HW240308   1.676   2.277   7.308  0.2597  0.0538  0.4157
 9558SOL     OW40309   0.433   0.019  10.500  0.3398  0.4276  0.0665
 9558SOL    HW140310   0.526   0.041  10.498  0.4539 -0.3831 -3.3040
 9558SOL    HW240311   0.417   4.736  10.592  0.7927 -1.9453 -0.4180
 9559SOL     OW40312   3.800   1.292   6.450  0.8435  0.7599 -0.3375
 9559SOL    HW140313   3.710   1.311   6.422  0.4683  0.1246  0.4596
 9559SOL    HW240314   3.806   1.204   6.485 -1.0334  1.5666  1.9607
 9560SOL     OW40315   0.773   3.039  10.789 -0.2297  0.2172 -0.7158
 9560SOL    HW140316   0.809   3.113  10.837  0.7057  0.8432 -2.3828
 9560SOL    HW240317   0.857   2.994  10.782 -1.2353 -1.6694 -0.5565
 9561SOL     OW40318   1.182   0.587   2.301 -0.2052  0.2770  0.0707
 9561SOL    HW140319   1.095   0.583   2.341  0.2228  0.4746  1.0351
 9561SOL    HW240320   1.179   0.535   2.221  0.3466 -1.4769  1.1736
 9562SOL     OW40321   1.050   4.086   6.707 -0.6116  0.0813 -0.6246
 9562SOL    HW140322   1.083   4.029   6.777 -0.3693 -0.6304 -1.3181
 9562SOL    HW240323   0.997   4.027   6.654 -0.5671 -1.1370  0.6773
 9563SOL     OW40324   3.530   1.258   1.913  0.0912 -0.0731 -0.2462
 9563SOL    HW140325   3.553   1.227   1.826  0.5159 -0.7427  0.1036
 9563SOL    HW240326   3.446   1.300   1.896  0.1710  0.8517  1.5645
 9564SOL     OW40327   0.368   0.897   1.195  0.1249  0.0402 -0.6089
 9564SOL    HW140328   0.439   0.837   1.215  1.4333  1.7946  0.0439
 9564SOL    HW240329   0.322   0.904   1.278  0.8841  1.4716 -0.2899
 9565SOL     OW40330   1.125   1.606   6.011  0.3003 -0.0365 -0.3010
 9565SOL    HW140331   1.073   1.683   6.038  2.9896  1.3230  0.9805
 9565SOL    HW240332   1.054   1.546   5.986 -0.1448 -0.1246  1.1740
 9566SOL     OW40333   0.813   0.670   2.360 -0.3596  0.5323  0.2895
 9566SOL    HW140334   0.880   0.733   2.334 -1.7626  1.7051 -0.4664
 9566SOL    HW240335   0.739   0.686   2.302  1.1735 -0.6096 -1.9696
 9567SOL     OW40336   4.342   1.529   1.585  0.1742  0.7027 -0.0414
 9567SOL    HW140337   4.352   1.622   1.608  1.6865 -0.0601  2.2892
 9567SOL    HW240338   4.280   1.517   1.656  1.2102 -1.2632  0.5174
 9568SOL     OW40339   2.694   3.531   3.773  0.4116 -0.0932 -0.4878
 9568SOL    HW140340   2.731   3.603   3.823  1.2066  1.4307 -3.3127
 9568SOL    HW240341   2.630   3.499   3.837 -0.6639 -0.7850 -1.8863
 9569SOL     OW40342   2.890   3.551   2.729  0.5996  0.3864  0.0104
 9569SOL    HW140343   2.897   3.562   2.824  1.1274 -0.6261  0.0875
 9569SOL    HW240344   2.915   3.635   2.691 -1.5908  0.7719 -0.6025
   4.73805   4.73805  17.75028
